 Entering Gaussian System, Link 0=g09
 Initial command:
 /global/software/gaussian/g09.e01/l1.exe "/scratch/10501385.yak.local/Gau-2629.inp" -scrdir="/scratch/10501385.yak.local/"
 Entering Link 1 = /global/software/gaussian/g09.e01/l1.exe PID=      2630.
  
 Copyright (c) 1988,1990,1992,1993,1995,1998,2003,2009,2015,
            Gaussian, Inc.  All Rights Reserved.
  
 This is part of the Gaussian(R) 09 program.  It is based on
 the Gaussian(R) 03 system (copyright 2003, Gaussian, Inc.),
 the Gaussian(R) 98 system (copyright 1998, Gaussian, Inc.),
 the Gaussian(R) 94 system (copyright 1995, Gaussian, Inc.),
 the Gaussian 92(TM) system (copyright 1992, Gaussian, Inc.),
 the Gaussian 90(TM) system (copyright 1990, Gaussian, Inc.),
 the Gaussian 88(TM) system (copyright 1988, Gaussian, Inc.),
 the Gaussian 86(TM) system (copyright 1986, Carnegie Mellon
 University), and the Gaussian 82(TM) system (copyright 1983,
 Carnegie Mellon University). Gaussian is a federally registered
 trademark of Gaussian, Inc.
  
 This software contains proprietary and confidential information,
 including trade secrets, belonging to Gaussian, Inc.
  
 This software is provided under written license and may be
 used, copied, transmitted, or stored only in accord with that
 written license.
  
 The following legend is applicable only to US Government
 contracts under FAR:
  
                    RESTRICTED RIGHTS LEGEND
  
 Use, reproduction and disclosure by the US Government is
 subject to restrictions as set forth in subparagraphs (a)
 and (c) of the Commercial Computer Software - Restricted
 Rights clause in FAR 52.227-19.
  
 Gaussian, Inc.
 340 Quinnipiac St., Bldg. 40, Wallingford CT 06492
  
  
 ---------------------------------------------------------------
 Warning -- This program may not be used in any manner that
 competes with the business of Gaussian, Inc. or will provide
 assistance to any competitor of Gaussian, Inc.  The licensee
 of this program is prohibited from giving any competitor of
 Gaussian, Inc. access to this program.  By using this program,
 the user acknowledges that Gaussian, Inc. is engaged in the
 business of creating and licensing software in the field of
 computational chemistry and represents and warrants to the
 licensee that it is not a competitor of Gaussian, Inc. and that
 it will not use this program in any manner prohibited above.
 ---------------------------------------------------------------
  

 Cite this work as:
 Gaussian 09, Revision E.01,
 M. J. Frisch, G. W. Trucks, H. B. Schlegel, G. E. Scuseria, 
 M. A. Robb, J. R. Cheeseman, G. Scalmani, V. Barone, B. Mennucci, 
 G. A. Petersson, H. Nakatsuji, M. Caricato, X. Li, H. P. Hratchian, 
 A. F. Izmaylov, J. Bloino, G. Zheng, J. L. Sonnenberg, M. Hada, 
 M. Ehara, K. Toyota, R. Fukuda, J. Hasegawa, M. Ishida, T. Nakajima, 
 Y. Honda, O. Kitao, H. Nakai, T. Vreven, J. A. Montgomery, Jr., 
 J. E. Peralta, F. Ogliaro, M. Bearpark, J. J. Heyd, E. Brothers, 
 K. N. Kudin, V. N. Staroverov, T. Keith, R. Kobayashi, J. Normand, 
 K. Raghavachari, A. Rendell, J. C. Burant, S. S. Iyengar, J. Tomasi, 
 M. Cossi, N. Rega, J. M. Millam, M. Klene, J. E. Knox, J. B. Cross, 
 V. Bakken, C. Adamo, J. Jaramillo, R. Gomperts, R. E. Stratmann, 
 O. Yazyev, A. J. Austin, R. Cammi, C. Pomelli, J. W. Ochterski, 
 R. L. Martin, K. Morokuma, V. G. Zakrzewski, G. A. Voth, 
 P. Salvador, J. J. Dannenberg, S. Dapprich, A. D. Daniels, 
 O. Farkas, J. B. Foresman, J. V. Ortiz, J. Cioslowski, 
 and D. J. Fox, Gaussian, Inc., Wallingford CT, 2013.
 
 ******************************************
 Gaussian 09:  ES64L-G09RevE.01 30-Nov-2015
                31-Jan-2017 
 ******************************************
 %NPROCS=4
 Will use up to    4 processors via shared memory.
 ----------------------------------------------------------------------
 # opt=(calcfc,ts,noeigentest,maxcycle=1000,cartesian) b3lyp 6-31g(d) f
 req
 ----------------------------------------------------------------------
 1/5=1,6=1000,10=4,11=1,14=-1,18=10,26=3,38=1/1,3;
 2/12=2,17=6,18=5,29=2,40=1/2;
 3/5=1,6=6,7=1,11=2,16=1,25=1,30=1,71=2,74=-5,140=1/1,2,3;
 4//1;
 5/5=2,38=5/2;
 8/6=4,10=90,11=11/1;
 11/6=1,8=1,9=11,15=111,16=1/1,2,10;
 10/6=1,13=1/2;
 6/7=2,8=2,9=2,10=2,28=1/1;
 7/7=1,10=1,18=20,25=1/1,2,3,16;
 1/5=1,6=1000,10=4,11=1,14=-1,18=10,26=3/3(2);
 2/29=1/2;
 99/12=1/99;
 2/29=1/2;
 3/5=1,6=6,7=1,11=2,16=1,25=1,30=1,71=1,74=-5/1,2,3;
 4/5=5,16=3,69=1/1;
 5/5=2,38=5/2;
 7/7=1/1,2,3,16;
 1/5=1,6=1000,11=1,14=-1,18=10,26=3/3(-5);
 2/29=1/2;
 6/7=2,8=2,9=2,10=2,19=2,28=1/1;
 99/9=1,12=1/99;
 ------------------------------------------
 ./3/glo_2w_beta_boat3_b3lyp_631Gd_iopt.out
 ------------------------------------------
 Symbolic Z-matrix:
 Charge =  0 Multiplicity = 1
 C                     1.74707   0.74813   0.45051 
 C                     0.54668  -1.38082  -0.35753 
 O                    -0.65176   0.30144   0.95745 
 C                    -0.47788  -1.12742   0.74891 
 C                     0.29167   1.24958   0.44145 
 C                     1.8778   -0.72566   0.0038 
 H                    -0.11835  -1.55963   1.68939 
 H                     2.28104  -1.27582   0.86497 
 H                     0.16306  -0.95112  -1.29602 
 H                     0.2291    2.09946   1.13771 
 H                     2.30641   1.383    -0.25109 
 C                    -0.12169   1.79414  -0.94422 
 H                    -1.2128    1.8996   -0.98401 
 H                     0.16768   1.11198  -1.74733 
 O                    -1.71569  -1.69205   0.50879 
 H                    -2.05139  -1.35777  -0.35988 
 O                     0.55376   3.01839  -1.21845 
 H                     0.12011   3.71762  -0.70516 
 O                     0.71596  -2.77926  -0.49536 
 H                     1.48314  -2.88347  -1.08361 
 O                     2.71749  -0.909    -1.13873 
 H                     3.63513  -0.75668  -0.8645 
 O                     2.32759   0.80386   1.75577 
 H                     2.30166   1.72578   2.05704 
 O                    -2.90659  -0.21646  -1.47575 
 H                    -3.65919  -0.56581  -1.97603 
 H                    -3.29552   0.22201  -0.67646 
 O                    -3.4661    0.64688   1.05432 
 H                    -3.638    -0.2481    1.39187 
 H                    -2.49125   0.70086   1.1612 
 

 GradGradGradGradGradGradGradGradGradGradGradGradGradGradGradGradGradGrad
 Berny optimization.
 Initialization pass.
 No Z-matrix variables, so optimization will use Cartesian coordinates.
 Trust Radius=3.00D-01 FncErr=1.00D-07 GrdErr=1.00D-06
 Number of steps in this run=    180 maximum allowed number of steps=    180.
 Search for a saddle point of order  1.
 GradGradGradGradGradGradGradGradGradGradGradGradGradGradGradGradGradGrad

 ---------------------------------------------------------------------------------------------------
                            Z-MATRIX (ANGSTROMS AND DEGREES)
   CD    Cent   Atom    N1       Length/X        N2       Alpha/Y        N3        Beta/Z          J
 ---------------------------------------------------------------------------------------------------
      1      1  C        0   1.747070          0.748130          0.450510
      2      2  C        0   0.546680         -1.380820         -0.357530
      3      3  O        0  -0.651760          0.301440          0.957450
      4      4  C        0  -0.477880         -1.127420          0.748910
      5      5  C        0   0.291670          1.249580          0.441450
      6      6  C        0   1.877800         -0.725660          0.003800
      7      7  H        0  -0.118350         -1.559630          1.689390
      8      8  H        0   2.281040         -1.275820          0.864970
      9      9  H        0   0.163060         -0.951120         -1.296020
     10     10  H        0   0.229100          2.099460          1.137710
     11     11  H        0   2.306410          1.383000         -0.251090
     12     12  C        0  -0.121690          1.794140         -0.944220
     13     13  H        0  -1.212800          1.899600         -0.984010
     14     14  H        0   0.167680          1.111980         -1.747330
     15     15  O        0  -1.715690         -1.692050          0.508790
     16     16  H        0  -2.051390         -1.357770         -0.359880
     17     17  O        0   0.553760          3.018390         -1.218450
     18     18  H        0   0.120110          3.717620         -0.705160
     19     19  O        0   0.715960         -2.779260         -0.495360
     20     20  H        0   1.483140         -2.883470         -1.083610
     21     21  O        0   2.717490         -0.909000         -1.138730
     22     22  H        0   3.635130         -0.756680         -0.864500
     23     23  O        0   2.327590          0.803860          1.755770
     24     24  H        0   2.301660          1.725780          2.057040
     25     25  O        0  -2.906590         -0.216460         -1.475750
     26     26  H        0  -3.659190         -0.565810         -1.976030
     27     27  H        0  -3.295520          0.222010         -0.676460
     28     28  O        0  -3.466100          0.646880          1.054320
     29     29  H        0  -3.638000         -0.248100          1.391870
     30     30  H        0  -2.491250          0.700860          1.161200
 ---------------------------------------------------------------------------------------------------
                         Z-Matrix orientation:                         
 ---------------------------------------------------------------------
 Center     Atomic      Atomic             Coordinates (Angstroms)
 Number     Number       Type             X           Y           Z
 ---------------------------------------------------------------------
      1          6           0        1.747070    0.748130    0.450510
      2          6           0        0.546680   -1.380820   -0.357530
      3          8           0       -0.651760    0.301440    0.957450
      4          6           0       -0.477880   -1.127420    0.748910
      5          6           0        0.291670    1.249580    0.441450
      6          6           0        1.877800   -0.725660    0.003800
      7          1           0       -0.118350   -1.559630    1.689390
      8          1           0        2.281040   -1.275820    0.864970
      9          1           0        0.163060   -0.951120   -1.296020
     10          1           0        0.229100    2.099460    1.137710
     11          1           0        2.306410    1.383000   -0.251090
     12          6           0       -0.121690    1.794140   -0.944220
     13          1           0       -1.212800    1.899600   -0.984010
     14          1           0        0.167680    1.111980   -1.747330
     15          8           0       -1.715690   -1.692050    0.508790
     16          1           0       -2.051390   -1.357770   -0.359880
     17          8           0        0.553760    3.018390   -1.218450
     18          1           0        0.120110    3.717620   -0.705160
     19          8           0        0.715960   -2.779260   -0.495360
     20          1           0        1.483140   -2.883470   -1.083610
     21          8           0        2.717490   -0.909000   -1.138730
     22          1           0        3.635130   -0.756680   -0.864500
     23          8           0        2.327590    0.803860    1.755770
     24          1           0        2.301660    1.725780    2.057040
     25          8           0       -2.906590   -0.216460   -1.475750
     26          1           0       -3.659190   -0.565810   -1.976030
     27          1           0       -3.295520    0.222010   -0.676460
     28          8           0       -3.466100    0.646880    1.054320
     29          1           0       -3.638000   -0.248100    1.391870
     30          1           0       -2.491250    0.700860    1.161200
 ---------------------------------------------------------------------
                    Distance matrix (angstroms):
                    1          2          3          4          5
     1  C    0.000000
     2  C    2.574159   0.000000
     3  O    2.492169   2.448557   0.000000
     4  C    2.925258   1.529099   1.454429   0.000000
     5  C    1.539391   2.760870   1.433627   2.517314   0.000000
     6  C    1.545541   1.526982   2.891895   2.503164   2.570782
     7  H    3.215645   2.159657   2.069745   1.095705   3.101150
     8  H    2.133840   2.124508   3.331309   2.765345   3.242624
     9  H    2.906356   1.101168   2.703880   2.150261   2.806853
    10  H    2.145360   3.801177   2.010294   3.326220   1.100449
    11  H    1.099165   3.278213   3.373590   3.880010   2.134617
    12  C    2.555714   3.297165   2.474970   3.395449   1.545152
    13  H    3.484905   3.774838   2.576460   3.564543   2.172071
    14  H    2.730817   2.879103   2.940118   3.415095   2.196603
    15  O    4.236577   2.442477   2.303746   1.381535   3.561912
    16  H    4.418127   2.598173   2.539153   1.938662   3.595877
    17  O    3.059983   4.482665   3.683699   4.703459   2.439805
    18  H    3.577771   5.128050   3.876898   5.093753   2.726787
    19  O    3.794778   1.415375   3.670426   2.387894   4.158027
    20  H    3.951165   1.913663   4.343659   3.207404   4.563717
    21  O    2.492685   2.354847   4.148612   3.717698   3.611238
    22  H    2.749268   3.191409   4.776667   4.433666   4.112093
    23  O    1.429620   3.522855   3.125103   3.551658   2.463955
    24  H    1.960691   4.308256   3.458400   4.192588   2.622395
    25  O    5.128105   3.811984   3.357520   3.417249   4.006719
    26  H    6.069776   4.579643   4.289763   4.226279   4.974851
    27  H    5.193706   4.175318   3.108929   3.433910   3.895325
    28  O    5.248998   4.712461   2.837115   3.488678   3.854827
    29  H    5.556763   4.674933   3.067302   3.342598   4.311456
    30  H    4.297752   3.983585   1.893350   2.750682   2.926393
                    6          7          8          9         10
     6  C    0.000000
     7  H    2.742505   0.000000
     8  H    1.098586   2.552898   0.000000
     9  H    2.163492   3.059763   3.043213   0.000000
    10  H    3.461974   3.716721   3.959465   3.903004   0.000000
    11  H    2.166823   4.278317   2.883671   3.336757   2.599480
    12  C    3.353520   4.264233   4.297782   2.782319   2.133238
    13  H    4.173675   4.506790   5.070398   3.180715   2.573075
    14  H    3.060700   4.362380   4.122134   2.111891   3.049975
    15  O    3.755276   1.990690   4.034100   2.708508   4.307354
    16  H    3.996293   2.824340   4.502990   2.438342   4.404072
    17  O    4.155104   5.464937   5.075862   3.989445   2.549770
    18  H    4.830614   5.800009   5.662982   4.706176   2.454891
    19  O    2.411702   2.637556   2.561309   2.070954   5.167771
    20  H    2.448338   3.465090   2.649179   2.349831   5.597899
    21  O    1.429709   4.057533   2.083233   2.559615   4.519413
    22  H    1.960387   4.610390   2.257019   3.504181   4.875184
    23  O    2.368785   3.401928   2.262910   4.132622   2.542487
    24  H    3.225680   4.097015   3.229715   4.793998   2.297892
    25  O    5.033760   4.426793   5.789017   3.161452   4.693209
    26  H    5.882477   5.192353   6.622819   3.901342   5.649588
    27  H    5.303213   4.343489   5.976414   3.704303   4.386226
    28  O    5.616469   4.059486   6.063188   4.609610   3.971328
    29  H    5.707789   3.767833   6.030661   4.708189   4.531015
    30  H    4.739529   3.319556   5.173951   3.976472   3.058911
                   11         12         13         14         15
    11  H    0.000000
    12  C    2.558346   0.000000
    13  H    3.631651   1.096917   0.000000
    14  H    2.624186   1.092732   1.763158   0.000000
    15  O    5.119633   4.099463   3.921900   4.061988   0.000000
    16  H    5.149182   3.741622   3.420999   3.598466   0.989457
    17  O    2.584970   1.424859   2.104136   2.015731   5.506542
    18  H    3.230563   1.953303   2.271476   2.806731   5.840237
    19  O    4.462467   4.671094   5.084351   4.124292   2.846623
    20  H    4.424209   4.947216   5.491427   4.258472   3.766661
    21  O    2.492018   3.925015   4.833151   3.310028   4.793806
    22  H    2.592296   4.541666   5.529243   4.036643   5.602867
    23  O    2.088861   3.777509   4.608840   4.126967   4.912498
    24  H    2.333449   3.858090   4.650766   4.404980   5.497067
    25  O    5.588688   3.475731   2.754713   3.360007   2.744815
    26  H    6.508584   4.375832   3.612087   4.184760   3.349618
    27  H    5.736764   3.551969   2.691954   3.732635   2.750328
    28  O    5.963878   4.061459   3.286557   4.611932   2.971890
    29  H    6.379327   4.689616   4.017339   5.117382   2.561269
    30  H    5.047516   3.353039   2.770079   3.962130   2.598682
                   16         17         18         19         20
    16  H    0.000000
    17  O    5.164758   0.000000
    18  H    5.531204   0.969764   0.000000
    19  O    3.114035   5.844819   6.527519   0.000000
    20  H    3.917199   5.976109   6.750960   0.972349   0.000000
    21  O    4.852857   4.484693   5.323531   2.813880   2.329204
    22  H    5.740423   4.885824   5.692110   3.570525   3.033530
    23  O    5.322038   4.110547   4.406716   4.528100   4.729860
    24  H    5.856520   3.931263   4.044297   5.415217   5.637273
    25  O    1.810834   4.743889   5.023117   4.544445   5.151354
    26  H    2.413330   5.582953   5.852007   5.121883   5.710650
    27  H    2.035629   4.788575   4.887396   5.013222   5.713613
    28  O    2.831958   5.191225   5.038464   5.624017   6.444307
    29  H    2.611001   5.920691   5.852167   5.378232   6.268911
    30  H    2.597137   4.506192   4.404922   5.014142   5.803651
                   21         22         23         24         25
    21  O    0.000000
    22  H    0.969777   0.000000
    23  O    3.385859   3.318247   0.000000
    24  H    4.162683   4.059082   0.970244   0.000000
    25  O    5.676572   6.592387   6.235416   6.586256   0.000000
    26  H    6.440567   7.380991   7.186366   7.553064   0.968882
    27  H    6.135892   7.001936   6.154158   6.407946   0.991154
    28  O    6.742923   7.488613   5.838109   5.952859   2.731238
    29  H    6.872625   7.632056   6.068551   6.294300   2.959596
    30  H    5.917119   6.615166   4.856474   4.982467   2.822674
                   26         27         28         29         30
    26  H    0.000000
    27  H    1.562625   0.000000
    28  O    3.269698   1.790310   0.000000
    29  H    3.382919   2.148554   0.971843   0.000000
    30  H    3.579211   2.062315   0.982176   1.506243   0.000000
 Stoichiometry    C6H16O8
 Framework group  C1[X(C6H16O8)]
 Deg. of freedom    84
 Full point group                 C1      NOp   1
 Largest Abelian subgroup         C1      NOp   1
 Largest concise Abelian subgroup C1      NOp   1
                         Standard orientation:                         
 ---------------------------------------------------------------------
 Center     Atomic      Atomic             Coordinates (Angstroms)
 Number     Number       Type             X           Y           Z
 ---------------------------------------------------------------------
      1          6           0        1.747069    0.748132    0.450511
      2          6           0        0.546681   -1.380820   -0.357529
      3          8           0       -0.651760    0.301439    0.957451
      4          6           0       -0.477879   -1.127421    0.748911
      5          6           0        0.291669    1.249580    0.441451
      6          6           0        1.877801   -0.725658    0.003801
      7          1           0       -0.118349   -1.559630    1.689391
      8          1           0        2.281041   -1.275818    0.864971
      9          1           0        0.163061   -0.951120   -1.296019
     10          1           0        0.229098    2.099460    1.137711
     11          1           0        2.306409    1.383002   -0.251089
     12          6           0       -0.121692    1.794140   -0.944219
     13          1           0       -1.212802    1.899599   -0.984009
     14          1           0        0.167679    1.111980   -1.747329
     15          8           0       -1.715688   -1.692052    0.508791
     16          1           0       -2.051389   -1.357772   -0.359879
     17          8           0        0.553757    3.018390   -1.218449
     18          1           0        0.120106    3.717620   -0.705159
     19          8           0        0.715963   -2.779259   -0.495359
     20          1           0        1.483143   -2.883469   -1.083609
     21          8           0        2.717491   -0.908997   -1.138729
     22          1           0        3.635131   -0.756677   -0.864499
     23          8           0        2.327589    0.803862    1.755771
     24          1           0        2.301658    1.725782    2.057041
     25          8           0       -2.906590   -0.216463   -1.475749
     26          1           0       -3.659190   -0.565814   -1.976029
     27          1           0       -3.295520    0.222007   -0.676459
     28          8           0       -3.466101    0.646876    1.054321
     29          1           0       -3.638000   -0.248104    1.391871
     30          1           0       -2.491251    0.700857    1.161201
 ---------------------------------------------------------------------
 Rotational constants (GHZ):      0.7028496      0.5131027      0.3986267
 Standard basis: 6-31G(d) (6D, 7F)
 There are   242 symmetry adapted cartesian basis functions of A   symmetry.
 There are   242 symmetry adapted basis functions of A   symmetry.
   242 basis functions,   456 primitive gaussians,   242 cartesian basis functions
    58 alpha electrons       58 beta electrons
       nuclear repulsion energy      1106.9062752385 Hartrees.
 NAtoms=   30 NActive=   30 NUniq=   30 SFac= 1.00D+00 NAtFMM=   60 NAOKFM=F Big=F
 Integral buffers will be    131072 words long.
 Raffenetti 2 integral format.
 Two-electron integral symmetry is turned on.
 One-electron integrals computed using PRISM.
 NBasis=   242 RedAO= T EigKep=  1.30D-03  NBF=   242
 NBsUse=   242 1.00D-06 EigRej= -1.00D+00 NBFU=   242
 ExpMin= 1.61D-01 ExpMax= 5.48D+03 ExpMxC= 8.25D+02 IAcc=1 IRadAn=         1 AccDes= 0.00D+00
 Harris functional with IExCor=  402 and IRadAn=       1 diagonalized for initial guess.
 HarFok:  IExCor=  402 AccDes= 0.00D+00 IRadAn=         1 IDoV= 1 UseB2=F ITyADJ=14
 ICtDFT=  3500011 ScaDFX=  1.000000  1.000000  1.000000  1.000000
 FoFCou: FMM=F IPFlag=           0 FMFlag=      100000 FMFlg1=           0
         NFxFlg=           0 DoJE=T BraDBF=F KetDBF=T FulRan=T
         wScrn=  0.000000 ICntrl=     500 IOpCl=  0 I1Cent=   200000004 NGrid=           0
         NMat0=    1 NMatS0=      1 NMatT0=    0 NMatD0=    1 NMtDS0=    0 NMtDT0=    0
 Petite list used in FoFCou.
 Requested convergence on RMS density matrix=1.00D-08 within 128 cycles.
 Requested convergence on MAX density matrix=1.00D-06.
 Requested convergence on             energy=1.00D-06.
 No special actions if energy rises.
 Integral accuracy reduced to 1.0D-05 until final iterations.
 Initial convergence to 1.0D-05 achieved.  Increase integral accuracy.
 SCF Done:  E(RB3LYP) =  -839.984516643     A.U. after   13 cycles
            NFock= 13  Conv=0.94D-08     -V/T= 2.0085
 DoSCS=F DFT=T ScalE2(SS,OS)=  1.000000  1.000000
 Range of M.O.s used for correlation:     1   242
 NBasis=   242 NAE=    58 NBE=    58 NFC=     0 NFV=     0
 NROrb=    242 NOA=    58 NOB=    58 NVA=   184 NVB=   184
 Symmetrizing basis deriv contribution to polar:
 IMax=3 JMax=2 DiffMx= 0.00D+00
 G2DrvN: will do    31 centers at a time, making    1 passes.
 Calling FoFCou, ICntrl=  3107 FMM=F I1Cent=   0 AccDes= 0.00D+00.
 End of G2Drv F.D. properties file   721 does not exist.
 End of G2Drv F.D. properties file   722 does not exist.
 End of G2Drv F.D. properties file   788 does not exist.
          IDoAtm=111111111111111111111111111111
          Differentiating once with respect to nuclear coordinates.
          There are    93 degrees of freedom in the 1st order CPHF.  IDoFFX=6 NUNeed=     0.
     87 vectors produced by pass  0 Test12= 1.15D-14 1.08D-09 XBig12= 1.05D-01 7.06D-02.
 AX will form    87 AO Fock derivatives at one time.
     87 vectors produced by pass  1 Test12= 1.15D-14 1.08D-09 XBig12= 1.10D-02 1.21D-02.
     87 vectors produced by pass  2 Test12= 1.15D-14 1.08D-09 XBig12= 1.40D-04 1.41D-03.
     87 vectors produced by pass  3 Test12= 1.15D-14 1.08D-09 XBig12= 2.82D-07 5.77D-05.
     87 vectors produced by pass  4 Test12= 1.15D-14 1.08D-09 XBig12= 4.12D-10 1.68D-06.
     64 vectors produced by pass  5 Test12= 1.15D-14 1.08D-09 XBig12= 3.09D-13 4.74D-08.
      3 vectors produced by pass  6 Test12= 1.15D-14 1.08D-09 XBig12= 2.29D-16 1.27D-09.
 InvSVY:  IOpt=1 It=  1 EMax= 6.66D-16
 Solved reduced A of dimension   502 with    93 vectors.
 End of Minotr F.D. properties file   721 does not exist.
 End of Minotr F.D. properties file   722 does not exist.
 End of Minotr F.D. properties file   788 does not exist.

 **********************************************************************

            Population analysis using the SCF density.

 **********************************************************************

 Orbital symmetries:
       Occupied  (A) (A) (A) (A) (A) (A) (A) (A) (A) (A) (A) (A)
                 (A) (A) (A) (A) (A) (A) (A) (A) (A) (A) (A) (A)
                 (A) (A) (A) (A) (A) (A) (A) (A) (A) (A) (A) (A)
                 (A) (A) (A) (A) (A) (A) (A) (A) (A) (A) (A) (A)
                 (A) (A) (A) (A) (A) (A) (A) (A) (A) (A)
       Virtual   (A) (A) (A) (A) (A) (A) (A) (A) (A) (A) (A) (A)
                 (A) (A) (A) (A) (A) (A) (A) (A) (A) (A) (A) (A)
                 (A) (A) (A) (A) (A) (A) (A) (A) (A) (A) (A) (A)
                 (A) (A) (A) (A) (A) (A) (A) (A) (A) (A) (A) (A)
                 (A) (A) (A) (A) (A) (A) (A) (A) (A) (A) (A) (A)
                 (A) (A) (A) (A) (A) (A) (A) (A) (A) (A) (A) (A)
                 (A) (A) (A) (A) (A) (A) (A) (A) (A) (A) (A) (A)
                 (A) (A) (A) (A) (A) (A) (A) (A) (A) (A) (A) (A)
                 (A) (A) (A) (A) (A) (A) (A) (A) (A) (A) (A) (A)
                 (A) (A) (A) (A) (A) (A) (A) (A) (A) (A) (A) (A)
                 (A) (A) (A) (A) (A) (A) (A) (A) (A) (A) (A) (A)
                 (A) (A) (A) (A) (A) (A) (A) (A) (A) (A) (A) (A)
                 (A) (A) (A) (A) (A) (A) (A) (A) (A) (A) (A) (A)
                 (A) (A) (A) (A) (A) (A) (A) (A) (A) (A) (A) (A)
                 (A) (A) (A) (A) (A) (A) (A) (A) (A) (A) (A) (A)
                 (A) (A) (A) (A)
 The electronic state is 1-A.
 Alpha  occ. eigenvalues --  -19.16550 -19.16377 -19.15711 -19.15701 -19.14606
 Alpha  occ. eigenvalues --  -19.14542 -19.14226 -19.14016 -10.28574 -10.25095
 Alpha  occ. eigenvalues --  -10.24637 -10.24448 -10.23733 -10.23538  -1.06742
 Alpha  occ. eigenvalues --   -1.04180  -1.03098  -1.02620  -1.01249  -1.01035
 Alpha  occ. eigenvalues --   -0.99953  -0.99215  -0.78642  -0.76570  -0.69102
 Alpha  occ. eigenvalues --   -0.64880  -0.63594  -0.58097  -0.56239  -0.52969
 Alpha  occ. eigenvalues --   -0.52922  -0.51869  -0.51011  -0.50096  -0.49507
 Alpha  occ. eigenvalues --   -0.47727  -0.46476  -0.45302  -0.43780  -0.43565
 Alpha  occ. eigenvalues --   -0.42256  -0.40565  -0.39093  -0.38224  -0.36493
 Alpha  occ. eigenvalues --   -0.36190  -0.35366  -0.34983  -0.33672  -0.32797
 Alpha  occ. eigenvalues --   -0.31044  -0.30063  -0.29727  -0.29424  -0.28453
 Alpha  occ. eigenvalues --   -0.27063  -0.26661  -0.25483
 Alpha virt. eigenvalues --    0.05575   0.05942   0.06263   0.06609   0.08918
 Alpha virt. eigenvalues --    0.10488   0.10870   0.11327   0.12561   0.13208
 Alpha virt. eigenvalues --    0.15848   0.16775   0.17146   0.17284   0.19039
 Alpha virt. eigenvalues --    0.19841   0.20097   0.22106   0.23118   0.23978
 Alpha virt. eigenvalues --    0.24799   0.25403   0.27386   0.30018   0.30565
 Alpha virt. eigenvalues --    0.31773   0.33204   0.34884   0.51465   0.52706
 Alpha virt. eigenvalues --    0.54774   0.55954   0.57068   0.58000   0.59382
 Alpha virt. eigenvalues --    0.63143   0.63887   0.64471   0.64911   0.65459
 Alpha virt. eigenvalues --    0.69302   0.71933   0.73470   0.74245   0.74947
 Alpha virt. eigenvalues --    0.76418   0.78831   0.79296   0.80311   0.80600
 Alpha virt. eigenvalues --    0.81533   0.82203   0.82559   0.84406   0.85277
 Alpha virt. eigenvalues --    0.86748   0.87257   0.88014   0.88684   0.90159
 Alpha virt. eigenvalues --    0.91394   0.92444   0.94797   0.95534   0.96429
 Alpha virt. eigenvalues --    0.97102   0.97755   0.99665   1.00200   1.01043
 Alpha virt. eigenvalues --    1.02995   1.04784   1.04999   1.05433   1.07194
 Alpha virt. eigenvalues --    1.07809   1.10916   1.11418   1.14642   1.15044
 Alpha virt. eigenvalues --    1.18417   1.19251   1.21185   1.23014   1.25863
 Alpha virt. eigenvalues --    1.26280   1.29456   1.31826   1.34569   1.37977
 Alpha virt. eigenvalues --    1.38609   1.41549   1.43008   1.45666   1.47530
 Alpha virt. eigenvalues --    1.53971   1.54088   1.56502   1.56839   1.60838
 Alpha virt. eigenvalues --    1.62826   1.64086   1.66847   1.68761   1.70357
 Alpha virt. eigenvalues --    1.70850   1.72189   1.73193   1.73837   1.74133
 Alpha virt. eigenvalues --    1.75409   1.76220   1.77355   1.79652   1.80116
 Alpha virt. eigenvalues --    1.80212   1.82620   1.83862   1.84906   1.85975
 Alpha virt. eigenvalues --    1.87058   1.89147   1.90934   1.91854   1.96015
 Alpha virt. eigenvalues --    1.96064   1.99522   2.00642   2.03261   2.05680
 Alpha virt. eigenvalues --    2.07253   2.09408   2.11328   2.13951   2.15783
 Alpha virt. eigenvalues --    2.18595   2.18855   2.25417   2.28086   2.28800
 Alpha virt. eigenvalues --    2.29155   2.31349   2.37899   2.38038   2.39786
 Alpha virt. eigenvalues --    2.41031   2.42731   2.45062   2.46483   2.48622
 Alpha virt. eigenvalues --    2.50213   2.52558   2.55290   2.55792   2.58956
 Alpha virt. eigenvalues --    2.59230   2.60673   2.63148   2.67120   2.71706
 Alpha virt. eigenvalues --    2.72556   2.75005   2.79797   2.88477   2.89798
 Alpha virt. eigenvalues --    2.94916   2.98215   3.01164   3.01869   3.10011
 Alpha virt. eigenvalues --    3.69446   3.74909   3.75714   3.79871   3.83046
 Alpha virt. eigenvalues --    3.92475   3.96243   4.11661   4.33456   4.35654
 Alpha virt. eigenvalues --    4.39900   4.55658   4.60880   4.84831
          Condensed to atoms (all electrons):
               1          2          3          4          5          6
     1  C    5.076721  -0.035380  -0.022680  -0.012705   0.293164   0.253139
     2  C   -0.035380   5.018710  -0.031546   0.307203   0.005626   0.303657
     3  O   -0.022680  -0.031546   8.395260   0.168248   0.176175  -0.006502
     4  C   -0.012705   0.307203   0.168248   4.631358  -0.023653  -0.026513
     5  C    0.293164   0.005626   0.176175  -0.023653   5.039157  -0.033312
     6  C    0.253139   0.303657  -0.006502  -0.026513  -0.033312   5.054348
     7  H    0.000977  -0.058948  -0.045400   0.378729   0.000094  -0.008335
     8  H   -0.056495  -0.035487   0.000291  -0.006606   0.003591   0.347350
     9  H   -0.000515   0.339224   0.000426  -0.041549  -0.000211  -0.049515
    10  H   -0.040427  -0.000193  -0.035937   0.002678   0.355648   0.003850
    11  H    0.348846   0.000548   0.002951   0.000722  -0.055790  -0.039288
    12  C   -0.028608  -0.003208  -0.035826   0.000369   0.270840  -0.003679
    13  H    0.004298  -0.000129   0.003423   0.000129  -0.039302  -0.000057
    14  H   -0.008893  -0.001792   0.002637   0.000429  -0.042004   0.001890
    15  O   -0.000191  -0.030417  -0.059577   0.307537   0.003251   0.003562
    16  H    0.000012  -0.009185   0.004298  -0.023844  -0.000311   0.000252
    17  O   -0.003357   0.000052   0.001549  -0.000020  -0.038041   0.000241
    18  H   -0.000404  -0.000003   0.000018   0.000001  -0.003721  -0.000011
    19  O    0.004698   0.230185   0.001150  -0.040082  -0.000059  -0.034972
    20  H    0.000809  -0.033332  -0.000093   0.006582  -0.000065  -0.008986
    21  O   -0.040465  -0.043023  -0.000006   0.002029   0.002768   0.208836
    22  H   -0.001037   0.006181   0.000004  -0.000193   0.000031  -0.020730
    23  O    0.194080   0.000439   0.000214   0.002379  -0.029207  -0.036832
    24  H   -0.022222  -0.000291  -0.000134  -0.000016  -0.005114   0.006592
    25  O    0.000002  -0.000794  -0.000136   0.001148  -0.000310  -0.000002
    26  H    0.000000   0.000019   0.000046  -0.000036   0.000006  -0.000000
    27  H    0.000003   0.000023   0.000766  -0.000318   0.000028  -0.000002
    28  O   -0.000011  -0.000043  -0.015334   0.000158   0.000655   0.000000
    29  H   -0.000000   0.000105   0.000659   0.000433  -0.000012  -0.000003
    30  H    0.000405   0.000609   0.049863  -0.001491  -0.002357  -0.000015
               7          8          9         10         11         12
     1  C    0.000977  -0.056495  -0.000515  -0.040427   0.348846  -0.028608
     2  C   -0.058948  -0.035487   0.339224  -0.000193   0.000548  -0.003208
     3  O   -0.045400   0.000291   0.000426  -0.035937   0.002951  -0.035826
     4  C    0.378729  -0.006606  -0.041549   0.002678   0.000722   0.000369
     5  C    0.000094   0.003591  -0.000211   0.355648  -0.055790   0.270840
     6  C   -0.008335   0.347350  -0.049515   0.003850  -0.039288  -0.003679
     7  H    0.615996   0.006798   0.006686   0.000019   0.000012  -0.000216
     8  H    0.006798   0.604930   0.007242  -0.000311   0.004971  -0.000020
     9  H    0.006686   0.007242   0.628875   0.000013   0.000203  -0.001214
    10  H    0.000019  -0.000311   0.000013   0.646054   0.001046  -0.060762
    11  H    0.000012   0.004971   0.000203   0.001046   0.602706   0.000333
    12  C   -0.000216  -0.000020  -0.001214  -0.060762   0.000333   5.039452
    13  H    0.000034   0.000007   0.000414  -0.003486   0.000682   0.352382
    14  H    0.000033   0.000016   0.007090   0.005833   0.000174   0.375368
    15  O   -0.052951  -0.000065  -0.003470  -0.000131   0.000004   0.000123
    16  H    0.005898   0.000007   0.004389   0.000015  -0.000001   0.000147
    17  O    0.000002  -0.000003   0.000085   0.004088   0.013104   0.207295
    18  H   -0.000000   0.000000   0.000003   0.006112  -0.000319  -0.028462
    19  O    0.003079   0.001289  -0.038131   0.000002  -0.000063   0.000025
    20  H   -0.000392  -0.000868  -0.002025   0.000000  -0.000023   0.000004
    21  O   -0.000098  -0.036312  -0.001670  -0.000074   0.003023   0.000004
    22  H    0.000006  -0.005783  -0.000190   0.000006   0.001554  -0.000018
    23  O    0.000545   0.004839  -0.000071  -0.004033  -0.035294   0.003243
    24  H    0.000009   0.000013   0.000014   0.007404  -0.004130  -0.000305
    25  O   -0.000057  -0.000000   0.001889  -0.000004   0.000000  -0.000427
    26  H    0.000003   0.000000  -0.000019   0.000000  -0.000000   0.000019
    27  H    0.000023   0.000000  -0.000079   0.000003  -0.000000  -0.000355
    28  O   -0.000056   0.000000  -0.000001   0.000093   0.000000  -0.000295
    29  H   -0.000112   0.000000  -0.000005  -0.000007  -0.000000   0.000033
    30  H    0.000157  -0.000001  -0.000019  -0.000688  -0.000010  -0.000090
              13         14         15         16         17         18
     1  C    0.004298  -0.008893  -0.000191   0.000012  -0.003357  -0.000404
     2  C   -0.000129  -0.001792  -0.030417  -0.009185   0.000052  -0.000003
     3  O    0.003423   0.002637  -0.059577   0.004298   0.001549   0.000018
     4  C    0.000129   0.000429   0.307537  -0.023844  -0.000020   0.000001
     5  C   -0.039302  -0.042004   0.003251  -0.000311  -0.038041  -0.003721
     6  C   -0.000057   0.001890   0.003562   0.000252   0.000241  -0.000011
     7  H    0.000034   0.000033  -0.052951   0.005898   0.000002  -0.000000
     8  H    0.000007   0.000016  -0.000065   0.000007  -0.000003   0.000000
     9  H    0.000414   0.007090  -0.003470   0.004389   0.000085   0.000003
    10  H   -0.003486   0.005833  -0.000131   0.000015   0.004088   0.006112
    11  H    0.000682   0.000174   0.000004  -0.000001   0.013104  -0.000319
    12  C    0.352382   0.375368   0.000123   0.000147   0.207295  -0.028462
    13  H    0.582977  -0.035805  -0.000034  -0.000063  -0.024105  -0.008193
    14  H   -0.035805   0.550805  -0.000062  -0.000025  -0.034892   0.007029
    15  O   -0.000034  -0.000062   8.290760   0.194687  -0.000000  -0.000000
    16  H   -0.000063  -0.000025   0.194687   0.335682   0.000001  -0.000000
    17  O   -0.024105  -0.034892  -0.000000   0.000001   8.254976   0.233417
    18  H   -0.008193   0.007029  -0.000000  -0.000000   0.233417   0.401697
    19  O   -0.000003   0.000009   0.001258   0.000671  -0.000000   0.000000
    20  H   -0.000000  -0.000010  -0.000073  -0.000060  -0.000000   0.000000
    21  O    0.000004   0.000905  -0.000011  -0.000004  -0.000007  -0.000000
    22  H   -0.000000  -0.000008   0.000001   0.000000  -0.000002   0.000000
    23  O   -0.000072   0.000033   0.000003  -0.000000  -0.000068  -0.000008
    24  H   -0.000006   0.000026  -0.000000   0.000000   0.000072  -0.000001
    25  O    0.006682  -0.000057  -0.024346   0.072336   0.000010   0.000001
    26  H   -0.000059   0.000009   0.001101  -0.002222  -0.000000  -0.000000
    27  H    0.001024   0.000039   0.003794  -0.007290  -0.000003  -0.000001
    28  O    0.000763   0.000011  -0.004014   0.002651   0.000000   0.000000
    29  H   -0.000073  -0.000001   0.012665  -0.001066  -0.000000  -0.000000
    30  H    0.001525  -0.000056   0.002723  -0.000363   0.000001  -0.000006
              19         20         21         22         23         24
     1  C    0.004698   0.000809  -0.040465  -0.001037   0.194080  -0.022222
     2  C    0.230185  -0.033332  -0.043023   0.006181   0.000439  -0.000291
     3  O    0.001150  -0.000093  -0.000006   0.000004   0.000214  -0.000134
     4  C   -0.040082   0.006582   0.002029  -0.000193   0.002379  -0.000016
     5  C   -0.000059  -0.000065   0.002768   0.000031  -0.029207  -0.005114
     6  C   -0.034972  -0.008986   0.208836  -0.020730  -0.036832   0.006592
     7  H    0.003079  -0.000392  -0.000098   0.000006   0.000545   0.000009
     8  H    0.001289  -0.000868  -0.036312  -0.005783   0.004839   0.000013
     9  H   -0.038131  -0.002025  -0.001670  -0.000190  -0.000071   0.000014
    10  H    0.000002   0.000000  -0.000074   0.000006  -0.004033   0.007404
    11  H   -0.000063  -0.000023   0.003023   0.001554  -0.035294  -0.004130
    12  C    0.000025   0.000004   0.000004  -0.000018   0.003243  -0.000305
    13  H   -0.000003  -0.000000   0.000004  -0.000000  -0.000072  -0.000006
    14  H    0.000009  -0.000010   0.000905  -0.000008   0.000033   0.000026
    15  O    0.001258  -0.000073  -0.000011   0.000001   0.000003  -0.000000
    16  H    0.000671  -0.000060  -0.000004   0.000000  -0.000000   0.000000
    17  O   -0.000000  -0.000000  -0.000007  -0.000002  -0.000068   0.000072
    18  H    0.000000   0.000000  -0.000000   0.000000  -0.000008  -0.000001
    19  O    8.273468   0.235070  -0.004675   0.000013  -0.000018   0.000002
    20  H    0.235070   0.378171   0.021882  -0.001082  -0.000009   0.000001
    21  O   -0.004675   0.021882   8.298572   0.233363   0.001038  -0.000155
    22  H    0.000013  -0.001082   0.233363   0.383689   0.000430  -0.000061
    23  O   -0.000018  -0.000009   0.001038   0.000430   8.311091   0.229193
    24  H    0.000002   0.000001  -0.000155  -0.000061   0.229193   0.396509
    25  O    0.000002   0.000000   0.000000  -0.000000  -0.000000  -0.000000
    26  H   -0.000001  -0.000000  -0.000000  -0.000000  -0.000000   0.000000
    27  H   -0.000001  -0.000000  -0.000000  -0.000000  -0.000000   0.000000
    28  O    0.000000  -0.000000  -0.000000   0.000000   0.000000   0.000000
    29  H   -0.000000   0.000000   0.000000  -0.000000   0.000000   0.000000
    30  H   -0.000004   0.000000   0.000000  -0.000000  -0.000006  -0.000001
              25         26         27         28         29         30
     1  C    0.000002   0.000000   0.000003  -0.000011  -0.000000   0.000405
     2  C   -0.000794   0.000019   0.000023  -0.000043   0.000105   0.000609
     3  O   -0.000136   0.000046   0.000766  -0.015334   0.000659   0.049863
     4  C    0.001148  -0.000036  -0.000318   0.000158   0.000433  -0.001491
     5  C   -0.000310   0.000006   0.000028   0.000655  -0.000012  -0.002357
     6  C   -0.000002  -0.000000  -0.000002   0.000000  -0.000003  -0.000015
     7  H   -0.000057   0.000003   0.000023  -0.000056  -0.000112   0.000157
     8  H   -0.000000   0.000000   0.000000   0.000000   0.000000  -0.000001
     9  H    0.001889  -0.000019  -0.000079  -0.000001  -0.000005  -0.000019
    10  H   -0.000004   0.000000   0.000003   0.000093  -0.000007  -0.000688
    11  H    0.000000  -0.000000  -0.000000   0.000000  -0.000000  -0.000010
    12  C   -0.000427   0.000019  -0.000355  -0.000295   0.000033  -0.000090
    13  H    0.006682  -0.000059   0.001024   0.000763  -0.000073   0.001525
    14  H   -0.000057   0.000009   0.000039   0.000011  -0.000001  -0.000056
    15  O   -0.024346   0.001101   0.003794  -0.004014   0.012665   0.002723
    16  H    0.072336  -0.002222  -0.007290   0.002651  -0.001066  -0.000363
    17  O    0.000010  -0.000000  -0.000003   0.000000  -0.000000   0.000001
    18  H    0.000001  -0.000000  -0.000001   0.000000  -0.000000  -0.000006
    19  O    0.000002  -0.000001  -0.000001   0.000000  -0.000000  -0.000004
    20  H    0.000000  -0.000000  -0.000000  -0.000000   0.000000   0.000000
    21  O    0.000000  -0.000000  -0.000000  -0.000000   0.000000   0.000000
    22  H   -0.000000  -0.000000  -0.000000   0.000000  -0.000000  -0.000000
    23  O   -0.000000  -0.000000  -0.000000   0.000000   0.000000  -0.000006
    24  H   -0.000000   0.000000   0.000000   0.000000   0.000000  -0.000001
    25  O    8.365817   0.236481   0.184801  -0.029779   0.002835   0.003010
    26  H    0.236481   0.377750  -0.009543   0.000986   0.000016  -0.000048
    27  H    0.184801  -0.009543   0.338412   0.081860  -0.005430  -0.008496
    28  O   -0.029779   0.000986   0.081860   8.315114   0.239698   0.218998
    29  H    0.002835   0.000016  -0.005430   0.239698   0.369904  -0.019554
    30  H    0.003010  -0.000048  -0.008496   0.218998  -0.019554   0.323972
 Mulliken charges:
               1
     1  C    0.096238
     2  C    0.071190
     3  O   -0.554805
     4  C    0.366893
     5  C    0.122436
     6  C    0.085035
     7  H    0.147464
     8  H    0.160606
     9  H    0.142130
    10  H    0.113186
    11  H    0.154039
    12  C   -0.086152
    13  H    0.157041
    14  H    0.171270
    15  O   -0.646127
    16  H    0.423389
    17  O   -0.614397
    18  H    0.392851
    19  O   -0.632912
    20  H    0.404498
    21  O   -0.645925
    22  H    0.403826
    23  O   -0.641909
    24  H    0.392602
    25  O   -0.819107
    26  H    0.395492
    27  H    0.420742
    28  O   -0.811453
    29  H    0.399914
    30  H    0.431943
 Sum of Mulliken charges =  -0.00000
 Mulliken charges with hydrogens summed into heavy atoms:
               1
     1  C    0.250277
     2  C    0.213320
     3  O   -0.554805
     4  C    0.514358
     5  C    0.235622
     6  C    0.245642
    12  C    0.242160
    15  O   -0.222738
    17  O   -0.221545
    19  O   -0.228414
    21  O   -0.242099
    23  O   -0.249306
    25  O   -0.002873
    28  O    0.020403
 APT charges:
               1
     1  C   -0.271213
     2  C   -0.082249
     3  O   -0.408130
     4  C   -0.279251
     5  C   -0.325173
     6  C   -0.273067
     7  H    0.457220
     8  H    0.436110
     9  H    0.257701
    10  H    0.424327
    11  H    0.424792
    12  C   -0.453719
    13  H    0.362202
    14  H    0.293919
    15  O   -0.511154
    16  H    0.444094
    17  O   -0.875115
    18  H    0.737154
    19  O   -0.862081
    20  H    0.706226
    21  O   -1.020109
    22  H    0.859036
    23  O   -0.848221
    24  H    0.726668
    25  O   -1.395210
    26  H    0.970409
    27  H    0.429973
    28  O   -0.674390
    29  H    0.611868
    30  H    0.137381
 Sum of APT charges =  -0.00000
 APT charges with hydrogens summed into heavy atoms:
               1
     1  C    0.153579
     2  C    0.175452
     3  O   -0.408130
     4  C    0.177969
     5  C    0.099154
     6  C    0.163043
    12  C    0.202403
    15  O   -0.067060
    17  O   -0.137960
    19  O   -0.155855
    21  O   -0.161073
    23  O   -0.121554
    25  O    0.005173
    28  O    0.074859
 Electronic spatial extent (au):  <R**2>=           3099.5700
 Charge=             -0.0000 electrons
 Dipole moment (field-independent basis, Debye):
    X=              1.0484    Y=              2.1210    Z=              0.0811  Tot=              2.3674
 Quadrupole moment (field-independent basis, Debye-Ang):
   XX=            -72.1555   YY=            -82.8697   ZZ=            -85.9186
   XY=              1.6644   XZ=              5.4757   YZ=              7.3680
 Traceless Quadrupole moment (field-independent basis, Debye-Ang):
   XX=              8.1591   YY=             -2.5551   ZZ=             -5.6040
   XY=              1.6644   XZ=              5.4757   YZ=              7.3680
 Octapole moment (field-independent basis, Debye-Ang**2):
  XXX=             -5.7536  YYY=             50.9505  ZZZ=              2.5701  XYY=              7.8561
  XXY=            -34.5343  XXZ=            -29.9847  XZZ=            -19.3261  YZZ=            -11.0931
  YYZ=             11.9349  XYZ=             12.8873
 Hexadecapole moment (field-independent basis, Debye-Ang**3):
 XXXX=          -1474.2776 YYYY=          -1131.2550 ZZZZ=           -560.3271 XXXY=             97.4048
 XXXZ=             73.8575 YYYX=            -48.2110 YYYZ=             75.5820 ZZZX=             22.5462
 ZZZY=             38.8614 XXYY=           -487.3038 XXZZ=           -361.9379 YYZZ=           -291.7997
 XXYZ=             19.0762 YYXZ=             36.8387 ZZXY=             27.7604
 N-N= 1.106906275238D+03 E-N=-4.186523733299D+03  KE= 8.329015068180D+02
  Exact polarizability:   0.000   0.000   0.000   0.000   0.000   0.000
 Approx polarizability: 129.233   2.843 133.131   0.114   2.839 123.370
 Calling FoFJK, ICntrl=    100147 FMM=F ISym2X=0 I1Cent= 0 IOpClX= 0 NMat=1 NMatS=1 NMatT=0.
 ***** Axes restored to original set *****
 -------------------------------------------------------------------
 Center     Atomic                   Forces (Hartrees/Bohr)
 Number     Number              X              Y              Z
 -------------------------------------------------------------------
      1        6           0.000002076    0.000002279   -0.000006335
      2        6          -0.000001868   -0.000003399    0.000003194
      3        8          -0.000001355    0.000003192   -0.000002192
      4        6          -0.000002102    0.000005036    0.000012125
      5        6           0.000001197    0.000007143   -0.000003380
      6        6           0.000007325    0.000001646    0.000000566
      7        1          -0.000000105    0.000005156    0.000002758
      8        1          -0.000000379    0.000003584    0.000004344
      9        1           0.000002302   -0.000004160    0.000004917
     10        1          -0.000001636    0.000003129   -0.000005013
     11        1          -0.000002638   -0.000001336   -0.000000999
     12        6           0.000001757   -0.000009216   -0.000014375
     13        1          -0.000003435   -0.000003252   -0.000005082
     14        1          -0.000001166   -0.000003078   -0.000001101
     15        8           0.000001143    0.000001846    0.000006729
     16        1           0.000001219   -0.000002218    0.000005022
     17        8          -0.000003312   -0.000001135   -0.000017099
     18        1           0.000001366   -0.000005208   -0.000011642
     19        8           0.000005302    0.000000409    0.000019439
     20        1           0.000000561   -0.000002698    0.000007994
     21        8          -0.000004739   -0.000004887    0.000012052
     22        1           0.000003500   -0.000000275    0.000003781
     23        8          -0.000003619    0.000014966   -0.000003177
     24        1          -0.000000991    0.000006828   -0.000002555
     25        8           0.000002638   -0.000011407    0.000003357
     26        1          -0.000001352   -0.000006638   -0.000000315
     27        1           0.000000790   -0.000003745   -0.000004048
     28        8          -0.000000960   -0.000011903   -0.000001150
     29        1           0.000003690    0.000019780   -0.000005817
     30        1          -0.000005207   -0.000000438   -0.000002000
 -------------------------------------------------------------------
 Cartesian Forces:  Max     0.000019780 RMS     0.000006047

 GradGradGradGradGradGradGradGradGradGradGradGradGradGradGradGradGradGrad
 Berny optimization.
 Search for a saddle point.
 Step number   1 out of a maximum of  180
 All quantities printed in internal units (Hartrees-Bohrs-Radians)
 Swapping is turned off.
 Second derivative matrix not updated -- analytic derivatives used.
 ITU=  0
     Eigenvalues ---   -0.00045   0.00012   0.00061   0.00092   0.00112
     Eigenvalues ---    0.00221   0.00265   0.00333   0.00414   0.00479
     Eigenvalues ---    0.00504   0.00623   0.00671   0.00791   0.00892
     Eigenvalues ---    0.00922   0.01241   0.01322   0.01738   0.01897
     Eigenvalues ---    0.02071   0.02339   0.02375   0.02870   0.03100
     Eigenvalues ---    0.03499   0.03625   0.04116   0.04235   0.04378
     Eigenvalues ---    0.05119   0.05376   0.05619   0.05857   0.06102
     Eigenvalues ---    0.06728   0.07044   0.07347   0.07662   0.08745
     Eigenvalues ---    0.09069   0.09670   0.11336   0.11685   0.12943
     Eigenvalues ---    0.14857   0.16275   0.17151   0.17606   0.18070
     Eigenvalues ---    0.19129   0.20444   0.20498   0.22447   0.23902
     Eigenvalues ---    0.27034   0.30999   0.40062   0.44311   0.46972
     Eigenvalues ---    0.50316   0.55543   0.59807   0.62095   0.65192
     Eigenvalues ---    0.65989   0.68061   0.71875   0.72896   0.75251
     Eigenvalues ---    0.75543   0.81292   0.82336   0.83729   0.86863
     Eigenvalues ---    0.90088   0.91630   0.99286   1.01119   1.03154
     Eigenvalues ---    1.04235   1.05709   1.06322   1.09632
 Eigenvectors required to have negative eigenvalues:
                          Z22       Z24       X24       Y24       Z11
   1                    0.32316  -0.31954   0.27590   0.24405  -0.22990
                          X14       Z21       Y23       Y22       Z8
   1                   -0.22801   0.20853   0.19176  -0.18891   0.17971
 RFO step:  Lambda0=5.715110893D-12 Lambda= 0.00000000D+00.
 Linear search not attempted -- option 19 set.
 B after Tr=     0.000015   -0.000001   -0.000007
         Rot=    1.000000   -0.000001    0.000000   -0.000000 Ang=  -0.00 deg.
 Variable       Old X    -DE/DX   Delta X   Delta X   Delta X     New X
                                 (Linear)    (Quad)   (Total)
    X1        3.30148   0.00000   0.00000  -0.00000   0.00001   3.30149
    Y1        1.41376   0.00000   0.00000  -0.00001  -0.00001   1.41375
    Z1        0.85134  -0.00001   0.00000  -0.00000  -0.00000   0.85134
    X2        1.03308  -0.00000   0.00000   0.00004   0.00006   1.03313
    Y2       -2.60937  -0.00000   0.00000  -0.00003  -0.00003  -2.60940
    Z2       -0.67563   0.00000   0.00000  -0.00005  -0.00006  -0.67569
    X3       -1.23165  -0.00000   0.00000   0.00004   0.00005  -1.23160
    Y3        0.56964   0.00000   0.00000  -0.00012  -0.00012   0.56952
    Z3        1.80932  -0.00000   0.00000   0.00007   0.00006   1.80938
    X4       -0.90306  -0.00000   0.00000   0.00004   0.00005  -0.90301
    Y4       -2.13052   0.00001   0.00000  -0.00011  -0.00011  -2.13063
    Z4        1.41523   0.00001   0.00000  -0.00001  -0.00002   1.41521
    X5        0.55118   0.00000   0.00000  -0.00002  -0.00001   0.55117
    Y5        2.36136   0.00001   0.00000  -0.00006  -0.00006   2.36131
    Z5        0.83422  -0.00000   0.00000   0.00005   0.00005   0.83426
    X6        3.54853   0.00001   0.00000   0.00004   0.00005   3.54858
    Y6       -1.37130   0.00000   0.00000  -0.00000  -0.00000  -1.37130
    Z6        0.00718   0.00000   0.00000  -0.00002  -0.00002   0.00716
    X7       -0.22365  -0.00000   0.00000   0.00007   0.00008  -0.22357
    Y7       -2.94727   0.00001   0.00000  -0.00014  -0.00015  -2.94742
    Z7        3.19248   0.00000   0.00000  -0.00005  -0.00006   3.19243
    X8        4.31054  -0.00000   0.00000   0.00001   0.00002   4.31057
    Y8       -2.41095   0.00000   0.00000   0.00001   0.00000  -2.41095
    Z8        1.63456   0.00000   0.00000  -0.00000  -0.00001   1.63455
    X9        0.30814   0.00000   0.00000   0.00003   0.00005   0.30819
    Y9       -1.79736  -0.00000   0.00000  -0.00001  -0.00001  -1.79736
    Z9       -2.44912   0.00000   0.00000  -0.00002  -0.00003  -2.44915
   X10        0.43294  -0.00000   0.00000  -0.00006  -0.00005   0.43289
   Y10        3.96740   0.00000   0.00000  -0.00007  -0.00007   3.96733
   Z10        2.14996  -0.00001   0.00000   0.00005   0.00005   2.15001
   X11        4.35848  -0.00000   0.00000  -0.00006  -0.00004   4.35844
   Y11        2.61349  -0.00000   0.00000   0.00001   0.00001   2.61350
   Z11       -0.47449  -0.00000   0.00000  -0.00001  -0.00000  -0.47450
   X12       -0.22996   0.00000   0.00000  -0.00007  -0.00006  -0.23002
   Y12        3.39043  -0.00001   0.00000  -0.00007  -0.00007   3.39037
   Z12       -1.78432  -0.00001   0.00000   0.00005   0.00004  -1.78427
   X13       -2.29186  -0.00000   0.00000  -0.00009  -0.00008  -2.29194
   Y13        3.58972  -0.00000   0.00000  -0.00018  -0.00018   3.58954
   Z13       -1.85951  -0.00001   0.00000   0.00004   0.00003  -1.85947
   X14        0.31687  -0.00000   0.00000   0.00000   0.00002   0.31689
   Y14        2.10134  -0.00000   0.00000  -0.00001  -0.00001   2.10133
   Z14       -3.30198  -0.00000   0.00000   0.00004   0.00003  -3.30194
   X15       -3.24218   0.00000   0.00000   0.00005   0.00006  -3.24212
   Y15       -3.19751   0.00000   0.00000  -0.00010  -0.00010  -3.19761
   Z15        0.96147   0.00001   0.00000  -0.00002  -0.00003   0.96144
   X16       -3.87657   0.00000   0.00000   0.00001   0.00002  -3.87654
   Y16       -2.56581  -0.00000   0.00000  -0.00005  -0.00006  -2.56587
   Z16       -0.68007   0.00001   0.00000   0.00002   0.00001  -0.68006
   X17        1.04645  -0.00000   0.00000  -0.00019  -0.00018   1.04628
   Y17        5.70393  -0.00000   0.00000   0.00002   0.00002   5.70395
   Z17       -2.30254  -0.00002   0.00000   0.00010   0.00010  -2.30244
   X18        0.22698   0.00000   0.00000  -0.00028  -0.00026   0.22671
   Y18        7.02528  -0.00001   0.00000  -0.00005  -0.00005   7.02523
   Z18       -1.33256  -0.00001   0.00000   0.00010   0.00011  -1.33245
   X19        1.35297   0.00001   0.00000   0.00010   0.00012   1.35309
   Y19       -5.25204   0.00000   0.00000  -0.00001  -0.00001  -5.25205
   Z19       -0.93609   0.00002   0.00000  -0.00010  -0.00011  -0.93620
   X20        2.80273   0.00000   0.00000   0.00010   0.00012   2.80285
   Y20       -5.44897  -0.00000   0.00000   0.00003   0.00003  -5.44894
   Z20       -2.04773   0.00001   0.00000  -0.00010  -0.00011  -2.04784
   X21        5.13531  -0.00000   0.00000   0.00005   0.00007   5.13538
   Y21       -1.71776  -0.00000   0.00000   0.00002   0.00003  -1.71774
   Z21       -2.15189   0.00001   0.00000   0.00002   0.00001  -2.15188
   X22        6.86940   0.00000   0.00000   0.00005   0.00007   6.86947
   Y22       -1.42992  -0.00000   0.00000   0.00003   0.00003  -1.42988
   Z22       -1.63367   0.00000   0.00000   0.00003   0.00003  -1.63364
   X23        4.39851  -0.00000   0.00000   0.00001   0.00003   4.39853
   Y23        1.51908   0.00001   0.00000   0.00001   0.00001   1.51908
   Z23        3.31792  -0.00000   0.00000  -0.00001  -0.00001   3.31792
   X24        4.34951  -0.00000   0.00000  -0.00001   0.00001   4.34951
   Y24        3.26125   0.00001   0.00000   0.00001   0.00000   3.26126
   Z24        3.88724  -0.00000   0.00000  -0.00000  -0.00000   3.88724
   X25       -5.49266   0.00000   0.00000  -0.00000   0.00001  -5.49265
   Y25       -0.40905  -0.00001   0.00000  -0.00013  -0.00013  -0.40918
   Z25       -2.78876   0.00000   0.00000  -0.00000  -0.00002  -2.78878
   X26       -6.91487  -0.00000   0.00000  -0.00006  -0.00004  -6.91491
   Y26       -1.06923  -0.00001   0.00000  -0.00016  -0.00016  -1.06938
   Z26       -3.73416  -0.00000   0.00000   0.00009   0.00008  -3.73408
   X27       -6.22763   0.00000   0.00000   0.00007   0.00009  -6.22754
   Y27        0.41954  -0.00000   0.00000   0.00003   0.00003   0.41957
   Z27       -1.27832  -0.00000   0.00000  -0.00007  -0.00008  -1.27840
   X28       -6.54998  -0.00000   0.00000   0.00018   0.00019  -6.54979
   Y28        1.22243  -0.00001   0.00000   0.00051   0.00051   1.22293
   Z28        1.99238  -0.00000   0.00000  -0.00019  -0.00021   1.99217
   X29       -6.87482   0.00000   0.00000  -0.00073  -0.00071  -6.87554
   Y29       -0.46884   0.00002   0.00000   0.00091   0.00090  -0.46794
   Z29        2.63025  -0.00001   0.00000   0.00027   0.00025   2.63051
   X30       -4.70778  -0.00001   0.00000   0.00021   0.00022  -4.70756
   Y30        1.32443  -0.00000   0.00000  -0.00025  -0.00026   1.32418
   Z30        2.19435  -0.00000   0.00000  -0.00008  -0.00009   2.19426
         Item               Value     Threshold  Converged?
 Maximum Force            0.000020     0.000450     YES
 RMS     Force            0.000006     0.000300     YES
 Maximum Displacement     0.000903     0.001800     YES
 RMS     Displacement     0.000159     0.001200     YES
 Predicted change in Energy=-6.183115D-10
 Optimization completed.
    -- Stationary point found.
 GradGradGradGradGradGradGradGradGradGradGradGradGradGradGradGradGradGrad

                          Input orientation:                          
 ---------------------------------------------------------------------
 Center     Atomic      Atomic             Coordinates (Angstroms)
 Number     Number       Type             X           Y           Z
 ---------------------------------------------------------------------
      1          6           0        1.747070    0.748130    0.450510
      2          6           0        0.546680   -1.380820   -0.357530
      3          8           0       -0.651760    0.301440    0.957450
      4          6           0       -0.477880   -1.127420    0.748910
      5          6           0        0.291670    1.249580    0.441450
      6          6           0        1.877800   -0.725660    0.003800
      7          1           0       -0.118350   -1.559630    1.689390
      8          1           0        2.281040   -1.275820    0.864970
      9          1           0        0.163060   -0.951120   -1.296020
     10          1           0        0.229100    2.099460    1.137710
     11          1           0        2.306410    1.383000   -0.251090
     12          6           0       -0.121690    1.794140   -0.944220
     13          1           0       -1.212800    1.899600   -0.984010
     14          1           0        0.167680    1.111980   -1.747330
     15          8           0       -1.715690   -1.692050    0.508790
     16          1           0       -2.051390   -1.357770   -0.359880
     17          8           0        0.553760    3.018390   -1.218450
     18          1           0        0.120110    3.717620   -0.705160
     19          8           0        0.715960   -2.779260   -0.495360
     20          1           0        1.483140   -2.883470   -1.083610
     21          8           0        2.717490   -0.909000   -1.138730
     22          1           0        3.635130   -0.756680   -0.864500
     23          8           0        2.327590    0.803860    1.755770
     24          1           0        2.301660    1.725780    2.057040
     25          8           0       -2.906590   -0.216460   -1.475750
     26          1           0       -3.659190   -0.565810   -1.976030
     27          1           0       -3.295520    0.222010   -0.676460
     28          8           0       -3.466100    0.646880    1.054320
     29          1           0       -3.638000   -0.248100    1.391870
     30          1           0       -2.491250    0.700860    1.161200
 ---------------------------------------------------------------------
                    Distance matrix (angstroms):
                    1          2          3          4          5
     1  C    0.000000
     2  C    2.574159   0.000000
     3  O    2.492169   2.448557   0.000000
     4  C    2.925258   1.529099   1.454429   0.000000
     5  C    1.539391   2.760870   1.433627   2.517314   0.000000
     6  C    1.545541   1.526982   2.891895   2.503164   2.570782
     7  H    3.215645   2.159657   2.069745   1.095705   3.101150
     8  H    2.133840   2.124508   3.331309   2.765345   3.242624
     9  H    2.906356   1.101168   2.703880   2.150261   2.806853
    10  H    2.145360   3.801177   2.010294   3.326220   1.100449
    11  H    1.099165   3.278213   3.373590   3.880010   2.134617
    12  C    2.555714   3.297165   2.474970   3.395449   1.545152
    13  H    3.484905   3.774838   2.576460   3.564543   2.172071
    14  H    2.730817   2.879103   2.940118   3.415095   2.196603
    15  O    4.236577   2.442477   2.303746   1.381535   3.561912
    16  H    4.418127   2.598173   2.539153   1.938662   3.595877
    17  O    3.059983   4.482665   3.683699   4.703459   2.439805
    18  H    3.577771   5.128050   3.876898   5.093753   2.726787
    19  O    3.794778   1.415375   3.670426   2.387894   4.158027
    20  H    3.951165   1.913663   4.343659   3.207404   4.563717
    21  O    2.492685   2.354847   4.148612   3.717698   3.611238
    22  H    2.749268   3.191409   4.776667   4.433666   4.112093
    23  O    1.429620   3.522855   3.125103   3.551658   2.463955
    24  H    1.960691   4.308256   3.458400   4.192588   2.622395
    25  O    5.128105   3.811984   3.357520   3.417249   4.006719
    26  H    6.069776   4.579643   4.289763   4.226279   4.974851
    27  H    5.193706   4.175318   3.108929   3.433910   3.895325
    28  O    5.248998   4.712461   2.837115   3.488678   3.854827
    29  H    5.556763   4.674933   3.067302   3.342598   4.311456
    30  H    4.297752   3.983585   1.893350   2.750682   2.926393
                    6          7          8          9         10
     6  C    0.000000
     7  H    2.742505   0.000000
     8  H    1.098586   2.552898   0.000000
     9  H    2.163492   3.059763   3.043213   0.000000
    10  H    3.461974   3.716721   3.959465   3.903004   0.000000
    11  H    2.166823   4.278317   2.883671   3.336757   2.599480
    12  C    3.353520   4.264233   4.297782   2.782319   2.133238
    13  H    4.173675   4.506790   5.070398   3.180715   2.573075
    14  H    3.060700   4.362380   4.122134   2.111891   3.049975
    15  O    3.755276   1.990690   4.034100   2.708508   4.307354
    16  H    3.996293   2.824340   4.502990   2.438342   4.404072
    17  O    4.155104   5.464937   5.075862   3.989445   2.549770
    18  H    4.830614   5.800009   5.662982   4.706176   2.454891
    19  O    2.411702   2.637556   2.561309   2.070954   5.167771
    20  H    2.448338   3.465090   2.649179   2.349831   5.597899
    21  O    1.429709   4.057533   2.083233   2.559615   4.519413
    22  H    1.960387   4.610390   2.257019   3.504181   4.875184
    23  O    2.368785   3.401928   2.262910   4.132622   2.542487
    24  H    3.225680   4.097015   3.229715   4.793998   2.297892
    25  O    5.033760   4.426793   5.789017   3.161452   4.693209
    26  H    5.882477   5.192353   6.622819   3.901342   5.649588
    27  H    5.303213   4.343489   5.976414   3.704303   4.386226
    28  O    5.616469   4.059486   6.063188   4.609610   3.971328
    29  H    5.707789   3.767833   6.030661   4.708189   4.531015
    30  H    4.739529   3.319556   5.173951   3.976472   3.058911
                   11         12         13         14         15
    11  H    0.000000
    12  C    2.558346   0.000000
    13  H    3.631651   1.096917   0.000000
    14  H    2.624186   1.092732   1.763158   0.000000
    15  O    5.119633   4.099463   3.921900   4.061988   0.000000
    16  H    5.149182   3.741622   3.420999   3.598466   0.989457
    17  O    2.584970   1.424859   2.104136   2.015731   5.506542
    18  H    3.230563   1.953303   2.271476   2.806731   5.840237
    19  O    4.462467   4.671094   5.084351   4.124292   2.846623
    20  H    4.424209   4.947216   5.491427   4.258472   3.766661
    21  O    2.492018   3.925015   4.833151   3.310028   4.793806
    22  H    2.592296   4.541666   5.529243   4.036643   5.602867
    23  O    2.088861   3.777509   4.608840   4.126967   4.912498
    24  H    2.333449   3.858090   4.650766   4.404980   5.497067
    25  O    5.588688   3.475731   2.754713   3.360007   2.744815
    26  H    6.508584   4.375832   3.612087   4.184760   3.349618
    27  H    5.736764   3.551969   2.691954   3.732635   2.750328
    28  O    5.963878   4.061459   3.286557   4.611932   2.971890
    29  H    6.379327   4.689616   4.017339   5.117382   2.561269
    30  H    5.047516   3.353039   2.770079   3.962130   2.598682
                   16         17         18         19         20
    16  H    0.000000
    17  O    5.164758   0.000000
    18  H    5.531204   0.969764   0.000000
    19  O    3.114035   5.844819   6.527519   0.000000
    20  H    3.917199   5.976109   6.750960   0.972349   0.000000
    21  O    4.852857   4.484693   5.323531   2.813880   2.329204
    22  H    5.740423   4.885824   5.692110   3.570525   3.033530
    23  O    5.322038   4.110547   4.406716   4.528100   4.729860
    24  H    5.856520   3.931263   4.044297   5.415217   5.637273
    25  O    1.810834   4.743889   5.023117   4.544445   5.151354
    26  H    2.413330   5.582953   5.852007   5.121883   5.710650
    27  H    2.035629   4.788575   4.887396   5.013222   5.713613
    28  O    2.831958   5.191225   5.038464   5.624017   6.444307
    29  H    2.611001   5.920691   5.852167   5.378232   6.268911
    30  H    2.597137   4.506192   4.404922   5.014142   5.803651
                   21         22         23         24         25
    21  O    0.000000
    22  H    0.969777   0.000000
    23  O    3.385859   3.318247   0.000000
    24  H    4.162683   4.059082   0.970244   0.000000
    25  O    5.676572   6.592387   6.235416   6.586256   0.000000
    26  H    6.440567   7.380991   7.186366   7.553064   0.968882
    27  H    6.135892   7.001936   6.154158   6.407946   0.991154
    28  O    6.742923   7.488613   5.838109   5.952859   2.731238
    29  H    6.872625   7.632056   6.068551   6.294300   2.959596
    30  H    5.917119   6.615166   4.856474   4.982467   2.822674
                   26         27         28         29         30
    26  H    0.000000
    27  H    1.562625   0.000000
    28  O    3.269698   1.790310   0.000000
    29  H    3.382919   2.148554   0.971843   0.000000
    30  H    3.579211   2.062315   0.982176   1.506243   0.000000
 Stoichiometry    C6H16O8
 Framework group  C1[X(C6H16O8)]
 Deg. of freedom    84
 Full point group                 C1      NOp   1
 Largest Abelian subgroup         C1      NOp   1
 Largest concise Abelian subgroup C1      NOp   1
                         Standard orientation:                         
 ---------------------------------------------------------------------
 Center     Atomic      Atomic             Coordinates (Angstroms)
 Number     Number       Type             X           Y           Z
 ---------------------------------------------------------------------
      1          6           0        1.747069    0.748132    0.450511
      2          6           0        0.546681   -1.380820   -0.357529
      3          8           0       -0.651760    0.301439    0.957451
      4          6           0       -0.477879   -1.127421    0.748911
      5          6           0        0.291669    1.249580    0.441451
      6          6           0        1.877801   -0.725658    0.003801
      7          1           0       -0.118349   -1.559630    1.689391
      8          1           0        2.281041   -1.275818    0.864971
      9          1           0        0.163061   -0.951120   -1.296019
     10          1           0        0.229098    2.099460    1.137711
     11          1           0        2.306409    1.383002   -0.251089
     12          6           0       -0.121692    1.794140   -0.944219
     13          1           0       -1.212802    1.899599   -0.984009
     14          1           0        0.167679    1.111980   -1.747329
     15          8           0       -1.715688   -1.692052    0.508791
     16          1           0       -2.051389   -1.357772   -0.359879
     17          8           0        0.553757    3.018390   -1.218449
     18          1           0        0.120106    3.717620   -0.705159
     19          8           0        0.715963   -2.779259   -0.495359
     20          1           0        1.483143   -2.883469   -1.083609
     21          8           0        2.717491   -0.908997   -1.138729
     22          1           0        3.635131   -0.756677   -0.864499
     23          8           0        2.327589    0.803862    1.755771
     24          1           0        2.301658    1.725782    2.057041
     25          8           0       -2.906590   -0.216463   -1.475749
     26          1           0       -3.659190   -0.565814   -1.976029
     27          1           0       -3.295520    0.222007   -0.676459
     28          8           0       -3.466101    0.646876    1.054321
     29          1           0       -3.638000   -0.248104    1.391871
     30          1           0       -2.491251    0.700857    1.161201
 ---------------------------------------------------------------------
 Rotational constants (GHZ):      0.7028496      0.5131027      0.3986267
 1\1\GINC-N283\FTS\RB3LYP\6-31G(d)\C6H16O8\IAWAD\31-Jan-2017\0\\# opt=(
 calcfc,ts,noeigentest,maxcycle=1000,cartesian) b3lyp 6-31g(d) freq\\./
 3/glo_2w_beta_boat3_b3lyp_631Gd_iopt.out\\0,1\C,1.74707,0.74813,0.4505
 1\C,0.54668,-1.38082,-0.35753\O,-0.65176,0.30144,0.95745\C,-0.47788,-1
 .12742,0.74891\C,0.29167,1.24958,0.44145\C,1.8778,-0.72566,0.0038\H,-0
 .11835,-1.55963,1.68939\H,2.28104,-1.27582,0.86497\H,0.16306,-0.95112,
 -1.29602\H,0.2291,2.09946,1.13771\H,2.30641,1.383,-0.25109\C,-0.12169,
 1.79414,-0.94422\H,-1.2128,1.8996,-0.98401\H,0.16768,1.11198,-1.74733\
 O,-1.71569,-1.69205,0.50879\H,-2.05139,-1.35777,-0.35988\O,0.55376,3.0
 1839,-1.21845\H,0.12011,3.71762,-0.70516\O,0.71596,-2.77926,-0.49536\H
 ,1.48314,-2.88347,-1.08361\O,2.71749,-0.909,-1.13873\H,3.63513,-0.7566
 8,-0.8645\O,2.32759,0.80386,1.75577\H,2.30166,1.72578,2.05704\O,-2.906
 59,-0.21646,-1.47575\H,-3.65919,-0.56581,-1.97603\H,-3.29552,0.22201,-
 0.67646\O,-3.4661,0.64688,1.05432\H,-3.638,-0.2481,1.39187\H,-2.49125,
 0.70086,1.1612\\Version=ES64L-G09RevE.01\State=1-A\HF=-839.9845166\RMS
 D=9.443e-09\RMSF=6.047e-06\Dipole=0.4124635,0.8344834,0.0319263\Polar=
 0.,0.,0.,0.,0.,0.\Quadrupole=6.0660885,-1.8996562,-4.1664323,1.2374581
 ,4.0710332,5.4779466\PG=C01 [X(C6H16O8)]\\@


 IT CANNOT BE MY BEAUTY, FOR I HAVE NONE; AND IT CANNOT BE MY WIT,
 FOR HE HAS NOT ENOUGH TO KNOW THAT I HAVE ANY.
 -- CATHARINE SEDLEY, PUZZLED ABOUT WHY SHE WAS MISTRESS TO JAMES II
 Job cpu time:       0 days  0 hours 36 minutes 50.1 seconds.
 File lengths (MBytes):  RWF=    220 Int=      0 D2E=      0 Chk=      6 Scr=      1
 Normal termination of Gaussian 09 at Tue Jan 31 06:45:39 2017.
 Link1:  Proceeding to internal job step number  2.
 --------------------------------------------------------------------
 #N Geom=AllCheck Guess=TCheck SCRF=Check GenChk RB3LYP/6-31G(d) Freq
 --------------------------------------------------------------------
 1/5=1,6=1000,10=4,11=1,29=7,30=1,38=1,40=1/1,3;
 2/12=2,40=1/2;
 3/5=1,6=6,7=1,11=2,14=-4,16=1,25=1,30=1,70=2,71=2,74=-5,116=1,140=1/1,2,3;
 4/5=101/1;
 5/5=2,38=6,98=1/2;
 8/6=4,10=90,11=11/1;
 11/6=1,8=1,9=11,15=111,16=1/1,2,10;
 10/6=1/2;
 6/7=2,8=2,9=2,10=2,18=1,28=1/1;
 7/8=1,10=1,25=1/1,2,3,16;
 1/5=1,6=1000,10=4,11=1,30=1/3;
 99//99;
 Structure from the checkpoint file:  "/scratch/10501385.yak.local/Gau-2630.chk"
 ------------------------------------------
 ./3/glo_2w_beta_boat3_b3lyp_631Gd_iopt.out
 ------------------------------------------
 Charge =  0 Multiplicity = 1
 No Z-Matrix found in file; cartesian coordinates used.
  C                                                 1.747070000000      0.748130000000      0.450510000000
  C                                                 0.546680000000     -1.380820000000     -0.357530000000
  O                                                -0.651760000000      0.301440000000      0.957450000000
  C                                                -0.477880000000     -1.127420000000      0.748910000000
  C                                                 0.291670000000      1.249580000000      0.441450000000
  C                                                 1.877800000000     -0.725660000000      0.003800000000
  H                                                -0.118350000000     -1.559630000000      1.689390000000
  H                                                 2.281040000000     -1.275820000000      0.864970000000
  H                                                 0.163060000000     -0.951120000000     -1.296020000000
  H                                                 0.229100000000      2.099460000000      1.137710000000
  H                                                 2.306410000000      1.383000000000     -0.251090000000
  C                                                -0.121690000000      1.794140000000     -0.944220000000
  H                                                -1.212800000000      1.899600000000     -0.984010000000
  H                                                 0.167680000000      1.111980000000     -1.747330000000
  O                                                -1.715690000000     -1.692050000000      0.508790000000
  H                                                -2.051390000000     -1.357770000000     -0.359880000000
  O                                                 0.553760000000      3.018390000000     -1.218450000000
  H                                                 0.120110000000      3.717620000000     -0.705160000000
  O                                                 0.715960000000     -2.779260000000     -0.495360000000
  H                                                 1.483140000000     -2.883470000000     -1.083610000000
  O                                                 2.717490000000     -0.909000000000     -1.138730000000
  H                                                 3.635130000000     -0.756680000000     -0.864500000000
  O                                                 2.327590000000      0.803860000000      1.755770000000
  H                                                 2.301660000000      1.725780000000      2.057040000000
  O                                                -2.906590000000     -0.216460000000     -1.475750000000
  H                                                -3.659190000000     -0.565810000000     -1.976030000000
  H                                                -3.295520000000      0.222010000000     -0.676460000000
  O                                                -3.466100000000      0.646880000000      1.054320000000
  H                                                -3.638000000000     -0.248100000000      1.391870000000
  H                                                -2.491250000000      0.700860000000      1.161200000000
 Recover connectivity data from disk.

 GradGradGradGradGradGradGradGradGradGradGradGradGradGradGradGradGradGrad
 Berny optimization.
 Initialization pass.
 Trust Radius=3.00D-01 FncErr=1.00D-07 GrdErr=1.00D-07
 Number of steps in this run=      2 maximum allowed number of steps=      2.
 Search for a saddle point of order  1.
 GradGradGradGradGradGradGradGradGradGradGradGradGradGradGradGradGradGrad

                          Input orientation:                          
 ---------------------------------------------------------------------
 Center     Atomic      Atomic             Coordinates (Angstroms)
 Number     Number       Type             X           Y           Z
 ---------------------------------------------------------------------
      1          6           0        1.747070    0.748130    0.450510
      2          6           0        0.546680   -1.380820   -0.357530
      3          8           0       -0.651760    0.301440    0.957450
      4          6           0       -0.477880   -1.127420    0.748910
      5          6           0        0.291670    1.249580    0.441450
      6          6           0        1.877800   -0.725660    0.003800
      7          1           0       -0.118350   -1.559630    1.689390
      8          1           0        2.281040   -1.275820    0.864970
      9          1           0        0.163060   -0.951120   -1.296020
     10          1           0        0.229100    2.099460    1.137710
     11          1           0        2.306410    1.383000   -0.251090
     12          6           0       -0.121690    1.794140   -0.944220
     13          1           0       -1.212800    1.899600   -0.984010
     14          1           0        0.167680    1.111980   -1.747330
     15          8           0       -1.715690   -1.692050    0.508790
     16          1           0       -2.051390   -1.357770   -0.359880
     17          8           0        0.553760    3.018390   -1.218450
     18          1           0        0.120110    3.717620   -0.705160
     19          8           0        0.715960   -2.779260   -0.495360
     20          1           0        1.483140   -2.883470   -1.083610
     21          8           0        2.717490   -0.909000   -1.138730
     22          1           0        3.635130   -0.756680   -0.864500
     23          8           0        2.327590    0.803860    1.755770
     24          1           0        2.301660    1.725780    2.057040
     25          8           0       -2.906590   -0.216460   -1.475750
     26          1           0       -3.659190   -0.565810   -1.976030
     27          1           0       -3.295520    0.222010   -0.676460
     28          8           0       -3.466100    0.646880    1.054320
     29          1           0       -3.638000   -0.248100    1.391870
     30          1           0       -2.491250    0.700860    1.161200
 ---------------------------------------------------------------------
                    Distance matrix (angstroms):
                    1          2          3          4          5
     1  C    0.000000
     2  C    2.574159   0.000000
     3  O    2.492169   2.448557   0.000000
     4  C    2.925258   1.529099   1.454429   0.000000
     5  C    1.539391   2.760870   1.433627   2.517314   0.000000
     6  C    1.545541   1.526982   2.891895   2.503164   2.570782
     7  H    3.215645   2.159657   2.069745   1.095705   3.101150
     8  H    2.133840   2.124508   3.331309   2.765345   3.242624
     9  H    2.906356   1.101168   2.703880   2.150261   2.806853
    10  H    2.145360   3.801177   2.010294   3.326220   1.100449
    11  H    1.099165   3.278213   3.373590   3.880010   2.134617
    12  C    2.555714   3.297165   2.474970   3.395449   1.545152
    13  H    3.484905   3.774838   2.576460   3.564543   2.172071
[...]
 83,-0.00013868,0.00023058,-0.00003291,-0.00008279,0.00003443,-0.000049
 05,0.00010996,0.00008193,0.00002170,-0.00004229,-0.00003130,-0.0003470
 8,-0.00028252,-0.00017755,0.00016838,0.00002950,0.00007723,-0.00006803
 ,-0.00000906,-0.00001550,0.00004615,0.00005841,0.00004198,-0.00032765,
 -0.00013721,-0.00074686,-0.00009568,-0.00005512,0.00010020,0.01086465,
 -0.45309469,-0.14854702,-0.01517181,0.45341583,-0.00005936,-0.04166811
 ,-0.01712796,0.00083584,-0.00080488,-0.00016184,0.00070508,0.00112107,
 -0.00035277,0.00010470,-0.00078428,-0.00021692,-0.00030521,-0.00091140
 ,0.00155677,-0.00443073,0.00082676,-0.00577683,-0.00008227,0.00004775,
 0.00003892,0.00013598,-0.00009201,-0.00012522,-0.00002374,0.00007409,-
 0.00005586,-0.00089266,0.00059260,0.00062841,0.00095139,0.00003869,0.0
 0086682,0.00025438,0.00000459,-0.00025895,0.00015758,-0.00011223,0.000
 17535,-0.00001783,-0.00000373,0.00011157,0.00013717,0.00026852,0.00009
 361,-0.00001292,-0.00005550,-0.00003572,0.00047542,0.00008077,0.000452
 88,-0.00017558,0.00015502,-0.00015463,-0.00028995,-0.00026884,-0.00003
 924,0.00001755,0.00002545,0.00002769,0.00057946,-0.00090500,-0.0003745
 3,0.00000642,-0.00011855,-0.00005063,-0.01430985,-0.09903092,-0.072936
 54,0.01629953,0.14145369,0.09362202,0.00022292,0.00015564,0.00018330,0
 .00022908,-0.00122903,0.00087013,-0.00009182,-0.00165965,-0.00123742,0
 .00311573,0.00273598,0.00073826,0.00048814,0.00031233,0.00019510,0.000
 39311,0.00031626,-0.00017305,-0.00070943,-0.00034522,-0.00035314,-0.00
 012206,-0.00000428,-0.00002083,-0.00038925,0.00024484,-0.00048731,-0.0
 0014792,-0.00021387,-0.00011820,-0.00003412,-0.00003077,-0.00001640,0.
 00023256,0.00002022,-0.00001782,-0.00082484,0.00014619,0.00017486,0.00
 045931,-0.00010288,-0.00022402,-0.00359353,0.00524239,-0.01042356,-0.0
 0227715,-0.00232895,0.00354664,-0.00066788,-0.00096510,-0.00001030,-0.
 00009440,0.00010234,-0.00004215,-0.00036205,0.00065492,-0.00016653,0.0
 0012121,-0.00012801,-0.00000595,-0.00038957,-0.00002802,0.00018115,0.0
 0003187,-0.00003065,-0.00002837,-0.00027857,-0.00009568,-0.00032722,0.
 00008130,0.00000413,0.00007927,0.45083460,0.00039770,-0.00020731,-0.00
 024446,0.00017536,0.00035337,0.00000944,-0.00042665,0.00436005,-0.0009
 6685,-0.00499231,-0.00828952,0.00111891,-0.00098972,-0.00066055,0.0013
 5488,-0.00024549,-0.00069404,-0.00022960,0.00144813,0.00092455,0.00031
 456,-0.00000731,0.00008216,-0.00001708,0.00003577,-0.00030270,-0.00014
 354,0.00012376,0.00031910,-0.00011664,0.00013654,0.00002184,-0.0000028
 7,0.00228142,-0.00035500,-0.00028599,-0.00094932,0.00027041,0.00043828
 ,-0.00002899,-0.00014768,0.00009800,0.01089505,0.00248348,0.00956557,-
 0.00794167,-0.00826892,-0.00565129,-0.00140107,-0.00032166,-0.00052134
 ,0.00033108,0.00009829,0.00026856,0.00037190,0.00048489,0.00022822,-0.
 00015394,0.00001889,-0.00006631,0.00037902,0.00043786,-0.00006503,0.00
 005856,-0.00006557,-0.00001385,-0.00032420,0.00030419,-0.00021125,0.00
 005969,0.00003505,0.00006873,0.05810095,0.17669956,0.00005209,-0.00013
 233,0.00022691,-0.00043903,-0.00020647,-0.00148319,-0.00284358,-0.0021
 8392,0.00050713,0.00517807,0.00347083,-0.00047185,0.00160835,0.0019763
 7,-0.00097505,0.00045914,0.00005424,0.00016046,-0.00117132,-0.00050784
 ,-0.00026392,0.00010514,0.00002895,0.00006219,-0.00029407,-0.00023018,
 0.00022181,-0.00008147,-0.00025977,0.00016032,-0.00027808,0.00000996,0
 .00003234,0.00024462,-0.00051322,-0.00051929,-0.00024799,0.00018007,-0
 .00051370,-0.00041978,0.00016347,0.00004531,-0.01139637,0.00682933,-0.
 00782216,0.00460998,-0.00400540,-0.00451550,-0.00018886,-0.00058170,0.
 00073614,-0.00007390,0.00019034,-0.00020027,-0.00007853,0.00033778,0.0
 0078066,-0.00019646,-0.00003650,-0.00021519,-0.00061455,-0.00000849,0.
 00046806,0.00000318,-0.00003729,-0.00000512,-0.00027549,-0.00006194,0.
 00006139,0.00017081,0.00004388,0.00000039,0.06302299,0.24930173,0.4554
 7617,0.00005303,-0.00002328,-0.00002058,-0.00002915,-0.00022084,0.0000
 4286,-0.00015662,0.00006459,-0.00029993,0.00016392,-0.00036905,0.00022
 737,0.00011119,0.00011734,0.00012318,0.00005430,-0.00000920,-0.0000472
 8,-0.00001124,0.00002444,-0.00001392,-0.00000626,0.00000669,0.00000233
 ,0.00000642,-0.00001988,-0.00011763,-0.00001261,-0.00000886,-0.0000035
 8,-0.00001069,0.00000259,0.00000215,0.00028679,-0.00000482,-0.00001948
 ,-0.00029162,0.00001391,-0.00000160,0.00005350,-0.00000161,-0.00004771
 ,0.00056554,0.00066890,0.00004347,-0.00191169,-0.00162897,-0.00056103,
 -0.00013917,-0.00012847,-0.00000439,-0.00000952,0.00000995,-0.00000003
 ,0.00004629,0.00020375,0.00012838,-0.00005661,-0.00000730,-0.00005974,
 -0.00002753,0.00003886,0.00006043,0.00000228,-0.00000686,-0.00000151,-
 0.00004270,0.00001843,-0.00000440,0.00001232,0.00000499,0.00000348,-0.
 32655351,-0.14044467,-0.20554298,0.31596635,-0.00001959,0.00000637,-0.
 00001847,0.00000182,0.00027692,-0.00001089,0.00008149,0.00012076,0.000
 04760,-0.00057785,-0.00006375,-0.00028220,-0.00006464,-0.00002213,0.00
 006839,-0.00002561,-0.00001132,0.00000330,0.00009554,0.00003742,0.0000
 6638,0.00000453,-0.00000344,0.00000642,-0.00001937,-0.00000388,0.00006
 520,0.00000619,-0.00000202,-0.00000215,0.00000082,-0.00000354,0.000000
 66,0.00018339,-0.00016670,-0.00006844,-0.00012452,0.00020987,0.0000198
 5,-0.00000490,0.00002192,-0.00000136,0.00090380,-0.00280236,0.00273617
 ,0.00050114,0.00521609,-0.00152292,-0.00010106,-0.00015667,0.00004989,
 -0.00004367,0.00002360,-0.00003490,-0.00006127,-0.00023280,-0.00012529
 ,0.00005345,0.00003078,0.00004075,0.00002138,-0.00004825,-0.00002041,-
 0.00000006,0.00001510,-0.00000571,0.00001515,-0.00001396,0.00000523,-0
 .00000781,0.00000046,-0.00000598,-0.11333122,-0.07576304,-0.10555714,0
 .13294782,0.08018234,-0.00005551,-0.00001871,-0.00001530,0.00004673,0.
 00015898,0.00004354,0.00027468,0.00015668,-0.00002297,-0.00055373,-0.0
 0026133,-0.00014427,-0.00015418,-0.00014983,-0.00002981,-0.00011055,-0
 .00002738,0.00004622,0.00006659,0.00002283,0.00001612,0.00001270,-0.00
 000362,-0.00001096,-0.00015247,0.00002220,0.00008373,0.00002177,0.0000
 3348,0.00000004,0.00002327,0.00000918,-0.00000137,-0.00027955,0.000078
 31,0.00004352,-0.00000972,-0.00042099,-0.00012472,-0.00004348,-0.00001
 049,0.00005945,0.00078324,0.00092040,0.00005379,-0.00186439,-0.0009083
 3,-0.00147941,0.00017509,0.00021446,-0.00004280,0.00000589,-0.00004155
 ,0.00002911,0.00006900,-0.00011807,-0.00008046,0.00001737,0.00002116,0
 .00005183,0.00012307,-0.00000545,-0.00010744,-0.00000778,0.00000802,0.
 00001196,0.00008308,0.00000817,0.00002653,-0.00003595,-0.00000787,-0.0
 0000629,-0.15571075,-0.10037128,-0.15160734,0.19177729,0.11258357,0.17
 028373,-0.00021762,0.00002458,-0.00009210,-0.00013467,0.00017116,0.000
 24909,0.00071599,0.00012927,0.00112049,-0.00156834,0.00068313,-0.00047
 126,-0.00063900,-0.00053098,-0.00029634,-0.00015794,0.00006970,0.00000
 940,0.00018740,-0.00005564,0.00011907,0.00001037,-0.00003000,-0.000004
 75,0.00012070,0.00007124,0.00003236,0.00008000,0.00012326,0.00004787,0
 .00004196,0.00000351,0.00000576,-0.00118171,-0.00008259,0.00016342,0.0
 0006730,-0.00081590,0.00029529,0.00007589,-0.00002370,0.00000332,0.000
 85001,-0.00114736,0.00029022,-0.00236246,0.00467628,0.00108835,0.00069
 535,0.00063961,-0.00011287,-0.00003519,-0.00013467,-0.00003367,0.00010
 263,-0.00025375,-0.00010894,0.00000422,0.00003529,0.00002585,0.0001920
 5,-0.00007573,-0.00011790,-0.00002679,0.00003392,0.00000953,0.00026288
 ,-0.00002139,0.00023463,-0.00007284,-0.00001883,-0.00006995,-0.1234075
 4,0.08032820,0.14376351,0.01285083,-0.02136714,-0.03607327,0.12216262,
 -0.00016440,0.00008756,0.00011641,-0.00009666,-0.00037274,0.00000182,0
 .00035515,-0.00241144,-0.00003555,0.00291628,0.00351216,0.00064181,0.0
 0041736,0.00028557,-0.00054869,0.00009378,0.00034602,0.00015709,-0.000
 44289,-0.00033275,-0.00018606,-0.00001363,-0.00003922,-0.00000027,0.00
 016306,0.00006091,0.00000559,-0.00011565,-0.00018499,-0.00001351,-0.00
 005149,-0.00000496,-0.00000341,-0.00137417,0.00019416,0.00005346,-0.00
 014343,-0.00034121,0.00041359,0.00033595,-0.00006035,-0.00008922,-0.00
 397652,0.00024454,-0.00210875,0.00717534,-0.00615371,0.00090193,0.0006
 3632,0.00009009,0.00008864,-0.00022717,-0.00008741,-0.00010742,-0.0001
 4632,-0.00011784,-0.00010994,0.00005772,-0.00001296,0.00002339,-0.0001
 6875,-0.00019539,-0.00000726,-0.00003276,0.00002904,0.00001457,0.00015
 828,-0.00013768,0.00006694,-0.00004349,-0.00001818,-0.00002318,0.04942
 669,-0.09249838,-0.13980224,0.00839592,-0.00687849,-0.01201855,-0.0595
 9979,0.11249161,0.00015155,0.00031225,-0.00020440,0.00022513,-0.000481
 40,0.00113132,0.00340980,-0.00085116,-0.00150126,-0.00018113,0.0026018
 1,0.00042247,-0.00107131,-0.00171730,0.00105664,-0.00012761,0.00022786
 ,-0.00002270,-0.00024557,-0.00027699,-0.00014846,-0.00009423,-0.000029
 57,-0.00004194,0.00025302,0.00018479,-0.00033890,-0.00009372,0.0000025
 7,-0.00015384,0.00025250,-0.00005166,-0.00004001,0.00070313,0.00013516
 ,0.00031687,0.00005914,0.00062742,0.00085347,0.00038787,-0.00007096,-0
 .00017796,-0.00022682,-0.00091429,-0.00481576,0.00203849,-0.00050354,0
 .00890397,-0.00042694,-0.00007334,-0.00059375,0.00003889,-0.00007531,0
 .00020073,-0.00009590,-0.00007959,-0.00057059,0.00015118,-0.00004439,0
 .00010349,0.00014632,-0.00008347,-0.00022225,-0.00000898,0.00002249,0.
 00000876,0.00006889,-0.00002849,-0.00022325,-0.00011961,-0.00003984,0.
 00004793,0.09389656,-0.14166810,-0.26969077,0.01235763,-0.00747867,-0.
 01532572,-0.10443273,0.14565494,0.27999580,-0.00001606,-0.00104902,0.0
 0115280,0.00034878,0.00016997,-0.00095943,-0.01415891,0.00139939,0.002
 80405,-0.00067827,-0.00583509,0.00001193,0.00097017,0.00553489,-0.0014
 7657,0.00074192,-0.00029328,-0.00029895,-0.00013134,0.00066201,-0.0000
 5470,-0.00003122,0.00008059,0.00002497,-0.00003124,-0.00000362,0.00002
 029,-0.00013276,-0.00044862,-0.00008447,-0.00066353,0.00012940,-0.0000
 0733,-0.00000429,0.00040939,-0.00067737,-0.00005934,0.00008040,-0.0002
 3231,-0.00007282,0.00002317,0.00007153,-0.00077611,0.00454618,0.002313
 67,-0.00135113,-0.00042599,-0.00209458,-0.00022224,-0.00104991,0.00075
 372,-0.00007187,0.00025975,-0.00014762,-0.00053046,0.00086116,0.000615
 55,0.00001277,-0.00002716,-0.00005317,-0.00057530,0.00020617,0.0004643
 9,0.00009472,-0.00011231,-0.00004892,-0.00057670,0.00000025,-0.0005218
 3,0.00027428,0.00007189,0.00015508,0.00695879,0.00081349,0.00199720,-0
 .00087517,0.00075483,0.00213992,-0.01100290,-0.00201421,0.00027036,0.5
 1894424,0.00020095,0.00015314,-0.00027907,0.00047171,0.00064779,0.0001
 7109,0.00093528,0.00651978,-0.00004484,-0.00543163,-0.00394451,-0.0012
 9253,0.00008450,-0.00150377,0.00042370,-0.00024080,-0.00041703,-0.0002
 7932,0.00030733,0.00032433,0.00018143,0.00001156,0.00003619,0.00000197
 ,-0.00005680,-0.00005186,0.00000126,0.00028498,0.00042943,0.00013930,0
 .00014945,-0.00001451,0.00001208,0.00105202,-0.00010853,0.00025121,-0.
 00025041,-0.00005811,-0.00056353,-0.00032346,0.00003516,0.00010985,0.0
 0772906,-0.00394047,-0.00122257,-0.00134215,0.00103419,0.00172571,-0.0
 0035748,0.00020969,-0.00012956,0.00025581,0.00005982,0.00000979,0.0001
 3798,0.00009518,0.00009481,-0.00005500,0.00005018,0.00000398,0.0003209
 1,0.00022076,-0.00004255,0.00004155,-0.00001439,-0.00002137,-0.0000842
 5,0.00015666,0.00007891,0.00005142,0.00000771,-0.00001397,0.00188533,0
 .00299588,-0.00778260,0.00040521,-0.00000472,0.00017889,-0.00158081,-0
 .01042820,0.00399627,0.08489319,0.47324748,-0.00022812,-0.00018541,-0.
 00013695,-0.00006363,0.00072261,-0.00050369,-0.00019273,0.00036223,0.0
 0376213,-0.00218708,-0.00205407,-0.00132037,-0.00016583,0.00059036,-0.
 00048056,-0.00008807,-0.00019754,-0.00006753,0.00048686,-0.00001143,0.
 00027701,0.00009107,-0.00001104,0.00003060,-0.00013378,-0.00011679,0.0
 0029808,0.00019273,0.00020699,0.00005966,-0.00009358,0.00003825,0.0000
 4640,-0.00132833,-0.00027267,-0.00027363,0.00033053,-0.00054803,-0.000
 19106,-0.00013507,0.00002592,0.00013872,0.00334054,-0.00124927,0.00359
 993,-0.00350433,0.00325722,-0.00278412,0.00070415,0.00047157,0.0003263
 6,-0.00010124,-0.00005605,-0.00016763,0.00021269,-0.00015084,0.0003447
 4,-0.00012621,0.00007094,-0.00006745,0.00014671,0.00004385,0.00007526,
 -0.00000211,0.00001313,-0.00001561,0.00011976,0.00003765,0.00050504,0.
 00006515,0.00003784,-0.00014849,0.00516551,-0.01040843,-0.02193553,0.0
 0221943,-0.00087582,-0.00146024,0.00069623,0.00174449,0.00835361,0.025
 26144,-0.16202178,0.11267043,-0.00004838,0.00005283,-0.00023490,0.0003
 2727,0.00062806,0.00032221,0.00014995,0.00297719,-0.00052367,-0.004312
 63,-0.00181323,-0.00070674,-0.00038613,-0.00100912,0.00033872,-0.00026
 882,-0.00018880,-0.00012796,0.00011576,0.00008627,0.00010819,0.0000119
 8,-0.00000215,-0.00000508,0.00000533,-0.00002170,-0.00001949,0.0001188
 6,0.00022155,0.00002294,0.00012548,-0.00000193,0.00000146,0.00025195,-
 0.00014012,0.00018932,-0.00009971,0.00000984,0.00000182,-0.00003768,-0
 .00000642,0.00001691,0.00368025,-0.00164809,-0.00168720,0.00059246,0.0
 0029759,0.00194630,-0.00000310,0.00031550,-0.00021925,0.00003923,-0.00
 006275,0.00004497,0.00014517,-0.00021174,-0.00009363,-0.00001332,0.000
 07732,0.00003833,0.00038555,0.00004157,-0.00016757,0.00000014,0.000028
 68,-0.00000041,0.00016807,0.00007569,0.00011850,-0.00008009,-0.0000152
 7,-0.00003275,-0.00083074,-0.00002958,-0.00087044,0.00020462,0.0001098
 8,-0.00038241,0.00082095,0.00036969,0.00129699,-0.05866797,-0.04313467
 ,0.00718196,0.06941970,-0.00000330,0.00010930,0.00001182,-0.00035312,-
 0.00033087,-0.00026121,0.00094888,-0.00107337,-0.00033352,0.00165441,0
 .00237889,0.00122305,0.00000591,-0.00018940,-0.00010385,0.00005578,0.0
 0019967,0.00019066,-0.00008517,-0.00008517,-0.00005835,0.00000208,-0.0
 0001047,0.00000138,0.00000629,-0.00000304,0.00002590,-0.00005024,-0.00
 009734,0.00001433,0.00001735,-0.00001655,-0.00000787,-0.00013219,0.000
 02907,-0.00001668,0.00000133,-0.00006529,0.00013428,0.00001476,0.00000
 469,-0.00003207,-0.00146002,-0.00213399,-0.00047312,-0.00000735,0.0005
 4906,-0.00102370,0.00007146,-0.00001051,0.00001205,-0.00002174,-0.0000
 0691,-0.00000593,-0.00002405,-0.00009232,-0.00003002,0.00001457,-0.000
 02020,-0.00000595,-0.00015534,-0.00009756,0.00000709,-0.00002346,0.000
 00956,0.00001637,0.00003287,-0.00005918,-0.00003392,-0.00002543,-0.000
 01256,0.00000788,0.00059673,-0.00169075,-0.00147592,0.00000633,0.00008
 937,-0.00020697,0.00001833,0.00199781,0.00264161,-0.09973321,-0.417697
 84,0.15319973,0.09462911,0.42681309,0.00005605,0.00002892,0.00020042,-
 0.00019502,-0.00036534,-0.00015299,-0.00044063,-0.00085286,-0.00034385
 ,0.00214121,0.00170400,0.00138646,0.00023395,0.00027968,-0.00018679,0.
 00011553,0.00013959,0.00013192,-0.00033994,0.00000313,-0.00015474,-0.0
 0002749,0.00000902,-0.00000530,0.00004849,0.00002592,-0.00006432,-0.00
 005513,-0.00013458,0.00000048,-0.00004573,-0.00000548,-0.00001892,-0.0
 0003814,0.00011431,-0.00005547,-0.00000878,0.00006145,0.00010881,0.000
 06702,-0.00000849,-0.00003385,-0.00353310,0.00052224,-0.00144376,0.002
 10778,-0.00124643,-0.00121567,-0.00004144,-0.00015847,0.00003471,-0.00
 001277,0.00002660,-0.00000568,-0.00013393,0.00008101,-0.00004282,0.000
 03646,-0.00003208,0.00000997,-0.00020031,-0.00004637,0.00002975,-0.000
 00849,-0.00001260,0.00001443,-0.00005835,-0.00004566,-0.00019747,0.000
 00491,-0.00001417,0.00005677,-0.00119848,-0.00247154,0.00129304,0.0000
 4612,-0.00000341,-0.00090907,0.00168363,0.00725857,-0.00359276,0.02914
 950,0.15727413,-0.07133539,-0.02576493,-0.15839870,0.07263858,0.000127
 35,0.00138591,-0.00161992,-0.00105861,-0.00125526,0.00135474,-0.000102
 13,-0.00331937,-0.00220840,0.00584015,0.01268620,0.00067588,-0.0028113
 3,-0.00792115,0.00196613,-0.00084230,0.00064516,0.00060149,-0.00002010
 ,-0.00123662,-0.00002007,0.00002346,-0.00011907,-0.00003910,0.00007325
 ,0.00003680,-0.00008096,0.00012530,0.00058532,0.00011071,0.00093046,-0
 .00017681,0.00000850,0.00101192,-0.00036642,0.00119431,-0.00001817,0.0
 0005456,0.00027124,0.00005711,-0.00000348,-0.00017447,-0.00631897,-0.0
 0018294,-0.00081394,0.00225865,-0.00086580,0.00112236,-0.00001182,0.00
 124091,-0.00118108,0.00020472,-0.00030260,0.00021820,0.00078552,-0.001
 12497,-0.00100929,0.00001328,-0.00009895,0.00003509,0.00048712,-0.0003
 3534,-0.00054744,-0.00014288,0.00013135,0.00007132,0.00066761,-0.00002
 589,0.00058703,-0.00034036,-0.00009590,-0.00019556,-0.00239420,0.00199
 829,0.00379783,-0.00024328,0.00006749,-0.00018597,0.00156584,-0.001890
 22,-0.00858290,-0.43771601,-0.04636078,-0.03786465,-0.01181414,0.00399
 845,-0.00358803,0.44966256,-0.00041354,-0.00071029,0.00058123,-0.00017
 582,-0.00055762,-0.00008798,-0.00123119,-0.00937224,0.00040161,0.00693
 710,0.00040092,-0.00008807,-0.00107710,0.00351975,-0.00034478,0.000329
 81,0.00022292,0.00015079,-0.00015991,-0.00022463,-0.00013521,-0.000003
 76,-0.00002579,-0.00000144,-0.00000328,0.00004391,0.00003407,-0.000418
 70,-0.00060965,-0.00023084,-0.00035690,0.00007356,-0.00001359,-0.00123
 130,-0.00004124,-0.00034942,0.00037040,0.00000063,0.00053595,0.0003338
 1,-0.00000951,-0.00010055,-0.00317913,0.00265630,0.00142571,-0.0000052
 4,-0.00091134,-0.00206464,0.00038144,-0.00026213,0.00023129,-0.0002616
 1,-0.00007966,0.00003059,-0.00011117,0.00003208,-0.00000711,0.00002164
 ,-0.00004795,-0.00002266,-0.00027709,-0.00013756,0.00007778,-0.0000191
 4,-0.00000379,0.00000840,0.00005470,-0.00011499,-0.00013760,-0.0000395
 2,0.00000739,0.00003299,0.00054839,-0.00062444,0.00079603,-0.00005592,
 -0.00005394,0.00015410,-0.00126918,0.00093642,-0.00193912,0.01009630,-
 0.04803940,0.01733637,-0.05163521,-0.00848718,-0.00373239,0.04285113,0
 .06241947,0.00015565,-0.00004758,0.00023362,0.00008603,-0.00051798,0.0
 0000782,-0.00170859,0.00142729,-0.00386640,0.00150704,-0.00153678,0.00
 036477,0.00124604,0.00031472,-0.00006634,0.00012916,-0.00005740,-0.000
 01359,-0.00024348,0.00047419,-0.00011287,-0.00004588,0.00003476,-0.000
 00994,0.00001649,0.00001560,-0.00016250,-0.00023924,-0.00022631,0.0000
 7364,-0.00003642,-0.00000484,-0.00002520,0.00173134,0.00022540,0.00014
 169,-0.00033458,0.00059350,-0.00059131,-0.00018831,0.00002971,-0.00005
 124,-0.00066709,0.00112374,-0.00103157,0.00072768,-0.00198538,-0.00052
 748,-0.00084072,-0.00062670,-0.00004125,0.00011942,0.00013077,0.000113
 04,-0.00009677,0.00024534,-0.00006039,0.00004130,-0.00005578,0.0000090
 0,-0.00014484,0.00006873,0.00003479,0.00002402,-0.00003145,0.00000244,
 -0.00016338,0.00002282,-0.00045449,-0.00002563,-0.00001555,0.00014329,
 0.00250774,0.00068857,-0.00001345,-0.00028832,0.00032036,0.00061859,-0
 .00802425,-0.00208919,-0.00373074,-0.06054913,0.00903932,-0.02959970,0
 .01920779,0.00498163,0.00385351,0.04609693,-0.01254150,0.03476225\\-0.
 00000200,-0.00000223,0.00000652,0.00000196,0.00000320,-0.00000334,0.00
 000135,-0.00000312,0.00000223,0.00000193,-0.00000500,-0.00001206,-0.00
 000126,-0.00000723,0.00000342,-0.00000717,-0.00000166,-0.00000062,0.00
 000016,-0.00000516,-0.00000275,0.00000033,-0.00000356,-0.00000433,-0.0
 0000232,0.00000422,-0.00000493,0.00000164,-0.00000311,0.00000501,0.000
 00262,0.00000135,0.00000094,-0.00000167,0.00000941,0.00001427,0.000003
 37,0.00000322,0.00000510,0.00000117,0.00000303,0.00000110,-0.00000117,
 -0.00000191,-0.00000669,-0.00000118,0.00000225,-0.00000505,0.00000336,
 0.00000107,0.00001706,-0.00000141,0.00000522,0.00001169,-0.00000529,-0
 .00000044,-0.00001942,-0.00000059,0.00000275,-0.00000797,0.00000469,0.
 00000488,-0.00001209,-0.00000349,0.00000029,-0.00000374,0.00000362,-0.
 00001504,0.00000317,0.00000097,-0.00000678,0.00000253,-0.00000265,0.00
 001139,-0.00000340,0.00000136,0.00000664,0.00000032,-0.00000079,0.0000
 0376,0.00000407,0.00000092,0.00001191,0.00000115,-0.00000368,-0.000019
 78,0.00000582,0.00000523,0.00000044,0.00000200\\\@


 A MAN IS EXACTLY AS GREAT AS THE TIDE SURGING
 BENEATH HIM.      - BISMARCK
 Job cpu time:       0 days  0 hours 35 minutes 48.2 seconds.
 File lengths (MBytes):  RWF=    220 Int=      0 D2E=      0 Chk=      6 Scr=      1
 Normal termination of Gaussian 09 at Tue Jan 31 07:03:37 2017.
