 Entering Gaussian System, Link 0=g09
 Initial command:
 /global/software/gaussian/g09.d01/l1.exe "/home/iawad/Gau-4458.inp" -scrdir="/home/iawad/"
 Entering Link 1 = /global/software/gaussian/g09.d01/l1.exe PID=      4459.
  
 Copyright (c) 1988,1990,1992,1993,1995,1998,2003,2009,2013,
            Gaussian, Inc.  All Rights Reserved.
  
 This is part of the Gaussian(R) 09 program.  It is based on
 the Gaussian(R) 03 system (copyright 2003, Gaussian, Inc.),
 the Gaussian(R) 98 system (copyright 1998, Gaussian, Inc.),
 the Gaussian(R) 94 system (copyright 1995, Gaussian, Inc.),
 the Gaussian 92(TM) system (copyright 1992, Gaussian, Inc.),
 the Gaussian 90(TM) system (copyright 1990, Gaussian, Inc.),
 the Gaussian 88(TM) system (copyright 1988, Gaussian, Inc.),
 the Gaussian 86(TM) system (copyright 1986, Carnegie Mellon
 University), and the Gaussian 82(TM) system (copyright 1983,
 Carnegie Mellon University). Gaussian is a federally registered
 trademark of Gaussian, Inc.
  
 This software contains proprietary and confidential information,
 including trade secrets, belonging to Gaussian, Inc.
  
 This software is provided under written license and may be
 used, copied, transmitted, or stored only in accord with that
 written license.
  
 The following legend is applicable only to US Government
 contracts under FAR:
  
                    RESTRICTED RIGHTS LEGEND
  
 Use, reproduction and disclosure by the US Government is
 subject to restrictions as set forth in subparagraphs (a)
 and (c) of the Commercial Computer Software - Restricted
 Rights clause in FAR 52.227-19.
  
 Gaussian, Inc.
 340 Quinnipiac St., Bldg. 40, Wallingford CT 06492
  
  
 ---------------------------------------------------------------
 Warning -- This program may not be used in any manner that
 competes with the business of Gaussian, Inc. or will provide
 assistance to any competitor of Gaussian, Inc.  The licensee
 of this program is prohibited from giving any competitor of
 Gaussian, Inc. access to this program.  By using this program,
 the user acknowledges that Gaussian, Inc. is engaged in the
 business of creating and licensing software in the field of
 computational chemistry and represents and warrants to the
 licensee that it is not a competitor of Gaussian, Inc. and that
 it will not use this program in any manner prohibited above.
 ---------------------------------------------------------------
  

 Cite this work as:
 Gaussian 09, Revision D.01,
 M. J. Frisch, G. W. Trucks, H. B. Schlegel, G. E. Scuseria, 
 M. A. Robb, J. R. Cheeseman, G. Scalmani, V. Barone, B. Mennucci, 
 G. A. Petersson, H. Nakatsuji, M. Caricato, X. Li, H. P. Hratchian, 
 A. F. Izmaylov, J. Bloino, G. Zheng, J. L. Sonnenberg, M. Hada, 
 M. Ehara, K. Toyota, R. Fukuda, J. Hasegawa, M. Ishida, T. Nakajima, 
 Y. Honda, O. Kitao, H. Nakai, T. Vreven, J. A. Montgomery, Jr., 
 J. E. Peralta, F. Ogliaro, M. Bearpark, J. J. Heyd, E. Brothers, 
 K. N. Kudin, V. N. Staroverov, T. Keith, R. Kobayashi, J. Normand, 
 K. Raghavachari, A. Rendell, J. C. Burant, S. S. Iyengar, J. Tomasi, 
 M. Cossi, N. Rega, J. M. Millam, M. Klene, J. E. Knox, J. B. Cross, 
 V. Bakken, C. Adamo, J. Jaramillo, R. Gomperts, R. E. Stratmann, 
 O. Yazyev, A. J. Austin, R. Cammi, C. Pomelli, J. W. Ochterski, 
 R. L. Martin, K. Morokuma, V. G. Zakrzewski, G. A. Voth, 
 P. Salvador, J. J. Dannenberg, S. Dapprich, A. D. Daniels, 
 O. Farkas, J. B. Foresman, J. V. Ortiz, J. Cioslowski, 
 and D. J. Fox, Gaussian, Inc., Wallingford CT, 2013.
 
 ******************************************
 Gaussian 09:  ES64L-G09RevD.01 24-Apr-2013
                25-Jan-2017 
 ******************************************
 %NPROCS=10
 Will use up to   10 processors via shared memory.
 ------------------------------------------------------
 # opt=(modredundant,MaxCycle=1000) freq B3LYP/6-31G(d)
 ------------------------------------------------------
 1/6=1000,14=-1,18=120,19=15,26=3,38=1/1,3;
 2/9=110,12=2,17=6,18=5,40=1/2;
 3/5=1,6=6,7=1,11=2,16=1,25=1,30=1,71=1,74=-5/1,2,3;
 4//1;
 5/5=2,38=5/2;
 6/7=2,8=2,9=2,10=2,28=1/1;
 7//1,2,3,16;
 1/6=1000,14=-1,18=20,19=15,26=3/3(2);
 2/9=110/2;
 99//99;
 2/9=110/2;
 3/5=1,6=6,7=1,11=2,16=1,25=1,30=1,71=1,74=-5/1,2,3;
 4/5=5,16=3,69=1/1;
 5/5=2,38=5/2;
 7//1,2,3,16;
 1/6=1000,14=-1,18=20,19=15,26=3/3(-5);
 2/9=110/2;
 6/7=2,8=2,9=2,10=2,19=2,28=1/1;
 99/9=1/99;
 ------------------------
 boat3_Beta_B3LYP_6-31G_d
 ------------------------
 Symbolic Z-matrix:
 Charge =  0 Multiplicity = 1
 C                    -0.99358   0.98965   0.49717 
 C                     1.29989   0.22713  -0.45043 
 O                    -0.14269  -1.29964   1.08227 
 C                     1.25261  -0.91284   0.56668 
 C                    -1.14204  -0.47295   0.41512 
 C                     0.40179   1.37653  -0.01852 
 H                     1.82593  -0.67134   1.46845 
 H                     0.93437   1.94212   0.75826 
 H                     1.03818  -0.12838  -1.44983 
 H                    -2.02987  -0.69378   1.02607 
 H                    -1.77792   1.51511  -0.05811 
 C                    -1.52465  -1.04564  -0.96465 
 H                    -1.54966  -2.14102  -0.9374 
 H                    -0.82791  -0.76921  -1.7543 
 O                     1.83381  -2.07635  -0.01262 
 H                     1.15336  -2.41589  -0.62303 
 O                    -2.80678  -0.56369  -1.36312 
 H                    -3.46689  -1.20068  -1.03483 
 O                     2.65705   0.69124  -0.60073 
 H                     2.59101   1.48318  -1.17151 
 O                     0.30337   2.29532  -1.12298 
 H                    -0.17952   3.07685  -0.79377 
 O                    -1.08345   1.45363   1.85473 
 H                    -1.89945   1.09286   2.24496 
 O                     0.83164  -3.45131  -2.11287 
 H                     1.53093  -4.09874  -2.22875 
 H                    -0.00043  -3.9032   -1.95457 
 O                    -0.63188  -3.6648   -0.32899 
 H                    -0.88169  -4.39906   0.23675 
 H                    -0.73157  -2.84056   0.15297 
 
 Add virtual bond connecting atoms H30        and H13        Dist= 2.90D+00.
 Add virtual bond connecting atoms H16        and O25        Dist= 3.48D+00.
 Add virtual bond connecting atoms O28        and H27        Dist= 3.33D+00.
 The following ModRedundant input section has been read:
 D       5       3       4       2 F                                           
 D       5       1       6       2 F                                           
 

 GradGradGradGradGradGradGradGradGradGradGradGradGradGradGradGradGradGrad
 Berny optimization.
 Initialization pass.
                           ----------------------------
                           !    Initial Parameters    !
                           ! (Angstroms and Degrees)  !
 --------------------------                            --------------------------
 ! Name  Definition              Value          Derivative Info.                !
 --------------------------------------------------------------------------------
 ! R1    R(1,5)                  1.4724         estimate D2E/DX2                !
 ! R2    R(1,6)                  1.5371         estimate D2E/DX2                !
 ! R3    R(1,11)                 1.0953         estimate D2E/DX2                !
 ! R4    R(1,23)                 1.4375         estimate D2E/DX2                !
 ! R5    R(2,4)                  1.5285         estimate D2E/DX2                !
 ! R6    R(2,6)                  1.5213         estimate D2E/DX2                !
 ! R7    R(2,9)                  1.0926         estimate D2E/DX2                !
 ! R8    R(2,19)                 1.4422         estimate D2E/DX2                !
 ! R9    R(3,4)                  1.537          estimate D2E/DX2                !
 ! R10   R(3,5)                  1.4585         estimate D2E/DX2                !
 ! R11   R(4,7)                  1.0955         estimate D2E/DX2                !
 ! R12   R(4,15)                 1.4238         estimate D2E/DX2                !
 ! R13   R(5,10)                 1.1001         estimate D2E/DX2                !
 ! R14   R(5,12)                 1.5421         estimate D2E/DX2                !
 ! R15   R(6,8)                  1.0986         estimate D2E/DX2                !
 ! R16   R(6,21)                 1.44           estimate D2E/DX2                !
 ! R17   R(12,13)                1.096          estimate D2E/DX2                !
 ! R18   R(12,14)                1.0888         estimate D2E/DX2                !
 ! R19   R(12,17)                1.4265         estimate D2E/DX2                !
 ! R20   R(13,30)                1.5322         estimate D2E/DX2                !
 ! R21   R(15,16)                0.9751         estimate D2E/DX2                !
 ! R22   R(16,25)                1.8426         estimate D2E/DX2                !
 ! R23   R(17,18)                0.9743         estimate D2E/DX2                !
 ! R24   R(19,20)                0.9784         estimate D2E/DX2                !
 ! R25   R(21,22)                0.9759         estimate D2E/DX2                !
 ! R26   R(23,24)                0.9738         estimate D2E/DX2                !
 ! R27   R(25,26)                0.96           estimate D2E/DX2                !
 ! R28   R(25,27)                0.96           estimate D2E/DX2                !
 ! R29   R(27,28)                1.7601         estimate D2E/DX2                !
 ! R30   R(28,29)                0.96           estimate D2E/DX2                !
 ! R31   R(28,30)                0.96           estimate D2E/DX2                !
 ! A1    A(5,1,6)              108.8357         estimate D2E/DX2                !
 ! A2    A(5,1,11)             112.0924         estimate D2E/DX2                !
 ! A3    A(5,1,23)             111.5276         estimate D2E/DX2                !
 ! A4    A(6,1,11)             111.0538         estimate D2E/DX2                !
 ! A5    A(6,1,23)             106.9995         estimate D2E/DX2                !
 ! A6    A(11,1,23)            106.2103         estimate D2E/DX2                !
 ! A7    A(4,2,6)              110.8744         estimate D2E/DX2                !
 ! A8    A(4,2,9)              111.0145         estimate D2E/DX2                !
 ! A9    A(4,2,19)             109.7837         estimate D2E/DX2                !
 ! A10   A(6,2,9)              111.3551         estimate D2E/DX2                !
 ! A11   A(6,2,19)             109.9992         estimate D2E/DX2                !
 ! A12   A(9,2,19)             103.5793         estimate D2E/DX2                !
 ! A13   A(4,3,5)              109.0228         estimate D2E/DX2                !
 ! A14   A(2,4,3)              116.0397         estimate D2E/DX2                !
 ! A15   A(2,4,7)              111.5395         estimate D2E/DX2                !
 ! A16   A(2,4,15)             109.0328         estimate D2E/DX2                !
 ! A17   A(3,4,7)              104.7397         estimate D2E/DX2                !
 ! A18   A(3,4,15)             107.5424         estimate D2E/DX2                !
 ! A19   A(7,4,15)             107.5438         estimate D2E/DX2                !
 ! A20   A(1,5,3)              117.9342         estimate D2E/DX2                !
 ! A21   A(1,5,10)             104.4671         estimate D2E/DX2                !
 ! A22   A(1,5,12)             116.3444         estimate D2E/DX2                !
 ! A23   A(3,5,10)             100.6709         estimate D2E/DX2                !
 ! A24   A(3,5,12)             111.6401         estimate D2E/DX2                !
 ! A25   A(10,5,12)            102.8329         estimate D2E/DX2                !
 ! A26   A(1,6,2)              116.1686         estimate D2E/DX2                !
 ! A27   A(1,6,8)              109.4174         estimate D2E/DX2                !
 ! A28   A(1,6,21)             110.8461         estimate D2E/DX2                !
 ! A29   A(2,6,8)              107.6695         estimate D2E/DX2                !
 ! A30   A(2,6,21)             107.7381         estimate D2E/DX2                !
 ! A31   A(8,6,21)             104.2971         estimate D2E/DX2                !
 ! A32   A(5,12,13)            110.7668         estimate D2E/DX2                !
 ! A33   A(5,12,14)            113.3195         estimate D2E/DX2                !
 ! A34   A(5,12,17)            110.3314         estimate D2E/DX2                !
 ! A35   A(13,12,14)           106.6414         estimate D2E/DX2                !
 ! A36   A(13,12,17)           108.911          estimate D2E/DX2                !
 ! A37   A(14,12,17)           106.6671         estimate D2E/DX2                !
 ! A38   A(12,13,30)           117.5048         estimate D2E/DX2                !
 ! A39   A(4,15,16)            104.7379         estimate D2E/DX2                !
 ! A40   A(15,16,25)           145.4496         estimate D2E/DX2                !
 ! A41   A(12,17,18)           107.0942         estimate D2E/DX2                !
 ! A42   A(2,19,20)            104.9367         estimate D2E/DX2                !
 ! A43   A(6,21,22)            106.6214         estimate D2E/DX2                !
 ! A44   A(1,23,24)            108.1351         estimate D2E/DX2                !
 ! A45   A(16,25,26)           110.4494         estimate D2E/DX2                !
 ! A46   A(16,25,27)           106.4106         estimate D2E/DX2                !
 ! A47   A(26,25,27)           109.5            estimate D2E/DX2                !
 ! A48   A(25,27,28)           113.5452         estimate D2E/DX2                !
 ! A49   A(27,28,29)           122.2777         estimate D2E/DX2                !
 ! A50   A(27,28,30)           128.1126         estimate D2E/DX2                !
 ! A51   A(29,28,30)           109.5            estimate D2E/DX2                !
 ! A52   A(13,30,28)            95.1737         estimate D2E/DX2                !
 ! D1    D(6,1,5,3)             55.2067         estimate D2E/DX2                !
 ! D2    D(6,1,5,10)           165.8932         estimate D2E/DX2                !
 ! D3    D(6,1,5,12)           -81.542          estimate D2E/DX2                !
 ! D4    D(11,1,5,3)           178.4442         estimate D2E/DX2                !
 ! D5    D(11,1,5,10)          -70.8693         estimate D2E/DX2                !
 ! D6    D(11,1,5,12)           41.6956         estimate D2E/DX2                !
 ! D7    D(23,1,5,3)           -62.6093         estimate D2E/DX2                !
 ! D8    D(23,1,5,10)           48.0772         estimate D2E/DX2                !
 ! D9    D(23,1,5,12)          160.6421         estimate D2E/DX2                !
 ! D10   D(5,1,6,2)             -1.3486         Frozen                          !
 ! D11   D(5,1,6,8)           -123.4755         estimate D2E/DX2                !
 ! D12   D(5,1,6,21)           122.0423         estimate D2E/DX2                !
 ! D13   D(11,1,6,2)          -125.2054         estimate D2E/DX2                !
 ! D14   D(11,1,6,8)           112.6676         estimate D2E/DX2                !
 ! D15   D(11,1,6,21)           -1.8145         estimate D2E/DX2                !
 ! D16   D(23,1,6,2)           119.2963         estimate D2E/DX2                !
 ! D17   D(23,1,6,8)            -2.8307         estimate D2E/DX2                !
 ! D18   D(23,1,6,21)         -117.3128         estimate D2E/DX2                !
 ! D19   D(5,1,23,24)          -51.9895         estimate D2E/DX2                !
 ! D20   D(6,1,23,24)         -170.9051         estimate D2E/DX2                !
 ! D21   D(11,1,23,24)          70.4035         estimate D2E/DX2                !
 ! D22   D(6,2,4,3)             44.6285         estimate D2E/DX2                !
 ! D23   D(6,2,4,7)            -75.192          estimate D2E/DX2                !
 ! D24   D(6,2,4,15)           166.1899         estimate D2E/DX2                !
 ! D25   D(9,2,4,3)            -79.7039         estimate D2E/DX2                !
 ! D26   D(9,2,4,7)            160.4756         estimate D2E/DX2                !
 ! D27   D(9,2,4,15)            41.8575         estimate D2E/DX2                !
 ! D28   D(19,2,4,3)           166.3751         estimate D2E/DX2                !
 ! D29   D(19,2,4,7)            46.5546         estimate D2E/DX2                !
 ! D30   D(19,2,4,15)          -72.0635         estimate D2E/DX2                !
 ! D31   D(4,2,6,1)            -44.6887         estimate D2E/DX2                !
 ! D32   D(4,2,6,8)             78.3555         estimate D2E/DX2                !
 ! D33   D(4,2,6,21)          -169.6813         estimate D2E/DX2                !
 ! D34   D(9,2,6,1)             79.4497         estimate D2E/DX2                !
 ! D35   D(9,2,6,8)           -157.5061         estimate D2E/DX2                !
 ! D36   D(9,2,6,21)           -45.5429         estimate D2E/DX2                !
 ! D37   D(19,2,6,1)          -166.309          estimate D2E/DX2                !
 ! D38   D(19,2,6,8)           -43.2647         estimate D2E/DX2                !
 ! D39   D(19,2,6,21)           68.6985         estimate D2E/DX2                !
 ! D40   D(4,2,19,20)         -173.0619         estimate D2E/DX2                !
 ! D41   D(6,2,19,20)          -50.7935         estimate D2E/DX2                !
 ! D42   D(9,2,19,20)           68.3219         estimate D2E/DX2                !
 ! D43   D(5,3,4,2)              1.7746         Frozen                          !
 ! D44   D(5,3,4,7)            125.215          estimate D2E/DX2                !
 ! D45   D(5,3,4,15)          -120.5764         estimate D2E/DX2                !
 ! D46   D(4,3,5,1)            -55.2971         estimate D2E/DX2                !
 ! D47   D(4,3,5,10)          -168.1059         estimate D2E/DX2                !
 ! D48   D(4,3,5,12)            83.3574         estimate D2E/DX2                !
 ! D49   D(2,4,15,16)          -76.19           estimate D2E/DX2                !
 ! D50   D(3,4,15,16)           50.3996         estimate D2E/DX2                !
 ! D51   D(7,4,15,16)          162.7203         estimate D2E/DX2                !
 ! D52   D(1,5,12,13)          176.4871         estimate D2E/DX2                !
 ! D53   D(1,5,12,14)           56.6862         estimate D2E/DX2                !
 ! D54   D(1,5,12,17)          -62.8387         estimate D2E/DX2                !
 ! D55   D(3,5,12,13)           37.1243         estimate D2E/DX2                !
 ! D56   D(3,5,12,14)          -82.6766         estimate D2E/DX2                !
 ! D57   D(3,5,12,17)          157.7985         estimate D2E/DX2                !
 ! D58   D(10,5,12,13)         -70.0145         estimate D2E/DX2                !
 ! D59   D(10,5,12,14)         170.1845         estimate D2E/DX2                !
 ! D60   D(10,5,12,17)          50.6597         estimate D2E/DX2                !
 ! D61   D(1,6,21,22)           58.8967         estimate D2E/DX2                !
 ! D62   D(2,6,21,22)         -172.9868         estimate D2E/DX2                !
 ! D63   D(8,6,21,22)          -58.7582         estimate D2E/DX2                !
 ! D64   D(5,12,13,30)         -23.0032         estimate D2E/DX2                !
 ! D65   D(14,12,13,30)        100.7223         estimate D2E/DX2                !
 ! D66   D(17,12,13,30)       -144.517          estimate D2E/DX2                !
 ! D67   D(5,12,17,18)         -90.4656         estimate D2E/DX2                !
 ! D68   D(13,12,17,18)         31.3131         estimate D2E/DX2                !
 ! D69   D(14,12,17,18)        146.0571         estimate D2E/DX2                !
 ! D70   D(12,13,30,28)       -155.1545         estimate D2E/DX2                !
 ! D71   D(4,15,16,25)         157.682          estimate D2E/DX2                !
 ! D72   D(15,16,25,26)         23.9426         estimate D2E/DX2                !
 ! D73   D(15,16,25,27)        142.7069         estimate D2E/DX2                !
 ! D74   D(16,25,27,28)         -6.878          estimate D2E/DX2                !
 ! D75   D(26,25,27,28)        112.5069         estimate D2E/DX2                !
 ! D76   D(25,27,28,29)       -127.275          estimate D2E/DX2                !
 ! D77   D(25,27,28,30)         48.5031         estimate D2E/DX2                !
 ! D78   D(27,28,30,13)         54.0964         estimate D2E/DX2                !
 ! D79   D(29,28,30,13)       -129.6896         estimate D2E/DX2                !
 --------------------------------------------------------------------------------
 Trust Radius=3.00D-01 FncErr=1.00D-07 GrdErr=1.00D-06
 Number of steps in this run=    180 maximum allowed number of steps=    180.
 GradGradGradGradGradGradGradGradGradGradGradGradGradGradGradGradGradGrad

                          Input orientation:                          
 ---------------------------------------------------------------------
 Center     Atomic      Atomic             Coordinates (Angstroms)
 Number     Number       Type             X           Y           Z
 ---------------------------------------------------------------------
      1          6           0       -0.993577    0.989652    0.497170
      2          6           0        1.299888    0.227130   -0.450426
      3          8           0       -0.142688   -1.299636    1.082270
      4          6           0        1.252613   -0.912840    0.566679
      5          6           0       -1.142041   -0.472949    0.415122
      6          6           0        0.401789    1.376528   -0.018519
      7          1           0        1.825928   -0.671336    1.468453
      8          1           0        0.934373    1.942119    0.758259
      9          1           0        1.038184   -0.128382   -1.449833
     10          1           0       -2.029874   -0.693780    1.026072
     11          1           0       -1.777917    1.515113   -0.058107
     12          6           0       -1.524650   -1.045638   -0.964654
     13          1           0       -1.549658   -2.141017   -0.937400
     14          1           0       -0.827906   -0.769213   -1.754300
     15          8           0        1.833806   -2.076347   -0.012616
     16          1           0        1.153362   -2.415889   -0.623026
     17          8           0       -2.806782   -0.563688   -1.363115
     18          1           0       -3.466888   -1.200676   -1.034826
     19          8           0        2.657052    0.691237   -0.600733
     20          1           0        2.591007    1.483181   -1.171509
     21          8           0        0.303367    2.295320   -1.122983
     22          1           0       -0.179516    3.076855   -0.793765
     23          8           0       -1.083453    1.453635    1.854730
     24          1           0       -1.899447    1.092862    2.244957
     25          8           0        0.831639   -3.451315   -2.112872
     26          1           0        1.530929   -4.098745   -2.228748
     27          1           0       -0.000431   -3.903202   -1.954574
     28          8           0       -0.631876   -3.664800   -0.328991
     29          1           0       -0.881693   -4.399055    0.236748
     30          1           0       -0.731571   -2.840557    0.152967
 ---------------------------------------------------------------------
                    Distance matrix (angstroms):
                    1          2          3          4          5
     1  C    0.000000
     2  C    2.596028   0.000000
     3  O    2.511413   2.600230   0.000000
     4  C    2.944431   1.528486   1.536981   0.000000
     5  C    1.472405   2.683710   1.458494   2.439435   0.000000
     6  C    1.537093   1.521263   2.944494   2.511486   2.447860
     7  H    3.413485   2.183130   2.102224   1.095541   3.155583
     8  H    2.166184   2.129720   3.431329   2.879022   3.203403
     9  H    3.028015   1.092562   3.029495   2.174322   2.889665
    10  H    2.046361   3.757052   1.982849   3.321709   1.100124
    11  H    1.095277   3.359419   3.449238   3.933119   2.140251
    12  C    2.561518   3.140443   2.482787   3.174241   1.542123
    13  H    3.488310   3.737001   2.601260   3.409310   2.185845
    14  H    2.861847   2.687060   2.965974   3.120277   2.211978
    15  O    4.201705   2.404735   2.389264   1.423768   3.407273
    16  H    4.178743   2.652699   2.415326   1.919480   3.181453
    17  O    3.026754   4.280553   3.690383   4.508292   2.437565
    18  H    3.641678   5.010220   3.942359   4.992130   2.834934
    19  O    3.823812   1.442179   3.825522   2.430712   4.101268
    20  H    3.984633   1.940261   4.505184   3.248617   4.503275
    21  O    2.451883   2.392237   4.240969   3.748108   3.481133
    22  H    2.585658   3.229156   4.761779   4.451906   3.871559
    23  O    1.437472   3.535304   3.010355   3.566018   2.405749
    24  H    1.971297   4.272040   3.187803   4.095722   2.524624
    25  O    5.464972   4.063735   3.973407   3.714979   4.376851
    26  H    6.300440   4.682841   4.647456   4.247571   5.223142
    27  H    5.562140   4.583986   4.002651   4.107201   4.322657
    28  O    4.741022   4.346674   2.797314   3.453521   3.316909
    29  H    5.396156   5.160726   3.296579   4.100953   3.938770
    30  H    3.854559   3.728486   1.893363   2.797183   2.417184
                    6          7          8          9         10
     6  C    0.000000
     7  H    2.903964   0.000000
     8  H    1.098600   2.851209   0.000000
     9  H    2.172191   3.071113   3.028766   0.000000
    10  H    3.360109   3.881161   3.975732   3.982808   0.000000
    11  H    2.184466   4.483151   2.864490   3.545194   2.473486
    12  C    3.236237   4.157702   4.235790   2.764937   2.083758
    13  H    4.126210   4.398030   5.071259   3.318164   2.486026
    14  H    3.021471   4.175949   4.095107   1.996411   3.029998
    15  O    3.738055   2.041490   4.189427   2.548171   4.233012
    16  H    3.913147   2.805369   4.576914   2.435070   3.977207
    17  O    3.983379   5.430595   4.977503   3.870501   2.515696
    18  H    4.758311   5.878819   5.697667   4.649486   2.563055
    19  O    2.427923   2.613217   2.525705   2.003367   5.150926
    20  H    2.476578   3.492376   2.584389   2.255185   5.560671
    21  O    1.440037   4.223124   2.015438   2.553648   4.358574
    22  H    1.957047   4.815431   2.221971   3.490954   4.577480
    23  O    2.391851   3.623425   2.347869   4.233705   2.488730
    24  H    3.240290   4.194493   3.310898   4.875714   2.166744
    25  O    5.280071   4.641420   6.110898   3.394726   5.064111
    26  H    6.011546   5.050094   6.765362   4.075940   5.904825
    27  H    5.637875   5.049521   6.511612   3.947499   4.827347
    28  O    5.155564   4.269945   5.922228   4.068371   3.552120
    29  H    5.921980   4.769088   6.616688   4.976860   3.958588
    30  H    4.370093   3.602336   5.100562   3.613432   2.656417
                   11         12         13         14         15
    11  H    0.000000
    12  C    2.728263   0.000000
    13  H    3.767299   1.096003   0.000000
    14  H    2.999623   1.088763   1.752169   0.000000
    15  O    5.093643   3.639775   3.508167   3.439008   0.000000
    16  H    4.936022   3.027548   2.735087   2.813672   0.975137
    17  O    2.661395   1.426503   2.061446   2.027613   5.064291
    18  H    3.343967   1.949679   2.137640   2.769121   5.468919
    19  O    4.543365   4.542665   5.082462   3.950767   2.946716
    20  H    4.508678   4.834909   5.507697   4.135443   3.819244
    21  O    2.464635   3.811655   4.811365   3.327116   4.763048
    22  H    2.352683   4.339762   5.396676   4.016874   5.587410
    23  O    2.035929   3.793408   4.575463   4.246346   4.945519
    24  H    2.344604   3.874953   4.550574   4.539778   5.392374
    25  O    5.974717   3.557778   2.961281   3.174324   2.702952
    26  H    6.868446   4.500662   3.871730   4.107918   3.015471
    27  H    6.009507   3.386570   2.557350   3.247570   3.236206
    28  O    5.312089   2.839212   1.880000   3.233320   2.950062
    29  H    5.988952   3.619692   2.631261   4.140401   3.582051
    30  H    4.484557   2.258271   1.532163   2.817342   2.681901
                   16         17         18         19         20
    16  H    0.000000
    17  O    4.434086   0.000000
    18  H    4.795105   0.974304   0.000000
    19  O    3.451929   5.657698   6.424205   0.000000
    20  H    4.191707   5.776029   6.627206   0.978429   0.000000
    21  O    4.813309   4.231385   5.142430   2.895800   2.428008
    22  H    5.654729   4.525510   5.400203   3.711408   3.218429
    23  O    5.110365   4.170609   4.590824   4.538935   4.760321
    24  H    5.464092   4.072542   4.298158   5.387108   5.655861
    25  O    1.842621   4.705170   4.970401   4.772780   5.322668
    26  H    2.356460   5.662304   5.899358   5.182906   5.779223
    27  H    2.305723   4.402020   4.490646   5.477588   6.028421
    28  O    2.198479   3.926388   3.821963   5.464975   6.131763
    29  H    2.968772   4.579909   4.304621   6.255811   6.974492
    30  H    2.082182   3.433532   3.403237   4.952211   5.611459
                   21         22         23         24         25
    21  O    0.000000
    22  H    0.975888   0.000000
    23  O    3.390941   3.235193   0.000000
    24  H    4.200156   4.015996   0.973797   0.000000
    25  O    5.855148   6.736429   6.593024   6.862874   0.000000
    26  H    6.604066   7.514921   7.371479   7.663830   0.960000
    27  H    6.261430   7.078188   6.661789   6.797277   0.960000
    28  O    6.085075   6.772781   5.583094   5.555834   2.317257
    29  H    6.933101   7.579198   6.075570   5.935476   3.058501
    30  H    5.392252   6.018042   4.632483   4.605664   2.819694
                   26         27         28         29         30
    26  H    0.000000
    27  H    1.567952   0.000000
    28  O    2.911204   1.760136   0.000000
    29  H    3.462600   2.413377   0.960000   0.000000
    30  H    3.517742   2.470933   0.960000   1.567952   0.000000
 Stoichiometry    C6H16O8
 Framework group  C1[X(C6H16O8)]
 Deg. of freedom    84
 Full point group                 C1      NOp   1
 Largest Abelian subgroup         C1      NOp   1
 Largest concise Abelian subgroup C1      NOp   1
                         Standard orientation:                         
 ---------------------------------------------------------------------
 Center     Atomic      Atomic             Coordinates (Angstroms)
 Number     Number       Type             X           Y           Z
 ---------------------------------------------------------------------
      1          6           0       -1.728309   -0.944551    0.234306
      2          6           0       -0.665285    1.372157   -0.257835
      3          8           0        0.389894   -0.307326    1.423572
      4          6           0        0.196671    1.153109    0.985273
      5          6           0       -0.295908   -1.181832    0.479051
      6          6           0       -1.921583    0.515962   -0.204100
      7          1           0       -0.227985    1.653529    1.862460
      8          1           0       -2.632676    1.009346    0.472540
      9          1           0       -0.093510    1.182874   -1.169393
     10          1           0       -0.264847   -2.136136    1.025505
     11          1           0       -2.139319   -1.636144   -0.508932
     12          6           0        0.572017   -1.469776   -0.762697
     13          1           0        1.627325   -1.570255   -0.484393
     14          1           0        0.521432   -0.684695   -1.515355
     15          8           0        1.488274    1.707500    0.758274
     16          1           0        1.934132    1.066615    0.174006
     17          8           0        0.144722   -2.673533   -1.397754
     18          1           0        0.656567   -3.402703   -1.003302
     19          8           0       -1.022115    2.765371   -0.365109
     20          1           0       -1.657462    2.806496   -1.108053
     21          8           0       -2.554324    0.583787   -1.495899
     22          1           0       -3.411574    0.125183   -1.411267
     23          8           0       -2.505557   -1.131077    1.429052
     24          1           0       -2.283102   -2.002515    1.802403
     25          8           0        3.279851    0.818677   -1.060020
     26          1           0        3.965386    1.481035   -0.946337
     27          1           0        3.645250   -0.052904   -0.891410
     28          8           0        3.000043   -0.817724    0.556636
     29          1           0        3.567181   -1.168269    1.247341
     30          1           0        2.081282   -0.907285    0.820183
 ---------------------------------------------------------------------
 Rotational constants (GHZ):      0.7410228      0.5255080      0.4130754
 Standard basis: 6-31G(d) (6D, 7F)
 There are   242 symmetry adapted cartesian basis functions of A   symmetry.
 There are   242 symmetry adapted basis functions of A   symmetry.
   242 basis functions,   456 primitive gaussians,   242 cartesian basis functions
    58 alpha electrons       58 beta electrons
       nuclear repulsion energy      1118.1149742046 Hartrees.
 NAtoms=   30 NActive=   30 NUniq=   30 SFac= 1.00D+00 NAtFMM=   60 NAOKFM=F Big=F
 Integral buffers will be    131072 words long.
 Raffenetti 2 integral format.
 Two-electron integral symmetry is turned on.
 One-electron integrals computed using PRISM.
 NBasis=   242 RedAO= T EigKep=  1.34D-03  NBF=   242
 NBsUse=   242 1.00D-06 EigRej= -1.00D+00 NBFU=   242
 ExpMin= 1.61D-01 ExpMax= 5.48D+03 ExpMxC= 8.25D+02 IAcc=1 IRadAn=         1 AccDes= 0.00D+00
 Harris functional with IExCor=  402 and IRadAn=       1 diagonalized for initial guess.
 HarFok:  IExCor=  402 AccDes= 0.00D+00 IRadAn=         1 IDoV= 1 UseB2=F ITyADJ=14
 ICtDFT=  3500011 ScaDFX=  1.000000  1.000000  1.000000  1.000000
 FoFCou: FMM=F IPFlag=           0 FMFlag=      100000 FMFlg1=           0
         NFxFlg=           0 DoJE=T BraDBF=F KetDBF=T FulRan=T
         wScrn=  0.000000 ICntrl=     500 IOpCl=  0 I1Cent=   200000004 NGrid=           0
         NMat0=    1 NMatS0=      1 NMatT0=    0 NMatD0=    1 NMtDS0=    0 NMtDT0=    0
 Petite list used in FoFCou.
 Requested convergence on RMS density matrix=1.00D-08 within 128 cycles.
 Requested convergence on MAX density matrix=1.00D-06.
 Requested convergence on             energy=1.00D-06.
 No special actions if energy rises.
 Integral accuracy reduced to 1.0D-05 until final iterations.
 Initial convergence to 1.0D-05 achieved.  Increase integral accuracy.
 SCF Done:  E(RB3LYP) =  -839.913939803     A.U. after   14 cycles
            NFock= 14  Conv=0.49D-08     -V/T= 2.0081

 **********************************************************************

            Population analysis using the SCF density.

 **********************************************************************

 Orbital symmetries:
       Occupied  (A) (A) (A) (A) (A) (A) (A) (A) (A) (A) (A) (A)
                 (A) (A) (A) (A) (A) (A) (A) (A) (A) (A) (A) (A)
                 (A) (A) (A) (A) (A) (A) (A) (A) (A) (A) (A) (A)
                 (A) (A) (A) (A) (A) (A) (A) (A) (A) (A) (A) (A)
                 (A) (A) (A) (A) (A) (A) (A) (A) (A) (A)
       Virtual   (A) (A) (A) (A) (A) (A) (A) (A) (A) (A) (A) (A)
                 (A) (A) (A) (A) (A) (A) (A) (A) (A) (A) (A) (A)
                 (A) (A) (A) (A) (A) (A) (A) (A) (A) (A) (A) (A)
                 (A) (A) (A) (A) (A) (A) (A) (A) (A) (A) (A) (A)
                 (A) (A) (A) (A) (A) (A) (A) (A) (A) (A) (A) (A)
                 (A) (A) (A) (A) (A) (A) (A) (A) (A) (A) (A) (A)
                 (A) (A) (A) (A) (A) (A) (A) (A) (A) (A) (A) (A)
                 (A) (A) (A) (A) (A) (A) (A) (A) (A) (A) (A) (A)
                 (A) (A) (A) (A) (A) (A) (A) (A) (A) (A) (A) (A)
                 (A) (A) (A) (A) (A) (A) (A) (A) (A) (A) (A) (A)
                 (A) (A) (A) (A) (A) (A) (A) (A) (A) (A) (A) (A)
                 (A) (A) (A) (A) (A) (A) (A) (A) (A) (A) (A) (A)
                 (A) (A) (A) (A) (A) (A) (A) (A) (A) (A) (A) (A)
                 (A) (A) (A) (A) (A) (A) (A) (A) (A) (A) (A) (A)
                 (A) (A) (A) (A) (A) (A) (A) (A) (A) (A) (A) (A)
                 (A) (A) (A) (A)
 The electronic state is 1-A.
 Alpha  occ. eigenvalues --  -19.17325 -19.15477 -19.15283 -19.15208 -19.15101
 Alpha  occ. eigenvalues --  -19.13805 -19.12578 -19.11941 -10.28297 -10.24540
 Alpha  occ. eigenvalues --  -10.24272 -10.23814 -10.23791 -10.23168  -1.05107
 Alpha  occ. eigenvalues --   -1.03225  -1.02537  -1.02358  -1.01979  -1.00068
 Alpha  occ. eigenvalues --   -0.99199  -0.97678  -0.79186  -0.75758  -0.69556
 Alpha  occ. eigenvalues --   -0.64755  -0.62916  -0.57333  -0.56521  -0.54511
 Alpha  occ. eigenvalues --   -0.53613  -0.52121  -0.51253  -0.49252  -0.48143
 Alpha  occ. eigenvalues --   -0.47364  -0.45610  -0.44876  -0.43560  -0.43370
 Alpha  occ. eigenvalues --   -0.41952  -0.40135  -0.38605  -0.36628  -0.36271
 Alpha  occ. eigenvalues --   -0.35615  -0.35012  -0.34387  -0.33861  -0.32206
 Alpha  occ. eigenvalues --   -0.31125  -0.29980  -0.28667  -0.27541  -0.27261
 Alpha  occ. eigenvalues --   -0.26319  -0.26090  -0.25013
 Alpha virt. eigenvalues --    0.04941   0.05301   0.06265   0.06478   0.07974
 Alpha virt. eigenvalues --    0.09965   0.10389   0.11323   0.12351   0.14550
 Alpha virt. eigenvalues --    0.14676   0.16161   0.17905   0.18225   0.18744
 Alpha virt. eigenvalues --    0.19438   0.20125   0.21551   0.22526   0.23893
 Alpha virt. eigenvalues --    0.25748   0.26340   0.27435   0.29803   0.30630
 Alpha virt. eigenvalues --    0.31400   0.34037   0.37547   0.51787   0.52414
 Alpha virt. eigenvalues --    0.55714   0.56124   0.57875   0.58243   0.61079
 Alpha virt. eigenvalues --    0.63615   0.64643   0.65792   0.67164   0.69406
 Alpha virt. eigenvalues --    0.70652   0.73547   0.75616   0.76936   0.77531
 Alpha virt. eigenvalues --    0.78939   0.79560   0.79818   0.80709   0.81535
 Alpha virt. eigenvalues --    0.81998   0.83976   0.84207   0.84451   0.85897
 Alpha virt. eigenvalues --    0.86451   0.86694   0.88472   0.89827   0.91228
 Alpha virt. eigenvalues --    0.92680   0.93722   0.94393   0.95393   0.95641
 Alpha virt. eigenvalues --    0.96405   0.97890   0.99828   1.00833   1.02221
 Alpha virt. eigenvalues --    1.02864   1.05827   1.07109   1.07467   1.08279
 Alpha virt. eigenvalues --    1.10014   1.11419   1.13040   1.13851   1.17258
 Alpha virt. eigenvalues --    1.19017   1.20799   1.21310   1.22859   1.26320
 Alpha virt. eigenvalues --    1.26456   1.29044   1.30212   1.31905   1.35276
 Alpha virt. eigenvalues --    1.37021   1.37441   1.40480   1.41705   1.46858
 Alpha virt. eigenvalues --    1.50041   1.56274   1.57324   1.58838   1.62018
 Alpha virt. eigenvalues --    1.62483   1.64059   1.66838   1.69702   1.71937
 Alpha virt. eigenvalues --    1.73353   1.73456   1.74108   1.75285   1.76987
 Alpha virt. eigenvalues --    1.77704   1.78635   1.78938   1.80784   1.81457
 Alpha virt. eigenvalues --    1.83605   1.84885   1.86922   1.88732   1.91179
 Alpha virt. eigenvalues --    1.91600   1.92361   1.92521   1.95757   1.96859
 Alpha virt. eigenvalues --    2.00455   2.00932   2.02845   2.03469   2.05824
 Alpha virt. eigenvalues --    2.07694   2.09533   2.11658   2.15070   2.15854
 Alpha virt. eigenvalues --    2.19193   2.21138   2.24146   2.26389   2.30991
 Alpha virt. eigenvalues --    2.31572   2.31871   2.33536   2.37482   2.40199
 Alpha virt. eigenvalues --    2.40426   2.42110   2.46648   2.47914   2.49558
 Alpha virt. eigenvalues --    2.51421   2.52568   2.53559   2.54531   2.55407
 Alpha virt. eigenvalues --    2.61621   2.63194   2.64873   2.67850   2.71100
 Alpha virt. eigenvalues --    2.74938   2.78160   2.81659   2.85991   2.92694
 Alpha virt. eigenvalues --    2.93034   2.96842   2.99136   3.03339   3.08730
 Alpha virt. eigenvalues --    3.69266   3.72268   3.76575   3.81433   3.87350
 Alpha virt. eigenvalues --    3.95422   4.05972   4.14600   4.32559   4.39641
 Alpha virt. eigenvalues --    4.43913   4.57099   4.59886   4.78860
          Condensed to atoms (all electrons):
               1          2          3          4          5          6
     1  C    5.051102  -0.037260  -0.024084  -0.012972   0.288662   0.235836
     2  C   -0.037260   5.022145  -0.028907   0.289206   0.006239   0.275107
     3  O   -0.024084  -0.028907   8.365759   0.178291   0.166738  -0.004746
     4  C   -0.012972   0.289206   0.178291   4.724869  -0.029576  -0.030581
     5  C    0.288662   0.006239   0.166738  -0.029576   5.138669  -0.028375
     6  C    0.235836   0.275107  -0.004746  -0.030581  -0.028375   5.111405
     7  H    0.001851  -0.052744  -0.033495   0.366031   0.000011  -0.004154
     8  H   -0.047963  -0.033517   0.000353  -0.005131   0.002755   0.344901
     9  H    0.001843   0.353201   0.001541  -0.039939  -0.003185  -0.048579
    10  H   -0.045940   0.000221  -0.040655   0.004994   0.341297   0.007152
    11  H    0.365955   0.001346   0.002561   0.000606  -0.046827  -0.046298
    12  C   -0.037498  -0.004779  -0.037185  -0.002376   0.242865  -0.007804
    13  H    0.004048   0.000180  -0.003585  -0.000075  -0.033752  -0.000190
    14  H   -0.007005  -0.000847   0.002637   0.000715  -0.047408   0.001545
    15  O    0.000001  -0.042212  -0.048948   0.287252   0.001084   0.004280
    16  H    0.000102  -0.006997   0.001412  -0.011344  -0.001086  -0.000066
    17  O   -0.001997  -0.000009   0.001550   0.000020  -0.046763   0.000183
    18  H   -0.000446  -0.000001  -0.000016   0.000001  -0.001922  -0.000010
    19  O    0.004449   0.219760   0.000609  -0.030902  -0.000152  -0.031653
    20  H    0.000665  -0.027986  -0.000057   0.005324  -0.000038  -0.007826
    21  O   -0.037657  -0.034578   0.000016   0.002017   0.002774   0.192382
    22  H   -0.002237   0.005489   0.000004  -0.000204   0.000274  -0.022287
    23  O    0.190128   0.000391  -0.000166   0.001952  -0.023870  -0.034038
    24  H   -0.023604  -0.000273  -0.000061   0.000047  -0.007246   0.006406
    25  O    0.000000  -0.000082  -0.000116   0.000561   0.000012   0.000002
    26  H    0.000000   0.000010   0.000011  -0.000046  -0.000004   0.000000
    27  H    0.000001  -0.000011   0.000133  -0.000071  -0.000013   0.000000
    28  O   -0.000057  -0.000108  -0.018193   0.000247   0.001256   0.000003
    29  H    0.000007   0.000004   0.000473   0.000064  -0.000103   0.000000
    30  H    0.001404   0.000680   0.053214  -0.002405  -0.002017  -0.000046
               7          8          9         10         11         12
     1  C    0.001851  -0.047963   0.001843  -0.045940   0.365955  -0.037498
     2  C   -0.052744  -0.033517   0.353201   0.000221   0.001346  -0.004779
     3  O   -0.033495   0.000353   0.001541  -0.040655   0.002561  -0.037185
     4  C    0.366031  -0.005131  -0.039939   0.004994   0.000606  -0.002376
     5  C    0.000011   0.002755  -0.003185   0.341297  -0.046827   0.242865
     6  C   -0.004154   0.344901  -0.048579   0.007152  -0.046298  -0.007804
     7  H    0.584114   0.003465   0.005834  -0.000309   0.000010  -0.000016
     8  H    0.003465   0.607917   0.007080  -0.000472   0.004007   0.000106
     9  H    0.005834   0.007080   0.598423  -0.000070   0.000037  -0.002162
    10  H   -0.000309  -0.000472  -0.000070   0.677465  -0.002804  -0.056544
    11  H    0.000010   0.004007   0.000037  -0.002804   0.589450   0.000253
    12  C   -0.000016   0.000106  -0.002162  -0.056544   0.000253   5.183800
    13  H    0.000010   0.000009   0.000393  -0.006411   0.000365   0.334260
    14  H    0.000022  -0.000005   0.009741   0.006653   0.000315   0.368441
    15  O   -0.043726  -0.000075  -0.002000  -0.000149   0.000003   0.001646
    16  H    0.005278   0.000008   0.003968  -0.000041   0.000000   0.001821
    17  O    0.000002  -0.000003   0.000107   0.005506   0.012061   0.201317
    18  H    0.000000   0.000000   0.000001   0.004372  -0.000250  -0.030099
    19  O    0.002800   0.001650  -0.040153   0.000002  -0.000050   0.000092
    20  H   -0.000298  -0.000764  -0.001869   0.000000  -0.000011  -0.000011
    21  O   -0.000091  -0.042169  -0.000719  -0.000136   0.002056   0.001146
    22  H    0.000008  -0.004653  -0.000141   0.000005   0.003132  -0.000053
    23  O    0.000192   0.003576  -0.000076  -0.007809  -0.040175   0.003828
    24  H   -0.000008  -0.000032   0.000011   0.010602  -0.002314  -0.000049
    25  O   -0.000042   0.000000   0.000588   0.000000   0.000000   0.000027
    26  H    0.000004   0.000000  -0.000010   0.000000   0.000000   0.000034
    27  H    0.000007   0.000000   0.000000   0.000003   0.000000  -0.000498
    28  O   -0.000062   0.000000  -0.000045   0.000323   0.000000  -0.032323
    29  H    0.000003   0.000000   0.000002   0.000008   0.000000   0.001475
    30  H    0.000260  -0.000001  -0.000095  -0.000802  -0.000034   0.002904
              13         14         15         16         17         18
     1  C    0.004048  -0.007005   0.000001   0.000102  -0.001997  -0.000446
     2  C    0.000180  -0.000847  -0.042212  -0.006997  -0.000009  -0.000001
     3  O   -0.003585   0.002637  -0.048948   0.001412   0.001550  -0.000016
     4  C   -0.000075   0.000715   0.287252  -0.011344   0.000020   0.000001
     5  C   -0.033752  -0.047408   0.001084  -0.001086  -0.046763  -0.001922
     6  C   -0.000190   0.001545   0.004280  -0.000066   0.000183  -0.000010
     7  H    0.000010   0.000022  -0.043726   0.005278   0.000002   0.000000
     8  H    0.000009  -0.000005  -0.000075   0.000008  -0.000003   0.000000
     9  H    0.000393   0.009741  -0.002000   0.003968   0.000107   0.000001
    10  H   -0.006411   0.006653  -0.000149  -0.000041   0.005506   0.004372
    11  H    0.000365   0.000315   0.000003   0.000000   0.012061  -0.000250
    12  C    0.334260   0.368441   0.001646   0.001821   0.201317  -0.030099
    13  H    0.574019  -0.032708  -0.000010  -0.000714  -0.016002  -0.009874
    14  H   -0.032708   0.541934  -0.000367   0.000163  -0.033077   0.006709
    15  O   -0.000010  -0.000367   8.316048   0.188231   0.000001   0.000000
    16  H   -0.000714   0.000163   0.188231   0.308910   0.000024   0.000001
    17  O   -0.016002  -0.033077   0.000001   0.000024   8.262728   0.234757
    18  H   -0.009874   0.006709   0.000000   0.000001   0.234757   0.404311
    19  O   -0.000004  -0.000028   0.001184   0.000012   0.000000   0.000000
    20  H    0.000000  -0.000004  -0.000107  -0.000022   0.000000   0.000000
    21  O    0.000012   0.000401  -0.000012  -0.000004  -0.000030   0.000000
    22  H    0.000000  -0.000010   0.000001   0.000000  -0.000006   0.000000
    23  O   -0.000060  -0.000026   0.000002   0.000000  -0.000023  -0.000007
    24  H   -0.000010   0.000017   0.000000   0.000000  -0.000016  -0.000005
    25  O    0.000313   0.001053  -0.020557   0.049426   0.000004   0.000000
    26  H   -0.000020  -0.000025   0.001966  -0.003061   0.000000   0.000000
    27  H    0.001201   0.000025   0.001560  -0.004788  -0.000008   0.000003
    28  O    0.029382   0.000904  -0.002998   0.013548   0.000223   0.000171
    29  H    0.000630  -0.000022   0.000265  -0.000123  -0.000026  -0.000013
    30  H   -0.005583  -0.000852   0.002067  -0.001335  -0.000419  -0.000206
              19         20         21         22         23         24
     1  C    0.004449   0.000665  -0.037657  -0.002237   0.190128  -0.023604
     2  C    0.219760  -0.027986  -0.034578   0.005489   0.000391  -0.000273
     3  O    0.000609  -0.000057   0.000016   0.000004  -0.000166  -0.000061
     4  C   -0.030902   0.005324   0.002017  -0.000204   0.001952   0.000047
     5  C   -0.000152  -0.000038   0.002774   0.000274  -0.023870  -0.007246
     6  C   -0.031653  -0.007826   0.192382  -0.022287  -0.034038   0.006406
     7  H    0.002800  -0.000298  -0.000091   0.000008   0.000192  -0.000008
     8  H    0.001650  -0.000764  -0.042169  -0.004653   0.003576  -0.000032
     9  H   -0.040153  -0.001869  -0.000719  -0.000141  -0.000076   0.000011
    10  H    0.000002   0.000000  -0.000136   0.000005  -0.007809   0.010602
    11  H   -0.000050  -0.000011   0.002056   0.003132  -0.040175  -0.002314
    12  C    0.000092  -0.000011   0.001146  -0.000053   0.003828  -0.000049
    13  H   -0.000004   0.000000   0.000012   0.000000  -0.000060  -0.000010
    14  H   -0.000028  -0.000004   0.000401  -0.000010  -0.000026   0.000017
    15  O    0.001184  -0.000107  -0.000012   0.000001   0.000002   0.000000
    16  H    0.000012  -0.000022  -0.000004   0.000000   0.000000   0.000000
    17  O    0.000000   0.000000  -0.000030  -0.000006  -0.000023  -0.000016
    18  H    0.000000   0.000000   0.000000   0.000000  -0.000007  -0.000005
    19  O    8.285392   0.233742  -0.002707  -0.000035  -0.000017   0.000002
    20  H    0.233742   0.378356   0.015882  -0.000700  -0.000007   0.000001
    21  O   -0.002707   0.015882   8.321322   0.232731   0.001183  -0.000149
    22  H   -0.000035  -0.000700   0.232731   0.389418   0.000310  -0.000071
    23  O   -0.000017  -0.000007   0.001183   0.000310   8.321885   0.228182
    24  H    0.000002   0.000001  -0.000149  -0.000071   0.228182   0.399143
    25  O    0.000001   0.000000   0.000000   0.000000   0.000000   0.000000
    26  H    0.000000   0.000000   0.000000   0.000000   0.000000   0.000000
    27  H    0.000000   0.000000   0.000000   0.000000   0.000000   0.000000
    28  O    0.000000   0.000000   0.000000   0.000000   0.000000   0.000000
    29  H    0.000000   0.000000   0.000000   0.000000   0.000000   0.000000
    30  H   -0.000004   0.000001   0.000000   0.000000  -0.000001  -0.000009
              25         26         27         28         29         30
     1  C    0.000000   0.000000   0.000001  -0.000057   0.000007   0.001404
     2  C   -0.000082   0.000010  -0.000011  -0.000108   0.000004   0.000680
     3  O   -0.000116   0.000011   0.000133  -0.018193   0.000473   0.053214
     4  C    0.000561  -0.000046  -0.000071   0.000247   0.000064  -0.002405
     5  C    0.000012  -0.000004  -0.000013   0.001256  -0.000103  -0.002017
     6  C    0.000002   0.000000   0.000000   0.000003   0.000000  -0.000046
     7  H   -0.000042   0.000004   0.000007  -0.000062   0.000003   0.000260
     8  H    0.000000   0.000000   0.000000   0.000000   0.000000  -0.000001
     9  H    0.000588  -0.000010   0.000000  -0.000045   0.000002  -0.000095
    10  H    0.000000   0.000000   0.000003   0.000323   0.000008  -0.000802
    11  H    0.000000   0.000000   0.000000   0.000000   0.000000  -0.000034
    12  C    0.000027   0.000034  -0.000498  -0.032323   0.001475   0.002904
    13  H    0.000313  -0.000020   0.001201   0.029382   0.000630  -0.005583
    14  H    0.001053  -0.000025   0.000025   0.000904  -0.000022  -0.000852
    15  O   -0.020557   0.001966   0.001560  -0.002998   0.000265   0.002067
    16  H    0.049426  -0.003061  -0.004788   0.013548  -0.000123  -0.001335
    17  O    0.000004   0.000000  -0.000008   0.000223  -0.000026  -0.000419
    18  H    0.000000   0.000000   0.000003   0.000171  -0.000013  -0.000206
    19  O    0.000001   0.000000   0.000000   0.000000   0.000000  -0.000004
    20  H    0.000000   0.000000   0.000000   0.000000   0.000000   0.000001
    21  O    0.000000   0.000000   0.000000   0.000000   0.000000   0.000000
    22  H    0.000000   0.000000   0.000000   0.000000   0.000000   0.000000
    23  O    0.000000   0.000000   0.000000   0.000000   0.000000  -0.000001
    24  H    0.000000   0.000000   0.000000   0.000000   0.000000  -0.000009
    25  O    8.342084   0.241524   0.224226  -0.065250   0.004167   0.003431
    26  H    0.241524   0.374023  -0.012719   0.004214  -0.000349  -0.000074
    27  H    0.224226  -0.012719   0.351876   0.031027  -0.002423  -0.001507
    28  O   -0.065250   0.004214   0.031027   8.432661   0.233468   0.179954
    29  H    0.004167  -0.000349  -0.002423   0.233468   0.369463  -0.002349
    30  H    0.003431  -0.000074  -0.001507   0.179954  -0.002349   0.339413
 Mulliken charges:
               1
     1  C    0.132664
     2  C    0.096333
     3  O   -0.535087
     4  C    0.303427
     5  C    0.079701
     6  C    0.087451
     7  H    0.165046
     8  H    0.158957
     9  H    0.156275
    10  H    0.103538
    11  H    0.156607
    12  C   -0.132619
    13  H    0.164178
    14  H    0.181111
    15  O   -0.644430
    16  H    0.456678
    17  O   -0.620103
    18  H    0.392524
    19  O   -0.643989
    20  H    0.405731
    21  O   -0.653672
    22  H    0.399026
    23  O   -0.645351
    24  H    0.389436
    25  O   -0.781374
    26  H    0.394525
    27  H    0.411977
    28  O   -0.808348
    29  H    0.395379
    30  H    0.434410
 Sum of Mulliken charges =   0.00000
 Mulliken charges with hydrogens summed into heavy atoms:
               1
     1  C    0.289271
     2  C    0.252608
     3  O   -0.535087
     4  C    0.468473
     5  C    0.183239
     6  C    0.246408
    12  C    0.212669
    15  O   -0.187752
    17  O   -0.227579
    19  O   -0.238258
    21  O   -0.254645
    23  O   -0.255916
    25  O    0.025127
    28  O    0.021442
 Electronic spatial extent (au):  <R**2>=           2998.3347
 Charge=              0.0000 electrons
 Dipole moment (field-independent basis, Debye):
    X=              1.4170    Y=             -4.8718    Z=              0.7996  Tot=              5.1363
 Quadrupole moment (field-independent basis, Debye-Ang):
   XX=            -63.7069   YY=            -80.7322   ZZ=            -89.0289
   XY=             -4.9719   XZ=              3.8657   YZ=             -8.4247
 Traceless Quadrupole moment (field-independent basis, Debye-Ang):
   XX=             14.1157   YY=             -2.9095   ZZ=            -11.2063
   XY=             -4.9719   XZ=              3.8657   YZ=             -8.4247
 Octapole moment (field-independent basis, Debye-Ang**2):
  XXX=             76.5678  YYY=            -52.7641  ZZZ=             11.9975  XYY=             10.2601
  XXY=             -5.7540  XXZ=             -9.6689  XZZ=              8.2558  YZZ=              3.3413
  YYZ=              7.1510  XYZ=             -3.0016
 Hexadecapole moment (field-independent basis, Debye-Ang**3):
 XXXX=          -1246.5259 YYYY=          -1077.1055 ZZZZ=           -563.5940 XXXY=             21.2746
 XXXZ=             87.3689 YYYX=            -27.0933 YYYZ=            -68.2249 ZZZX=             12.9215
 ZZZY=            -31.9027 XXYY=           -402.9691 XXZZ=           -368.1446 YYZZ=           -265.6559
 XXYZ=            -43.0286 YYXZ=            -17.0430 ZZXY=            -10.1081
 N-N= 1.118114974205D+03 E-N=-4.209585043523D+03  KE= 8.331757769183D+02
 Calling FoFJK, ICntrl=      2127 FMM=F ISym2X=0 I1Cent= 0 IOpClX= 0 NMat=1 NMatS=1 NMatT=0.
 ***** Axes restored to original set *****
 -------------------------------------------------------------------
 Center     Atomic                   Forces (Hartrees/Bohr)
 Number     Number              X              Y              Z
 -------------------------------------------------------------------
      1        6           0.019070183    0.021774622    0.013548432
      2        6           0.002287135    0.014808397   -0.006889256
      3        8           0.027757535    0.043199949   -0.034273028
      4        6           0.010714239   -0.045198375    0.002049015
      5        6          -0.039945919   -0.049061615    0.016279878
      6        6           0.001684840    0.033338114   -0.002414507
      7        1          -0.001203986    0.001724174   -0.003439775
      8        1          -0.001454804   -0.009554889    0.008546498
      9        1          -0.010388877   -0.004971046    0.002070433
     10        1          -0.004126342   -0.002854228    0.000370924
     11        1           0.001249735   -0.007727863   -0.010343737
     12        6          -0.006726238    0.002930960   -0.009859987
     13        1          -0.004131419    0.014022809   -0.004666045
     14        1           0.001055269    0.002607495   -0.001627596
     15        8          -0.010987720    0.025439839    0.025319279
     16        1           0.009414619   -0.010791310   -0.012167874
     17        8          -0.006293329    0.001092477    0.000719020
     18        1           0.002970352    0.005004138   -0.001589197
     19        8          -0.006915034   -0.000267897    0.009802527
     20        1          -0.001469147   -0.005318096    0.003623790
     21        8          -0.001011463   -0.001532748   -0.006567874
     22        1           0.004465550   -0.003888903   -0.002657331
     23        8           0.003398204   -0.001465724    0.002572185
     24        1           0.002559135    0.001012919   -0.002059297
     25        8           0.016044505    0.018986709   -0.031474545
     26        1           0.002651855   -0.006863325   -0.000013576
     27        1           0.000961588   -0.005800612    0.005072178
     28        8          -0.018358134   -0.028757028    0.004398161
     29        1          -0.002819185   -0.002174353    0.011532871
     30        1           0.009546853    0.000285411    0.024138435
 -------------------------------------------------------------------
 Cartesian Forces:  Max     0.049061615 RMS     0.014696489

 GradGradGradGradGradGradGradGradGradGradGradGradGradGradGradGradGradGrad
 Berny optimization.
 FormGI is forming the generalized inverse of G from B-inverse, IUseBI=4.
 Internal  Forces:  Max     0.028801352 RMS     0.008566027
 Search for a local minimum.
 Step number   1 out of a maximum of  180
 All quantities printed in internal units (Hartrees-Bohrs-Radians)
 Mixed Optimization -- RFO/linear search
 Second derivative matrix not updated -- first step.
 ITU=  0
     Eigenvalues ---    0.00279   0.00520   0.00707   0.00937   0.01031
     Eigenvalues ---    0.01134   0.01162   0.01196   0.01248   0.01341
     Eigenvalues ---    0.01501   0.01640   0.02143   0.02981   0.03568
     Eigenvalues ---    0.03967   0.04360   0.04599   0.04715   0.04981
     Eigenvalues ---    0.05107   0.05250   0.05457   0.05761   0.06051
     Eigenvalues ---    0.06193   0.06389   0.07087   0.07225   0.07323
     Eigenvalues ---    0.07494   0.07819   0.09126   0.09764   0.10270
     Eigenvalues ---    0.10725   0.12001   0.13601   0.13968   0.14057
     Eigenvalues ---    0.14970   0.15990   0.16000   0.16000   0.16000
     Eigenvalues ---    0.16000   0.16149   0.17040   0.17707   0.17930
     Eigenvalues ---    0.19360   0.20026   0.20302   0.22512   0.25766
     Eigenvalues ---    0.27990   0.28011   0.28619   0.28996   0.33439
     Eigenvalues ---    0.33668   0.33837   0.33888   0.34180   0.34210
     Eigenvalues ---    0.34518   0.34956   0.35232   0.39288   0.39580
     Eigenvalues ---    0.39934   0.41211   0.41496   0.51007   0.51691
     Eigenvalues ---    0.52192   0.52507   0.52609   0.54431   0.54703
     Eigenvalues ---    0.55473   0.554731000.000001000.000001000.00000
     Eigenvalues --- 1000.000001000.000001000.000001000.000001000.00000
     Eigenvalues --- 1000.000001000.000001000.000001000.000001000.00000
     Eigenvalues --- 1000.000001000.000001000.000001000.000001000.00000
     Eigenvalues --- 1000.000001000.000001000.000001000.000001000.00000
     Eigenvalues --- 1000.000001000.000001000.000001000.000001000.00000
     Eigenvalues --- 1000.000001000.000001000.000001000.000001000.00000
     Eigenvalues --- 1000.000001000.000001000.000001000.000001000.00000
     Eigenvalues --- 1000.000001000.000001000.000001000.000001000.00000
     Eigenvalues --- 1000.000001000.000001000.000001000.000001000.00000
     Eigenvalues --- 1000.000001000.000001000.000001000.000001000.00000
     Eigenvalues --- 1000.000001000.000001000.000001000.000001000.00000
     Eigenvalues --- 1000.000001000.000001000.000001000.000001000.00000
     Eigenvalues --- 1000.000001000.000001000.000001000.000001000.00000
     Eigenvalues --- 1000.000001000.000001000.000001000.000001000.00000
     Eigenvalues --- 1000.000001000.000001000.000001000.000001000.00000
     Eigenvalues --- 1000.000001000.00000
 RFO step:  Lambda=-5.61639997D-02 EMin= 2.79471140D-03
 Linear search not attempted -- first point.
 Maximum step size (   0.300) exceeded in Quadratic search.
    -- Step size scaled by   0.609
 Iteration  1 RMS(Cart)=  0.06108295 RMS(Int)=  0.00124329
 Iteration  2 RMS(Cart)=  0.00223178 RMS(Int)=  0.00031174
 Iteration  3 RMS(Cart)=  0.00000693 RMS(Int)=  0.00031171
 Iteration  4 RMS(Cart)=  0.00000000 RMS(Int)=  0.00031171
 Iteration  1 RMS(Cart)=  0.00006223 RMS(Int)=  0.00008017
 Iteration  2 RMS(Cart)=  0.00004623 RMS(Int)=  0.00008667
 Iteration  3 RMS(Cart)=  0.00003461 RMS(Int)=  0.00009929
 Iteration  4 RMS(Cart)=  0.00002612 RMS(Int)=  0.00011230
 Iteration  5 RMS(Cart)=  0.00001987 RMS(Int)=  0.00012385
 Iteration  6 RMS(Cart)=  0.00001523 RMS(Int)=  0.00013355
 Iteration  7 RMS(Cart)=  0.00001176 RMS(Int)=  0.00014151
 Iteration  8 RMS(Cart)=  0.00000915 RMS(Int)=  0.00014796
 Iteration  9 RMS(Cart)=  0.00000715 RMS(Int)=  0.00015316
 Iteration 10 RMS(Cart)=  0.00000562 RMS(Int)=  0.00015734
 Iteration 11 RMS(Cart)=  0.00000444 RMS(Int)=  0.00016069
 Iteration 12 RMS(Cart)=  0.00000351 RMS(Int)=  0.00016337
 Iteration 13 RMS(Cart)=  0.00000279 RMS(Int)=  0.00016552
 Iteration 14 RMS(Cart)=  0.00000222 RMS(Int)=  0.00016723
 Iteration 15 RMS(Cart)=  0.00000177 RMS(Int)=  0.00016861
 Iteration 16 RMS(Cart)=  0.00000142 RMS(Int)=  0.00016970
 Iteration 17 RMS(Cart)=  0.00000113 RMS(Int)=  0.00017058
 Iteration 18 RMS(Cart)=  0.00000091 RMS(Int)=  0.00017128
 Variable       Old X    -DE/DX   Delta X   Delta X   Delta X     New X
                                 (Linear)    (Quad)   (Total)
    R1        2.78244   0.02712   0.00000   0.04493   0.04526   2.82770
    R2        2.90468   0.00241   0.00000   0.00824   0.00813   2.91281
    R3        2.06977   0.00064   0.00000   0.00098   0.00098   2.07076
    R4        2.71643  -0.00004   0.00000  -0.00005  -0.00005   2.71638
    R5        2.88842   0.00552   0.00000   0.00317   0.00290   2.89132
    R6        2.87477   0.00242   0.00000   0.00175   0.00135   2.87612
    R7        2.06464   0.00221   0.00000   0.00335   0.00335   2.06800
    R8        2.72532  -0.01109   0.00000  -0.01503  -0.01503   2.71030
    R9        2.90447  -0.01454   0.00000  -0.03439  -0.03422   2.87025
   R10        2.75615  -0.01027   0.00000  -0.01345  -0.01300   2.74316
   R11        2.07027  -0.00308   0.00000  -0.00471  -0.00471   2.06556
   R12        2.69053  -0.01625   0.00000  -0.02415  -0.02417   2.66637
   R13        2.07893   0.00411   0.00000   0.00637   0.00637   2.08530
   R14        2.91419  -0.00087   0.00000   0.00127   0.00139   2.91558
   R15        2.07605   0.00042   0.00000   0.00064   0.00064   2.07670
   R16        2.72128   0.00338   0.00000   0.00456   0.00456   2.72583
   R17        2.07115   0.00969   0.00000   0.01613   0.01614   2.08729
   R18        2.05746   0.00252   0.00000   0.00378   0.00378   2.06124
   R19        2.69570   0.00529   0.00000   0.00684   0.00684   2.70253
   R20        2.89537   0.02880   0.00000   0.15772   0.15761   3.05298
   R21        1.84274   0.00906   0.00000   0.00961   0.00948   1.85222
   R22        3.48205   0.00430   0.00000   0.01367   0.01357   3.49562
   R23        1.84117  -0.00582   0.00000  -0.00610  -0.00610   1.83507
   R24        1.84896  -0.00632   0.00000  -0.00671  -0.00671   1.84225
   R25        1.84416  -0.00622   0.00000  -0.00655  -0.00655   1.83761
   R26        1.84021  -0.00335   0.00000  -0.00350  -0.00350   1.83671
   R27        1.81414   0.00656   0.00000   0.00654   0.00654   1.82068
   R28        1.81414   0.02831   0.00000   0.03020   0.03013   1.84427
   R29        3.32617   0.02708   0.00000   0.14947   0.14952   3.47569
   R30        1.81414   0.00919   0.00000   0.00916   0.00916   1.82330
   R31        1.81414   0.02352   0.00000   0.02553   0.02558   1.83972
    A1        1.89954   0.00715   0.00000   0.03112   0.03139   1.93093
    A2        1.95638  -0.00975   0.00000  -0.02742  -0.02753   1.92885
    A3        1.94652   0.00413   0.00000  -0.00279  -0.00260   1.94392
    A4        1.93825   0.00293   0.00000   0.00081   0.00088   1.93914
    A5        1.86749  -0.01111   0.00000  -0.02893  -0.02882   1.83868
    A6        1.85372   0.00648   0.00000   0.02632   0.02633   1.88005
    A7        1.93512   0.01012   0.00000   0.01649   0.01687   1.95199
    A8        1.93757  -0.00424   0.00000  -0.00983  -0.01015   1.92742
    A9        1.91609  -0.00891   0.00000  -0.03007  -0.02993   1.88616
   A10        1.94351  -0.00198   0.00000  -0.00107  -0.00139   1.94212
   A11        1.91985  -0.00429   0.00000  -0.01141  -0.01135   1.90850
   A12        1.80780   0.00870   0.00000   0.03568   0.03576   1.84356
   A13        1.90281   0.02598   0.00000   0.07082   0.07209   1.97490
   A14        2.02528  -0.01385   0.00000  -0.02851  -0.02891   1.99636
   A15        1.94673  -0.00194   0.00000  -0.00714  -0.00728   1.93945
   A16        1.90298   0.00818   0.00000   0.02150   0.02211   1.92509
   A17        1.82805   0.00377   0.00000   0.00596   0.00554   1.83360
   A18        1.87697   0.00942   0.00000   0.01996   0.02029   1.89726
   A19        1.87699  -0.00521   0.00000  -0.01117  -0.01134   1.86565
   A20        2.05834  -0.01715   0.00000  -0.04029  -0.04163   2.01671
   A21        1.82329   0.00585   0.00000   0.02705   0.02735   1.85064
   A22        2.03059   0.00564   0.00000  -0.00407  -0.00419   2.02640
   A23        1.75704   0.00928   0.00000   0.03261   0.03293   1.78996
   A24        1.94849   0.00435   0.00000   0.00503   0.00519   1.95368
   A25        1.79477  -0.00522   0.00000  -0.00474  -0.00505   1.78973
   A26        2.02752  -0.00574   0.00000  -0.01262  -0.01313   2.01440
   A27        1.90969  -0.00351   0.00000  -0.01241  -0.01295   1.89674
   A28        1.93463   0.01036   0.00000   0.02335   0.02353   1.95816
   A29        1.87919   0.00005   0.00000  -0.00228  -0.00222   1.87697
   A30        1.88038  -0.00508   0.00000  -0.02468  -0.02433   1.85606
   A31        1.82033   0.00483   0.00000   0.03314   0.03304   1.85337
   A32        1.93324  -0.00511   0.00000  -0.00663  -0.00620   1.92704
   A33        1.97780  -0.00203   0.00000  -0.00577  -0.00572   1.97208
   A34        1.92565   0.00139   0.00000  -0.00517  -0.00550   1.92014
   A35        1.86124   0.00353   0.00000   0.00638   0.00614   1.86739
   A36        1.90086   0.00407   0.00000   0.01832   0.01827   1.91913
   A37        1.86169  -0.00141   0.00000  -0.00566  -0.00568   1.85601
   A38        2.05085   0.01901   0.00000   0.05966   0.05997   2.11081
   A39        1.82802   0.01827   0.00000   0.03451   0.03481   1.86283
   A40        2.53857   0.01640   0.00000   0.03402   0.03374   2.57232
   A41        1.86915   0.00227   0.00000   0.00639   0.00639   1.87553
   A42        1.83149  -0.00352   0.00000  -0.00992  -0.00992   1.82157
   A43        1.86089   0.00199   0.00000   0.00560   0.00560   1.86650
   A44        1.88731  -0.00143   0.00000  -0.00402  -0.00402   1.88329
   A45        1.92771   0.00399   0.00000   0.00099   0.00076   1.92847
   A46        1.85722  -0.01111   0.00000  -0.01374  -0.01394   1.84328
   A47        1.91114  -0.00234   0.00000  -0.01516  -0.01502   1.89611
   A48        1.98174   0.02647   0.00000   0.07776   0.07782   2.05956
   A49        2.13415   0.01228   0.00000   0.02647   0.02609   2.16024
   A50        2.23599  -0.01108   0.00000  -0.01682  -0.01755   2.21843
   A51        1.91114  -0.00174   0.00000  -0.01303  -0.01341   1.89772
   A52        1.66110   0.01806   0.00000   0.04932   0.04874   1.70983
    D1        0.96354  -0.01204   0.00000  -0.06160  -0.06038   0.90315
    D2        2.89538  -0.00492   0.00000  -0.02277  -0.02285   2.87253
    D3       -1.42318  -0.00477   0.00000  -0.01311  -0.01337  -1.43655
    D4        3.11444  -0.00981   0.00000  -0.05699  -0.05608   3.05836
    D5       -1.23690  -0.00269   0.00000  -0.01815  -0.01855  -1.25545
    D6        0.72773  -0.00254   0.00000  -0.00849  -0.00907   0.71865
    D7       -1.09274  -0.00532   0.00000  -0.04389  -0.04294  -1.13568
    D8        0.83911   0.00180   0.00000  -0.00506  -0.00541   0.83370
    D9        2.80373   0.00195   0.00000   0.00460   0.00407   2.80780
   D10       -0.02354  -0.00609   0.00000   0.00000   0.00002  -0.02352
   D11       -2.15505   0.00082   0.00000   0.02213   0.02221  -2.13285
   D12        2.13004  -0.00878   0.00000  -0.02381  -0.02374   2.10630
   D13       -2.18525  -0.00068   0.00000   0.01254   0.01247  -2.17278
   D14        1.96642   0.00623   0.00000   0.03467   0.03466   2.00108
   D15       -0.03167  -0.00338   0.00000  -0.01126  -0.01128  -0.04295
   D16        2.08211  -0.00359   0.00000  -0.00270  -0.00282   2.07930
   D17       -0.04940   0.00333   0.00000   0.01943   0.01938  -0.03003
   D18       -2.04749  -0.00628   0.00000  -0.02650  -0.02657  -2.07406
   D19       -0.90739   0.00305   0.00000   0.01130   0.01150  -0.89589
   D20       -2.98286  -0.00110   0.00000  -0.00702  -0.00729  -2.99015
   D21        1.22877  -0.00225   0.00000  -0.00689  -0.00682   1.22196
   D22        0.77891  -0.00123   0.00000   0.00709   0.00654   0.78545
   D23       -1.31235   0.00545   0.00000   0.02574   0.02535  -1.28700
   D24        2.90056   0.00784   0.00000   0.03017   0.02979   2.93035
   D25       -1.39110  -0.00295   0.00000   0.00363   0.00353  -1.38757
   D26        2.80083   0.00373   0.00000   0.02228   0.02234   2.82317
   D27        0.73055   0.00612   0.00000   0.02671   0.02678   0.75733
   D28        2.90379  -0.00593   0.00000  -0.01657  -0.01676   2.88703
   D29        0.81253   0.00075   0.00000   0.00208   0.00205   0.81458
   D30       -1.25775   0.00315   0.00000   0.00651   0.00650  -1.25125
   D31       -0.77996   0.00232   0.00000  -0.00349  -0.00263  -0.78259
   D32        1.36756  -0.00628   0.00000  -0.03046  -0.03014   1.33742
   D33       -2.96150  -0.00310   0.00000  -0.00505  -0.00474  -2.96624
   D34        1.38666   0.00278   0.00000  -0.00496  -0.00446   1.38220
   D35       -2.74900  -0.00582   0.00000  -0.03193  -0.03197  -2.78097
   D36       -0.79487  -0.00263   0.00000  -0.00652  -0.00657  -0.80144
   D37       -2.90264   0.00970   0.00000   0.03111   0.03154  -2.87110
   D38       -0.75511   0.00110   0.00000   0.00414   0.00403  -0.75108
   D39        1.19901   0.00429   0.00000   0.02956   0.02943   1.22845
   D40       -3.02050  -0.00278   0.00000   0.00030  -0.00043  -3.02093
   D41       -0.88651   0.00120   0.00000  -0.00635  -0.00583  -0.89234
   D42        1.19244   0.00164   0.00000   0.00659   0.00680   1.19924
   D43        0.03097   0.00887   0.00000   0.00000  -0.00001   0.03096
   D44        2.18541   0.00041   0.00000  -0.02283  -0.02310   2.16232
   D45       -2.10446   0.00032   0.00000  -0.02413  -0.02448  -2.12893
   D46       -0.96512   0.00747   0.00000   0.05272   0.05124  -0.91388
   D47       -2.93400   0.00164   0.00000   0.01587   0.01574  -2.91826
   D48        1.45486   0.00161   0.00000   0.00383   0.00340   1.45826
   D49       -1.32977   0.00378   0.00000   0.01330   0.01318  -1.31659
   D50        0.87964  -0.00184   0.00000   0.00513   0.00558   0.88522
   D51        2.84001   0.00448   0.00000   0.01612   0.01607   2.85608
   D52        3.08028  -0.00644   0.00000  -0.02521  -0.02543   3.05485
   D53        0.98936  -0.00595   0.00000  -0.02473  -0.02504   0.96432
   D54       -1.09674  -0.00376   0.00000  -0.00999  -0.01023  -1.10697
   D55        0.64794   0.00947   0.00000   0.03908   0.03933   0.68727
   D56       -1.44298   0.00997   0.00000   0.03956   0.03972  -1.40326
   D57        2.75410   0.01215   0.00000   0.05430   0.05453   2.80864
   D58       -1.22198  -0.00009   0.00000   0.00256   0.00244  -1.21955
   D59        2.97028   0.00041   0.00000   0.00304   0.00283   2.97311
   D60        0.88418   0.00259   0.00000   0.01778   0.01764   0.90182
   D61        1.02794   0.00337   0.00000   0.01908   0.01956   1.04750
   D62       -3.01919  -0.00043   0.00000   0.00124   0.00119  -3.01800
   D63       -1.02552  -0.00027   0.00000   0.00363   0.00321  -1.02231
   D64       -0.40148   0.00820   0.00000   0.02964   0.02917  -0.37231
   D65        1.75794   0.00488   0.00000   0.02264   0.02234   1.78028
   D66       -2.52230   0.00705   0.00000   0.02827   0.02803  -2.49427
   D67       -1.57892   0.00068   0.00000   0.00042   0.00033  -1.57859
   D68        0.54652  -0.00214   0.00000   0.00080   0.00097   0.54749
   D69        2.54918   0.00323   0.00000   0.01424   0.01416   2.56333
   D70       -2.70796   0.00916   0.00000   0.03439   0.03434  -2.67361
   D71        2.75207  -0.00208   0.00000  -0.00531  -0.00453   2.74754
   D72        0.41788   0.00197   0.00000   0.00513   0.00537   0.42325
   D73        2.49070  -0.00519   0.00000  -0.02053  -0.02012   2.47059
   D74       -0.12004  -0.00020   0.00000   0.00913   0.00923  -0.11082
   D75        1.96362  -0.00306   0.00000  -0.00570  -0.00540   1.95822
   D76       -2.22137   0.00035   0.00000   0.00223   0.00218  -2.21918
   D77        0.84654  -0.01013   0.00000  -0.06302  -0.06342   0.78312
   D78        0.94416   0.00646   0.00000   0.03705   0.03605   0.98021
   D79       -2.26351  -0.00238   0.00000  -0.02003  -0.02004  -2.28355
         Item               Value     Threshold  Converged?
 Maximum Force            0.028661     0.000450     NO 
 RMS     Force            0.008421     0.000300     NO 
 Maximum Displacement     0.244845     0.001800     NO 
 RMS     Displacement     0.062246     0.001200     NO 
 Predicted change in Energy=-2.752306D-02
 GradGradGradGradGradGradGradGradGradGradGradGradGradGradGradGradGradGrad

                          Input orientation:                          
 ---------------------------------------------------------------------
 Center     Atomic      Atomic             Coordinates (Angstroms)
 Number     Number       Type             X           Y           Z
 ---------------------------------------------------------------------
      1          6           0       -0.989513    1.012318    0.492465
      2          6           0        1.296504    0.250913   -0.456449
      3          8           0       -0.134216   -1.267540    1.031522
      4          6           0        1.258412   -0.904112    0.546265
      5          6           0       -1.179324   -0.469981    0.416023
      6          6           0        0.408846    1.408081   -0.021209
      7          1           0        1.819461   -0.658444    1.451597
      8          1           0        0.936843    1.948648    0.776712
      9          1           0        1.026627   -0.102246   -1.456459
     10          1           0       -2.056862   -0.697736    1.045111
     11          1           0       -1.776579    1.529655   -0.067588
     12          6           0       -1.598107   -1.030750   -0.958958
     13          1           0       -1.624871   -2.134661   -0.932843
     14          1           0       -0.914989   -0.747308   -1.760689
     15          8           0        1.858669   -2.054138   -0.008708
     16          1           0        1.217106   -2.425883   -0.649725
     17          8           0       -2.882619   -0.519851   -1.325365
     18          1           0       -3.549712   -1.140069   -0.988754
     19          8           0        2.652858    0.705394   -0.560183
     20          1           0        2.598634    1.503472   -1.117420
     21          8           0        0.341460    2.312244   -1.143084
     22          1           0       -0.128107    3.107396   -0.838385
     23          8           0       -1.041450    1.477844    1.851449
     24          1           0       -1.852562    1.127552    2.256506
     25          8           0        0.940863   -3.481280   -2.143575
     26          1           0        1.651721   -4.124706   -2.238124
     27          1           0        0.107009   -3.960029   -1.976374
     28          8           0       -0.673822   -3.782223   -0.320609
     29          1           0       -0.929150   -4.528621    0.234935
     30          1           0       -0.799160   -2.959372    0.184347
 ---------------------------------------------------------------------
                    Distance matrix (angstroms):
                    1          2          3          4          5
     1  C    0.000000
     2  C    2.589604   0.000000
     3  O    2.493966   2.562560   0.000000
     4  C    2.954448   1.530023   1.518870   0.000000
     5  C    1.496356   2.722245   1.451615   2.479513   0.000000
     6  C    1.541394   1.521975   2.926107   2.527850   2.498113
     7  H    3.406129   2.177396   2.089094   1.093048   3.178150
     8  H    2.160639   2.128931   3.399406   2.880061   3.233887
     9  H    3.017512   1.094337   2.982534   2.169704   2.916785
    10  H    2.090200   3.794690   2.005349   3.358939   1.103493
    11  H    1.095797   3.351154   3.424865   3.938427   2.142228
    12  C    2.578981   3.205300   2.482147   3.231321   1.542859
    13  H    3.512643   3.801624   2.613940   3.466314   2.188404
    14  H    2.859815   2.754667   2.945622   3.173373   2.210172
    15  O    4.215029   2.414490   2.381682   1.410980   3.452441
    16  H    4.242050   2.684939   2.448351   1.935946   3.271734
    17  O    3.039061   4.337529   3.696981   4.560569   2.436418
    18  H    3.658059   5.069910   3.970312   5.052724   2.835694
    19  O    3.803832   1.434228   3.767463   2.399837   4.125542
    20  H    3.963302   1.923884   4.445776   3.218774   4.529782
    21  O    2.477160   2.373323   4.215452   3.746952   3.533324
    22  H    2.627268   3.214791   4.757799   4.464514   3.933983
    23  O    1.437446   3.506819   3.005409   3.559014   2.423526
    24  H    1.967224   4.247968   3.192140   4.090322   2.528386
    25  O    5.555851   4.111222   4.017173   3.738700   4.484936
    26  H    6.389151   4.737783   4.695057   4.275482   5.330697
    27  H    5.658777   4.632182   4.044147   4.126508   4.422516
    28  O    4.873230   4.490749   2.905695   3.573307   3.430613
    29  H    5.547249   5.317471   3.449801   4.244929   4.070374
    30  H    3.988169   3.886947   2.005530   2.930645   2.528886
                    6          7          8          9         10
     6  C    0.000000
     7  H    2.903363   0.000000
     8  H    1.098942   2.833975   0.000000
     9  H    2.173174   3.065082   3.033362   0.000000
    10  H    3.413388   3.897775   4.004705   4.015017   0.000000
    11  H    2.189295   4.475176   2.872466   3.528460   2.505580
    12  C    3.294713   4.198709   4.279643   2.828225   2.082702
    13  H    4.185463   4.441643   5.114526   3.381616   2.482674
    14  H    3.069859   4.219466   4.139549   2.068462   3.029660
    15  O    3.753546   2.020393   4.181979   2.568688   4.275715
    16  H    3.968324   2.811090   4.609750   2.467061   4.071587
    17  O    4.031313   5.462625   5.010041   3.933673   2.516480
    18  H    4.806183   5.917372   5.725926   4.715793   2.561419
    19  O    2.412437   2.569409   2.505529   2.024900   5.169836
    20  H    2.450704   3.446859   2.558802   2.272550   5.585293
    21  O    1.442448   4.212107   2.042622   2.529313   4.427203
    22  H    1.960552   4.818567   2.255073   3.466588   4.663334
    23  O    2.369614   3.592828   2.300078   4.209024   2.532665
    24  H    3.221900   4.161899   3.262632   4.856772   2.200203
    25  O    5.356616   4.654632   6.165405   3.449254   5.186732
    26  H    6.088611   5.065289   6.818059   4.145108   6.023067
    27  H    5.721047   5.058057   6.571193   3.999812   4.945125
    28  O    5.310467   4.372090   6.053201   4.209977   3.645826
    29  H    6.091000   4.900347   6.762431   5.126272   4.074776
    30  H    4.536097   3.709092   5.239586   3.766816   2.727219
                   11         12         13         14         15
    11  H    0.000000
[...]
 -0.00003223,-0.00021321,-0.00011373,-0.00031654,0.00002099,-0.00005945
 ,0.00005736,0.00000495,0.00041334,-0.00032788,-0.00005581,-0.00016048,
 -0.00003748,-0.00009889,-0.11973621,-0.03666372,0.02332262,0.10971881,
 0.03499765,0.04388455,0.00981052,-0.01650263,0.00070273,0.00091254,0.0
 0013784,-0.00139498,0.00051874,-0.00026443,0.00092651,0.00020120,-0.00
 028509,0.00176223,-0.00018940,0.00156075,-0.00037543,-0.00301283,-0.00
 664030,-0.00009616,-0.00006613,0.00001538,0.00015127,0.00022633,-0.000
 06723,-0.00007279,-0.00000777,-0.00006164,-0.00088997,-0.00145501,0.00
 037348,-0.00028770,0.00083453,0.00086865,-0.00037003,0.00041394,-0.000
 21435,0.00011640,0.00008791,0.00024395,0.00001283,-0.00002454,0.000211
 88,-0.00032233,0.00012285,0.00015026,0.00007392,-0.00002150,-0.0000552
 6,-0.00010057,0.00025319,0.00048239,-0.00013423,-0.00015015,-0.0002230
 9,0.00023190,-0.00026257,-0.00005822,-0.00003022,0.00002200,0.00001993
 ,0.00102697,0.00073087,-0.00028734,0.00008556,0.00000964,-0.00006307,0
 .07611542,0.00745849,-0.06559657,-0.12094294,-0.01635756,0.08613896,-0
 .00007563,-0.00048511,0.00027671,0.00037856,-0.00009747,-0.00032711,0.
 00431826,0.00011805,0.00079836,-0.00831747,0.00423043,0.00048538,-0.00
 109691,0.00137500,-0.00150995,-0.00071377,0.00008934,0.00023298,0.0009
 1304,-0.00125273,-0.00065778,0.00007768,0.00000530,0.00001143,-0.00016
 239,0.00003054,0.00010911,0.00032583,-0.00009774,0.00007554,0.00003943
 ,-0.00018347,-0.00002838,-0.00016263,-0.00233271,0.00003702,-0.0004988
 1,0.00135276,0.00015245,0.00004097,0.00031153,-0.00010387,0.00245908,-
 0.01046087,-0.01009204,-0.00801876,0.00715467,0.00581138,-0.00061301,0
 .00147042,0.00066416,0.00026790,-0.00038080,-0.00038908,0.00040004,-0.
 00030080,-0.00014184,-0.00001016,0.00010808,0.00006423,0.00045326,-0.0
 0030942,0.00002745,-0.00005034,-0.00007163,0.00000869,0.00023122,0.000
 33848,0.00032729,0.00003826,-0.00003262,-0.00008377,0.14583716,-0.0001
 7195,0.00022178,0.00016875,0.00082071,0.00020350,0.00054632,0.00183920
 ,0.00032283,-0.00100270,-0.00384654,0.00314207,0.00118298,-0.00024531,
 0.00015286,0.00026609,-0.00027344,0.00030065,-0.00002686,0.00050174,-0
 .00083204,-0.00057516,0.00000623,-0.00008668,-0.00002714,-0.00014599,-
 0.00002052,-0.00036168,0.00025070,-0.00011002,-0.00011457,0.00004000,-
 0.00001642,-0.00001858,0.00026212,0.00039849,-0.00031568,0.00041583,-0
 .00168040,-0.00017093,-0.00003230,0.00040037,-0.00003234,-0.00516370,-
 0.00433440,-0.01082925,0.00205715,-0.00064815,0.00481134,0.00130171,-0
 .00085387,-0.00003368,-0.00014891,-0.00009787,-0.00002788,-0.00043382,
 -0.00037063,-0.00022445,0.00010715,0.00011818,0.00002660,0.00006928,-0
 .00040011,0.00009561,0.00003084,0.00003721,-0.00001453,0.00012411,-0.0
 0024858,-0.00042790,-0.00002569,0.00006054,0.00011010,-0.10641358,0.41
 452469,0.00005500,0.00002239,0.00024283,0.00027351,-0.00006526,-0.0013
 3706,0.00215988,-0.00244393,0.00021570,-0.00321410,0.00414906,0.000956
 51,-0.00204350,0.00147322,-0.00074957,-0.00015312,0.00037836,0.0001318
 7,0.00046914,-0.00074365,-0.00045142,-0.00003407,0.00004022,0.00004506
 ,0.00011674,-0.00011958,0.00022519,0.00020218,-0.00004035,0.00014319,0
 .00003675,-0.00026818,-0.00001068,0.00074941,0.00022076,-0.00027165,-0
 .00010071,-0.00037210,-0.00112288,-0.00016793,-0.00050658,0.00001531,-
 0.00665097,-0.01049844,-0.00660480,0.00374180,0.00420233,-0.00536689,0
 .00089938,-0.00052318,0.00082222,-0.00018962,-0.00009976,-0.00027889,-
 0.00029500,-0.00031163,0.00054557,0.00007032,-0.00009574,-0.00018518,0
 .00006949,-0.00062646,0.00033665,0.00003876,0.00002529,-0.00001233,0.0
 0010733,-0.00028508,-0.00000889,-0.00007640,0.00017176,0.00002842,-0.2
 1232758,0.02428637,0.51962321,0.00001095,-0.00002917,0.00002559,0.0001
 1689,0.00003021,-0.00001584,0.00010733,-0.00010330,-0.00004627,-0.0000
 6927,0.00035855,0.00021387,-0.00004519,0.00018636,-0.00010583,-0.00000
 344,-0.00000466,0.00000845,0.00004255,-0.00005119,-0.00006836,-0.00000
 012,0.00000322,-0.00000311,0.00001159,-0.00001581,-0.00001309,-0.00001
 042,-0.00000731,0.00000799,-0.00000562,-0.00000462,-0.00000265,-0.0000
 5558,-0.00035699,0.00002126,0.00016975,0.00016438,0.00013385,0.0000309
 9,0.00008664,0.00000607,-0.00286146,-0.00087138,-0.00209483,0.00487012
 ,0.00030595,0.00067509,-0.00035458,0.00023083,-0.00006950,0.00004483,0
 .00003825,0.00004254,-0.00012642,0.00002270,0.00007717,0.00002118,-0.0
 0003342,-0.00003181,-0.00002659,0.00000308,-0.00000081,0.00000863,-0.0
 0000300,0.00000672,-0.00001064,0.00002534,0.00003892,0.00000462,-0.000
 00172,-0.00000431,-0.09943613,0.13204822,0.13854801,0.10285180,0.00001
 453,0.00009216,-0.00003814,0.00006979,0.00000264,-0.00006867,-0.000180
 63,-0.00010087,-0.00024489,0.00040797,0.00013014,0.00013778,-0.0000557
 2,-0.00004430,0.00020669,0.00005422,0.00004321,-0.00001587,-0.00002167
 ,-0.00000271,-0.00000873,-0.00001269,0.00000265,0.00000434,0.00004413,
 -0.00001044,-0.00002996,0.00000092,-0.00000957,-0.00000061,-0.00000178
 ,-0.00000163,0.00000356,0.00014730,0.00072328,-0.00000103,-0.00009060,
 -0.00066784,-0.00006409,-0.00003837,0.00000175,-0.00000407,-0.00117198
 ,0.00030969,-0.00009220,0.00265022,-0.00141808,-0.00077017,0.00027552,
 -0.00031112,-0.00003156,-0.00004231,0.00000316,0.00001694,-0.00013679,
 0.00001920,0.00011339,0.00001572,-0.00004482,-0.00005887,-0.00004957,-
 0.00003582,0.00004776,0.00000901,0.00000715,-0.00000170,-0.00002146,-0
 .00006907,-0.00003670,-0.00001037,0.00001323,0.00001090,0.15259699,-0.
 26220553,-0.20299794,-0.14356414,0.24989334,0.00003137,-0.00006223,-0.
 00001731,-0.00014411,-0.00000309,0.00008291,-0.00025478,0.00020712,-0.
 00000480,0.00040782,-0.00057656,-0.00030639,0.00015536,-0.00007312,-0.
 00004859,0.00003302,-0.00009796,0.00001149,-0.00003109,0.00007924,0.00
 004869,0.00000533,0.00001100,-0.00000600,-0.00000964,-0.00004643,0.000
 02575,-0.00003359,0.00001256,-0.00000087,-0.00001269,0.00002087,0.0000
 0108,-0.00015095,-0.00015211,0.00011213,0.00062146,-0.00030904,-0.0000
 9983,0.00003287,0.00001439,0.00002258,-0.00060784,0.00080336,0.0006216
 5,0.00032488,-0.00159393,-0.00168221,-0.00031748,0.00024689,-0.0000666
 7,0.00006117,-0.00000035,0.00003772,0.00009357,0.00008621,-0.00004429,
 -0.00002387,-0.00000065,0.00003523,-0.00000486,0.00014005,-0.00007668,
 -0.00000944,-0.00001229,0.00000965,-0.00001929,0.00009275,0.00006090,0
 .00001648,-0.00003614,-0.00001677,0.12368227,-0.15234179,-0.19131963,-
 0.14086958,0.18652026,0.21301764,-0.00000493,0.00016926,-0.00008852,-0
 .00027641,0.00012003,0.00021164,-0.00203275,-0.00005910,-0.00013602,0.
 00308018,-0.00212729,-0.00125749,0.00048903,-0.00028197,0.00054177,0.0
 0029528,-0.00002056,-0.00015027,-0.00024920,0.00030554,0.00021560,-0.0
 0003193,0.00000019,-0.00000027,0.00003257,-0.00005870,-0.00003259,-0.0
 0018990,0.00008253,0.00004085,-0.00001344,0.00006879,0.00001337,-0.000
 15034,0.00097454,0.00038337,0.00001236,0.00046117,-0.00081746,-0.00001
 674,-0.00039356,0.00000078,-0.00009572,0.00337777,0.00192322,-0.003621
 86,-0.00679937,0.00051112,0.00010251,-0.00045900,-0.00014627,-0.000129
 95,0.00021749,0.00010687,-0.00012358,0.00009632,0.00004079,0.00000056,
 -0.00003056,-0.00001366,-0.00018069,0.00013185,0.00000812,0.00001786,0
 .00003470,-0.00000952,-0.00008789,-0.00012166,-0.00009898,-0.00001363,
 0.00002468,0.00002832,-0.04086002,-0.02075589,0.07420879,-0.00547594,-
 0.01114070,0.01778877,0.06020946,0.00004892,-0.00016728,-0.00012972,-0
 .00023957,-0.00010499,0.00014345,-0.00039095,0.00050451,0.00120341,0.0
 0018497,-0.00177159,-0.00087138,0.00052341,-0.00060739,-0.00026393,0.0
 0001227,-0.00014872,-0.00003099,-0.00001760,0.00023234,0.00019749,0.00
 002182,0.00002428,0.00000415,-0.00001402,0.00000689,0.00004361,-0.0001
 2572,0.00005199,0.00002151,-0.00001358,0.00003540,0.00001171,0.0003519
 0,-0.00098328,-0.00011509,0.00059185,-0.00032277,0.00050363,0.00001014
 ,0.00021003,0.00003171,0.00105606,0.00143153,0.00106610,-0.00483448,-0
 .00479746,0.00101138,-0.00065764,0.00052395,-0.00008228,0.00014787,-0.
 00002035,-0.00002928,0.00021123,0.00016106,-0.00002840,-0.00004036,-0.
 00001792,0.00001363,0.00002481,0.00022030,-0.00006688,-0.00002749,-0.0
 0002697,0.00000209,-0.00003670,0.00019157,0.00027541,0.00002502,-0.000
 04693,-0.00008075,-0.04450705,-0.14999768,0.17765793,0.01200491,0.0148
 3479,-0.03448702,0.03406663,0.14728202,-0.00023736,0.00021606,-0.00019
 822,0.00028603,0.00005235,0.00091967,0.00024397,0.00332420,-0.00113335
 ,-0.00241264,-0.00059236,0.00026191,0.00188684,-0.00124192,0.00112219,
 -0.00007342,-0.00016487,-0.00000689,0.00021562,-0.00032158,-0.00022496
 ,0.00002207,-0.00005687,-0.00004110,-0.00009182,0.00012057,-0.00030119
 ,0.00003590,-0.00008426,-0.00014944,0.00000453,0.00027648,0.00000475,-
 0.00030351,0.00091737,0.00048845,-0.00087183,0.00031236,0.00082623,0.0
 0003452,0.00024426,-0.00012293,0.00035706,0.00056368,-0.00521020,0.001
 97844,0.00256459,0.00865235,0.00019545,-0.00048435,-0.00074712,-0.0000
 0205,0.00010407,0.00029810,0.00007207,0.00008166,-0.00046193,0.0000194
 6,0.00010082,0.00010898,0.00000768,0.00020788,-0.00019614,-0.00001324,
 -0.00001175,0.00001246,-0.00002475,0.00006490,-0.00029495,0.00005566,-
 0.00012777,0.00005346,0.08606868,0.12514703,-0.29281742,0.00376178,0.0
 1548843,-0.01876017,-0.08830197,-0.13853882,0.30589979,-0.00000603,-0.
 00019572,0.00004399,0.00083805,-0.00057092,-0.00042055,0.00541064,0.00
 131145,-0.00032848,-0.00537796,0.00457386,0.00284380,-0.00051950,-0.00
 025518,-0.00019439,-0.00052753,-0.00000448,0.00035511,0.00030128,-0.00
 013393,-0.00015352,0.00005148,-0.00000364,-0.00000801,-0.00003965,0.00
 004763,0.00001287,0.00041837,-0.00018130,-0.00011463,0.00002716,-0.000
 02867,-0.00001527,0.00006697,-0.00060454,-0.00017484,-0.00010433,0.000
 06590,0.00042664,-0.00000986,0.00023681,-0.00008117,-0.00212268,-0.009
 57198,0.00158793,-0.00048072,0.00042437,-0.00189828,0.00007935,0.00024
 388,0.00005937,0.00010891,-0.00019579,0.00002093,0.00024474,-0.0000072
 2,-0.00012264,0.00003653,0.00005005,0.00000553,0.00028848,-0.00023763,
 -0.00004097,-0.00002229,-0.00006488,0.00002409,0.00012792,0.00016334,0
 .00002457,0.00002890,-0.00008832,-0.00001902,0.00589490,-0.00127970,0.
 00245177,0.00005955,0.00028704,-0.00093782,-0.01194510,0.00182606,-0.0
 0013789,0.56747068,0.00078213,-0.00011721,0.00108705,0.00014270,0.0003
 2548,-0.00073393,0.00193287,-0.01128424,0.00113847,0.00329407,0.002203
 50,0.00091573,-0.00486638,0.00065304,-0.00140120,-0.00002156,0.0007116
 2,-0.00003268,-0.00034701,-0.00018618,-0.00018300,-0.00004911,-0.00005
 980,0.00000027,-0.00002114,0.00000786,0.00000425,0.00050484,-0.0000900
 2,-0.00008941,-0.00000829,-0.00059331,-0.00011719,-0.00030876,-0.00006
 146,-0.00059136,-0.00011815,-0.00003307,-0.00021441,-0.00001647,-0.000
 01567,0.00003356,-0.00642709,-0.00582297,0.00377966,0.00055695,-0.0006
 9236,-0.00266427,0.00097188,-0.00016052,0.00068652,-0.00018850,-0.0001
 0659,-0.00012941,-0.00068724,-0.00067332,0.00032464,0.00004922,0.00003
 359,-0.00004944,-0.00004349,-0.00066924,0.00028866,0.00009300,0.000085
 58,-0.00001611,0.00013124,-0.00038158,-0.00053247,-0.00009299,0.000183
 51,0.00018426,-0.00111842,0.00619354,0.00435694,-0.00018411,-0.0011521
 3,0.00218378,0.00158959,-0.01020137,-0.00156647,-0.04652032,0.46816244
 ,0.00026869,-0.00026321,-0.00014731,-0.00068115,0.00014027,-0.00027599
 ,-0.00033431,-0.00100102,0.00369144,0.00257525,-0.00214392,-0.00260799
 ,-0.00091500,-0.00010359,-0.00061887,0.00017665,0.00001626,-0.00015199
 ,0.00003951,0.00057242,0.00042500,0.00001067,0.00008248,0.00004369,0.0
 0005685,-0.00012617,0.00028624,-0.00019114,0.00011616,0.00003251,-0.00
 002378,-0.00014104,0.00002941,0.00041096,-0.00130012,-0.00041770,0.000
 66681,0.00010175,-0.00008342,-0.00001623,-0.00007303,0.00009551,0.0021
 7922,0.00480266,0.00455623,-0.00306975,-0.00422899,-0.00224612,-0.0005
 3681,0.00065392,0.00047821,0.00011970,-0.00013325,-0.00021854,0.000110
 86,0.00011444,0.00034451,-0.00005468,-0.00009862,-0.00007668,-0.000036
 05,0.00012394,0.00012003,-0.00002088,0.00000726,-0.00002852,-0.0000317
 4,0.00003447,0.00058342,-0.00005625,0.00009638,-0.00015906,0.00523794,
 0.00800524,-0.02409853,0.00009191,0.00239537,-0.00142491,-0.00003885,0
 .00016035,0.00978051,0.00748020,0.10391222,0.07130805,0.00019254,0.000
 04589,0.00008294,-0.00051556,0.00045112,0.00048275,-0.00080013,-0.0017
 2720,0.00044563,0.00350420,-0.00057905,-0.00246309,-0.00062256,0.00002
 726,0.00005617,0.00032002,0.00008745,-0.00024588,-0.00006380,0.0000154
 9,0.00006280,-0.00002525,-0.00000057,0.00000287,-0.00000114,-0.0000372
 7,-0.00002365,-0.00009101,0.00004540,-0.00002308,-0.00002180,-0.000075
 76,-0.00000362,-0.00001726,0.00018562,-0.00004872,-0.00007290,-0.00000
 308,-0.00008143,0.00000478,-0.00004056,0.00004852,-0.00461419,0.000361
 18,0.00150312,0.00138993,0.00109944,0.00064487,0.00010461,-0.00013274,
 0.00003161,-0.00004751,0.00003663,0.00000417,-0.00019232,-0.00002231,0
 .00005540,-0.00000767,-0.00002224,-0.00000713,-0.00017253,0.00012423,0
 .00004382,0.00001954,0.00004553,-0.00002027,-0.00005749,-0.00012033,-0
 .00003536,-0.00003176,0.00005441,0.00001994,-0.00117085,-0.00124121,0.
 00252215,0.00022603,-0.00006456,0.00017955,-0.00002456,0.00032465,-0.0
 0537615,-0.45327748,-0.05611097,-0.03456589,0.48273024,-0.00003310,0.0
 0002856,-0.00036660,-0.00104134,0.00033443,0.00060007,-0.00362417,0.00
 030175,0.00005679,0.00335984,-0.00640302,-0.00279655,0.00140905,-0.000
 49115,0.00059233,0.00041033,-0.00025396,-0.00024827,-0.00008136,0.0001
 6931,0.00022699,-0.00000799,0.00004193,0.00000765,0.00004228,-0.000018
 01,0.00000374,-0.00036281,0.00012917,0.00001254,-0.00003154,0.00016930
 ,0.00003743,0.00015556,0.00024533,0.00025564,0.00000863,-0.00000877,-0
 .00003682,0.00001786,-0.00005569,0.00003480,0.00083757,0.00499043,-0.0
 0197219,0.00023664,0.00098125,0.00324306,-0.00042497,-0.00000994,-0.00
 030392,0.00005677,0.00007074,0.00006278,0.00023809,0.00029367,-0.00003
 823,-0.00009985,-0.00004663,0.00003459,-0.00015521,0.00056242,-0.00012
 177,-0.00003962,0.00000613,-0.00001055,-0.00014688,0.00013546,0.000229
 47,0.00002353,-0.00006631,-0.00007223,-0.00043499,-0.00178815,0.000085
 38,-0.00023631,0.00017048,-0.00043738,0.00024794,0.00155901,-0.0004801
 1,-0.11584320,-0.06413094,-0.02230566,0.06548976,0.05901474,-0.0001011
 7,0.00004941,0.00020250,0.00061279,-0.00033547,-0.00041407,0.00100729,
 -0.00001945,-0.00082300,-0.00255644,0.00197439,0.00340519,-0.00009216,
 0.00018455,-0.00016404,-0.00023263,0.00003213,0.00023085,-0.00005335,-
 0.00049488,-0.00032075,-0.00000401,-0.00004194,-0.00002005,-0.00002192
 ,0.00009616,-0.00009351,0.00014068,-0.00004806,0.00000535,0.00001755,-
 0.00001589,-0.00002697,-0.00014280,0.00015565,-0.00001326,-0.00016035,
 -0.00002119,0.00008720,-0.00000007,0.00005718,-0.00003138,-0.00006317,
 -0.00448329,-0.00400200,0.00097452,0.00338997,-0.00196313,0.00021557,-
 0.00010677,-0.00001435,-0.00003280,-0.00000607,0.00001424,-0.00008397,
 -0.00014317,-0.00009487,0.00003507,0.00004299,0.00001476,0.00008792,-0
 .00024954,-0.00001878,0.00002028,-0.00001866,0.00002541,0.00005487,-0.
 00001944,-0.00024970,0.00001836,-0.00000779,0.00006628,0.00295235,-0.0
 0035759,0.00109907,-0.00021654,-0.00008986,-0.00084341,-0.00873072,-0.
 00079402,-0.00343494,-0.04690745,-0.01907787,-0.02109009,0.04052022,0.
 02067596,0.02415496,-0.00052707,0.00033978,-0.00033045,-0.00054050,0.0
 0014914,-0.00003261,-0.00733602,0.00174521,-0.00017434,0.00141329,-0.0
 0589984,-0.00039524,0.00227423,0.00122494,0.00014123,0.00026020,-0.000
 16024,-0.00017498,-0.00024924,0.00003431,0.00003927,-0.00003610,-0.000
 00090,0.00000586,0.00004411,0.00001735,-0.00001891,-0.00062829,0.00030
 579,0.00021389,0.00000053,0.00022461,0.00005724,-0.00014720,0.00051490
 ,0.00020760,0.00017720,-0.00014874,-0.00034273,0.00003458,-0.00021921,
 0.00007875,0.00195668,0.00327057,-0.00129342,-0.00045024,-0.00028844,0
 .00151350,-0.00021438,-0.00014504,-0.00010463,-0.00009728,0.00017335,-
 0.00008152,-0.00006236,0.00002877,0.00007636,-0.00003920,-0.00003230,0
 .00000123,-0.00016374,0.00016301,0.00000573,0.00000368,0.00002516,-0.0
 0000682,-0.00008970,-0.00011088,0.00007182,-0.00001029,0.00008274,-0.0
 0001409,-0.00048868,0.00030306,-0.00146741,-0.00009544,0.00002999,-0.0
 0000688,0.00128476,-0.00052734,0.00260086,-0.10702077,0.10708151,0.021
 14726,-0.02666411,0.05002947,0.01274210,0.13741135,-0.00094698,0.00019
 500,-0.00134412,0.00105079,-0.00103984,0.00065417,0.00244696,0.0008457
 9,-0.00203423,-0.01018024,0.00276012,0.00153767,0.00642701,-0.00185056
 ,0.00163195,-0.00037881,-0.00083618,0.00032257,0.00071378,0.00000810,0
 .00001677,0.00008883,0.00004178,-0.00001996,-0.00001884,0.00008094,-0.
 00010919,-0.00040814,-0.00003152,0.00009299,0.00001926,0.00075446,0.00
 014101,0.00007793,0.00067717,0.00102600,-0.00004640,0.00004248,0.00028
 630,0.00000265,0.00003613,-0.00014004,0.00110767,-0.00449509,-0.001275
 76,0.00011680,0.00149474,0.00125511,-0.00097300,0.00001315,-0.00101611
 ,0.00019136,0.00018287,0.00019436,0.00085331,0.00087107,-0.00058591,0.
 00006602,0.00002163,0.00004858,0.00019572,0.00050143,-0.00034467,-0.00
 009436,-0.00013193,0.00003452,-0.00009969,0.00044633,0.00052045,0.0001
 2257,-0.00023023,-0.00020757,-0.00070219,-0.00238567,0.00292785,-0.000
 04150,-0.00017295,-0.00018841,0.00027936,0.00194504,-0.00611559,0.1665
 5706,-0.38212820,-0.08941698,-0.00821621,0.00406846,-0.00032742,-0.158
 21073,0.37831546,-0.00005497,0.00012868,0.00028738,0.00041842,0.000032
 39,0.00002173,-0.00088567,-0.00207333,-0.00351687,0.00076856,0.0021381
 2,0.00091730,-0.00018983,0.00116096,-0.00001657,0.00000489,0.00008481,
 0.00004504,-0.00029910,-0.00025734,-0.00015881,-0.00002987,-0.00004549
 ,-0.00001729,-0.00000871,0.00002783,-0.00012747,0.00018698,-0.00010631
 ,0.00012312,0.00001418,-0.00001852,-0.00003445,-0.00040504,0.00122795,
 0.00031732,-0.00033234,-0.00014860,-0.00057938,0.00001137,-0.00019131,
 -0.00006464,-0.00131707,-0.00129703,-0.00070478,0.00158712,0.00103121,
 -0.00071435,0.00049793,-0.00053451,-0.00012589,-0.00015609,0.00012141,
 0.00009115,-0.00016737,-0.00009808,-0.00009252,0.00003934,0.00003677,0
 .00002059,-0.00002945,-0.00013685,-0.00001717,0.00002533,0.00001489,0.
 00001340,0.00001466,-0.00003234,-0.00046282,0.00003901,-0.00007213,0.0
 0014342,-0.00136204,0.00225626,0.00020502,-0.00011669,-0.00039038,0.00
 063110,0.00379922,-0.00682901,-0.00432790,0.03621814,-0.09149678,-0.03
 812905,-0.00381225,0.00303107,0.00431249,-0.03445868,0.09243564,0.0419
 6093\\0.00102219,-0.00083306,0.00335721,0.00068003,0.00084774,0.003892
 31,0.00025722,0.00283614,0.00411947,-0.00026520,-0.00255319,-0.0038622
 9,-0.00069816,-0.00106841,-0.00408892,-0.00102240,0.00078859,-0.003400
 52,0.00001488,-0.00000277,-0.00001020,0.00000421,-0.00000185,-0.000001
 46,-0.00000411,0.00000652,-0.00000249,0.00000859,-0.00000755,0.0000086
 1,-0.00000176,-0.00000312,0.00001179,0.00000188,-0.00000217,-0.0000063
 7,-0.00000907,0.00000725,0.00000507,-0.00000590,-0.00000016,0.00000700
 ,0.00001177,-0.00002899,-0.00002132,0.00001130,0.00002664,0.00000212,-
 0.00001129,0.00000064,0.00002498,-0.00000495,-0.00000300,0.00001018,0.
 00001006,0.00000662,-0.00000691,-0.00000636,0.00000349,-0.00001067,-0.
 00000200,0.00000384,0.00000002,-0.00000876,0.00000052,0.00000613,0.000
 00517,-0.00000207,0.00000842,0.00000922,-0.00000889,0.00001411,-0.0000
 0974,-0.00000756,-0.00003314,-0.00000860,0.00000495,-0.00001227,-0.000
 01044,-0.00000372,0.00002689,0.00001340,-0.00000480,-0.00003454,0.0000
 0934,-0.00000170,0.00000397,0.00000948,0.00000005,-0.00000717\\\@


 THEORY:  SUPPOSITION WHICH HAS SCIENTIFIC BASIS,
          BUT NOT EXPERIMENTALLY PROVEN.
 FACT:    A THEORY WHICH HAS BEEN PROVEN BY ENOUGH 
          MONEY TO PAY FOR THE EXPERIMENTS.

                          --  THE WIZARD OF ID
 Job cpu time:       0 days  0 hours 54 minutes  6.8 seconds.
 File lengths (MBytes):  RWF=    334 Int=      0 D2E=      0 Chk=      6 Scr=      2
 Normal termination of Gaussian 09 at Wed Jan 25 21:50:35 2017.
