 Entering Gaussian System, Link 0=g09
 Initial command:
 /global/software/gaussian/g09.d01/l1.exe "/home/iawad/Gau-26726.inp" -scrdir="/home/iawad/"
 Entering Link 1 = /global/software/gaussian/g09.d01/l1.exe PID=     26727.
  
 Copyright (c) 1988,1990,1992,1993,1995,1998,2003,2009,2013,
            Gaussian, Inc.  All Rights Reserved.
  
 This is part of the Gaussian(R) 09 program.  It is based on
 the Gaussian(R) 03 system (copyright 2003, Gaussian, Inc.),
 the Gaussian(R) 98 system (copyright 1998, Gaussian, Inc.),
 the Gaussian(R) 94 system (copyright 1995, Gaussian, Inc.),
 the Gaussian 92(TM) system (copyright 1992, Gaussian, Inc.),
 the Gaussian 90(TM) system (copyright 1990, Gaussian, Inc.),
 the Gaussian 88(TM) system (copyright 1988, Gaussian, Inc.),
 the Gaussian 86(TM) system (copyright 1986, Carnegie Mellon
 University), and the Gaussian 82(TM) system (copyright 1983,
 Carnegie Mellon University). Gaussian is a federally registered
 trademark of Gaussian, Inc.
  
 This software contains proprietary and confidential information,
 including trade secrets, belonging to Gaussian, Inc.
  
 This software is provided under written license and may be
 used, copied, transmitted, or stored only in accord with that
 written license.
  
 The following legend is applicable only to US Government
 contracts under FAR:
  
                    RESTRICTED RIGHTS LEGEND
  
 Use, reproduction and disclosure by the US Government is
 subject to restrictions as set forth in subparagraphs (a)
 and (c) of the Commercial Computer Software - Restricted
 Rights clause in FAR 52.227-19.
  
 Gaussian, Inc.
 340 Quinnipiac St., Bldg. 40, Wallingford CT 06492
  
  
 ---------------------------------------------------------------
 Warning -- This program may not be used in any manner that
 competes with the business of Gaussian, Inc. or will provide
 assistance to any competitor of Gaussian, Inc.  The licensee
 of this program is prohibited from giving any competitor of
 Gaussian, Inc. access to this program.  By using this program,
 the user acknowledges that Gaussian, Inc. is engaged in the
 business of creating and licensing software in the field of
 computational chemistry and represents and warrants to the
 licensee that it is not a competitor of Gaussian, Inc. and that
 it will not use this program in any manner prohibited above.
 ---------------------------------------------------------------
  

 Cite this work as:
 Gaussian 09, Revision D.01,
 M. J. Frisch, G. W. Trucks, H. B. Schlegel, G. E. Scuseria, 
 M. A. Robb, J. R. Cheeseman, G. Scalmani, V. Barone, B. Mennucci, 
 G. A. Petersson, H. Nakatsuji, M. Caricato, X. Li, H. P. Hratchian, 
 A. F. Izmaylov, J. Bloino, G. Zheng, J. L. Sonnenberg, M. Hada, 
 M. Ehara, K. Toyota, R. Fukuda, J. Hasegawa, M. Ishida, T. Nakajima, 
 Y. Honda, O. Kitao, H. Nakai, T. Vreven, J. A. Montgomery, Jr., 
 J. E. Peralta, F. Ogliaro, M. Bearpark, J. J. Heyd, E. Brothers, 
 K. N. Kudin, V. N. Staroverov, T. Keith, R. Kobayashi, J. Normand, 
 K. Raghavachari, A. Rendell, J. C. Burant, S. S. Iyengar, J. Tomasi, 
 M. Cossi, N. Rega, J. M. Millam, M. Klene, J. E. Knox, J. B. Cross, 
 V. Bakken, C. Adamo, J. Jaramillo, R. Gomperts, R. E. Stratmann, 
 O. Yazyev, A. J. Austin, R. Cammi, C. Pomelli, J. W. Ochterski, 
 R. L. Martin, K. Morokuma, V. G. Zakrzewski, G. A. Voth, 
 P. Salvador, J. J. Dannenberg, S. Dapprich, A. D. Daniels, 
 O. Farkas, J. B. Foresman, J. V. Ortiz, J. Cioslowski, 
 and D. J. Fox, Gaussian, Inc., Wallingford CT, 2013.
 
 ******************************************
 Gaussian 09:  ES64L-G09RevD.01 24-Apr-2013
                25-Jan-2017 
 ******************************************
 %NPROCS=10
 Will use up to   10 processors via shared memory.
 ------------------------------------------------------
 # opt=(modredundant,MaxCycle=1000) freq B3LYP/6-31G(d)
 ------------------------------------------------------
 1/6=1000,14=-1,18=120,19=15,26=3,38=1/1,3;
 2/9=110,12=2,17=6,18=5,40=1/2;
 3/5=1,6=6,7=1,11=2,16=1,25=1,30=1,71=1,74=-5/1,2,3;
 4//1;
 5/5=2,38=5/2;
 6/7=2,8=2,9=2,10=2,28=1/1;
 7//1,2,3,16;
 1/6=1000,14=-1,18=20,19=15,26=3/3(2);
 2/9=110/2;
 99//99;
 2/9=110/2;
 3/5=1,6=6,7=1,11=2,16=1,25=1,30=1,71=1,74=-5/1,2,3;
 4/5=5,16=3,69=1/1;
 5/5=2,38=5/2;
 7//1,2,3,16;
 1/6=1000,14=-1,18=20,19=15,26=3/3(-5);
 2/9=110/2;
 6/7=2,8=2,9=2,10=2,19=2,28=1/1;
 99/9=1/99;
 -------------------------
 boat3_Alpha_B3LYP_6-31G_d
 -------------------------
 Symbolic Z-matrix:
 Charge =  0 Multiplicity = 1
 C                    -0.78594   0.45165   0.98442 
 C                     1.08811   0.30124  -0.80395 
 O                    -0.16254  -1.80227   0.06833 
 C                     1.12417  -1.20551  -0.52405 
 C                    -1.15629  -0.74405   0.20891 
 C                     0.50083   1.04827   0.39201 
 H                     1.27161   1.1097    1.17197 
 H                     0.53235   0.52716  -1.71544 
 H                    -1.90179  -1.24444   0.84594 
 H                    -1.58862   1.19388   1.0299 
 C                    -1.93876  -0.53068  -1.10336 
 H                    -2.33462  -1.48906  -1.46079 
 H                    -1.32211  -0.15336  -1.9176 
 O                    -3.02375   0.37117  -0.93218 
 H                    -3.71202  -0.0877   -0.41729 
 O                     2.42773   0.77833  -1.04631 
 H                     2.34158   1.75269  -1.09935 
 O                     0.29583   2.41451  -0.0136 
 H                    -0.66861   2.5658   -0.01364 
 O                    -0.5083    0.07564   2.34626 
 H                     0.05108  -0.72848   2.31675 
 H                     1.34799  -1.78361  -1.42576 
 O                     2.15433  -1.46783   0.42864 
 H                     2.22633  -2.44389   0.44902 
 O                     1.43997  -4.08883   0.20119 
 H                     1.55971  -4.47521  -0.66942 
 H                     0.91139  -3.29082   0.12769 
 O                    -2.47185   2.87837   0.1767 
 H                    -2.86284   2.08824  -0.20332 
 H                    -3.06893   3.24847   0.83102 
 
 Add virtual bond connecting atoms H27        and H24        Dist= 3.02D+00.
 Add virtual bond connecting atoms O28        and H19        Dist= 3.48D+00.
 Add virtual bond connecting atoms H29        and H10        Dist= 3.75D+00.
 Add virtual bond connecting atoms H29        and O14        Dist= 3.54D+00.
 The following ModRedundant input section has been read:
 D       5       3       4       2 F                                           
 D       5       1       6       2 F                                           
 

 GradGradGradGradGradGradGradGradGradGradGradGradGradGradGradGradGradGrad
 Berny optimization.
 Initialization pass.
                           ----------------------------
                           !    Initial Parameters    !
                           ! (Angstroms and Degrees)  !
 --------------------------                            --------------------------
 ! Name  Definition              Value          Derivative Info.                !
 --------------------------------------------------------------------------------
 ! R1    R(1,5)                  1.4725         estimate D2E/DX2                !
 ! R2    R(1,6)                  1.5371         estimate D2E/DX2                !
 ! R3    R(1,10)                 1.0942         estimate D2E/DX2                !
 ! R4    R(1,20)                 1.4398         estimate D2E/DX2                !
 ! R5    R(2,4)                  1.533          estimate D2E/DX2                !
 ! R6    R(2,6)                  1.5275         estimate D2E/DX2                !
 ! R7    R(2,8)                  1.0912         estimate D2E/DX2                !
 ! R8    R(2,16)                 1.4425         estimate D2E/DX2                !
 ! R9    R(3,4)                  1.5371         estimate D2E/DX2                !
 ! R10   R(3,5)                  1.4585         estimate D2E/DX2                !
 ! R11   R(4,22)                 1.0942         estimate D2E/DX2                !
 ! R12   R(4,23)                 1.4275         estimate D2E/DX2                !
 ! R13   R(5,9)                  1.1009         estimate D2E/DX2                !
 ! R14   R(5,11)                 1.5427         estimate D2E/DX2                !
 ! R15   R(6,7)                  1.0983         estimate D2E/DX2                !
 ! R16   R(6,18)                 1.4398         estimate D2E/DX2                !
 ! R17   R(10,29)                1.986          estimate D2E/DX2                !
 ! R18   R(11,12)                1.0968         estimate D2E/DX2                !
 ! R19   R(11,13)                1.0889         estimate D2E/DX2                !
 ! R20   R(11,14)                1.4212         estimate D2E/DX2                !
 ! R21   R(14,15)                0.9744         estimate D2E/DX2                !
 ! R22   R(14,29)                1.8723         estimate D2E/DX2                !
 ! R23   R(16,17)                0.9796         estimate D2E/DX2                !
 ! R24   R(18,19)                0.9762         estimate D2E/DX2                !
 ! R25   R(19,28)                1.84           estimate D2E/DX2                !
 ! R26   R(20,21)                0.98           estimate D2E/DX2                !
 ! R27   R(23,24)                0.9789         estimate D2E/DX2                !
 ! R28   R(24,27)                1.5968         estimate D2E/DX2                !
 ! R29   R(25,26)                0.96           estimate D2E/DX2                !
 ! R30   R(25,27)                0.96           estimate D2E/DX2                !
 ! R31   R(28,29)                0.96           estimate D2E/DX2                !
 ! R32   R(28,30)                0.96           estimate D2E/DX2                !
 ! A1    A(5,1,6)              108.8295         estimate D2E/DX2                !
 ! A2    A(5,1,10)             112.8426         estimate D2E/DX2                !
 ! A3    A(5,1,20)             109.5473         estimate D2E/DX2                !
 ! A4    A(6,1,10)             111.5201         estimate D2E/DX2                !
 ! A5    A(6,1,20)             107.7268         estimate D2E/DX2                !
 ! A6    A(10,1,20)            106.2177         estimate D2E/DX2                !
 ! A7    A(4,2,6)              110.2902         estimate D2E/DX2                !
 ! A8    A(4,2,8)              111.5925         estimate D2E/DX2                !
 ! A9    A(4,2,16)             109.5059         estimate D2E/DX2                !
 ! A10   A(6,2,8)              110.912          estimate D2E/DX2                !
 ! A11   A(6,2,16)             109.0769         estimate D2E/DX2                !
 ! A12   A(8,2,16)             105.3174         estimate D2E/DX2                !
 ! A13   A(4,3,5)              109.0161         estimate D2E/DX2                !
 ! A14   A(2,4,3)              115.6121         estimate D2E/DX2                !
 ! A15   A(2,4,22)             111.939          estimate D2E/DX2                !
 ! A16   A(2,4,23)             108.6302         estimate D2E/DX2                !
 ! A17   A(3,4,22)             106.481          estimate D2E/DX2                !
 ! A18   A(3,4,23)             105.9958         estimate D2E/DX2                !
 ! A19   A(22,4,23)            107.7748         estimate D2E/DX2                !
 ! A20   A(1,5,3)              117.9409         estimate D2E/DX2                !
 ! A21   A(1,5,9)              103.5708         estimate D2E/DX2                !
 ! A22   A(1,5,11)             117.598          estimate D2E/DX2                !
 ! A23   A(3,5,9)              100.8004         estimate D2E/DX2                !
 ! A24   A(3,5,11)             111.3441         estimate D2E/DX2                !
 ! A25   A(9,5,11)             102.2173         estimate D2E/DX2                !
 ! A26   A(1,6,2)              115.7079         estimate D2E/DX2                !
 ! A27   A(1,6,7)              109.604          estimate D2E/DX2                !
 ! A28   A(1,6,18)             110.9582         estimate D2E/DX2                !
 ! A29   A(2,6,7)              108.2736         estimate D2E/DX2                !
 ! A30   A(2,6,18)             107.3515         estimate D2E/DX2                !
 ! A31   A(7,6,18)             104.2945         estimate D2E/DX2                !
 ! A32   A(1,10,29)            138.6178         estimate D2E/DX2                !
 ! A33   A(5,11,12)            109.8416         estimate D2E/DX2                !
 ! A34   A(5,11,13)            113.3772         estimate D2E/DX2                !
 ! A35   A(5,11,14)            111.8717         estimate D2E/DX2                !
 ! A36   A(12,11,13)           105.2785         estimate D2E/DX2                !
 ! A37   A(12,11,14)           108.5541         estimate D2E/DX2                !
 ! A38   A(13,11,14)           107.6093         estimate D2E/DX2                !
 ! A39   A(11,14,15)           107.7023         estimate D2E/DX2                !
 ! A40   A(11,14,29)           124.28           estimate D2E/DX2                !
 ! A41   A(15,14,29)           106.6725         estimate D2E/DX2                !
 ! A42   A(2,16,17)            104.8561         estimate D2E/DX2                !
 ! A43   A(6,18,19)            106.7219         estimate D2E/DX2                !
 ! A44   A(1,20,21)            107.2095         estimate D2E/DX2                !
 ! A45   A(4,23,24)            104.4891         estimate D2E/DX2                !
 ! A46   A(23,24,27)           117.6517         estimate D2E/DX2                !
 ! A47   A(26,25,27)           109.5            estimate D2E/DX2                !
 ! A48   A(24,27,25)            88.3995         estimate D2E/DX2                !
 ! A49   A(19,28,29)           102.6133         estimate D2E/DX2                !
 ! A50   A(19,28,30)           138.2041         estimate D2E/DX2                !
 ! A51   A(29,28,30)           109.5            estimate D2E/DX2                !
 ! A52   A(10,29,14)            83.3316         estimate D2E/DX2                !
 ! A53   A(10,29,28)            82.1565         estimate D2E/DX2                !
 ! A54   A(14,29,28)           160.7225         estimate D2E/DX2                !
 ! A55   L(18,19,28,1,-1)      178.2604         estimate D2E/DX2                !
 ! A56   L(18,19,28,1,-2)      174.2299         estimate D2E/DX2                !
 ! D1    D(6,1,5,3)             55.2048         estimate D2E/DX2                !
 ! D2    D(6,1,5,9)            165.4619         estimate D2E/DX2                !
 ! D3    D(6,1,5,11)           -82.7096         estimate D2E/DX2                !
 ! D4    D(10,1,5,3)           179.5512         estimate D2E/DX2                !
 ! D5    D(10,1,5,9)           -70.1918         estimate D2E/DX2                !
 ! D6    D(10,1,5,11)           41.6367         estimate D2E/DX2                !
 ! D7    D(20,1,5,3)           -62.34           estimate D2E/DX2                !
 ! D8    D(20,1,5,9)            47.917          estimate D2E/DX2                !
 ! D9    D(20,1,5,11)          159.7455         estimate D2E/DX2                !
 ! D10   D(5,1,6,2)             -0.4133         Frozen                          !
 ! D11   D(5,1,6,7)           -123.1572         estimate D2E/DX2                !
 ! D12   D(5,1,6,18)           122.1919         estimate D2E/DX2                !
 ! D13   D(10,1,6,2)          -125.5374         estimate D2E/DX2                !
 ! D14   D(10,1,6,7)           111.7187         estimate D2E/DX2                !
 ! D15   D(10,1,6,18)           -2.9322         estimate D2E/DX2                !
 ! D16   D(20,1,6,2)           118.2805         estimate D2E/DX2                !
 ! D17   D(20,1,6,7)            -4.4635         estimate D2E/DX2                !
 ! D18   D(20,1,6,18)         -119.1143         estimate D2E/DX2                !
 ! D19   D(5,1,10,29)          -47.1917         estimate D2E/DX2                !
 ! D20   D(6,1,10,29)           75.6666         estimate D2E/DX2                !
 ! D21   D(20,1,10,29)        -167.233          estimate D2E/DX2                !
 ! D22   D(5,1,20,21)           44.9054         estimate D2E/DX2                !
 ! D23   D(6,1,20,21)          -73.3276         estimate D2E/DX2                !
 ! D24   D(10,1,20,21)         167.0653         estimate D2E/DX2                !
 ! D25   D(6,2,4,3)             46.3676         estimate D2E/DX2                !
 ! D26   D(6,2,4,22)           168.5259         estimate D2E/DX2                !
 ! D27   D(6,2,4,23)           -72.5861         estimate D2E/DX2                !
 ! D28   D(8,2,4,3)            -77.3839         estimate D2E/DX2                !
 ! D29   D(8,2,4,22)            44.7744         estimate D2E/DX2                !
 ! D30   D(8,2,4,23)           163.6623         estimate D2E/DX2                !
 ! D31   D(16,2,4,3)           166.4101         estimate D2E/DX2                !
 ! D32   D(16,2,4,22)          -71.4316         estimate D2E/DX2                !
 ! D33   D(16,2,4,23)           47.4564         estimate D2E/DX2                !
 ! D34   D(4,2,6,1)            -46.417          estimate D2E/DX2                !
 ! D35   D(4,2,6,7)             77.0274         estimate D2E/DX2                !
 ! D36   D(4,2,6,18)          -170.9118         estimate D2E/DX2                !
 ! D37   D(8,2,6,1)             77.7277         estimate D2E/DX2                !
 ! D38   D(8,2,6,7)           -158.8279         estimate D2E/DX2                !
 ! D39   D(8,2,6,18)           -46.7672         estimate D2E/DX2                !
 ! D40   D(16,2,6,1)          -166.7178         estimate D2E/DX2                !
 ! D41   D(16,2,6,7)           -43.2735         estimate D2E/DX2                !
 ! D42   D(16,2,6,18)           68.7873         estimate D2E/DX2                !
 ! D43   D(4,2,16,17)         -172.8413         estimate D2E/DX2                !
 ! D44   D(6,2,16,17)          -52.0593         estimate D2E/DX2                !
 ! D45   D(8,2,16,17)           67.0388         estimate D2E/DX2                !
 ! D46   D(5,3,4,2)              0.8156         Frozen                          !
 ! D47   D(5,3,4,22)          -124.2076         estimate D2E/DX2                !
 ! D48   D(5,3,4,23)           121.2107         estimate D2E/DX2                !
 ! D49   D(4,3,5,1)            -55.298          estimate D2E/DX2                !
 ! D50   D(4,3,5,9)           -167.111          estimate D2E/DX2                !
 ! D51   D(4,3,5,11)            85.08           estimate D2E/DX2                !
 ! D52   D(2,4,23,24)         -170.79           estimate D2E/DX2                !
 ! D53   D(3,4,23,24)           64.3764         estimate D2E/DX2                !
 ! D54   D(22,4,23,24)         -49.3155         estimate D2E/DX2                !
 ! D55   D(1,5,11,12)         -167.7753         estimate D2E/DX2                !
 ! D56   D(1,5,11,13)           74.7618         estimate D2E/DX2                !
 ! D57   D(1,5,11,14)          -47.1534         estimate D2E/DX2                !
 ! D58   D(3,5,11,12)           51.6976         estimate D2E/DX2                !
 ! D59   D(3,5,11,13)          -65.7652         estimate D2E/DX2                !
 ! D60   D(3,5,11,14)          172.3196         estimate D2E/DX2                !
 ! D61   D(9,5,11,12)          -55.1878         estimate D2E/DX2                !
 ! D62   D(9,5,11,13)         -172.6507         estimate D2E/DX2                !
 ! D63   D(9,5,11,14)           65.4341         estimate D2E/DX2                !
 ! D64   D(1,6,18,19)          -13.4652         estimate D2E/DX2                !
 ! D65   D(2,6,18,19)          113.86           estimate D2E/DX2                !
 ! D66   D(7,6,18,19)         -131.3931         estimate D2E/DX2                !
 ! D67   D(1,10,29,14)          41.9807         estimate D2E/DX2                !
 ! D68   D(1,10,29,28)        -125.2948         estimate D2E/DX2                !
 ! D69   D(5,11,14,15)         -72.2425         estimate D2E/DX2                !
 ! D70   D(5,11,14,29)          53.3517         estimate D2E/DX2                !
 ! D71   D(12,11,14,15)         49.1258         estimate D2E/DX2                !
 ! D72   D(12,11,14,29)        174.72           estimate D2E/DX2                !
 ! D73   D(13,11,14,15)        162.5886         estimate D2E/DX2                !
 ! D74   D(13,11,14,29)        -71.8172         estimate D2E/DX2                !
 ! D75   D(11,14,29,10)        -39.2701         estimate D2E/DX2                !
 ! D76   D(11,14,29,28)          2.1006         estimate D2E/DX2                !
 ! D77   D(15,14,29,10)         86.7655         estimate D2E/DX2                !
 ! D78   D(15,14,29,28)        128.1362         estimate D2E/DX2                !
 ! D79   D(6,18,28,29)         -43.4304         estimate D2E/DX2                !
 ! D80   D(6,18,28,30)          95.3557         estimate D2E/DX2                !
 ! D81   D(4,23,24,27)         -29.3872         estimate D2E/DX2                !
 ! D82   D(23,24,27,25)        176.5917         estimate D2E/DX2                !
 ! D83   D(26,25,27,24)       -108.7307         estimate D2E/DX2                !
 ! D84   D(19,28,29,10)         50.7826         estimate D2E/DX2                !
 ! D85   D(19,28,29,14)          9.2798         estimate D2E/DX2                !
 ! D86   D(30,28,29,10)       -102.0515         estimate D2E/DX2                !
 ! D87   D(30,28,29,14)       -143.5543         estimate D2E/DX2                !
 --------------------------------------------------------------------------------
 Trust Radius=3.00D-01 FncErr=1.00D-07 GrdErr=1.00D-06
 Number of steps in this run=    180 maximum allowed number of steps=    180.
 GradGradGradGradGradGradGradGradGradGradGradGradGradGradGradGradGradGrad

                          Input orientation:                          
 ---------------------------------------------------------------------
 Center     Atomic      Atomic             Coordinates (Angstroms)
 Number     Number       Type             X           Y           Z
 ---------------------------------------------------------------------
      1          6           0       -0.785935    0.451645    0.984424
      2          6           0        1.088111    0.301241   -0.803953
      3          8           0       -0.162541   -1.802266    0.068333
      4          6           0        1.124171   -1.205514   -0.524045
      5          6           0       -1.156290   -0.744054    0.208906
      6          6           0        0.500833    1.048272    0.392011
      7          1           0        1.271610    1.109701    1.171965
      8          1           0        0.532346    0.527163   -1.715437
      9          1           0       -1.901792   -1.244444    0.845944
     10          1           0       -1.588616    1.193878    1.029900
     11          6           0       -1.938762   -0.530684   -1.103363
     12          1           0       -2.334622   -1.489061   -1.460786
     13          1           0       -1.322109   -0.153361   -1.917604
     14          8           0       -3.023749    0.371170   -0.932177
     15          1           0       -3.712017   -0.087700   -0.417292
     16          8           0        2.427726    0.778325   -1.046310
     17          1           0        2.341584    1.752691   -1.099346
     18          8           0        0.295828    2.414508   -0.013597
     19          1           0       -0.668615    2.565802   -0.013642
     20          8           0       -0.508303    0.075642    2.346262
     21          1           0        0.051083   -0.728477    2.316754
     22          1           0        1.347989   -1.783608   -1.425757
     23          8           0        2.154329   -1.467825    0.428641
     24          1           0        2.226334   -2.443891    0.449016
     25          8           0        1.439965   -4.088825    0.201194
     26          1           0        1.559714   -4.475212   -0.669418
     27          1           0        0.911390   -3.290824    0.127686
     28          8           0       -2.471853    2.878372    0.176700
     29          1           0       -2.862836    2.088237   -0.203325
     30          1           0       -3.068928    3.248468    0.831017
 ---------------------------------------------------------------------
                    Distance matrix (angstroms):
                    1          2          3          4          5
     1  C    0.000000
     2  C    2.594795   0.000000
     3  O    2.511565   2.598029   0.000000
     4  C    2.944513   1.532958   1.537092   0.000000
     5  C    1.472510   2.675044   1.458462   2.439398   0.000000
     6  C    1.537104   1.527508   2.944554   2.511426   2.447860
     7  H    2.168341   2.142786   3.428461   2.873745   3.202903
     8  H    3.005465   1.091201   3.015119   2.184454   2.858423
     9  H    2.034952   3.748443   1.985154   3.321873   1.100900
    10  H    1.094200   3.365217   3.454733   3.940944   2.148608
    11  C    2.579309   3.153364   2.478861   3.189446   1.542673
    12  H    3.484799   3.918126   2.674741   3.594598   2.175172
    13  H    3.012521   2.693704   2.829741   3.005548   2.213246
    14  O    2.947481   4.114453   3.729793   4.456203   2.456257
    15  H    3.289021   4.831357   3.971693   4.964838   2.711949
    16  O    3.815523   1.442537   3.822481   2.430562   4.091256
    17  H    3.976958   1.940402   4.502426   3.250237   4.492258
    18  O    2.453383   2.391291   4.242405   3.748502   3.483485
    19  H    2.340846   2.973031   4.398050   4.206829   3.352984
    20  O    1.439813   3.538826   2.972381   3.541891   2.379092
    21  H    1.966822   3.445948   2.500811   3.073959   2.429201
    22  H    3.919051   2.191066   2.124701   1.094245   3.166103
    23  O    3.555054   2.405349   2.368451   1.427460   3.395928
    24  H    4.212429   3.225094   2.502664   1.922287   3.793316
    25  O    5.117025   4.517389   2.795359   2.989846   4.234158
    26  H    5.701858   4.801564   3.264212   3.301781   4.697837
    27  H    4.197736   3.715120   1.836480   2.195119   3.281454
    28  O    3.063289   4.502958   5.220444   5.486398   3.854052
    29  H    2.898741   4.377681   4.743564   5.181494   3.332282
    30  H    3.613559   5.351658   5.876962   6.265479   4.470507
                    6          7          8          9         10
     6  C    0.000000
     7  H    1.098271   0.000000
     8  H    2.171148   3.036931   0.000000
     9  H    3.351896   3.964690   3.952757   0.000000
    10  H    2.189498   2.864989   3.532685   2.465225   0.000000
    11  C    3.268160   4.263152   2.756819   2.076203   2.765416
    12  H    4.232106   5.166222   3.514187   2.359700   3.736068
    13  H    3.178264   4.227072   1.985696   3.027159   3.251747
    14  O    3.825522   4.839726   3.644673   2.651549   2.566360
    15  H    4.437737   5.366195   4.480832   2.492135   2.871522
    16  O    2.419619   2.523323   2.025655   5.139742   4.540301
    17  H    2.471582   2.591743   2.270425   5.547361   4.504712
    18  O    1.439842   2.015001   2.552307   4.353880   2.475874
    19  H    1.958331   2.700068   2.914525   4.096045   1.953857
    20  O    2.404883   2.369882   4.217134   2.436266   2.037238
    21  H    2.657771   2.485785   4.250507   2.498645   2.835499
    22  H    3.470086   3.889117   2.467560   4.001550   4.849672
    23  O    3.011002   2.824069   3.347817   4.083645   4.632042
    24  H    3.895614   3.749956   4.047421   4.317134   5.303266
    25  O    5.225720   5.291069   5.079822   4.435487   6.145406
    26  H    5.723350   5.887695   5.212811   4.971540   6.703600
    27  H    4.366484   4.537059   4.256501   3.552121   5.213116
    28  O    3.497497   4.258200   4.258354   4.215503   2.084605
    29  H    3.570745   4.465714   4.031215   3.623718   1.986041
    30  H    4.216252   4.850860   5.182577   4.642056   2.540122
                   11         12         13         14         15
    11  C    0.000000
    12  H    1.096787   0.000000
    13  H    1.088863   1.737228   0.000000
    14  O    1.421211   2.052994   2.035136   0.000000
    15  H    1.952271   2.224839   2.822571   0.974362   0.000000
    16  O    4.558835   5.290821   3.960865   5.467850   6.232344
    17  H    4.851307   5.701447   4.210134   5.542864   6.363829
    18  O    3.854236   4.924579   3.582864   4.004823   4.742029
    19  H    3.519799   4.616461   3.383189   3.347652   4.057869
    20  O    3.783353   4.503038   4.346870   4.142821   4.234111
    21  H    3.961793   4.532095   4.488452   4.606449   4.695373
    22  H    3.532207   3.694538   3.166866   4.898855   5.431093
    23  O    4.469750   4.870428   4.395259   5.660938   6.085586
    24  H    4.839242   5.036007   4.841370   6.115197   6.447181
    25  O    5.077207   4.875291   5.254164   6.410993   6.552438
    26  H    5.290269   4.970837   5.342403   6.675672   6.863307
    27  H    4.154181   4.038092   4.360666   5.478944   5.650920
    28  O    3.680273   4.666333   3.859977   2.796472   3.269314
    29  H    2.919371   3.828482   3.215175   1.872281   2.345547
    30  H    4.393300   5.313732   4.709430   3.374868   3.619648
                   16         17         18         19         20
    16  O    0.000000
    17  H    0.979603   0.000000
    18  O    2.878989   2.408728   0.000000
    19  H    3.721398   3.301696   0.976237   0.000000
    20  O    4.541319   4.775622   3.418458   3.434493   0.000000
    21  H    4.385098   4.803366   3.920305   4.098900   0.979995
    22  H    2.805942   3.687707   4.552518   4.997812   4.596820
    23  O    2.701003   3.569528   4.326905   4.943154   3.626178
    24  H    3.557982   4.474596   5.248324   5.804464   4.174425
    25  O    5.120653   6.052076   6.606703   6.984005   5.073446
    26  H    5.338084   6.291497   7.035322   7.414268   5.837919
    27  H    4.498390   5.384061   5.740183   6.067657   4.274425
    28  O    5.469171   5.105353   2.812729   1.840000   4.051891
    29  H    5.515119   5.291638   3.181133   2.253587   4.011827
    30  H    6.311828   5.936101   3.567975   2.634575   4.349666
                   21         22         23         24         25
    21  H    0.000000
    22  H    4.098982   0.000000
    23  O    2.921515   2.046630   0.000000
    24  H    3.341079   2.173071   0.978930   0.000000
    25  O    4.206724   2.823022   2.726112   1.840000   0.000000
    26  H    5.023068   2.803856   3.256329   2.412787   0.960000
    27  H    3.478185   2.208054   2.226836   1.596755   0.960000
    28  O    4.894323   6.236435   6.352516   7.104478   7.990291
    29  H    4.772378   5.849493   6.181982   6.845829   7.538821
    30  H    5.268584   7.065690   7.048953   7.783873   8.634967
                   26         27         28         29         30
    26  H    0.000000
    27  H    1.567952   0.000000
    28  O    8.428799   7.036172   0.000000
    29  H    7.928118   6.579411   0.960000   0.000000
    30  H    9.128574   7.687649   0.960000   1.567952   0.000000
 Stoichiometry    C6H16O8
 Framework group  C1[X(C6H16O8)]
 Deg. of freedom    84
 Full point group                 C1      NOp   1
 Largest Abelian subgroup         C1      NOp   1
 Largest concise Abelian subgroup C1      NOp   1
                         Standard orientation:                         
 ---------------------------------------------------------------------
 Center     Atomic      Atomic             Coordinates (Angstroms)
 Number     Number       Type             X           Y           Z
 ---------------------------------------------------------------------
      1          6           0       -0.874829   -0.174771    0.954528
      2          6           0        0.446045    1.211936   -0.796272
      3          8           0        1.260738   -1.114407    0.024799
      4          6           0        1.626697    0.270109   -0.533629
      5          6           0       -0.188838   -1.205386    0.157322
      6          6           0       -0.508738    1.209709    0.396064
      7          1           0       -0.066505    1.823148    1.192507
      8          1           0       -0.079199    0.950533   -1.716330
      9          1           0       -0.283150   -2.113304    0.772766
     10          1           0       -1.958886   -0.318562    0.992181
     11          6           0       -0.847694   -1.639656   -1.168256
     12          1           0       -0.362230   -2.548054   -1.545190
     13          1           0       -0.740371   -0.905271   -1.964988
     14          8           0       -2.235469   -1.901423   -1.008882
     15          1           0       -2.324627   -2.735930   -0.513875
     16          8           0        0.936413    2.552399   -1.005107
     17          1           0        0.132245    3.110135   -1.048318
     18          8           0       -1.688798    1.934812    0.002581
     19          1           0       -2.421611    1.290070   -0.015660
     20          8           0       -0.413794   -0.233711    2.317258
     21          1           0        0.562279   -0.316884    2.289786
     22          1           0        2.218034    0.093955   -1.437322
     23          8           0        2.482984    0.871983    0.437022
     24          1           0        3.279557    0.303062    0.447268
     25          8           0        4.042950   -1.346903    0.163635
     26          1           0        4.420209   -1.481276   -0.708843
     27          1           0        3.091699   -1.241527    0.088686
     28          8           0       -3.815383    0.099075    0.140960
     29          1           0       -3.456093   -0.697520   -0.256466
     30          1           0       -4.484329   -0.138823    0.787115
 ---------------------------------------------------------------------
 Rotational constants (GHZ):      0.8497949      0.4615840      0.3829808
 Standard basis: 6-31G(d) (6D, 7F)
 There are   242 symmetry adapted cartesian basis functions of A   symmetry.
 There are   242 symmetry adapted basis functions of A   symmetry.
   242 basis functions,   456 primitive gaussians,   242 cartesian basis functions
    58 alpha electrons       58 beta electrons
       nuclear repulsion energy      1113.5157771941 Hartrees.
 NAtoms=   30 NActive=   30 NUniq=   30 SFac= 1.00D+00 NAtFMM=   60 NAOKFM=F Big=F
 Integral buffers will be    131072 words long.
 Raffenetti 2 integral format.
 Two-electron integral symmetry is turned on.
 One-electron integrals computed using PRISM.
 NBasis=   242 RedAO= T EigKep=  1.29D-03  NBF=   242
 NBsUse=   242 1.00D-06 EigRej= -1.00D+00 NBFU=   242
 ExpMin= 1.61D-01 ExpMax= 5.48D+03 ExpMxC= 8.25D+02 IAcc=1 IRadAn=         1 AccDes= 0.00D+00
 Harris functional with IExCor=  402 and IRadAn=       1 diagonalized for initial guess.
 HarFok:  IExCor=  402 AccDes= 0.00D+00 IRadAn=         1 IDoV= 1 UseB2=F ITyADJ=14
 ICtDFT=  3500011 ScaDFX=  1.000000  1.000000  1.000000  1.000000
 FoFCou: FMM=F IPFlag=           0 FMFlag=      100000 FMFlg1=           0
         NFxFlg=           0 DoJE=T BraDBF=F KetDBF=T FulRan=T
         wScrn=  0.000000 ICntrl=     500 IOpCl=  0 I1Cent=   200000004 NGrid=           0
         NMat0=    1 NMatS0=      1 NMatT0=    0 NMatD0=    1 NMtDS0=    0 NMtDT0=    0
 Petite list used in FoFCou.
 Requested convergence on RMS density matrix=1.00D-08 within 128 cycles.
 Requested convergence on MAX density matrix=1.00D-06.
 Requested convergence on             energy=1.00D-06.
 No special actions if energy rises.
 Integral accuracy reduced to 1.0D-05 until final iterations.
 Initial convergence to 1.0D-05 achieved.  Increase integral accuracy.
 SCF Done:  E(RB3LYP) =  -839.939968191     A.U. after   14 cycles
            NFock= 14  Conv=0.61D-08     -V/T= 2.0084

 **********************************************************************

            Population analysis using the SCF density.

 **********************************************************************

 Orbital symmetries:
       Occupied  (A) (A) (A) (A) (A) (A) (A) (A) (A) (A) (A) (A)
                 (A) (A) (A) (A) (A) (A) (A) (A) (A) (A) (A) (A)
                 (A) (A) (A) (A) (A) (A) (A) (A) (A) (A) (A) (A)
                 (A) (A) (A) (A) (A) (A) (A) (A) (A) (A) (A) (A)
                 (A) (A) (A) (A) (A) (A) (A) (A) (A) (A)
       Virtual   (A) (A) (A) (A) (A) (A) (A) (A) (A) (A) (A) (A)
                 (A) (A) (A) (A) (A) (A) (A) (A) (A) (A) (A) (A)
                 (A) (A) (A) (A) (A) (A) (A) (A) (A) (A) (A) (A)
                 (A) (A) (A) (A) (A) (A) (A) (A) (A) (A) (A) (A)
                 (A) (A) (A) (A) (A) (A) (A) (A) (A) (A) (A) (A)
                 (A) (A) (A) (A) (A) (A) (A) (A) (A) (A) (A) (A)
                 (A) (A) (A) (A) (A) (A) (A) (A) (A) (A) (A) (A)
                 (A) (A) (A) (A) (A) (A) (A) (A) (A) (A) (A) (A)
                 (A) (A) (A) (A) (A) (A) (A) (A) (A) (A) (A) (A)
                 (A) (A) (A) (A) (A) (A) (A) (A) (A) (A) (A) (A)
                 (A) (A) (A) (A) (A) (A) (A) (A) (A) (A) (A) (A)
                 (A) (A) (A) (A) (A) (A) (A) (A) (A) (A) (A) (A)
                 (A) (A) (A) (A) (A) (A) (A) (A) (A) (A) (A) (A)
                 (A) (A) (A) (A) (A) (A) (A) (A) (A) (A) (A) (A)
                 (A) (A) (A) (A) (A) (A) (A) (A) (A) (A) (A) (A)
                 (A) (A) (A) (A)
 The electronic state is 1-A.
 Alpha  occ. eigenvalues --  -19.19948 -19.18821 -19.16183 -19.15602 -19.14856
 Alpha  occ. eigenvalues --  -19.14001 -19.13871 -19.12106 -10.30228 -10.26290
 Alpha  occ. eigenvalues --  -10.25585 -10.24270 -10.23681 -10.22296  -1.07165
 Alpha  occ. eigenvalues --   -1.06321  -1.02839  -1.02413  -1.01482  -1.01346
 Alpha  occ. eigenvalues --   -0.99564  -0.98629  -0.79334  -0.76400  -0.71146
 Alpha  occ. eigenvalues --   -0.65249  -0.63893  -0.57657  -0.56885  -0.55776
 Alpha  occ. eigenvalues --   -0.54921  -0.53839  -0.52682  -0.50225  -0.48834
 Alpha  occ. eigenvalues --   -0.48188  -0.47058  -0.46527  -0.43930  -0.42713
 Alpha  occ. eigenvalues --   -0.41460  -0.40552  -0.39833  -0.38697  -0.38036
 Alpha  occ. eigenvalues --   -0.37891  -0.35532  -0.34945  -0.33302  -0.32856
 Alpha  occ. eigenvalues --   -0.31951  -0.31366  -0.31151  -0.29167  -0.28730
 Alpha  occ. eigenvalues --   -0.27185  -0.26436  -0.24072
 Alpha virt. eigenvalues --    0.01990   0.04980   0.05887   0.06634   0.08597
 Alpha virt. eigenvalues --    0.08883   0.09754   0.12158   0.12920   0.14622
 Alpha virt. eigenvalues --    0.15047   0.15127   0.16885   0.17639   0.17825
 Alpha virt. eigenvalues --    0.19814   0.20144   0.21685   0.22900   0.23495
 Alpha virt. eigenvalues --    0.24796   0.24911   0.26048   0.28296   0.28844
 Alpha virt. eigenvalues --    0.30884   0.35117   0.37253   0.48876   0.51135
 Alpha virt. eigenvalues --    0.53566   0.55723   0.56730   0.58791   0.60272
 Alpha virt. eigenvalues --    0.61961   0.63341   0.65696   0.67429   0.68175
 Alpha virt. eigenvalues --    0.69263   0.72295   0.72845   0.74747   0.75936
 Alpha virt. eigenvalues --    0.77329   0.78052   0.79669   0.80145   0.81263
 Alpha virt. eigenvalues --    0.81716   0.82968   0.83787   0.84331   0.85279
 Alpha virt. eigenvalues --    0.86148   0.87544   0.88900   0.90818   0.91084
 Alpha virt. eigenvalues --    0.91441   0.92092   0.92753   0.94418   0.95023
 Alpha virt. eigenvalues --    0.96863   0.98571   1.00412   1.02015   1.03007
 Alpha virt. eigenvalues --    1.04479   1.06098   1.06954   1.07636   1.08400
 Alpha virt. eigenvalues --    1.08652   1.10942   1.11403   1.12274   1.13802
 Alpha virt. eigenvalues --    1.14846   1.17360   1.20806   1.21204   1.24287
 Alpha virt. eigenvalues --    1.24736   1.28794   1.31397   1.34917   1.36837
 Alpha virt. eigenvalues --    1.37764   1.42698   1.43167   1.47505   1.49546
 Alpha virt. eigenvalues --    1.52361   1.54576   1.56078   1.57018   1.59696
 Alpha virt. eigenvalues --    1.60959   1.62370   1.67154   1.68644   1.70374
 Alpha virt. eigenvalues --    1.71621   1.72315   1.72909   1.73659   1.75045
 Alpha virt. eigenvalues --    1.75398   1.76508   1.77123   1.78507   1.79857
 Alpha virt. eigenvalues --    1.81520   1.82090   1.83925   1.85969   1.87347
 Alpha virt. eigenvalues --    1.89799   1.91323   1.91663   1.92880   1.94815
 Alpha virt. eigenvalues --    1.96317   1.99515   2.00543   2.02019   2.04654
 Alpha virt. eigenvalues --    2.04948   2.08938   2.10793   2.14862   2.16176
 Alpha virt. eigenvalues --    2.16427   2.20636   2.25234   2.27368   2.29890
 Alpha virt. eigenvalues --    2.32384   2.33248   2.35228   2.38621   2.39112
 Alpha virt. eigenvalues --    2.40528   2.43946   2.45387   2.46892   2.48454
 Alpha virt. eigenvalues --    2.48683   2.51824   2.54454   2.56427   2.57297
 Alpha virt. eigenvalues --    2.60983   2.63263   2.65799   2.66847   2.67910
 Alpha virt. eigenvalues --    2.74274   2.76631   2.84380   2.86669   2.91718
 Alpha virt. eigenvalues --    2.92744   2.95834   3.01232   3.05530   3.07333
 Alpha virt. eigenvalues --    3.74360   3.75443   3.79309   3.81414   3.85306
 Alpha virt. eigenvalues --    3.90663   4.06057   4.10251   4.32022   4.38225
 Alpha virt. eigenvalues --    4.51445   4.56570   4.59414   4.80634
          Condensed to atoms (all electrons):
               1          2          3          4          5          6
     1  C    5.112428  -0.030896  -0.030631  -0.006929   0.279758   0.237867
     2  C   -0.030896   5.022638  -0.021041   0.255057   0.003694   0.278377
     3  O   -0.030631  -0.021041   8.398447   0.144641   0.196871  -0.009943
     4  C   -0.006929   0.255057   0.144641   4.905830  -0.030784  -0.020070
     5  C    0.279758   0.003694   0.196871  -0.030784   5.082957  -0.035714
     6  C    0.237867   0.278377  -0.009943  -0.020070  -0.035714   5.060523
     7  H   -0.040096  -0.050798   0.000639  -0.006216   0.001348   0.371053
     8  H    0.002579   0.348251   0.002693  -0.051362  -0.004667  -0.042104
     9  H   -0.056938   0.000400  -0.041478   0.005289   0.353960   0.008820
    10  H    0.327821   0.003963   0.002228   0.000184  -0.034697  -0.046092
    11  C   -0.044964  -0.007460  -0.033828  -0.007332   0.272996  -0.002317
    12  H    0.005644   0.000089   0.005609  -0.000020  -0.036353  -0.000165
    13  H   -0.005308   0.000881   0.001095   0.001480  -0.041659   0.000967
    14  O   -0.000554   0.000041   0.001359   0.000096  -0.041642   0.000228
    15  H   -0.001338  -0.000003  -0.000003   0.000009  -0.000944   0.000022
    16  O    0.004230   0.231343   0.000540  -0.038408  -0.000105  -0.032109
    17  H    0.000424  -0.027245  -0.000034   0.007106  -0.000052  -0.009695
    18  O   -0.009415  -0.046934   0.000050   0.004116   0.000462   0.214639
    19  H   -0.004107   0.001066   0.000017  -0.000107  -0.000253  -0.031981
    20  O    0.227433   0.002481  -0.003259   0.000957  -0.031671  -0.051250
    21  H   -0.032197  -0.001710   0.011520   0.000612  -0.008456  -0.001209
    22  H   -0.000398  -0.039745  -0.049251   0.358979   0.003772   0.005537
    23  O    0.002088  -0.043817  -0.054748   0.228820  -0.001195  -0.002925
    24  H   -0.000084   0.005335   0.002649  -0.018604  -0.000112  -0.000071
    25  O   -0.000013   0.000309  -0.014840   0.011520   0.000236  -0.000006
    26  H    0.000000   0.000052   0.000091   0.000973  -0.000004   0.000000
    27  H    0.000378   0.000739   0.040425  -0.001760  -0.000982  -0.000039
    28  O   -0.025878  -0.000010  -0.000001   0.000000  -0.000030   0.000323
    29  H    0.003271  -0.000004   0.000002   0.000001  -0.000554   0.000012
    30  H    0.000429   0.000001   0.000000   0.000000   0.000035  -0.000020
               7          8          9         10         11         12
     1  C   -0.040096   0.002579  -0.056938   0.327821  -0.044964   0.005644
     2  C   -0.050798   0.348251   0.000400   0.003963  -0.007460   0.000089
     3  O    0.000639   0.002693  -0.041478   0.002228  -0.033828   0.005609
     4  C   -0.006216  -0.051362   0.005289   0.000184  -0.007332  -0.000020
     5  C    0.001348  -0.004667   0.353960  -0.034697   0.272996  -0.036353
     6  C    0.371053  -0.042104   0.008820  -0.046092  -0.002317  -0.000165
     7  H    0.567106   0.006703  -0.000348   0.000401  -0.000086   0.000008
     8  H    0.006703   0.636286   0.000026  -0.000221  -0.002494   0.000303
     9  H   -0.000348   0.000026   0.644484  -0.002450  -0.049141  -0.010493
    10  H    0.000401  -0.000221  -0.002450   0.575570  -0.004735   0.000040
    11  C   -0.000086  -0.002494  -0.049141  -0.004735   5.047405   0.358998
    12  H    0.000008   0.000303  -0.010493   0.000040   0.358998   0.597846
    13  H   -0.000017   0.009834   0.006402   0.000186   0.366080  -0.038244
    14  O   -0.000005   0.000077   0.001665   0.007937   0.211878  -0.027786
    15  H    0.000000  -0.000005   0.005235   0.000877  -0.028406  -0.009527
    16  O    0.001706  -0.038026   0.000002  -0.000049   0.000093  -0.000003
    17  H    0.000218  -0.001011   0.000001  -0.000003  -0.000002   0.000000
    18  O   -0.041892   0.003435  -0.000141  -0.005953   0.001279   0.000006
    19  H    0.005128   0.001187  -0.000036   0.000752   0.000361   0.000004
    20  O    0.003004  -0.000101   0.003264  -0.028379   0.004425  -0.000071
    21  H    0.001014   0.000011  -0.002857   0.005340   0.000716  -0.000013
    22  H   -0.000085  -0.005894  -0.000303   0.000018   0.000873  -0.000004
    23  O    0.005152   0.003194  -0.000233  -0.000003  -0.000008   0.000009
    24  H   -0.000034  -0.000154   0.000013   0.000000   0.000001  -0.000003
    25  O    0.000001   0.000002   0.000026   0.000000  -0.000006  -0.000004
    26  H    0.000000  -0.000001  -0.000001   0.000000   0.000001   0.000000
    27  H    0.000007  -0.000009  -0.000448  -0.000004   0.000128   0.000077
    28  O   -0.000061  -0.000021   0.000030   0.046453   0.001384  -0.000034
    29  H    0.000027   0.000054  -0.000162  -0.004292  -0.004097   0.000498
    30  H    0.000008   0.000001  -0.000006   0.001125  -0.000045   0.000001
              13         14         15         16         17         18
     1  C   -0.005308  -0.000554  -0.001338   0.004230   0.000424  -0.009415
     2  C    0.000881   0.000041  -0.000003   0.231343  -0.027245  -0.046934
     3  O    0.001095   0.001359  -0.000003   0.000540  -0.000034   0.000050
     4  C    0.001480   0.000096   0.000009  -0.038408   0.007106   0.004116
     5  C   -0.041659  -0.041642  -0.000944  -0.000105  -0.000052   0.000462
     6  C    0.000967   0.000228   0.000022  -0.032109  -0.009695   0.214639
     7  H   -0.000017  -0.000005   0.000000   0.001706   0.000218  -0.041892
     8  H    0.009834   0.000077  -0.000005  -0.038026  -0.001011   0.003435
     9  H    0.006402   0.001665   0.005235   0.000002   0.000001  -0.000141
    10  H    0.000186   0.007937   0.000877  -0.000049  -0.000003  -0.005953
    11  C    0.366080   0.211878  -0.028406   0.000093  -0.000002   0.001279
    12  H   -0.038244  -0.027786  -0.009527  -0.000003   0.000000   0.000006
    13  H    0.549650  -0.030834   0.006683  -0.000052  -0.000001  -0.000227
    14  O   -0.030834   8.221120   0.235474   0.000000   0.000000  -0.000104
    15  H    0.006683   0.235474   0.385615   0.000000   0.000000   0.000002
    16  O   -0.000052   0.000000   0.000000   8.279307   0.231917  -0.004084
    17  H   -0.000001   0.000000   0.000000   0.231917   0.371967   0.016280
    18  O   -0.000227  -0.000104   0.000002  -0.004084   0.016280   8.361164
    19  H    0.000022   0.000122  -0.000020   0.000041  -0.000148   0.226649
    20  O   -0.000047   0.000006  -0.000046  -0.000021  -0.000010   0.001955
    21  H   -0.000007  -0.000018   0.000001  -0.000009   0.000000  -0.000045
    22  H   -0.000602  -0.000002  -0.000001   0.001897  -0.000376  -0.000073
    23  O    0.000011   0.000000   0.000000   0.002237   0.000125   0.000014
    24  H    0.000001   0.000000   0.000000   0.000014   0.000017   0.000001
    25  O    0.000001   0.000000   0.000000   0.000000   0.000000   0.000000
    26  H    0.000000   0.000000   0.000000   0.000000   0.000000   0.000000
    27  H   -0.000030   0.000000   0.000000  -0.000015   0.000001   0.000000
    28  O    0.000076  -0.019080   0.001192   0.000000   0.000001  -0.015597
    29  H   -0.000566   0.054765  -0.003628   0.000000  -0.000001   0.001716
    30  H   -0.000003   0.000481  -0.000021   0.000000   0.000000   0.000786
              19         20         21         22         23         24
     1  C   -0.004107   0.227433  -0.032197  -0.000398   0.002088  -0.000084
     2  C    0.001066   0.002481  -0.001710  -0.039745  -0.043817   0.005335
     3  O    0.000017  -0.003259   0.011520  -0.049251  -0.054748   0.002649
     4  C   -0.000107   0.000957   0.000612   0.358979   0.228820  -0.018604
     5  C   -0.000253  -0.031671  -0.008456   0.003772  -0.001195  -0.000112
     6  C   -0.031981  -0.051250  -0.001209   0.005537  -0.002925  -0.000071
     7  H    0.005128   0.003004   0.001014  -0.000085   0.005152  -0.000034
     8  H    0.001187  -0.000101   0.000011  -0.005894   0.003194  -0.000154
     9  H   -0.000036   0.003264  -0.002857  -0.000303  -0.000233   0.000013
    10  H    0.000752  -0.028379   0.005340   0.000018  -0.000003   0.000000
    11  C    0.000361   0.004425   0.000716   0.000873  -0.000008   0.000001
    12  H    0.000004  -0.000071  -0.000013  -0.000004   0.000009  -0.000003
    13  H    0.000022  -0.000047  -0.000007  -0.000602   0.000011   0.000001
    14  O    0.000122   0.000006  -0.000018  -0.000002   0.000000   0.000000
    15  H   -0.000020  -0.000046   0.000001  -0.000001   0.000000   0.000000
    16  O    0.000041  -0.000021  -0.000009   0.001897   0.002237   0.000014
    17  H   -0.000148  -0.000010   0.000000  -0.000376   0.000125   0.000017
    18  O    0.226649   0.001955  -0.000045  -0.000073   0.000014   0.000001
    19  H    0.315595   0.000111   0.000016   0.000003   0.000001   0.000000
    20  O    0.000111   8.280126   0.231778  -0.000008  -0.000756   0.000029
    21  H    0.000016   0.231778   0.389556   0.000226   0.006360  -0.000042
    22  H    0.000003  -0.000008   0.000226   0.637175  -0.048744  -0.005911
    23  O    0.000001  -0.000756   0.006360  -0.048744   8.334691   0.201693
    24  H    0.000000   0.000029  -0.000042  -0.005911   0.201693   0.355032
    25  O    0.000000   0.000000  -0.000014   0.001734  -0.026593   0.067757
    26  H    0.000000   0.000000   0.000000   0.001362   0.000871  -0.002777
    27  H    0.000000  -0.000021   0.000174  -0.000044   0.013634  -0.018522
    28  O    0.047071   0.000161  -0.000011   0.000000   0.000000   0.000000
    29  H   -0.003695  -0.000035   0.000003   0.000000   0.000000   0.000000
    30  H   -0.001937  -0.000015   0.000001   0.000000   0.000000   0.000000
              25         26         27         28         29         30
     1  C   -0.000013   0.000000   0.000378  -0.025878   0.003271   0.000429
     2  C    0.000309   0.000052   0.000739  -0.000010  -0.000004   0.000001
     3  O   -0.014840   0.000091   0.040425  -0.000001   0.000002   0.000000
     4  C    0.011520   0.000973  -0.001760   0.000000   0.000001   0.000000
     5  C    0.000236  -0.000004  -0.000982  -0.000030  -0.000554   0.000035
     6  C   -0.000006   0.000000  -0.000039   0.000323   0.000012  -0.000020
     7  H    0.000001   0.000000   0.000007  -0.000061   0.000027   0.000008
     8  H    0.000002  -0.000001  -0.000009  -0.000021   0.000054   0.000001
     9  H    0.000026  -0.000001  -0.000448   0.000030  -0.000162  -0.000006
    10  H    0.000000   0.000000  -0.000004   0.046453  -0.004292   0.001125
    11  C   -0.000006   0.000001   0.000128   0.001384  -0.004097  -0.000045
    12  H   -0.000004   0.000000   0.000077  -0.000034   0.000498   0.000001
    13  H    0.000001   0.000000  -0.000030   0.000076  -0.000566  -0.000003
    14  O    0.000000   0.000000   0.000000  -0.019080   0.054765   0.000481
    15  H    0.000000   0.000000   0.000000   0.001192  -0.003628  -0.000021
    16  O    0.000000   0.000000  -0.000015   0.000000   0.000000   0.000000
    17  H    0.000000   0.000000   0.000001   0.000001  -0.000001   0.000000
    18  O    0.000000   0.000000   0.000000  -0.015597   0.001716   0.000786
    19  H    0.000000   0.000000   0.000000   0.047071  -0.003695  -0.001937
    20  O    0.000000   0.000000  -0.000021   0.000161  -0.000035  -0.000015
    21  H   -0.000014   0.000000   0.000174  -0.000011   0.000003   0.000001
    22  H    0.001734   0.001362  -0.000044   0.000000   0.000000   0.000000
    23  O   -0.026593   0.000871   0.013634   0.000000   0.000000   0.000000
    24  H    0.067757  -0.002777  -0.018522   0.000000   0.000000   0.000000
    25  O    8.308905   0.248615   0.212506   0.000000   0.000000   0.000000
    26  H    0.248615   0.365649  -0.016516   0.000000   0.000000   0.000000
    27  H    0.212506  -0.016516   0.325952   0.000000   0.000000   0.000000
    28  O    0.000000   0.000000   0.000000   8.307873   0.208942   0.246327
    29  H    0.000000   0.000000   0.000000   0.208942   0.326540  -0.011204
    30  H    0.000000   0.000000   0.000000   0.246327  -0.011204   0.356619
 Mulliken charges:
               1
     1  C    0.085395
     2  C    0.114947
     3  O   -0.549820
     4  C    0.255922
     5  C    0.073785
     6  C    0.107343
     7  H    0.176117
     8  H    0.131435
     9  H    0.135419
    10  H    0.153982
    11  C   -0.081696
    12  H    0.153588
    13  H    0.174228
    14  O   -0.615224
    15  H    0.408831
    16  O   -0.640445
    17  H    0.410520
    18  O   -0.708092
    19  H    0.444140
    20  O   -0.640041
    21  H    0.399262
    22  H    0.139862
    23  O   -0.619878
    24  H    0.413771
    25  O   -0.810136
    26  H    0.401685
    27  H    0.444368
    28  O   -0.799112
    29  H    0.432407
    30  H    0.407438
 Sum of Mulliken charges =   0.00000
 Mulliken charges with hydrogens summed into heavy atoms:
               1
     1  C    0.239377
     2  C    0.246382
     3  O   -0.549820
     4  C    0.395785
     5  C    0.209204
     6  C    0.283460
    11  C    0.246120
    14  O   -0.206393
    16  O   -0.229925
    18  O   -0.263952
    20  O   -0.240779
    23  O   -0.206108
    25  O    0.035916
    28  O    0.040734
 Electronic spatial extent (au):  <R**2>=           3145.0291
 Charge=              0.0000 electrons
 Dipole moment (field-independent basis, Debye):
    X=             -2.4373    Y=             -5.5517    Z=             -2.7048  Tot=              6.6391
 Quadrupole moment (field-independent basis, Debye-Ang):
   XX=            -77.4454   YY=            -83.1561   ZZ=            -86.2877
   XY=              5.9459   XZ=            -10.6429   YZ=              2.0078
 Traceless Quadrupole moment (field-independent basis, Debye-Ang):
   XX=              4.8510   YY=             -0.8597   ZZ=             -3.9913
   XY=              5.9459   XZ=            -10.6429   YZ=              2.0078
 Octapole moment (field-independent basis, Debye-Ang**2):
  XXX=            -48.4140  YYY=            -29.3980  ZZZ=            -10.9662  XYY=            -26.9829
  XXY=            -38.1381  XXZ=             -3.0025  XZZ=             11.4833  YZZ=              0.4574
  YYZ=             -4.8643  XYZ=             17.8697
 Hexadecapole moment (field-independent basis, Debye-Ang**3):
 XXXX=          -1748.6406 YYYY=           -905.0742 ZZZZ=           -544.6639 XXXY=             71.6330
 XXXZ=           -276.4673 YYYX=             44.0916 YYYZ=             -2.2013 ZZZX=             18.1543
 ZZZY=              0.1138 XXYY=           -533.8774 XXZZ=           -403.8960 YYZZ=           -254.8403
 XXYZ=             40.6044 YYXZ=             -8.3556 ZZXY=            -23.4911
 N-N= 1.113515777194D+03 E-N=-4.199206093063D+03  KE= 8.329825918827D+02
 Calling FoFJK, ICntrl=      2127 FMM=F ISym2X=0 I1Cent= 0 IOpClX= 0 NMat=1 NMatS=1 NMatT=0.
 ***** Axes restored to original set *****
 -------------------------------------------------------------------
 Center     Atomic                   Forces (Hartrees/Bohr)
 Number     Number              X              Y              Z
 -------------------------------------------------------------------
      1        6           0.044545761    0.001640092    0.020703618
      2        6           0.014145362    0.005284714    0.005786256
      3        8           0.023951363    0.056666302   -0.024847307
      4        6           0.024521127   -0.020353773    0.023777264
      5        6          -0.053038295   -0.053875363   -0.001072032
      6        6           0.000971880    0.035367146   -0.002448178
      7        1          -0.002257048   -0.008680945   -0.001375780
      8        1          -0.008806448   -0.003833004    0.000702005
      9        1          -0.000689466   -0.001819593    0.001718520
     10        1           0.004033042   -0.006886915    0.000057728
     11        6           0.006263763   -0.006706869   -0.007484542
     12        1           0.003328847   -0.003071037    0.003002047
     13        1          -0.000597883    0.006163870   -0.000111412
     14        8          -0.009565225    0.004167502    0.003200525
     15        1           0.002559775    0.001514009   -0.002251694
     16        8          -0.008434182   -0.005323461    0.001546755
     17        1          -0.002503358   -0.006346271    0.001040826
     18        8           0.001147153   -0.004654624   -0.003072565
     19        1           0.002330240    0.009227025   -0.001014159
     20        8          -0.007874492   -0.006636012    0.001351009
     21        1          -0.001703393    0.007037170   -0.001971442
     22        1          -0.006795891   -0.000122961   -0.003501085
     23        8          -0.020154894    0.010807268   -0.012766640
     24        1           0.011281315    0.001900325    0.003038417
     25        8           0.014184609   -0.009356828    0.015445822
     26        1          -0.002453867    0.001776729   -0.008824979
     27        1          -0.024312673   -0.008192612   -0.004839671
     28        8           0.012025278    0.016296532   -0.002990586
     29        1          -0.010767270   -0.012338073   -0.007438964
     30        1          -0.005335129    0.000349655    0.004640246
 -------------------------------------------------------------------
 Cartesian Forces:  Max     0.056666302 RMS     0.014769505

 GradGradGradGradGradGradGradGradGradGradGradGradGradGradGradGradGradGrad
 Berny optimization.
 FormGI is forming the generalized inverse of G from B-inverse, IUseBI=4.
 Internal  Forces:  Max     0.030627749 RMS     0.007255597
 Search for a local minimum.
 Step number   1 out of a maximum of  180
 All quantities printed in internal units (Hartrees-Bohrs-Radians)
 Mixed Optimization -- RFO/linear search
 Second derivative matrix not updated -- first step.
 ITU=  0
     Eigenvalues ---    0.00230   0.00747   0.00860   0.00947   0.00991
     Eigenvalues ---    0.01129   0.01165   0.01213   0.01291   0.01307
     Eigenvalues ---    0.01329   0.01558   0.01767   0.02197   0.02657
     Eigenvalues ---    0.02845   0.03096   0.03912   0.04120   0.04454
     Eigenvalues ---    0.04631   0.04740   0.04998   0.05088   0.05222
     Eigenvalues ---    0.05506   0.05729   0.05937   0.06239   0.06807
     Eigenvalues ---    0.07016   0.07246   0.07765   0.08441   0.09221
     Eigenvalues ---    0.09644   0.09731   0.10682   0.11375   0.12398
     Eigenvalues ---    0.12924   0.13679   0.15164   0.16000   0.16000
     Eigenvalues ---    0.16000   0.16000   0.16000   0.16000   0.16487
     Eigenvalues ---    0.17568   0.17885   0.18264   0.19267   0.22954
     Eigenvalues ---    0.26813   0.27341   0.28072   0.28572   0.31340
     Eigenvalues ---    0.32599   0.33583   0.33874   0.34040   0.34327
     Eigenvalues ---    0.34674   0.34944   0.35601   0.38042   0.39239
     Eigenvalues ---    0.39611   0.40594   0.41356   0.48340   0.51386
     Eigenvalues ---    0.51462   0.51593   0.52496   0.53545   0.55473
     Eigenvalues ---    0.55473   0.554731000.000001000.000001000.00000
     Eigenvalues --- 1000.000001000.000001000.000001000.000001000.00000
     Eigenvalues --- 1000.000001000.000001000.000001000.000001000.00000
     Eigenvalues --- 1000.000001000.000001000.000001000.000001000.00000
     Eigenvalues --- 1000.000001000.000001000.000001000.000001000.00000
     Eigenvalues --- 1000.000001000.000001000.000001000.000001000.00000
     Eigenvalues --- 1000.000001000.000001000.000001000.000001000.00000
     Eigenvalues --- 1000.000001000.000001000.000001000.000001000.00000
     Eigenvalues --- 1000.000001000.000001000.000001000.000001000.00000
     Eigenvalues --- 1000.000001000.000001000.000001000.000001000.00000
     Eigenvalues --- 1000.000001000.000001000.000001000.000001000.00000
     Eigenvalues --- 1000.000001000.000001000.000001000.000001000.00000
     Eigenvalues --- 1000.000001000.000001000.000001000.000001000.00000
     Eigenvalues --- 1000.000001000.000001000.000001000.000001000.00000
     Eigenvalues --- 1000.000001000.000001000.000001000.000001000.00000
     Eigenvalues --- 1000.000001000.000001000.000001000.000001000.00000
     Eigenvalues --- 1000.000001000.000001000.000001000.000001000.00000
     Eigenvalues --- 1000.000001000.000001000.000001000.000001000.00000
     Eigenvalues --- 1000.000001000.000001000.000001000.000001000.00000
 RFO step:  Lambda=-4.53214537D-02 EMin= 2.30000000D-03
 Linear search not attempted -- first point.
 Maximum step size (   0.300) exceeded in Quadratic search.
    -- Step size scaled by   0.720
 Iteration  1 RMS(Cart)=  0.09177738 RMS(Int)=  0.00671192
 Iteration  2 RMS(Cart)=  0.01325593 RMS(Int)=  0.00044284
 Iteration  3 RMS(Cart)=  0.00030439 RMS(Int)=  0.00039860
 Iteration  4 RMS(Cart)=  0.00000020 RMS(Int)=  0.00039860
 Iteration  1 RMS(Cart)=  0.00003150 RMS(Int)=  0.00005929
 Iteration  2 RMS(Cart)=  0.00002540 RMS(Int)=  0.00006388
 Iteration  3 RMS(Cart)=  0.00002053 RMS(Int)=  0.00007308
 Iteration  4 RMS(Cart)=  0.00001662 RMS(Int)=  0.00008282
 Iteration  5 RMS(Cart)=  0.00001346 RMS(Int)=  0.00009165
 Iteration  6 RMS(Cart)=  0.00001091 RMS(Int)=  0.00009920
 Iteration  7 RMS(Cart)=  0.00000885 RMS(Int)=  0.00010548
 Iteration  8 RMS(Cart)=  0.00000717 RMS(Int)=  0.00011064
 Iteration  9 RMS(Cart)=  0.00000581 RMS(Int)=  0.00011484
 Iteration 10 RMS(Cart)=  0.00000471 RMS(Int)=  0.00011825
 Iteration 11 RMS(Cart)=  0.00000381 RMS(Int)=  0.00012101
 Iteration 12 RMS(Cart)=  0.00000309 RMS(Int)=  0.00012324
 Iteration 13 RMS(Cart)=  0.00000250 RMS(Int)=  0.00012503
 Iteration 14 RMS(Cart)=  0.00000202 RMS(Int)=  0.00012647
 Iteration 15 RMS(Cart)=  0.00000163 RMS(Int)=  0.00012764
 Iteration 16 RMS(Cart)=  0.00000132 RMS(Int)=  0.00012857
 Iteration 17 RMS(Cart)=  0.00000107 RMS(Int)=  0.00012932
 Iteration 18 RMS(Cart)=  0.00000086 RMS(Int)=  0.00012993
 Variable       Old X    -DE/DX   Delta X   Delta X   Delta X     New X
                                 (Linear)    (Quad)   (Total)
    R1        2.78264   0.02442   0.00000   0.05519   0.05572   2.83837
    R2        2.90471   0.00734   0.00000   0.02219   0.02185   2.92656
    R3        2.06774  -0.00237   0.00000  -0.00544  -0.00554   2.06220
    R4        2.72085  -0.00254   0.00000  -0.00414  -0.00414   2.71671
    R5        2.89687   0.00238   0.00000  -0.00138  -0.00201   2.89486
    R6        2.88657   0.00505   0.00000   0.00523   0.00456   2.89113
    R7        2.06207   0.00311   0.00000   0.00571   0.00571   2.06778
    R8        2.72600  -0.01445   0.00000  -0.02378  -0.02378   2.70222
    R9        2.90468  -0.02452   0.00000  -0.05792  -0.05767   2.84701
   R10        2.75609  -0.01735   0.00000  -0.02762  -0.02679   2.72930
   R11        2.06782   0.00156   0.00000   0.00289   0.00289   2.07072
   R12        2.69751  -0.02022   0.00000  -0.03173  -0.03173   2.66578
   R13        2.08040   0.00229   0.00000   0.00433   0.00433   2.08473
   R14        2.91523  -0.00054   0.00000   0.00316   0.00334   2.91856
   R15        2.07543  -0.00305   0.00000  -0.00572  -0.00572   2.06972
   R16        2.72091   0.00336   0.00000   0.00630   0.00642   2.72733
   R17        3.75307   0.00873   0.00000   0.06150   0.06113   3.81420
   R18        2.07263   0.00050   0.00000   0.00094   0.00094   2.07357
   R19        2.05765   0.00187   0.00000   0.00342   0.00342   2.06107
   R20        2.68570   0.00736   0.00000   0.01214   0.01201   2.69771
   R21        1.84128  -0.00370   0.00000  -0.00468  -0.00468   1.83660
   R22        3.53810   0.00380   0.00000   0.01775   0.01774   3.55584
   R23        1.85118  -0.00615   0.00000  -0.00791  -0.00791   1.84327
   R24        1.84482   0.00345   0.00000   0.00435   0.00459   1.84941
   R25        3.47710   0.00430   0.00000   0.02904   0.02927   3.50636
   R26        1.85192  -0.00669   0.00000  -0.00861  -0.00861   1.84331
   R27        1.84991   0.01383   0.00000   0.01775   0.01775   1.86766
   R28        3.01743   0.01837   0.00000   0.13876   0.13876   3.15619
   R29        1.81414   0.00698   0.00000   0.00838   0.00838   1.82251
   R30        1.81414   0.01327   0.00000   0.01592   0.01592   1.83006
   R31        1.81414   0.02084   0.00000   0.02553   0.02565   1.83979
   R32        1.81414   0.00662   0.00000   0.00794   0.00794   1.82208
    A1        1.89943   0.00506   0.00000   0.03601   0.03619   1.93562
    A2        1.96947  -0.00674   0.00000  -0.02076  -0.02052   1.94895
    A3        1.91196   0.00083   0.00000  -0.01383  -0.01468   1.89728
    A4        1.94639  -0.00158   0.00000  -0.01265  -0.01289   1.93351
    A5        1.88019   0.00160   0.00000   0.01491   0.01526   1.89545
    A6        1.85385   0.00107   0.00000  -0.00360  -0.00389   1.84996
    A7        1.92493   0.00512   0.00000   0.01016   0.01052   1.93544
    A8        1.94766  -0.00328   0.00000  -0.00901  -0.00945   1.93821
    A9        1.91124  -0.00485   0.00000  -0.02395  -0.02363   1.88761
   A10        1.93578  -0.00105   0.00000  -0.00685  -0.00712   1.92866
   A11        1.90375  -0.00024   0.00000   0.00814   0.00820   1.91195
   A12        1.83814   0.00413   0.00000   0.02175   0.02173   1.85986
   A13        1.90269   0.02347   0.00000   0.08059   0.08221   1.98490
   A14        2.01781  -0.00902   0.00000  -0.02864  -0.02915   1.98866
   A15        1.95370   0.00320   0.00000   0.00381   0.00341   1.95711
   A16        1.89595  -0.00280   0.00000  -0.00430  -0.00412   1.89184
   A17        1.85844  -0.00233   0.00000  -0.01434  -0.01447   1.84397
   A18        1.84998   0.00768   0.00000   0.01324   0.01309   1.86306
   A19        1.88103   0.00441   0.00000   0.03538   0.03528   1.91630
   A20        2.05846  -0.01717   0.00000  -0.05803  -0.05899   1.99947
   A21        1.80765   0.00483   0.00000   0.03008   0.03011   1.83777
   A22        2.05247   0.00320   0.00000   0.00077  -0.00008   2.05240
   A23        1.75930   0.00735   0.00000   0.03934   0.04001   1.79930
   A24        1.94332   0.00640   0.00000  -0.00231  -0.00418   1.93914
   A25        1.78403  -0.00107   0.00000   0.01705   0.01686   1.80089
   A26        2.01948  -0.00858   0.00000  -0.02659  -0.02717   1.99232
   A27        1.91295  -0.00022   0.00000  -0.00085  -0.00139   1.91156
   A28        1.93659   0.00531   0.00000   0.02082   0.02097   1.95756
   A29        1.88973  -0.00166   0.00000   0.00016   0.00035   1.89008
   A30        1.87364   0.00470   0.00000  -0.01085  -0.01062   1.86301
   A31        1.82028   0.00138   0.00000   0.02189   0.02177   1.84205
   A32        2.41934   0.00029   0.00000  -0.00318  -0.00307   2.41627
   A33        1.91710  -0.00528   0.00000  -0.02042  -0.02064   1.89645
   A34        1.97881   0.00312   0.00000   0.00663   0.00654   1.98535
   A35        1.95253  -0.00050   0.00000   0.00271   0.00306   1.95559
   A36        1.83746   0.00199   0.00000   0.01249   0.01270   1.85016
   A37        1.89463   0.00665   0.00000   0.02634   0.02651   1.92114
   A38        1.87814  -0.00555   0.00000  -0.02598  -0.02624   1.85189
   A39        1.87976   0.00150   0.00000   0.00489   0.00496   1.88472
   A40        2.16910  -0.00414   0.00000  -0.00903  -0.00932   2.15977
   A41        1.86179   0.00260   0.00000   0.01065   0.01085   1.87264
   A42        1.83008  -0.00579   0.00000  -0.02031  -0.02031   1.80978
   A43        1.86265   0.00266   0.00000   0.03120   0.03118   1.89383
   A44        1.87116  -0.00398   0.00000  -0.01395  -0.01395   1.85721
   A45        1.82368   0.03063   0.00000   0.10741   0.10741   1.93109
   A46        2.05341   0.02989   0.00000   0.10481   0.10481   2.15822
   A47        1.91114  -0.01123   0.00000  -0.03937  -0.03937   1.87177
   A48        1.54286  -0.00839   0.00000  -0.02942  -0.02942   1.51344
   A49        1.79094   0.00370   0.00000   0.02499   0.02524   1.81618
   A50        2.41212  -0.00029   0.00000  -0.00596  -0.00618   2.40594
   A51        1.91114  -0.00279   0.00000  -0.01818  -0.01830   1.89283
   A52        1.45441   0.00425   0.00000   0.00073   0.00070   1.45511
   A53        1.43390  -0.00050   0.00000   0.01073   0.01065   1.44455
   A54        2.80514   0.00431   0.00000   0.01353   0.01355   2.81868
   A55        3.11123  -0.00805   0.00000  -0.05087  -0.05101   3.06022
   A56        3.04089   0.00252   0.00000   0.02575   0.02541   3.06630
    D1        0.96351  -0.00441   0.00000  -0.05768  -0.05600   0.90751
    D2        2.88785  -0.00007   0.00000  -0.01632  -0.01629   2.87156
    D3       -1.44356   0.00331   0.00000   0.02472   0.02489  -1.41867
    D4        3.13376  -0.00742   0.00000  -0.06181  -0.06057   3.07318
    D5       -1.22508  -0.00307   0.00000  -0.02046  -0.02087  -1.24595
    D6        0.72670   0.00031   0.00000   0.02058   0.02031   0.74701
    D7       -1.08804  -0.00975   0.00000  -0.08858  -0.08713  -1.17517
    D8        0.83631  -0.00540   0.00000  -0.04722  -0.04743   0.78888
    D9        2.78809  -0.00202   0.00000  -0.00618  -0.00625   2.78184
   D10       -0.00721  -0.01020   0.00000   0.00000   0.00001  -0.00720
   D11       -2.14950  -0.00152   0.00000   0.01995   0.01998  -2.12951
   D12        2.13265  -0.00608   0.00000  -0.01790  -0.01809   2.11456
   D13       -2.19104  -0.00413   0.00000   0.00936   0.00938  -2.18166
   D14        1.94986   0.00455   0.00000   0.02931   0.02935   1.97921
   D15       -0.05118  -0.00001   0.00000  -0.00854  -0.00872  -0.05990
   D16        2.06438  -0.00551   0.00000   0.01177   0.01220   2.07658
   D17       -0.07790   0.00316   0.00000   0.03172   0.03217  -0.04574
   D18       -2.07894  -0.00139   0.00000  -0.00613  -0.00591  -2.08484
   D19       -0.82365   0.00060   0.00000  -0.01897  -0.01911  -0.84276
   D20        1.32063   0.00106   0.00000   0.00339   0.00347   1.32410
   D21       -2.91877   0.00278   0.00000   0.01243   0.01265  -2.90611
   D22        0.78375   0.00637   0.00000   0.04608   0.04601   0.82976
   D23       -1.27981  -0.00107   0.00000   0.00207   0.00195  -1.27786
   D24        2.91584  -0.00062   0.00000   0.01109   0.01127   2.92711
   D25        0.80927   0.00596   0.00000   0.02603   0.02562   0.83488
   D26        2.94133  -0.00158   0.00000  -0.01251  -0.01288   2.92845
   D27       -1.26687   0.00401   0.00000   0.03080   0.03044  -1.23642
   D28       -1.35060   0.00593   0.00000   0.03390   0.03394  -1.31666
   D29        0.78146  -0.00161   0.00000  -0.00465  -0.00456   0.77690
   D30        2.85645   0.00398   0.00000   0.03867   0.03877   2.89521
   D31        2.90440   0.00578   0.00000   0.02728   0.02721   2.93162
   D32       -1.24672  -0.00175   0.00000  -0.01127  -0.01129  -1.25801
   D33        0.82827   0.00384   0.00000   0.03204   0.03204   0.86031
   D34       -0.81013   0.00378   0.00000  -0.01521  -0.01420  -0.82433
   D35        1.34438  -0.00396   0.00000  -0.03517  -0.03459   1.30979
   D36       -2.98297  -0.00088   0.00000  -0.01509  -0.01448  -2.99746
   D37        1.35660   0.00248   0.00000  -0.02436  -0.02390   1.33271
   D38       -2.77207  -0.00526   0.00000  -0.04432  -0.04428  -2.81635
   D39       -0.81624  -0.00217   0.00000  -0.02424  -0.02418  -0.84042
   D40       -2.90977   0.00675   0.00000   0.00290   0.00327  -2.90650
   D41       -0.75526  -0.00099   0.00000  -0.01707  -0.01711  -0.77238
   D42        1.20056   0.00209   0.00000   0.00302   0.00299   1.20356
   D43       -3.01665  -0.00228   0.00000  -0.00301  -0.00341  -3.02006
   D44       -0.90861   0.00086   0.00000  -0.00022  -0.00006  -0.90867
   D45        1.17005   0.00178   0.00000   0.00779   0.00804   1.17808
   D46        0.01423   0.00257   0.00000   0.00000  -0.00001   0.01423
   D47       -2.16783   0.00652   0.00000   0.02634   0.02587  -2.14196
   D48        2.11552  -0.00095   0.00000  -0.01344  -0.01365   2.10188
   D49       -0.96513   0.00477   0.00000   0.04685   0.04459  -0.92055
   D50       -2.91664   0.00136   0.00000   0.00932   0.00932  -2.90732
   D51        1.48493  -0.00299   0.00000  -0.02761  -0.02757   1.45735
   D52       -2.98085  -0.00465   0.00000  -0.02266  -0.02290  -3.00375
   D53        1.12358   0.00317   0.00000   0.00632   0.00670   1.13028
   D54       -0.86072   0.00018   0.00000   0.00036   0.00023  -0.86049
   D55       -2.92823  -0.00774   0.00000  -0.04660  -0.04672  -2.97495
   D56        1.30484  -0.00865   0.00000  -0.05273  -0.05281   1.25203
   D57       -0.82298  -0.00327   0.00000  -0.02546  -0.02541  -0.84839
   D58        0.90229   0.00886   0.00000   0.05314   0.05348   0.95578
   D59       -1.14782   0.00795   0.00000   0.04701   0.04739  -1.10043
   D60        3.00754   0.01333   0.00000   0.07428   0.07480   3.08234
   D61       -0.96321  -0.00113   0.00000   0.00149   0.00150  -0.96171
   D62       -3.01332  -0.00204   0.00000  -0.00464  -0.00459  -3.01792
   D63        1.14204   0.00334   0.00000   0.02263   0.02281   1.16485
   D64       -0.23501   0.00278   0.00000   0.01197   0.01237  -0.22265
   D65        1.98723  -0.00111   0.00000  -0.01538  -0.01561   1.97162
   D66       -2.29324  -0.00035   0.00000  -0.00970  -0.00980  -2.30304
   D67        0.73270   0.00499   0.00000   0.02223   0.02250   0.75521
   D68       -2.18681   0.00271   0.00000   0.01470   0.01482  -2.17199
   D69       -1.26087   0.00111   0.00000   0.00700   0.00705  -1.25382
   D70        0.93116   0.00295   0.00000   0.02020   0.02032   0.95148
   D71        0.85741  -0.00134   0.00000   0.00093   0.00114   0.85855
   D72        3.04944   0.00050   0.00000   0.01414   0.01441   3.06385
   D73        2.83771   0.00145   0.00000   0.01533   0.01527   2.85298
   D74       -1.25345   0.00329   0.00000   0.02854   0.02854  -1.22490
   D75       -0.68539  -0.00229   0.00000  -0.00851  -0.00829  -0.69368
   D76        0.03666  -0.00039   0.00000  -0.00253  -0.00268   0.03399
   D77        1.51434  -0.00089   0.00000   0.00225   0.00247   1.51682
   D78        2.23640   0.00101   0.00000   0.00822   0.00809   2.24448
   D79       -0.75800   0.00115   0.00000   0.01656   0.01655  -0.74145
   D80        1.66427  -0.00179   0.00000  -0.00646  -0.00650   1.65777
   D81       -0.51290  -0.01340   0.00000  -0.16519  -0.16519  -0.67810
   D82        3.08211  -0.00266   0.00000  -0.04025  -0.04025   3.04186
   D83       -1.89771   0.00003   0.00000   0.00038   0.00038  -1.89733
   D84        0.88632   0.00163   0.00000   0.00086   0.00032   0.88665
   D85        0.16196  -0.00078   0.00000  -0.00391  -0.00413   0.15783
   D86       -1.78113   0.00089   0.00000   0.00150   0.00125  -1.77988
   D87       -2.50550  -0.00152   0.00000  -0.00327  -0.00320  -2.50870
         Item               Value     Threshold  Converged?
 Maximum Force            0.030628     0.000450     NO 
 RMS     Force            0.007075     0.000300     NO 
 Maximum Displacement     0.497348     0.001800     NO 
 RMS     Displacement     0.102002     0.001200     NO 
 Predicted change in Energy=-2.490046D-02
 GradGradGradGradGradGradGradGradGradGradGradGradGradGradGradGradGradGrad

                          Input orientation:                          
 ---------------------------------------------------------------------
 Center     Atomic      Atomic             Coordinates (Angstroms)
 Number     Number       Type             X           Y           Z
 ---------------------------------------------------------------------
      1          6           0       -0.786179    0.434869    0.977444
      2          6           0        1.061979    0.339499   -0.826177
      3          8           0       -0.178734   -1.742187   -0.040797
      4          6           0        1.099608   -1.175351   -0.601421
      5          6           0       -1.211894   -0.753999    0.164203
      6          6           0        0.509931    1.060228    0.405262
      7          1           0        1.286253    1.064593    1.177835
      8          1           0        0.472923    0.590696   -1.713440
      9          1           0       -1.946840   -1.287141    0.790813
     10          1           0       -1.579157    1.181507    1.045189
     11          6           0       -1.991460   -0.485350   -1.141703
     12          1           0       -2.374616   -1.439663   -1.524476
     13          1           0       -1.379036   -0.065091   -1.940379
     14          8           0       -3.068078    0.431077   -0.944228
     15          1           0       -3.762687   -0.025893   -0.440978
     16          8           0        2.396239    0.785009   -1.083166
     17          1           0        2.315550    1.756902   -1.101990
     18          8           0        0.328518    2.442385    0.031533
     19          1           0       -0.629970    2.640065    0.028141
     20          8           0       -0.531364    0.004225    2.325172
     21          1           0        0.025404   -0.793952    2.258812
     22          1           0        1.284795   -1.726101   -1.530456
     23          8           0        2.115814   -1.461438    0.334243
     24          1           0        2.254927   -2.436969    0.410193
     25          8           0        1.701522   -4.235611    0.386450
     26          1           0        1.710421   -4.639401   -0.489337
     27          1           0        1.013598   -3.554010    0.381345
     28          8           0       -2.453369    2.931951    0.209380
     29          1           0       -2.860001    2.140285   -0.185288
     30          1           0       -3.058050    3.288234    0.870521
 ---------------------------------------------------------------------
                    Distance matrix (angstroms):
                    1          2          3          4          5
     1  C    0.000000
     2  C    2.584150   0.000000
     3  O    2.478987   2.547471   0.000000
     4  C    2.939696   1.531894   1.506573   0.000000
     5  C    1.501999   2.710551   1.444285   2.471185   0.000000
     6  C    1.548666   1.529918   2.920062   2.521695   2.512809
     7  H    2.175243   2.142924   3.392531   2.866694   3.251994
     8  H    2.974975   1.094223   2.943592   2.179046   2.858733
     9  H    2.085014   3.783333   2.006200   3.351366   1.103189
    10  H    1.091271   3.344636   3.418851   3.929616   2.158055
    11  C    2.605818   3.178589   2.465281   3.212897   1.544438
    12  H    3.506651   3.932331   2.667344   3.604459   2.161873
    13  H    3.019127   2.713613   2.803888   3.028062   2.220765
    14  O    2.983270   4.132759   3.726603   4.479702   2.465450
    15  H    3.329237   4.853792   3.993811   4.998890   2.720832
    16  O    3.807426   1.429955   3.755494   2.399237   4.116199
    17  H    3.961381   1.912209   4.426196   3.213595   4.511178
    18  O    2.483429   2.386580   4.215826   3.752762   3.550682
    19  H    2.405923   2.980797   4.405962   4.236175   3.446276
    20  O    1.437622   3.547133   2.961776   3.551959   2.389103
    21  H    1.952069   3.446208   2.495801   3.079011   2.433082
[...]
 13149,0.00070780,-0.00022181,-0.00014446,-0.00008644,-0.00007719,-0.00
 061325,0.00083475,0.00025216,0.00039722,-0.00013734,0.00005161,-0.0003
 3213,-0.00028969,0.00046410,0.00060514,0.00020033,-0.00081542,-0.00258
 147,0.00111325,-0.00280796,0.03609274,-0.43414206,0.00991868,-0.041021
 21,0.44120263,0.00001425,-0.00023743,0.00052543,-0.00461118,-0.0000970
 3,-0.00282004,-0.00013458,-0.00115193,-0.00047798,-0.00664848,0.034323
 47,-0.00326012,-0.00001660,-0.00009994,-0.00007225,-0.00051213,-0.0001
 0652,-0.00048043,0.00010716,0.00020249,0.00049849,-0.00012773,0.001317
 82,0.00027190,0.00006424,0.00004729,0.00001768,0.00001887,0.00003327,-
 0.00008855,-0.00000366,0.00002179,0.00008661,-0.00004709,-0.00003692,-
 0.00000562,0.00002733,0.00005449,0.00000204,-0.00000286,-0.00001623,-0
 .00007913,0.00002013,0.00000202,0.00002092,0.00024309,-0.00059814,0.00
 020316,-0.00006705,-0.00001511,-0.00005923,0.00038012,0.00002255,0.000
 20469,-0.00004017,-0.00011910,-0.00001802,-0.00000331,0.00032844,-0.00
 052246,0.00016791,-0.00068396,0.00022794,0.00084039,0.00067606,0.00078
 923,-0.01608245,-0.02172837,-0.03209101,0.02525140,-0.01303961,0.04268
 364,-0.00071877,0.00001290,-0.00022849,0.00065819,-0.00011877,0.000100
 65,0.00014019,0.00724137,-0.00051467,-0.00895863,0.00033557,-0.0015279
 9,0.00207729,0.00044839,-0.00093673,-0.00040141,-0.00016078,0.00023088
 ,0.00005269,0.00011569,0.00010933,0.00011215,-0.00037955,0.00013259,0.
 00020175,-0.00015994,-0.00012328,0.00009936,0.00017320,0.00014526,0.00
 010392,-0.00014305,0.00029851,0.00007537,0.00003141,0.00009948,-0.0000
 4366,0.00008070,-0.00007461,-0.00035019,0.00036892,-0.00008596,0.00009
 896,-0.00006028,-0.00001578,0.00051014,0.00032377,-0.00005428,0.000035
 34,0.00004886,0.00001524,0.00034444,0.00002328,-0.00018436,-0.00016546
 ,-0.00004352,0.00004198,0.00034745,0.00033729,0.00014736,-0.00039126,-
 0.00029247,-0.00000848,0.00042781,0.00024748,0.00004260,0.00508017,-0.
 00792719,0.00031112,-0.00529269,0.00365339,0.00459250,0.38752630,0.000
 58632,-0.00043624,0.00060227,0.00040218,0.00090562,-0.00039766,0.00956
 920,-0.00676523,-0.00082572,-0.00552576,0.00176832,-0.00389774,-0.0039
 7420,0.00036965,0.00225748,-0.00039286,0.00076348,0.00047326,0.0000105
 0,0.00014596,0.00018597,0.00016857,-0.00055316,0.00016395,0.00053597,0
 .00003759,-0.00025814,0.00001049,-0.00026705,-0.00030680,-0.00038314,-
 0.00031703,-0.00089696,0.00004195,0.00010189,0.00007304,-0.00008445,0.
 00003443,-0.00005830,0.00125331,-0.00042954,0.00041004,-0.00034670,-0.
 00008558,-0.00008633,-0.00025661,-0.00091255,0.00027551,0.00012008,0.0
 0014573,0.00004187,0.00055260,-0.00110410,-0.00018761,-0.00043288,0.00
 023565,-0.00010391,0.00009300,0.00021209,-0.00075294,-0.00022531,0.000
 01099,0.00077268,0.00043906,0.00006277,0.00020551,-0.00160122,-0.01692
 964,0.00064556,0.00473484,0.00059438,0.00334324,-0.22560043,0.29415257
 ,-0.00038113,0.00039732,-0.00053851,-0.00011530,-0.00014577,0.00072798
 ,-0.00115354,-0.00014921,0.00342797,0.00056207,-0.00142181,-0.00295292
 ,0.00087942,0.00024874,0.00001515,0.00008444,0.00006185,-0.00030444,0.
 00003367,0.00000518,0.00001632,0.00000909,-0.00001505,-0.00000164,-0.0
 0024538,0.00004224,0.00000319,0.00003613,0.00004798,0.00014177,0.00012
 163,-0.00015007,-0.00006350,0.00006495,0.00004948,0.00002623,0.0000249
 2,-0.00005037,0.00003492,-0.00015327,0.00012374,0.00010343,0.00001472,
 0.00001198,-0.00003914,0.00003949,0.00013816,0.00009088,-0.00002409,-0
 .00002062,-0.00005523,-0.00014433,0.00019667,0.00020328,0.00007421,-0.
 00003213,-0.00002122,0.00002628,-0.00042846,0.00055093,0.00003363,0.00
 047128,-0.00021118,0.00002189,-0.00015777,0.00143585,-0.00106358,-0.00
 196601,0.00490351,0.00152881,0.00164298,-0.00784668,0.02876816,0.21117
 240,0.43308648,0.00002761,0.00001428,0.00005033,0.00021300,0.00007795,
 0.00005405,-0.00050328,0.00048438,-0.00071942,0.00001136,-0.00009148,-
 0.00044690,-0.00004064,0.00007540,-0.00005266,0.00001111,0.00007016,-0
 .00002623,-0.00000325,0.00000188,0.00000454,-0.00001026,-0.00003618,-0
 .00001391,-0.00001826,-0.00000445,0.00005318,-0.00000152,-0.00001387,-
 0.00000839,-0.00005750,0.00019707,0.00010148,-0.00004594,-0.00003501,-
 0.00005725,0.00000133,-0.00002092,0.00000014,0.00005907,-0.00013210,-0
 .00005895,-0.00001445,0.00002914,0.00002130,-0.00013794,-0.00005973,0.
 00005912,0.00002755,0.00001026,-0.00000633,-0.00002946,-0.00008428,0.0
 0002104,0.00000896,0.00002135,-0.00000708,-0.00004013,-0.00003951,-0.0
 0004943,-0.00000229,0.00003294,0.00002525,0.00017397,-0.00002004,0.000
 14846,-0.00061202,-0.00181605,0.00107909,0.00187411,0.00224796,-0.0028
 5542,-0.04116200,0.00662242,-0.02537161,0.04041665,-0.00010104,0.00010
 800,-0.00015379,-0.00013917,-0.00020729,0.00054680,-0.00009549,0.00006
 890,0.00088607,0.00012798,-0.00086752,-0.00168893,0.00062438,-0.000264
 01,-0.00001451,0.00008980,-0.00006307,-0.00021992,0.00000463,-0.000005
 47,0.00000637,-0.00000624,0.00002018,-0.00002172,-0.00010202,0.0000095
 1,0.00002394,-0.00000401,0.00004995,0.00005908,0.00016637,-0.00008754,
 0.00000311,0.00003214,0.00001323,0.00001278,0.00001327,-0.00002172,0.0
 0001495,-0.00024532,0.00012531,-0.00000128,0.00007075,0.00001086,0.000
 00962,0.00010482,0.00018684,-0.00000069,-0.00002855,-0.00003099,-0.000
 01272,-0.00013155,0.00029085,0.00010137,0.00010182,-0.00006119,0.00001
 898,0.00000374,-0.00005059,0.00018904,-0.00000043,0.00000562,-0.000127
 54,0.00000208,-0.00012814,0.00081344,-0.00082919,-0.00094447,0.0013847
 7,0.00111020,-0.00044167,-0.00297160,0.03156162,-0.12684643,-0.1913628
 4,-0.02850899,0.14087712,-0.00002222,-0.00000445,0.00000036,0.00005457
 ,-0.00002714,-0.00007679,-0.00012212,0.00061572,-0.00032865,-0.0001196
 4,-0.00006088,0.00101268,0.00001980,0.00005718,-0.00005844,-0.00003025
 ,-0.00001576,0.00005710,0.00000157,-0.00000157,-0.00001277,-0.00000941
 ,0.00001320,-0.00000483,0.00003387,-0.00001992,-0.00002219,0.00000487,
 0.00000745,0.00000947,-0.00002043,0.00003021,0.00006511,-0.00001483,-0
 .00001663,0.00000992,-0.00000310,0.00002412,-0.00000456,0.00000023,-0.
 00000133,-0.00004386,0.00000532,-0.00000736,0.00000724,0.00000332,0.00
 000840,-0.00004438,0.00000397,0.00000600,0.00000986,0.00002655,-0.0000
 2110,-0.00003850,-0.00001323,0.00000294,0.00000872,0.00001421,0.000028
 41,-0.00001884,-0.00001968,0.00000241,-0.00000274,0.00001709,0.0000134
 6,-0.00024910,0.00024039,0.00174441,-0.00041250,-0.00090420,-0.0017471
 1,0.00001918,0.02109057,-0.22328698,-0.38598389,-0.01270229,0.21835540
 ,0.38767476,0.00054235,-0.00007311,0.00035884,-0.00105027,0.00020570,0
 .00053591,-0.00600869,-0.00132991,0.00163105,0.00809100,-0.00427901,0.
 00090088,-0.00187955,0.00067779,0.00018531,0.00029848,0.00026253,-0.00
 020877,-0.00005302,-0.00010311,-0.00007006,-0.00005068,0.00024163,-0.0
 0008191,-0.00023567,0.00020223,0.00019520,-0.00006745,-0.00013779,-0.0
 0014084,-0.00020572,0.00023246,-0.00008987,-0.00009009,-0.00003351,-0.
 00013086,0.00004930,-0.00009512,0.00005401,0.00025114,-0.00030488,0.00
 002731,-0.00009645,0.00005914,0.00000858,-0.00030441,-0.00046593,0.000
 00478,-0.00008607,-0.00004090,0.00001444,-0.00023519,-0.00000663,0.000
 14284,0.00010869,0.00004313,-0.00002751,-0.00030017,-0.00022855,-0.000
 28260,0.00040738,0.00005398,0.00006540,-0.00057357,-0.00007834,0.00047
 487,-0.00116095,0.00405062,-0.00160434,-0.00670767,-0.00492720,-0.0005
 9806,-0.34046997,0.21352253,-0.00364679,-0.00014413,-0.00378489,-0.007
 53878,0.35001343,-0.00127595,0.00039513,-0.00069090,0.00077193,-0.0007
 6938,0.00021499,-0.00202677,0.00071845,-0.00013005,-0.00824605,-0.0029
 1424,0.00307736,0.00620338,-0.00038863,-0.00337233,-0.00011297,-0.0008
 0487,-0.00017392,0.00003984,0.00002843,-0.00000484,-0.00002252,-0.0000
 0241,-0.00000177,-0.00049402,-0.00012300,0.00029762,0.00009196,0.00043
 083,0.00043819,0.00026108,0.00047277,0.00135644,-0.00000002,-0.0001127
 3,-0.00006819,0.00004014,0.00001067,-0.00002102,-0.00149411,0.00062431
 ,-0.00057371,0.00039363,0.00008179,0.00008183,0.00064543,0.00110707,-0
 .00018419,0.00001941,-0.00003715,-0.00002420,-0.00011351,0.00079827,-0
 .00000778,0.00018930,-0.00021581,0.00011879,0.00018981,0.00008487,0.00
 083103,-0.00019841,-0.00021295,-0.00080875,0.00046350,0.00008755,-0.00
 038468,0.00321209,-0.00210694,0.00004140,-0.00566683,0.00379806,0.0005
 1537,0.18997802,-0.14489047,-0.01870600,0.02095185,-0.01174268,0.00430
 446,-0.20373588,0.15574756,0.00081065,-0.00067600,0.00064840,0.0002059
 3,0.00006393,-0.00034536,0.00186656,0.00100728,-0.00382319,0.00028731,
 0.00175108,0.00149273,-0.00147259,-0.00103549,-0.00003673,-0.00002840,
 0.00003233,0.00021504,-0.00004259,-0.00002102,-0.00002627,-0.00000580,
 -0.00003258,-0.00001668,0.00033689,-0.00006940,0.00004399,-0.00007794,
 -0.00011670,-0.00023989,-0.00013851,0.00028062,0.00007037,-0.00010227,
 -0.00007316,-0.00005612,-0.00002543,0.00003713,-0.00003976,0.00015306,
 -0.00017114,-0.00012393,-0.00001117,-0.00001693,0.00005251,-0.00006846
 ,-0.00010479,-0.00006293,0.00001543,0.00001437,0.00004988,0.00008454,-
 0.00012650,-0.00016990,-0.00004189,0.00002991,0.00002241,-0.00004247,0
 .00062560,-0.00059656,-0.00015147,-0.00067918,0.00007584,0.00020185,0.
 00013587,-0.00079435,0.00006299,-0.00037468,-0.00151867,-0.00002925,0.
 00105365,0.00226004,-0.05237598,0.01035064,-0.04674518,0.04075472,-0.0
 2583268,-0.00157182,0.00982315,0.01393658,0.05123554,0.00015316,-0.000
 50854,0.00027099,0.00004603,0.00054670,-0.00031712,0.00120189,0.000361
 64,0.00024835,-0.00089900,-0.00107733,0.00042143,-0.00043466,-0.000161
 17,-0.00106088,-0.00019287,-0.00710456,0.00002235,-0.00014209,0.001465
 67,-0.00026920,-0.00010072,-0.00000784,0.00008303,0.00016071,0.0003385
 6,-0.00002798,-0.00066195,0.00019106,-0.00020503,-0.00368708,0.0001353
 3,0.00106035,0.00099905,-0.00045798,-0.00018618,0.00008757,0.00003011,
 -0.00044984,0.00310849,-0.00616194,0.00047381,0.00024058,-0.00053786,-
 0.00082311,-0.00024460,0.00062574,0.00055590,0.00088711,-0.00022608,-0
 .00079535,-0.01433378,0.00660080,-0.00618756,0.00103248,-0.00038112,-0
 .00181818,0.00051236,0.00105428,-0.00027975,-0.00019602,-0.00036725,0.
 00003382,0.00000969,0.00039283,0.00003306,0.00001020,0.00066318,0.0000
 3934,-0.00004306,-0.00030824,0.00001546,0.00010274,0.00036130,-0.00003
 569,-0.00000993,-0.00007977,0.00000645,-0.00006206,-0.00020427,0.00001
 520,0.31944612,-0.00150001,0.00066144,-0.00015216,-0.00124920,-0.00001
 818,-0.00036572,0.00189944,-0.00060463,-0.00017188,-0.00146978,-0.0001
 7092,0.00039969,-0.00094285,0.00098674,-0.00058100,-0.00162800,-0.0012
 7896,-0.00064117,0.00008105,0.00050942,0.00003677,0.00026581,-0.000112
 76,0.00051571,0.00012517,0.00001132,0.00000143,0.00061988,-0.00106665,
 -0.00034620,-0.00370216,0.00166943,0.00120070,0.00071401,-0.00084130,-
 0.00015652,-0.00015273,0.00018932,0.00036797,-0.00408590,-0.01214553,0
 .00227865,0.00094640,-0.00233311,-0.00182052,0.00106056,0.00059281,-0.
 00026299,-0.00001867,-0.00031832,0.00007731,0.00109524,0.00632000,0.00
 026735,0.00355193,-0.01183493,0.00140444,0.00114731,-0.00036824,0.0008
 5387,-0.00014416,-0.00017037,0.00005634,0.00011662,0.00005390,-0.00008
 457,0.00077862,-0.00019903,0.00019937,-0.00016345,0.00016702,0.0000283
 3,0.00018012,-0.00035357,0.00004076,-0.00006959,0.00008992,0.00000023,
 -0.00014957,0.00039049,-0.00004455,0.06617727,0.58711497,0.00241852,-0
 .00154774,-0.00055152,-0.00092574,0.00021436,-0.00129744,-0.00023675,0
 .00072674,0.00076542,0.00027836,-0.00004330,-0.00009925,-0.00076298,-0
 .00068515,-0.00088193,0.00058954,-0.00261624,-0.00021628,-0.00016271,0
 .00051542,0.00001739,0.00030354,0.00003080,0.00045415,0.00014611,0.000
 09345,0.00015350,-0.00117035,0.00036224,0.00026992,0.00038394,0.000914
 88,-0.00085475,-0.00018698,0.00006015,0.00035202,-0.00057007,0.0001294
 0,0.00030090,-0.00013932,0.00030854,0.00371189,-0.00024696,-0.00122790
 ,-0.00023975,-0.00008439,0.00021959,0.00088176,0.00037270,-0.00005870,
 -0.00073404,-0.00666954,0.00251515,0.00206838,0.00178533,-0.00061563,-
 0.00745573,-0.00071334,0.00126692,-0.00027320,-0.00008339,-0.00006620,
 -0.00019589,-0.00006341,0.00019511,0.00009693,-0.00019221,0.00013875,0
 .00020991,0.00008432,-0.00015666,-0.00001880,-0.00003755,0.00024440,0.
 00002118,0.00001432,-0.00004575,-0.00001124,0.00003192,-0.00022187,-0.
 00001955,-0.17297460,0.16485779,0.20708070,-0.00115104,0.00121269,-0.0
 0019041,-0.00053776,0.00003846,-0.00010589,-0.00059726,-0.00035297,-0.
 00037827,0.00022254,0.00047753,0.00000378,-0.00007668,0.00084713,0.000
 81456,-0.00109515,0.00031837,-0.00039590,0.00008233,0.00010587,0.00005
 330,-0.00002048,0.00004949,0.00024130,0.00004647,-0.00022593,0.0001721
 2,0.00048474,0.00009392,-0.00078493,0.00438625,0.00304200,-0.00163934,
 -0.00136937,0.00045680,0.00043021,-0.00052320,0.00050518,0.00113406,-0
 .00651158,-0.00049500,0.00060993,-0.00078342,0.00030370,0.00011171,0.0
 0039996,-0.00001130,-0.00014000,-0.00015193,-0.00004039,0.00007648,0.0
 0026223,0.00077884,-0.00048060,-0.00101939,-0.00339430,0.00127785,0.00
 039996,-0.00076449,0.00021869,0.00003755,0.00001867,0.00015457,0.00000
 763,-0.00009311,-0.00001757,0.00001270,-0.00027160,0.00000081,0.000022
 32,0.00010677,0.00001293,-0.00003373,-0.00013971,0.00000873,0.00000688
 ,0.00002928,-0.00000244,0.00001789,0.00009310,-0.00000324,-0.17824905,
 -0.21528467,0.03472385,0.17382530,0.00017661,0.00065102,0.00083031,0.0
 0049575,-0.00006113,0.00009517,-0.00290961,0.00034040,-0.00028776,0.00
 204485,0.00086348,-0.00043048,0.00146197,-0.00073136,0.00171087,0.0000
 0529,0.00309152,-0.00024182,-0.00003784,-0.00051447,0.00009431,-0.0000
 4560,0.00020521,-0.00024526,-0.00017015,-0.00019706,0.00010761,0.00063
 446,0.00093136,0.00036938,0.00884671,-0.00501405,-0.00363198,-0.001615
 12,0.00164085,0.00043701,-0.00025529,-0.00022709,-0.00003300,-0.000570
 05,-0.00204998,-0.00357952,-0.00181447,0.00426684,0.00279537,-0.000570
 04,-0.00067383,0.00002511,-0.00029458,0.00025049,0.00015379,0.00398801
 ,-0.00350963,0.00192035,-0.00688834,0.00332857,-0.00283493,-0.00079565
 ,-0.00064137,-0.00083527,0.00024583,0.00020607,0.00013252,-0.00012697,
 -0.00020994,0.00007473,-0.00082787,-0.00015352,-0.00022378,0.00021096,
 -0.00004911,-0.00000947,-0.00023739,0.00022932,-0.00003694,0.00007793,
 -0.00006488,-0.00000341,0.00019092,-0.00034026,0.00004900,-0.16829801,
 -0.31302283,0.00885570,0.18829481,0.33569431,-0.00147828,0.00135483,0.
 00004333,0.00032229,0.00011669,0.00047233,0.00023384,-0.00043346,-0.00
 044097,-0.00027199,-0.00005211,0.00020896,0.00041221,0.00089376,0.0003
 5730,-0.00066402,-0.00029331,0.00014186,0.00009978,0.00005626,-0.00007
 009,-0.00006273,0.00001751,-0.00014532,-0.00011719,0.00001257,-0.00014
 480,-0.00008793,-0.00003843,-0.00079169,-0.00139458,-0.00127533,0.0009
 4049,0.00055682,-0.00024405,-0.00037072,0.00097815,-0.00050771,-0.0002
 1871,0.00175422,-0.00250228,-0.00531098,-0.00020973,0.00251409,0.00010
 304,0.00006638,-0.00000717,-0.00034099,-0.00006460,-0.00000855,0.00015
 534,-0.00023146,0.00066293,-0.00068782,0.00010718,-0.00157785,0.000432
 36,0.00063204,-0.00062306,0.00016568,0.00001010,-0.00003219,0.00015799
 ,0.00004070,-0.00004476,-0.00005447,0.00010939,-0.00001778,-0.00010783
 ,-0.00004604,0.00005197,0.00001937,0.00003070,-0.00009806,-0.00001826,
 -0.00000622,0.00001588,0.00000795,-0.00002484,0.00010621,0.00001354,0.
 05336829,0.04117321,-0.02992922,-0.03741978,-0.01187146,0.03436339,-0.
 00022889,0.00015867,0.00002673,0.00039469,-0.00011086,0.00036165,-0.00
 001993,-0.00011583,-0.00010819,0.00000120,0.00001570,-0.00006968,0.000
 14725,0.00000960,0.00017385,0.00008044,0.00064723,0.00007291,0.0000297
 1,-0.00010617,-0.00003222,-0.00013349,0.00000091,-0.00017270,-0.000020
 40,-0.00003139,-0.00001477,0.00009934,0.00025189,-0.00016828,-0.000111
 21,0.00001206,0.00025742,-0.00000547,0.00003510,-0.00007075,-0.0000406
 0,0.00007026,-0.00009099,-0.00113682,-0.00110652,0.00044780,0.00017614
 ,-0.00050681,-0.00001574,-0.00012362,-0.00012595,-0.00014610,-0.000082
 60,0.00008756,0.00014199,-0.00026998,-0.00183911,-0.00176915,-0.000843
 27,0.00386052,0.00416799,-0.00003668,-0.00018433,0.00003918,0.00001914
 ,0.00004781,0.00000548,0.00000797,-0.00005067,-0.00001290,0.00000696,-
 0.00002946,-0.00003683,-0.00001003,0.00004313,-0.00000500,-0.00000649,
 -0.00006103,0.00000247,0.00000138,0.00001378,-0.00000015,0.00000213,0.
 00004685,-0.00000080,-0.12874135,0.15180128,0.14408782,0.01190529,-0.0
 2121711,-0.01664270,0.11893919,0.00061569,-0.00049006,0.00015149,0.000
 13743,0.00004197,-0.00012964,-0.00030663,0.00025231,0.00018854,0.00027
 223,-0.00003838,-0.00007140,-0.00007464,-0.00019803,-0.00012262,0.0001
 7283,-0.00018407,-0.00003311,-0.00005662,0.00005271,-0.00000290,-0.000
 00143,-0.00004082,-0.00001130,0.00000998,0.00001165,0.00001995,-0.0000
 8131,-0.00017090,0.00023891,0.00021630,0.00016064,-0.00018153,-0.00010
 793,0.00013527,0.00005506,-0.00000314,-0.00006603,0.00006162,-0.001076
 97,-0.00034743,0.00125357,-0.00008628,-0.00057496,-0.00026849,-0.00023
 341,-0.00005899,0.00018692,0.00012864,0.00005265,-0.00010972,-0.001392
 48,0.00005061,-0.00018863,0.00262534,0.00007595,0.00018897,-0.00023421
 ,0.00025212,-0.00022504,0.00001351,0.,-0.00000751,-0.00003063,0.000032
 82,0.00002902,-0.00017939,0.00009759,-0.00001512,0.00004164,-0.0000688
 0,-0.00000529,-0.00003861,0.00012014,-0.00000769,0.00001724,-0.0000286
 4,-0.00000035,0.00003168,-0.00011474,0.00000679,0.10693747,-0.25391746
 ,-0.17436425,0.02430083,-0.02423893,-0.02734834,-0.13161712,0.27920179
 ,-0.00035829,0.00030628,-0.00000148,0.00001965,-0.00006358,0.00014435,
 0.00005034,-0.00016326,-0.00018868,-0.00006880,0.00003837,0.00005113,0
 .00017598,-0.00000527,0.00023271,-0.00000809,0.00011167,0.00008636,0.0
 0001736,-0.00001874,-0.00001206,-0.00002118,0.00000791,-0.00006199,-0.
 00000325,-0.00000262,0.00000083,0.00005593,0.00017223,0.00014397,0.000
 25036,-0.00017582,-0.00003973,-0.00002575,-0.00001480,-0.00003810,-0.0
 0006374,0.00011830,-0.00004343,0.00003342,0.00066489,-0.00036215,0.000
 13741,0.00028074,0.00016734,0.00008187,0.00000756,-0.00015870,-0.00006
 484,-0.00001656,0.00011215,-0.00044549,-0.00051722,-0.00126593,0.00024
 652,0.00128581,0.00194438,0.00007146,-0.00019724,0.00000723,0.00000250
 ,0.00002358,0.00000741,0.00001432,-0.00003287,-0.00002222,0.00005487,-
 0.00004660,-0.00003736,-0.00001739,0.00003831,0.00001000,0.00001124,-0
 .00006067,-0.00000730,-0.00000493,0.00001238,0.00000275,-0.00000927,0.
 00005394,0.00000663,0.12878266,-0.20913264,-0.17360549,0.00151350,0.00
 661384,0.00104894,-0.13042836,0.20071206,0.17187843\\-0.00087523,0.000
 91940,-0.00072949,0.00144347,0.00092174,0.00451033,0.00401143,0.000961
 16,0.01030920,-0.00377894,-0.00082648,-0.00958564,-0.00169495,-0.00106
 097,-0.00525212,0.00087591,-0.00092056,0.00073680,0.00000141,-0.000001
 91,-0.00000063,0.00000244,0.00000494,0.00000205,-0.00000042,0.00000033
 ,-0.00000209,0.00000073,0.00000130,0.00000070,0.00000019,-0.00000344,0
 .00000256,-0.00000115,0.00000390,-0.00000165,-0.00000192,0.00000384,0.
 00000184,-0.00000082,0.00000277,-0.00001094,0.00000134,0.00000783,0.00
 000441,0.00000171,0.00000022,-0.00000006,0.00000049,-0.00000070,0.0000
 0082,0.00000977,0.00000027,0.00000895,-0.00002215,0.00000431,-0.000004
 68,-0.00000071,-0.00000860,0.00000032,0.00000167,-0.00000282,0.0000002
 5,0.00000028,0.00000218,-0.00000178,0.00001855,-0.00000431,0.00000912,
 -0.00000520,-0.00000198,-0.00000472,-0.00000534,0.00000475,-0.00000812
 ,-0.00000329,-0.00000096,-0.00000574,-0.00000002,-0.00000800,-0.000005
 03,0.00001360,0.00000264,0.00000231,0.00000121,-0.00000334,0.00001353,
 0.00000592,0.00000245,0.00000952\\\@


 "ANNA, YOU MUSN'T SPEAK OF OXIDIZED MURIATIC ACID
 ANYMORE, FROM NOW ON YOU MUST SAY CHLORINE."
   -- JENS JACOB BERZELIUS, IN 1820, TO HIS COOK, WHO HAD
 COMPLAINED OF THE SMELL OF THE FLASK SHE WAS CLEANING.
 Job cpu time:       0 days  0 hours 45 minutes 44.5 seconds.
 File lengths (MBytes):  RWF=    334 Int=      0 D2E=      0 Chk=      7 Scr=      2
 Normal termination of Gaussian 09 at Wed Jan 25 22:08:33 2017.
