 Entering Gaussian System, Link 0=g09
 Initial command:
 /global/software/gaussian/g09.d01/l1.exe "/home/iawad/Gau-4208.inp" -scrdir="/home/iawad/"
 Entering Link 1 = /global/software/gaussian/g09.d01/l1.exe PID=      4209.
  
 Copyright (c) 1988,1990,1992,1993,1995,1998,2003,2009,2013,
            Gaussian, Inc.  All Rights Reserved.
  
 This is part of the Gaussian(R) 09 program.  It is based on
 the Gaussian(R) 03 system (copyright 2003, Gaussian, Inc.),
 the Gaussian(R) 98 system (copyright 1998, Gaussian, Inc.),
 the Gaussian(R) 94 system (copyright 1995, Gaussian, Inc.),
 the Gaussian 92(TM) system (copyright 1992, Gaussian, Inc.),
 the Gaussian 90(TM) system (copyright 1990, Gaussian, Inc.),
 the Gaussian 88(TM) system (copyright 1988, Gaussian, Inc.),
 the Gaussian 86(TM) system (copyright 1986, Carnegie Mellon
 University), and the Gaussian 82(TM) system (copyright 1983,
 Carnegie Mellon University). Gaussian is a federally registered
 trademark of Gaussian, Inc.
  
 This software contains proprietary and confidential information,
 including trade secrets, belonging to Gaussian, Inc.
  
 This software is provided under written license and may be
 used, copied, transmitted, or stored only in accord with that
 written license.
  
 The following legend is applicable only to US Government
 contracts under FAR:
  
                    RESTRICTED RIGHTS LEGEND
  
 Use, reproduction and disclosure by the US Government is
 subject to restrictions as set forth in subparagraphs (a)
 and (c) of the Commercial Computer Software - Restricted
 Rights clause in FAR 52.227-19.
  
 Gaussian, Inc.
 340 Quinnipiac St., Bldg. 40, Wallingford CT 06492
  
  
 ---------------------------------------------------------------
 Warning -- This program may not be used in any manner that
 competes with the business of Gaussian, Inc. or will provide
 assistance to any competitor of Gaussian, Inc.  The licensee
 of this program is prohibited from giving any competitor of
 Gaussian, Inc. access to this program.  By using this program,
 the user acknowledges that Gaussian, Inc. is engaged in the
 business of creating and licensing software in the field of
 computational chemistry and represents and warrants to the
 licensee that it is not a competitor of Gaussian, Inc. and that
 it will not use this program in any manner prohibited above.
 ---------------------------------------------------------------
  

 Cite this work as:
 Gaussian 09, Revision D.01,
 M. J. Frisch, G. W. Trucks, H. B. Schlegel, G. E. Scuseria, 
 M. A. Robb, J. R. Cheeseman, G. Scalmani, V. Barone, B. Mennucci, 
 G. A. Petersson, H. Nakatsuji, M. Caricato, X. Li, H. P. Hratchian, 
 A. F. Izmaylov, J. Bloino, G. Zheng, J. L. Sonnenberg, M. Hada, 
 M. Ehara, K. Toyota, R. Fukuda, J. Hasegawa, M. Ishida, T. Nakajima, 
 Y. Honda, O. Kitao, H. Nakai, T. Vreven, J. A. Montgomery, Jr., 
 J. E. Peralta, F. Ogliaro, M. Bearpark, J. J. Heyd, E. Brothers, 
 K. N. Kudin, V. N. Staroverov, T. Keith, R. Kobayashi, J. Normand, 
 K. Raghavachari, A. Rendell, J. C. Burant, S. S. Iyengar, J. Tomasi, 
 M. Cossi, N. Rega, J. M. Millam, M. Klene, J. E. Knox, J. B. Cross, 
 V. Bakken, C. Adamo, J. Jaramillo, R. Gomperts, R. E. Stratmann, 
 O. Yazyev, A. J. Austin, R. Cammi, C. Pomelli, J. W. Ochterski, 
 R. L. Martin, K. Morokuma, V. G. Zakrzewski, G. A. Voth, 
 P. Salvador, J. J. Dannenberg, S. Dapprich, A. D. Daniels, 
 O. Farkas, J. B. Foresman, J. V. Ortiz, J. Cioslowski, 
 and D. J. Fox, Gaussian, Inc., Wallingford CT, 2013.
 
 ******************************************
 Gaussian 09:  ES64L-G09RevD.01 24-Apr-2013
                25-Jan-2017 
 ******************************************
 %NPROCS=10
 Will use up to   10 processors via shared memory.
 ------------------------------------------------------
 # opt=(modredundant,MaxCycle=1000) freq B3LYP/6-31G(d)
 ------------------------------------------------------
 1/6=1000,14=-1,18=120,19=15,26=3,38=1/1,3;
 2/9=110,12=2,17=6,18=5,40=1/2;
 3/5=1,6=6,7=1,11=2,16=1,25=1,30=1,71=1,74=-5/1,2,3;
 4//1;
 5/5=2,38=5/2;
 6/7=2,8=2,9=2,10=2,28=1/1;
 7//1,2,3,16;
 1/6=1000,14=-1,18=20,19=15,26=3/3(2);
 2/9=110/2;
 99//99;
 2/9=110/2;
 3/5=1,6=6,7=1,11=2,16=1,25=1,30=1,71=1,74=-5/1,2,3;
 4/5=5,16=3,69=1/1;
 5/5=2,38=5/2;
 7//1,2,3,16;
 1/6=1000,14=-1,18=20,19=15,26=3/3(-5);
 2/9=110/2;
 6/7=2,8=2,9=2,10=2,19=2,28=1/1;
 99/9=1/99;
 ------------------------
 boat3_Beta_B3LYP_6-31G_d
 ------------------------
 Symbolic Z-matrix:
 Charge =  0 Multiplicity = 1
 C                    -0.99358   0.98965   0.49717 
 C                     1.29989   0.22713  -0.45043 
 O                    -0.14269  -1.29964   1.08227 
 C                     1.25261  -0.91284   0.56668 
 C                    -1.14204  -0.47295   0.41512 
 C                     0.40179   1.37653  -0.01852 
 H                     1.82593  -0.67134   1.46845 
 H                     0.93437   1.94212   0.75826 
 H                     1.03818  -0.12838  -1.44983 
 H                    -2.02987  -0.69378   1.02607 
 H                    -1.77792   1.51511  -0.05811 
 C                    -1.52465  -1.04564  -0.96465 
 H                    -1.54966  -2.14102  -0.9374 
 H                    -0.82791  -0.76921  -1.7543 
 O                     1.83381  -2.07635  -0.01262 
 H                     1.33403  -2.82059   0.37107 
 O                    -2.80678  -0.56369  -1.36312 
 H                    -3.46689  -1.20068  -1.03483 
 O                     2.65705   0.69124  -0.60073 
 H                     2.59101   1.48318  -1.17151 
 O                     0.30337   2.29532  -1.12298 
 H                    -0.17952   3.07685  -0.79377 
 O                    -1.08345   1.45363   1.85473 
 H                    -1.89945   1.09286   2.24496 
 O                     0.52132  -3.87294   1.67171 
 H                     1.48132  -3.87294   1.67171 
 H                     0.20087  -2.968     1.67171 
 O                     1.7426    1.33924  -2.67231 
 H                     1.90522   0.73619  -3.40134 
 H                     0.88794   1.76048  -2.78941 
 
 Add virtual bond connecting atoms H26        and H16        Dist= 3.17D+00.
 Add virtual bond connecting atoms H27        and O3         Dist= 3.41D+00.
 Add virtual bond connecting atoms H27        and H16        Dist= 3.27D+00.
 Add virtual bond connecting atoms O28        and H20        Dist= 3.27D+00.
 Add virtual bond connecting atoms H30        and O21        Dist= 3.49D+00.
 The following ModRedundant input section has been read:
 D       5       3       4       2 F                                           
 D       5       1       6       2 F                                           
 

 GradGradGradGradGradGradGradGradGradGradGradGradGradGradGradGradGradGrad
 Berny optimization.
 Initialization pass.
                           ----------------------------
                           !    Initial Parameters    !
                           ! (Angstroms and Degrees)  !
 --------------------------                            --------------------------
 ! Name  Definition              Value          Derivative Info.                !
 --------------------------------------------------------------------------------
 ! R1    R(1,5)                  1.4724         estimate D2E/DX2                !
 ! R2    R(1,6)                  1.5371         estimate D2E/DX2                !
 ! R3    R(1,11)                 1.0953         estimate D2E/DX2                !
 ! R4    R(1,23)                 1.4375         estimate D2E/DX2                !
 ! R5    R(2,4)                  1.5285         estimate D2E/DX2                !
 ! R6    R(2,6)                  1.5213         estimate D2E/DX2                !
 ! R7    R(2,9)                  1.0926         estimate D2E/DX2                !
 ! R8    R(2,19)                 1.4422         estimate D2E/DX2                !
 ! R9    R(3,4)                  1.537          estimate D2E/DX2                !
 ! R10   R(3,5)                  1.4585         estimate D2E/DX2                !
 ! R11   R(3,27)                 1.8025         estimate D2E/DX2                !
 ! R12   R(4,7)                  1.0955         estimate D2E/DX2                !
 ! R13   R(4,15)                 1.4238         estimate D2E/DX2                !
 ! R14   R(5,10)                 1.1001         estimate D2E/DX2                !
 ! R15   R(5,12)                 1.5421         estimate D2E/DX2                !
 ! R16   R(6,8)                  1.0986         estimate D2E/DX2                !
 ! R17   R(6,21)                 1.44           estimate D2E/DX2                !
 ! R18   R(12,13)                1.096          estimate D2E/DX2                !
 ! R19   R(12,14)                1.0888         estimate D2E/DX2                !
 ! R20   R(12,17)                1.4265         estimate D2E/DX2                !
 ! R21   R(15,16)                0.9751         estimate D2E/DX2                !
 ! R22   R(16,26)                1.6795         estimate D2E/DX2                !
 ! R23   R(16,27)                1.7313         estimate D2E/DX2                !
 ! R24   R(17,18)                0.9743         estimate D2E/DX2                !
 ! R25   R(19,20)                0.9784         estimate D2E/DX2                !
 ! R26   R(20,28)                1.73           estimate D2E/DX2                !
 ! R27   R(21,22)                0.9759         estimate D2E/DX2                !
 ! R28   R(21,30)                1.8452         estimate D2E/DX2                !
 ! R29   R(23,24)                0.9738         estimate D2E/DX2                !
 ! R30   R(25,26)                0.96           estimate D2E/DX2                !
 ! R31   R(25,27)                0.96           estimate D2E/DX2                !
 ! R32   R(28,29)                0.96           estimate D2E/DX2                !
 ! R33   R(28,30)                0.96           estimate D2E/DX2                !
 ! A1    A(5,1,6)              108.8357         estimate D2E/DX2                !
 ! A2    A(5,1,11)             112.0924         estimate D2E/DX2                !
 ! A3    A(5,1,23)             111.5276         estimate D2E/DX2                !
 ! A4    A(6,1,11)             111.0538         estimate D2E/DX2                !
 ! A5    A(6,1,23)             106.9995         estimate D2E/DX2                !
 ! A6    A(11,1,23)            106.2103         estimate D2E/DX2                !
 ! A7    A(4,2,6)              110.8744         estimate D2E/DX2                !
 ! A8    A(4,2,9)              111.0145         estimate D2E/DX2                !
 ! A9    A(4,2,19)             109.7837         estimate D2E/DX2                !
 ! A10   A(6,2,9)              111.3551         estimate D2E/DX2                !
 ! A11   A(6,2,19)             109.9992         estimate D2E/DX2                !
 ! A12   A(9,2,19)             103.5793         estimate D2E/DX2                !
 ! A13   A(4,3,5)              109.0228         estimate D2E/DX2                !
 ! A14   A(4,3,27)              99.7649         estimate D2E/DX2                !
 ! A15   A(5,3,27)             143.593          estimate D2E/DX2                !
 ! A16   A(2,4,3)              116.0397         estimate D2E/DX2                !
 ! A17   A(2,4,7)              111.5395         estimate D2E/DX2                !
 ! A18   A(2,4,15)             109.0328         estimate D2E/DX2                !
 ! A19   A(3,4,7)              104.7397         estimate D2E/DX2                !
 ! A20   A(3,4,15)             107.5424         estimate D2E/DX2                !
 ! A21   A(7,4,15)             107.5438         estimate D2E/DX2                !
 ! A22   A(1,5,3)              117.9342         estimate D2E/DX2                !
 ! A23   A(1,5,10)             104.4671         estimate D2E/DX2                !
 ! A24   A(1,5,12)             116.3444         estimate D2E/DX2                !
 ! A25   A(3,5,10)             100.6709         estimate D2E/DX2                !
 ! A26   A(3,5,12)             111.6401         estimate D2E/DX2                !
 ! A27   A(10,5,12)            102.8329         estimate D2E/DX2                !
 ! A28   A(1,6,2)              116.1686         estimate D2E/DX2                !
 ! A29   A(1,6,8)              109.4174         estimate D2E/DX2                !
 ! A30   A(1,6,21)             110.8461         estimate D2E/DX2                !
 ! A31   A(2,6,8)              107.6695         estimate D2E/DX2                !
 ! A32   A(2,6,21)             107.7381         estimate D2E/DX2                !
 ! A33   A(8,6,21)             104.2971         estimate D2E/DX2                !
 ! A34   A(5,12,13)            110.7668         estimate D2E/DX2                !
 ! A35   A(5,12,14)            113.3195         estimate D2E/DX2                !
 ! A36   A(5,12,17)            110.3314         estimate D2E/DX2                !
 ! A37   A(13,12,14)           106.6414         estimate D2E/DX2                !
 ! A38   A(13,12,17)           108.911          estimate D2E/DX2                !
 ! A39   A(14,12,17)           106.6671         estimate D2E/DX2                !
 ! A40   A(4,15,16)            104.7379         estimate D2E/DX2                !
 ! A41   A(15,16,26)           137.5594         estimate D2E/DX2                !
 ! A42   A(15,16,27)           134.109          estimate D2E/DX2                !
 ! A43   A(26,16,27)            54.7095         estimate D2E/DX2                !
 ! A44   A(12,17,18)           107.0942         estimate D2E/DX2                !
 ! A45   A(2,19,20)            104.9367         estimate D2E/DX2                !
 ! A46   A(19,20,28)           118.1531         estimate D2E/DX2                !
 ! A47   A(6,21,22)            106.6214         estimate D2E/DX2                !
 ! A48   A(6,21,30)            119.0827         estimate D2E/DX2                !
 ! A49   A(22,21,30)           133.9124         estimate D2E/DX2                !
 ! A50   A(1,23,24)            108.1351         estimate D2E/DX2                !
 ! A51   A(26,25,27)           109.5            estimate D2E/DX2                !
 ! A52   A(16,26,25)            84.9688         estimate D2E/DX2                !
 ! A53   A(3,27,16)             78.4788         estimate D2E/DX2                !
 ! A54   A(3,27,25)            159.4115         estimate D2E/DX2                !
 ! A55   A(16,27,25)            82.0552         estimate D2E/DX2                !
 ! A56   A(20,28,29)           128.9024         estimate D2E/DX2                !
 ! A57   A(20,28,30)           120.3916         estimate D2E/DX2                !
 ! A58   A(29,28,30)           109.5            estimate D2E/DX2                !
 ! A59   A(21,30,28)           107.4016         estimate D2E/DX2                !
 ! D1    D(6,1,5,3)             55.2067         estimate D2E/DX2                !
 ! D2    D(6,1,5,10)           165.8932         estimate D2E/DX2                !
 ! D3    D(6,1,5,12)           -81.542          estimate D2E/DX2                !
 ! D4    D(11,1,5,3)           178.4442         estimate D2E/DX2                !
 ! D5    D(11,1,5,10)          -70.8693         estimate D2E/DX2                !
 ! D6    D(11,1,5,12)           41.6956         estimate D2E/DX2                !
 ! D7    D(23,1,5,3)           -62.6093         estimate D2E/DX2                !
 ! D8    D(23,1,5,10)           48.0772         estimate D2E/DX2                !
 ! D9    D(23,1,5,12)          160.6421         estimate D2E/DX2                !
 ! D10   D(5,1,6,2)             -1.3486         Frozen                          !
 ! D11   D(5,1,6,8)           -123.4755         estimate D2E/DX2                !
 ! D12   D(5,1,6,21)           122.0423         estimate D2E/DX2                !
 ! D13   D(11,1,6,2)          -125.2054         estimate D2E/DX2                !
 ! D14   D(11,1,6,8)           112.6676         estimate D2E/DX2                !
 ! D15   D(11,1,6,21)           -1.8145         estimate D2E/DX2                !
 ! D16   D(23,1,6,2)           119.2963         estimate D2E/DX2                !
 ! D17   D(23,1,6,8)            -2.8307         estimate D2E/DX2                !
 ! D18   D(23,1,6,21)         -117.3128         estimate D2E/DX2                !
 ! D19   D(5,1,23,24)          -51.9895         estimate D2E/DX2                !
 ! D20   D(6,1,23,24)         -170.9051         estimate D2E/DX2                !
 ! D21   D(11,1,23,24)          70.4035         estimate D2E/DX2                !
 ! D22   D(6,2,4,3)             44.6285         estimate D2E/DX2                !
 ! D23   D(6,2,4,7)            -75.192          estimate D2E/DX2                !
 ! D24   D(6,2,4,15)           166.1899         estimate D2E/DX2                !
 ! D25   D(9,2,4,3)            -79.7039         estimate D2E/DX2                !
 ! D26   D(9,2,4,7)            160.4756         estimate D2E/DX2                !
 ! D27   D(9,2,4,15)            41.8575         estimate D2E/DX2                !
 ! D28   D(19,2,4,3)           166.3751         estimate D2E/DX2                !
 ! D29   D(19,2,4,7)            46.5546         estimate D2E/DX2                !
 ! D30   D(19,2,4,15)          -72.0635         estimate D2E/DX2                !
 ! D31   D(4,2,6,1)            -44.6887         estimate D2E/DX2                !
 ! D32   D(4,2,6,8)             78.3555         estimate D2E/DX2                !
 ! D33   D(4,2,6,21)          -169.6813         estimate D2E/DX2                !
 ! D34   D(9,2,6,1)             79.4497         estimate D2E/DX2                !
 ! D35   D(9,2,6,8)           -157.5061         estimate D2E/DX2                !
 ! D36   D(9,2,6,21)           -45.5429         estimate D2E/DX2                !
 ! D37   D(19,2,6,1)          -166.309          estimate D2E/DX2                !
 ! D38   D(19,2,6,8)           -43.2647         estimate D2E/DX2                !
 ! D39   D(19,2,6,21)           68.6985         estimate D2E/DX2                !
 ! D40   D(4,2,19,20)         -173.0619         estimate D2E/DX2                !
 ! D41   D(6,2,19,20)          -50.7935         estimate D2E/DX2                !
 ! D42   D(9,2,19,20)           68.3219         estimate D2E/DX2                !
 ! D43   D(5,3,4,2)              1.7746         Frozen                          !
 ! D44   D(5,3,4,7)            125.215          estimate D2E/DX2                !
 ! D45   D(5,3,4,15)          -120.5764         estimate D2E/DX2                !
 ! D46   D(27,3,4,2)           159.1675         estimate D2E/DX2                !
 ! D47   D(27,3,4,7)           -77.3922         estimate D2E/DX2                !
 ! D48   D(27,3,4,15)           36.8164         estimate D2E/DX2                !
 ! D49   D(4,3,5,1)            -55.2971         estimate D2E/DX2                !
 ! D50   D(4,3,5,10)          -168.1059         estimate D2E/DX2                !
 ! D51   D(4,3,5,12)            83.3574         estimate D2E/DX2                !
 ! D52   D(27,3,5,1)           164.3679         estimate D2E/DX2                !
 ! D53   D(27,3,5,10)           51.5591         estimate D2E/DX2                !
 ! D54   D(27,3,5,12)          -56.9775         estimate D2E/DX2                !
 ! D55   D(4,3,27,16)          -30.3003         estimate D2E/DX2                !
 ! D56   D(4,3,27,25)          -49.606          estimate D2E/DX2                !
 ! D57   D(5,3,27,16)          111.9429         estimate D2E/DX2                !
 ! D58   D(5,3,27,25)           92.6372         estimate D2E/DX2                !
 ! D59   D(2,4,15,16)         -146.6796         estimate D2E/DX2                !
 ! D60   D(3,4,15,16)          -20.09           estimate D2E/DX2                !
 ! D61   D(7,4,15,16)           92.2307         estimate D2E/DX2                !
 ! D62   D(1,5,12,13)          176.4871         estimate D2E/DX2                !
 ! D63   D(1,5,12,14)           56.6862         estimate D2E/DX2                !
 ! D64   D(1,5,12,17)          -62.8387         estimate D2E/DX2                !
 ! D65   D(3,5,12,13)           37.1243         estimate D2E/DX2                !
 ! D66   D(3,5,12,14)          -82.6766         estimate D2E/DX2                !
 ! D67   D(3,5,12,17)          157.7985         estimate D2E/DX2                !
 ! D68   D(10,5,12,13)         -70.0145         estimate D2E/DX2                !
 ! D69   D(10,5,12,14)         170.1845         estimate D2E/DX2                !
 ! D70   D(10,5,12,17)          50.6597         estimate D2E/DX2                !
 ! D71   D(1,6,21,22)           58.8967         estimate D2E/DX2                !
 ! D72   D(1,6,21,30)         -114.9617         estimate D2E/DX2                !
 ! D73   D(2,6,21,22)         -172.9868         estimate D2E/DX2                !
 ! D74   D(2,6,21,30)           13.1548         estimate D2E/DX2                !
 ! D75   D(8,6,21,22)          -58.7582         estimate D2E/DX2                !
 ! D76   D(8,6,21,30)          127.3835         estimate D2E/DX2                !
 ! D77   D(5,12,17,18)         -90.4656         estimate D2E/DX2                !
 ! D78   D(13,12,17,18)         31.3131         estimate D2E/DX2                !
 ! D79   D(14,12,17,18)        146.0571         estimate D2E/DX2                !
 ! D80   D(4,15,16,26)         -93.9548         estimate D2E/DX2                !
 ! D81   D(4,15,16,27)         -11.5532         estimate D2E/DX2                !
 ! D82   D(15,16,26,25)        149.1705         estimate D2E/DX2                !
 ! D83   D(27,16,26,25)         29.856          estimate D2E/DX2                !
 ! D84   D(15,16,27,3)          31.7285         estimate D2E/DX2                !
 ! D85   D(15,16,27,25)       -155.0127         estimate D2E/DX2                !
 ! D86   D(26,16,27,3)         156.6943         estimate D2E/DX2                !
 ! D87   D(26,16,27,25)        -30.047          estimate D2E/DX2                !
 ! D88   D(2,19,20,28)         -52.4261         estimate D2E/DX2                !
 ! D89   D(19,20,28,29)        -57.0525         estimate D2E/DX2                !
 ! D90   D(19,20,28,30)        109.0086         estimate D2E/DX2                !
 ! D91   D(6,21,30,28)         -45.9572         estimate D2E/DX2                !
 ! D92   D(22,21,30,28)        142.2239         estimate D2E/DX2                !
 ! D93   D(27,25,26,16)        -51.0237         estimate D2E/DX2                !
 ! D94   D(26,25,27,3)          68.4263         estimate D2E/DX2                !
 ! D95   D(26,25,27,16)         49.3342         estimate D2E/DX2                !
 ! D96   D(20,28,30,21)        -12.5267         estimate D2E/DX2                !
 ! D97   D(29,28,30,21)        156.0025         estimate D2E/DX2                !
 --------------------------------------------------------------------------------
 Trust Radius=3.00D-01 FncErr=1.00D-07 GrdErr=1.00D-06
 Number of steps in this run=    180 maximum allowed number of steps=    180.
 GradGradGradGradGradGradGradGradGradGradGradGradGradGradGradGradGradGrad

                          Input orientation:                          
 ---------------------------------------------------------------------
 Center     Atomic      Atomic             Coordinates (Angstroms)
 Number     Number       Type             X           Y           Z
 ---------------------------------------------------------------------
      1          6           0       -0.993577    0.989652    0.497170
      2          6           0        1.299888    0.227130   -0.450426
      3          8           0       -0.142688   -1.299636    1.082270
      4          6           0        1.252613   -0.912840    0.566679
      5          6           0       -1.142041   -0.472949    0.415122
      6          6           0        0.401789    1.376528   -0.018519
      7          1           0        1.825928   -0.671336    1.468453
      8          1           0        0.934373    1.942119    0.758259
      9          1           0        1.038184   -0.128382   -1.449833
     10          1           0       -2.029874   -0.693780    1.026072
     11          1           0       -1.777917    1.515113   -0.058107
     12          6           0       -1.524650   -1.045638   -0.964654
     13          1           0       -1.549658   -2.141017   -0.937400
     14          1           0       -0.827906   -0.769213   -1.754300
     15          8           0        1.833806   -2.076347   -0.012616
     16          1           0        1.334030   -2.820591    0.371073
     17          8           0       -2.806782   -0.563688   -1.363115
     18          1           0       -3.466888   -1.200676   -1.034826
     19          8           0        2.657052    0.691237   -0.600733
     20          1           0        2.591007    1.483181   -1.171509
     21          8           0        0.303367    2.295320   -1.122983
     22          1           0       -0.179516    3.076855   -0.793765
     23          8           0       -1.083453    1.453635    1.854730
     24          1           0       -1.899447    1.092862    2.244957
     25          8           0        0.521320   -3.872940    1.671714
     26          1           0        1.481320   -3.872940    1.671714
     27          1           0        0.200866   -2.968004    1.671714
     28          8           0        1.742603    1.339238   -2.672306
     29          1           0        1.905219    0.736193   -3.401342
     30          1           0        0.887944    1.760480   -2.789410
 ---------------------------------------------------------------------
                    Distance matrix (angstroms):
                    1          2          3          4          5
     1  C    0.000000
     2  C    2.596028   0.000000
     3  O    2.511413   2.600230   0.000000
     4  C    2.944431   1.528486   1.536981   0.000000
     5  C    1.472405   2.683710   1.458494   2.439435   0.000000
     6  C    1.537093   1.521263   2.944494   2.511486   2.447860
     7  H    3.413485   2.183130   2.102224   1.095541   3.155583
     8  H    2.166184   2.129720   3.431329   2.879022   3.203403
     9  H    3.028015   1.092562   3.029495   2.174322   2.889665
    10  H    2.046361   3.757052   1.982849   3.321709   1.100124
    11  H    1.095277   3.359419   3.449238   3.933119   2.140251
    12  C    2.561518   3.140443   2.482787   3.174241   1.542123
    13  H    3.488310   3.737001   2.601260   3.409310   2.185845
    14  H    2.861847   2.687060   2.965974   3.120277   2.211978
    15  O    4.201705   2.404735   2.389264   1.423768   3.407273
    16  H    4.466722   3.156680   2.236024   1.919480   3.412374
    17  O    3.026754   4.280553   3.690383   4.508292   2.437565
    18  H    3.641678   5.010220   3.942359   4.992130   2.834934
    19  O    3.823812   1.442179   3.825522   2.430712   4.101268
    20  H    3.984633   1.940261   4.505184   3.248617   4.503275
    21  O    2.451883   2.392237   4.240969   3.748108   3.481133
    22  H    2.585658   3.229156   4.761779   4.451906   3.871559
    23  O    1.437472   3.535304   3.010355   3.566018   2.405749
    24  H    1.971297   4.272040   3.187803   4.095722   2.524624
    25  O    5.226783   4.681903   2.722176   3.243159   3.988199
    26  H    5.581171   4.620278   3.099474   3.167901   4.474481
    27  H    4.297591   3.990013   1.802477   2.559487   3.099632
    28  O    4.201722   2.523793   4.961332   3.975295   4.597543
    29  H    4.864736   3.055074   5.333039   4.346308   5.031224
    30  H    3.864700   2.826960   5.041470   4.306153   4.402053
                    6          7          8          9         10
     6  C    0.000000
     7  H    2.903964   0.000000
     8  H    1.098600   2.851209   0.000000
     9  H    2.172191   3.071113   3.028766   0.000000
    10  H    3.360109   3.881161   3.975732   3.982808   0.000000
    11  H    2.184466   4.483151   2.864490   3.545194   2.473486
    12  C    3.236237   4.157702   4.235790   2.764937   2.083758
    13  H    4.126210   4.398030   5.071259   3.318164   2.486026
    14  H    3.021471   4.175949   4.095107   1.996411   3.029998
    15  O    3.738055   2.041490   4.189427   2.548171   4.233012
    16  H    4.317020   2.462824   4.795107   3.263620   4.033386
    17  O    3.983379   5.430595   4.977503   3.870501   2.515696
    18  H    4.758311   5.878819   5.697667   4.649486   2.563055
    19  O    2.427923   2.613217   2.525705   2.003367   5.150926
    20  H    2.476578   3.492376   2.584389   2.255185   5.560671
    21  O    1.440037   4.223124   2.015438   2.553648   4.358574
    22  H    1.957047   4.815431   2.221971   3.490954   4.577480
    23  O    2.391851   3.623425   2.347869   4.233705   2.488730
    24  H    3.240290   4.194493   3.310898   4.875714   2.166744
    25  O    5.516166   3.463175   5.900841   4.902338   4.127045
    26  H    5.619536   3.226505   5.911722   4.895113   4.780418
    27  H    4.666070   2.820785   5.047944   4.302163   3.250407
    28  O    2.973509   4.603828   3.575679   2.035818   5.660631
    29  H    3.756837   5.069746   4.438364   2.303829   6.093585
    30  H    2.839296   4.992288   3.552619   2.320525   5.393974
                   11         12         13         14         15
    11  H    0.000000
    12  C    2.728263   0.000000
    13  H    3.767299   1.096003   0.000000
    14  H    2.999623   1.088763   1.752169   0.000000
    15  O    5.093643   3.639775   3.508167   3.439008   0.000000
    16  H    5.354133   3.620315   3.238762   3.660510   0.975137
    17  O    2.661395   1.426503   2.061446   2.027613   5.064291
    18  H    3.343967   1.949679   2.137640   2.769121   5.468919
    19  O    4.543365   4.542665   5.082462   3.950767   2.946716
    20  H    4.508678   4.834909   5.507697   4.135443   3.819244
    21  O    2.464635   3.811655   4.811365   3.327116   4.763048
    22  H    2.352683   4.339762   5.396676   4.016874   5.587410
    23  O    2.035929   3.793408   4.575463   4.246346   4.945519
    24  H    2.344604   3.874953   4.550574   4.539778   5.392374
    25  O    6.108182   4.373793   3.754461   4.815714   2.790579
    26  H    6.530392   4.896930   4.358194   5.167515   2.487762
    27  H    5.196749   3.690979   3.248956   4.198883   2.509684
    28  O    4.388511   4.390746   5.095199   3.449031   4.329952
    29  H    5.034821   4.569067   5.126941   3.528310   4.404423
    30  H    3.824531   4.126093   4.959186   3.227219   4.829749
                   16         17         18         19         20
    16  H    0.000000
    17  O    5.024674   0.000000
    18  H    5.258279   0.974304   0.000000
    19  O    3.876562   5.657698   6.424205   0.000000
    20  H    4.741519   5.776029   6.627206   0.978429   0.000000
    21  O    5.428353   4.231385   5.142430   2.895800   2.428008
    22  H    6.198995   4.525510   5.400203   3.711408   3.218429
    23  O    5.129763   4.170609   4.590824   4.538935   4.760321
    24  H    5.411278   4.072542   4.298158   5.387108   5.655861
    25  O    1.860000   5.589060   5.511094   5.527845   6.407460
    26  H    1.679523   6.208796   6.241083   5.232406   6.164686
    27  H    1.731317   4.902740   4.888887   4.958519   5.797391
    28  O    5.170422   5.102158   6.022566   2.355321   1.730000
    29  H    5.216138   5.295943   6.181537   2.900118   2.449582
    30  H    5.583356   4.592067   5.550817   3.010536   2.365358
                   21         22         23         24         25
    21  O    0.000000
    22  H    0.975888   0.000000
    23  O    3.390941   3.235193   0.000000
    24  H    4.200156   4.015996   0.973797   0.000000
    25  O    6.775342   7.407388   5.566075   5.554089   0.000000
    26  H    6.873524   7.558876   5.914723   6.034681   0.960000
    27  H    5.960152   6.539388   4.608021   4.607662   0.960000
    28  O    2.320753   3.200433   5.337952   6.124108   6.894116
    29  H    3.191822   4.077288   6.088775   6.817873   6.992509
    30  H    1.845200   2.618189   5.054562   5.793109   7.195238
                   26         27         28         29         30
    26  H    0.000000
    27  H    1.567952   0.000000
    28  O    6.790108   6.308708   0.000000
    29  H    6.867291   6.508594   0.960000   0.000000
    30  H    7.210349   6.536992   0.960000   1.567952   0.000000
 Stoichiometry    C6H16O8
 Framework group  C1[X(C6H16O8)]
 Deg. of freedom    84
 Full point group                 C1      NOp   1
 Largest Abelian subgroup         C1      NOp   1
 Largest concise Abelian subgroup C1      NOp   1
                         Standard orientation:                         
 ---------------------------------------------------------------------
 Center     Atomic      Atomic             Coordinates (Angstroms)
 Number     Number       Type             X           Y           Z
 ---------------------------------------------------------------------
      1          6           0       -0.520847    1.460827   -0.816003
      2          6           0       -0.675348   -1.030491   -0.102684
      3          8           0        1.603413    0.165400   -0.474556
      4          6           0        0.803033   -1.146735   -0.473016
      5          6           0        0.727854    1.256810   -0.062943
      6          6           0       -1.321353    0.148637   -0.814425
      7          1           0        0.934237   -1.554452   -1.481362
      8          1           0       -1.523562   -0.157074   -1.850077
      9          1           0       -0.803700   -0.960545    0.980056
     10          1           0        1.350274    2.126110   -0.322143
     11          1           0       -1.116490    2.285600   -0.410307
     12          6           0        0.624789    1.354989    1.472597
     13          1           0        1.588720    1.127761    1.942094
     14          1           0       -0.100854    0.665447    1.900824
     15          8           0        1.440847   -2.037399    0.436395
     16          1           0        2.346150   -1.687895    0.532142
     17          8           0        0.220062    2.667073    1.859303
     18          1           0        1.031471    3.190994    1.987325
     19          8           0       -1.362229   -2.250967   -0.446946
     20          1           0       -2.308868   -2.060849   -0.288667
     21          8           0       -2.627246    0.345710   -0.240393
     22          1           0       -3.069677    1.027419   -0.780657
     23          8           0       -0.259933    1.792298   -2.190185
     24          1           0        0.366811    2.537373   -2.208527
     25          8           0        4.004740   -1.014689    0.026700
     26          1           0        3.853425   -1.943459   -0.163275
     27          1           0        3.272910   -0.494680   -0.313323
     28          8           0       -2.766930   -1.424743    1.253555
     29          1           0       -2.619135   -1.795493    2.126653
     30          1           0       -3.052279   -0.511948    1.337114
 ---------------------------------------------------------------------
 Rotational constants (GHZ):      0.6737079      0.5262444      0.4130096
 Standard basis: 6-31G(d) (6D, 7F)
 There are   242 symmetry adapted cartesian basis functions of A   symmetry.
 There are   242 symmetry adapted basis functions of A   symmetry.
   242 basis functions,   456 primitive gaussians,   242 cartesian basis functions
    58 alpha electrons       58 beta electrons
       nuclear repulsion energy      1116.4817026568 Hartrees.
 NAtoms=   30 NActive=   30 NUniq=   30 SFac= 1.00D+00 NAtFMM=   60 NAOKFM=F Big=F
 Integral buffers will be    131072 words long.
 Raffenetti 2 integral format.
 Two-electron integral symmetry is turned on.
 One-electron integrals computed using PRISM.
 NBasis=   242 RedAO= T EigKep=  1.37D-03  NBF=   242
 NBsUse=   242 1.00D-06 EigRej= -1.00D+00 NBFU=   242
 ExpMin= 1.61D-01 ExpMax= 5.48D+03 ExpMxC= 8.25D+02 IAcc=1 IRadAn=         1 AccDes= 0.00D+00
 Harris functional with IExCor=  402 and IRadAn=       1 diagonalized for initial guess.
 HarFok:  IExCor=  402 AccDes= 0.00D+00 IRadAn=         1 IDoV= 1 UseB2=F ITyADJ=14
 ICtDFT=  3500011 ScaDFX=  1.000000  1.000000  1.000000  1.000000
 FoFCou: FMM=F IPFlag=           0 FMFlag=      100000 FMFlg1=           0
         NFxFlg=           0 DoJE=T BraDBF=F KetDBF=T FulRan=T
         wScrn=  0.000000 ICntrl=     500 IOpCl=  0 I1Cent=   200000004 NGrid=           0
         NMat0=    1 NMatS0=      1 NMatT0=    0 NMatD0=    1 NMtDS0=    0 NMtDT0=    0
 Petite list used in FoFCou.
 Requested convergence on RMS density matrix=1.00D-08 within 128 cycles.
 Requested convergence on MAX density matrix=1.00D-06.
 Requested convergence on             energy=1.00D-06.
 No special actions if energy rises.
 Integral accuracy reduced to 1.0D-05 until final iterations.
 Initial convergence to 1.0D-05 achieved.  Increase integral accuracy.
 SCF Done:  E(RB3LYP) =  -839.908784964     A.U. after   14 cycles
            NFock= 14  Conv=0.43D-08     -V/T= 2.0081

 **********************************************************************

            Population analysis using the SCF density.

 **********************************************************************

 Orbital symmetries:
       Occupied  (A) (A) (A) (A) (A) (A) (A) (A) (A) (A) (A) (A)
                 (A) (A) (A) (A) (A) (A) (A) (A) (A) (A) (A) (A)
                 (A) (A) (A) (A) (A) (A) (A) (A) (A) (A) (A) (A)
                 (A) (A) (A) (A) (A) (A) (A) (A) (A) (A) (A) (A)
                 (A) (A) (A) (A) (A) (A) (A) (A) (A) (A)
       Virtual   (A) (A) (A) (A) (A) (A) (A) (A) (A) (A) (A) (A)
                 (A) (A) (A) (A) (A) (A) (A) (A) (A) (A) (A) (A)
                 (A) (A) (A) (A) (A) (A) (A) (A) (A) (A) (A) (A)
                 (A) (A) (A) (A) (A) (A) (A) (A) (A) (A) (A) (A)
                 (A) (A) (A) (A) (A) (A) (A) (A) (A) (A) (A) (A)
                 (A) (A) (A) (A) (A) (A) (A) (A) (A) (A) (A) (A)
                 (A) (A) (A) (A) (A) (A) (A) (A) (A) (A) (A) (A)
                 (A) (A) (A) (A) (A) (A) (A) (A) (A) (A) (A) (A)
                 (A) (A) (A) (A) (A) (A) (A) (A) (A) (A) (A) (A)
                 (A) (A) (A) (A) (A) (A) (A) (A) (A) (A) (A) (A)
                 (A) (A) (A) (A) (A) (A) (A) (A) (A) (A) (A) (A)
                 (A) (A) (A) (A) (A) (A) (A) (A) (A) (A) (A) (A)
                 (A) (A) (A) (A) (A) (A) (A) (A) (A) (A) (A) (A)
                 (A) (A) (A) (A) (A) (A) (A) (A) (A) (A) (A) (A)
                 (A) (A) (A) (A) (A) (A) (A) (A) (A) (A) (A) (A)
                 (A) (A) (A) (A)
 The electronic state is 1-A.
 Alpha  occ. eigenvalues --  -19.18222 -19.16583 -19.16268 -19.15669 -19.14037
 Alpha  occ. eigenvalues --  -19.14003 -19.13914 -19.11215 -10.29106 -10.25350
 Alpha  occ. eigenvalues --  -10.24975 -10.24537 -10.24483 -10.23105  -1.06072
 Alpha  occ. eigenvalues --   -1.04495  -1.03393  -1.02815  -1.01066  -1.00645
 Alpha  occ. eigenvalues --   -0.99384  -0.98007  -0.79845  -0.76092  -0.70088
 Alpha  occ. eigenvalues --   -0.65422  -0.63354  -0.56540  -0.56264  -0.54633
 Alpha  occ. eigenvalues --   -0.54386  -0.52736  -0.52026  -0.51006  -0.49240
 Alpha  occ. eigenvalues --   -0.47902  -0.46172  -0.44939  -0.44183  -0.44089
 Alpha  occ. eigenvalues --   -0.41835  -0.40476  -0.38888  -0.38225  -0.36812
 Alpha  occ. eigenvalues --   -0.36054  -0.35431  -0.34701  -0.33645  -0.31531
 Alpha  occ. eigenvalues --   -0.31037  -0.29926  -0.29588  -0.28954  -0.28019
 Alpha  occ. eigenvalues --   -0.27033  -0.26605  -0.24459
 Alpha virt. eigenvalues --    0.04230   0.04947   0.05359   0.07190   0.07682
 Alpha virt. eigenvalues --    0.08440   0.09973   0.12452   0.12517   0.13809
 Alpha virt. eigenvalues --    0.15819   0.16085   0.16697   0.17350   0.17915
 Alpha virt. eigenvalues --    0.18622   0.19754   0.21735   0.22528   0.22848
 Alpha virt. eigenvalues --    0.24261   0.24661   0.25800   0.28536   0.30521
 Alpha virt. eigenvalues --    0.30826   0.33757   0.37293   0.51070   0.51240
 Alpha virt. eigenvalues --    0.54041   0.55518   0.56992   0.57770   0.61933
 Alpha virt. eigenvalues --    0.62808   0.64704   0.65286   0.66730   0.67527
 Alpha virt. eigenvalues --    0.70645   0.72319   0.74067   0.75358   0.76533
 Alpha virt. eigenvalues --    0.78445   0.79437   0.80066   0.80358   0.80910
 Alpha virt. eigenvalues --    0.81098   0.82657   0.83059   0.84014   0.84705
 Alpha virt. eigenvalues --    0.85708   0.86319   0.87684   0.88447   0.89534
 Alpha virt. eigenvalues --    0.91386   0.91798   0.92567   0.96149   0.96692
 Alpha virt. eigenvalues --    0.97099   0.97802   0.98669   1.01387   1.01899
 Alpha virt. eigenvalues --    1.02768   1.03137   1.05091   1.06584   1.07920
 Alpha virt. eigenvalues --    1.10702   1.12572   1.13152   1.14228   1.15254
 Alpha virt. eigenvalues --    1.18568   1.19101   1.20592   1.23506   1.24221
 Alpha virt. eigenvalues --    1.28870   1.30181   1.31530   1.33582   1.34305
 Alpha virt. eigenvalues --    1.37992   1.40505   1.42365   1.44426   1.48805
 Alpha virt. eigenvalues --    1.50302   1.51413   1.57108   1.59393   1.59932
 Alpha virt. eigenvalues --    1.60933   1.65593   1.67138   1.68882   1.71412
 Alpha virt. eigenvalues --    1.72363   1.73289   1.73944   1.74495   1.76503
 Alpha virt. eigenvalues --    1.77310   1.77776   1.79256   1.80557   1.81461
 Alpha virt. eigenvalues --    1.83307   1.83793   1.85287   1.87673   1.89250
 Alpha virt. eigenvalues --    1.90089   1.91220   1.92123   1.93676   1.96933
 Alpha virt. eigenvalues --    1.98632   2.00649   2.02389   2.03712   2.05331
 Alpha virt. eigenvalues --    2.06760   2.08999   2.11666   2.14066   2.15620
 Alpha virt. eigenvalues --    2.16518   2.21261   2.25481   2.29459   2.30711
 Alpha virt. eigenvalues --    2.31888   2.33179   2.34241   2.36403   2.40060
 Alpha virt. eigenvalues --    2.40548   2.42168   2.45549   2.47425   2.51091
 Alpha virt. eigenvalues --    2.51989   2.52761   2.55155   2.55796   2.59319
 Alpha virt. eigenvalues --    2.62499   2.63796   2.64919   2.65843   2.72072
 Alpha virt. eigenvalues --    2.75435   2.76135   2.78846   2.86429   2.90093
 Alpha virt. eigenvalues --    2.93599   2.97648   2.99396   3.05467   3.09747
 Alpha virt. eigenvalues --    3.71419   3.73761   3.78696   3.80198   3.85395
 Alpha virt. eigenvalues --    3.94403   3.99988   4.09090   4.33016   4.37921
 Alpha virt. eigenvalues --    4.42362   4.57716   4.59746   4.80244
          Condensed to atoms (all electrons):
               1          2          3          4          5          6
     1  C    5.078120  -0.037336  -0.027406  -0.012172   0.285398   0.229508
     2  C   -0.037336   4.979097  -0.014748   0.301277   0.004114   0.311634
     3  O   -0.027406  -0.014748   8.365619   0.170293   0.190452  -0.007295
     4  C   -0.012172   0.301277   0.170293   4.737341  -0.028653  -0.032118
     5  C    0.285398   0.004114   0.190452  -0.028653   5.070283  -0.027635
     6  C    0.229508   0.311634  -0.007295  -0.032118  -0.027635   5.082486
     7  H    0.002008  -0.053866  -0.041150   0.358476  -0.000180  -0.004250
     8  H   -0.046379  -0.032394   0.000440  -0.006381   0.002589   0.346115
     9  H    0.001621   0.316125   0.001194  -0.038491  -0.002237  -0.050032
    10  H   -0.051518   0.000425  -0.039498   0.004776   0.349697   0.007265
    11  H    0.362750   0.001395   0.002596   0.000535  -0.045795  -0.046302
    12  C   -0.038808  -0.004631  -0.036802  -0.003930   0.267013  -0.007369
    13  H    0.005214  -0.000144   0.004595  -0.000184  -0.034342  -0.000170
    14  H   -0.007188  -0.000378   0.002708   0.000540  -0.047984   0.001722
    15  O   -0.000048  -0.046104  -0.043398   0.265715   0.000509   0.003192
    16  H    0.000063   0.002062   0.001493  -0.032591   0.000126  -0.000197
    17  O   -0.000579  -0.000008   0.001537   0.000032  -0.049216   0.000196
    18  H   -0.000488  -0.000002  -0.000035  -0.000001  -0.001858  -0.000009
    19  O    0.004497   0.246803   0.000643  -0.032193  -0.000158  -0.032481
    20  H    0.000696  -0.034468  -0.000041   0.004001  -0.000043  -0.005286
    21  O   -0.035640  -0.039189   0.000028   0.002062   0.002417   0.196064
    22  H   -0.003940   0.005971   0.000000  -0.000165   0.000335  -0.022104
    23  O    0.190825   0.000337  -0.000122   0.002091  -0.025059  -0.033878
    24  H   -0.023682  -0.000250  -0.000007   0.000017  -0.006391   0.006174
    25  O   -0.000013   0.000023  -0.020623   0.003267   0.000462   0.000000
    26  H    0.000000   0.000161   0.000817   0.001691  -0.000010  -0.000002
    27  H    0.000302   0.000688   0.048951  -0.000458  -0.001743  -0.000023
    28  O   -0.000371  -0.034386   0.000000   0.001411   0.000124  -0.001856
    29  H    0.000031   0.001070   0.000000  -0.000040  -0.000008   0.000215
    30  H    0.000057   0.000753   0.000000  -0.000038  -0.000080  -0.002648
               7          8          9         10         11         12
     1  C    0.002008  -0.046379   0.001621  -0.051518   0.362750  -0.038808
     2  C   -0.053866  -0.032394   0.316125   0.000425   0.001395  -0.004631
     3  O   -0.041150   0.000440   0.001194  -0.039498   0.002596  -0.036802
     4  C    0.358476  -0.006381  -0.038491   0.004776   0.000535  -0.003930
     5  C   -0.000180   0.002589  -0.002237   0.349697  -0.045795   0.267013
     6  C   -0.004250   0.346115  -0.050032   0.007265  -0.046302  -0.007369
     7  H    0.625203   0.003808   0.006764  -0.000366   0.000008   0.000127
     8  H    0.003808   0.595792   0.007171  -0.000447   0.003874   0.000080
     9  H    0.006764   0.007171   0.630507  -0.000076  -0.000014  -0.003256
    10  H   -0.000366  -0.000447  -0.000076   0.661906  -0.002682  -0.052808
    11  H    0.000008   0.003874  -0.000014  -0.002682   0.592893   0.000433
    12  C    0.000127   0.000080  -0.003256  -0.052808   0.000433   5.042465
    13  H    0.000056   0.000008   0.000464  -0.006354   0.000375   0.358921
    14  H    0.000018  -0.000006   0.009850   0.006623   0.000252   0.369027
    15  O   -0.055637  -0.000065   0.001821  -0.000157   0.000003   0.002771
    16  H    0.004060   0.000006   0.000241  -0.000041   0.000000  -0.000159
    17  O    0.000002  -0.000003   0.000124   0.005224   0.011752   0.211530
    18  H    0.000000   0.000000  -0.000001   0.004054  -0.000229  -0.024851
    19  O    0.003229   0.002621  -0.050263   0.000001  -0.000053   0.000081
    20  H   -0.000070   0.000286  -0.000247   0.000000  -0.000013  -0.000002
    21  O   -0.000087  -0.041651  -0.004340  -0.000130   0.001961   0.001140
    22  H    0.000007  -0.004188   0.000061   0.000002   0.003454  -0.000045
    23  O    0.000205   0.003613  -0.000072  -0.007427  -0.039558   0.003893
    24  H   -0.000012  -0.000040   0.000009   0.010424  -0.002475  -0.000048
    25  O   -0.000009   0.000000  -0.000001   0.000060   0.000000  -0.000116
    26  H   -0.000799   0.000000  -0.000004   0.000004   0.000000  -0.000006
    27  H   -0.000148   0.000001  -0.000009  -0.000583  -0.000005   0.000278
    28  O   -0.000034  -0.000277   0.033563   0.000000  -0.000013  -0.000179
    29  H   -0.000001  -0.000007  -0.001926   0.000000   0.000000  -0.000016
    30  H    0.000000   0.000538  -0.003441   0.000000   0.000109   0.000024
              13         14         15         16         17         18
     1  C    0.005214  -0.007188  -0.000048   0.000063  -0.000579  -0.000488
     2  C   -0.000144  -0.000378  -0.046104   0.002062  -0.000008  -0.000002
     3  O    0.004595   0.002708  -0.043398   0.001493   0.001537  -0.000035
     4  C   -0.000184   0.000540   0.265715  -0.032591   0.000032  -0.000001
     5  C   -0.034342  -0.047984   0.000509   0.000126  -0.049216  -0.001858
     6  C   -0.000170   0.001722   0.003192  -0.000197   0.000196  -0.000009
     7  H    0.000056   0.000018  -0.055637   0.004060   0.000002   0.000000
     8  H    0.000008  -0.000006  -0.000065   0.000006  -0.000003   0.000000
     9  H    0.000464   0.009850   0.001821   0.000241   0.000124  -0.000001
    10  H   -0.006354   0.006623  -0.000157  -0.000041   0.005224   0.004054
    11  H    0.000375   0.000252   0.000003   0.000000   0.011752  -0.000229
    12  C    0.358921   0.369027   0.002771  -0.000159   0.211530  -0.024851
    13  H    0.588073  -0.036790   0.000164   0.000809  -0.024461  -0.012080
    14  H   -0.036790   0.564911  -0.000338   0.000045  -0.035341   0.006666
    15  O    0.000164  -0.000338   8.353872   0.176424   0.000002   0.000000
    16  H    0.000809   0.000045   0.176424   0.409481   0.000002   0.000000
    17  O   -0.024461  -0.035341   0.000002   0.000002   8.259969   0.235131
    18  H   -0.012080   0.006666   0.000000   0.000000   0.235131   0.395930
    19  O   -0.000004  -0.000007   0.001886   0.000001   0.000000   0.000000
    20  H    0.000000   0.000004  -0.000124   0.000003   0.000000   0.000000
    21  O    0.000010   0.000313  -0.000008   0.000001  -0.000031   0.000000
    22  H    0.000000  -0.000012   0.000001   0.000000  -0.000006   0.000000
    23  O   -0.000063  -0.000030   0.000002   0.000000  -0.000026  -0.000007
    24  H   -0.000013   0.000018   0.000000   0.000000  -0.000018  -0.000005
    25  O    0.000224   0.000004  -0.023197   0.073769   0.000000   0.000000
    26  H   -0.000032   0.000000   0.009479  -0.005346   0.000000   0.000000
    27  H    0.000346  -0.000038   0.003232  -0.008395  -0.000003  -0.000001
    28  O    0.000001   0.000155  -0.000014   0.000000   0.000000   0.000000
    29  H    0.000000   0.000148   0.000001   0.000000   0.000000   0.000000
    30  H    0.000000   0.000499  -0.000003   0.000000  -0.000001   0.000000
              19         20         21         22         23         24
     1  C    0.004497   0.000696  -0.035640  -0.003940   0.190825  -0.023682
     2  C    0.246803  -0.034468  -0.039189   0.005971   0.000337  -0.000250
     3  O    0.000643  -0.000041   0.000028   0.000000  -0.000122  -0.000007
     4  C   -0.032193   0.004001   0.002062  -0.000165   0.002091   0.000017
     5  C   -0.000158  -0.000043   0.002417   0.000335  -0.025059  -0.006391
     6  C   -0.032481  -0.005286   0.196064  -0.022104  -0.033878   0.006174
     7  H    0.003229  -0.000070  -0.000087   0.000007   0.000205  -0.000012
     8  H    0.002621   0.000286  -0.041651  -0.004188   0.003613  -0.000040
     9  H   -0.050263  -0.000247  -0.004340   0.000061  -0.000072   0.000009
    10  H    0.000001   0.000000  -0.000130   0.000002  -0.007427   0.010424
    11  H   -0.000053  -0.000013   0.001961   0.003454  -0.039558  -0.002475
    12  C    0.000081  -0.000002   0.001140  -0.000045   0.003893  -0.000048
    13  H   -0.000004   0.000000   0.000010   0.000000  -0.000063  -0.000013
    14  H   -0.000007   0.000004   0.000313  -0.000012  -0.000030   0.000018
    15  O    0.001886  -0.000124  -0.000008   0.000001   0.000002   0.000000
    16  H    0.000001   0.000003   0.000001   0.000000   0.000000   0.000000
    17  O    0.000000   0.000000  -0.000031  -0.000006  -0.000026  -0.000018
    18  H    0.000000   0.000000   0.000000   0.000000  -0.000007  -0.000005
    19  O    8.326350   0.238930  -0.001229  -0.000185  -0.000017   0.000002
    20  H    0.238930   0.333510   0.008195  -0.000461  -0.000004   0.000000
    21  O   -0.001229   0.008195   8.346359   0.232760   0.001179  -0.000147
    22  H   -0.000185  -0.000461   0.232760   0.386162   0.000367  -0.000078
    23  O   -0.000017  -0.000004   0.001179   0.000367   8.318722   0.228537
    24  H    0.000002   0.000000  -0.000147  -0.000078   0.228537   0.396608
    25  O    0.000000   0.000000   0.000000   0.000000   0.000000   0.000000
    26  H   -0.000001   0.000000   0.000000   0.000000   0.000000   0.000000
    27  H   -0.000005   0.000000   0.000000   0.000000  -0.000007  -0.000006
    28  O   -0.050078   0.028512  -0.043521   0.002077   0.000000   0.000000
    29  H    0.004275  -0.001240   0.002422  -0.000121   0.000000   0.000000
    30  H    0.003909  -0.002476   0.030694  -0.001706   0.000000   0.000000
              25         26         27         28         29         30
     1  C   -0.000013   0.000000   0.000302  -0.000371   0.000031   0.000057
     2  C    0.000023   0.000161   0.000688  -0.034386   0.001070   0.000753
     3  O   -0.020623   0.000817   0.048951   0.000000   0.000000   0.000000
     4  C    0.003267   0.001691  -0.000458   0.001411  -0.000040  -0.000038
     5  C    0.000462  -0.000010  -0.001743   0.000124  -0.000008  -0.000080
     6  C    0.000000  -0.000002  -0.000023  -0.001856   0.000215  -0.002648
     7  H   -0.000009  -0.000799  -0.000148  -0.000034  -0.000001   0.000000
     8  H    0.000000   0.000000   0.000001  -0.000277  -0.000007   0.000538
     9  H   -0.000001  -0.000004  -0.000009   0.033563  -0.001926  -0.003441
    10  H    0.000060   0.000004  -0.000583   0.000000   0.000000   0.000000
    11  H    0.000000   0.000000  -0.000005  -0.000013   0.000000   0.000109
    12  C   -0.000116  -0.000006   0.000278  -0.000179  -0.000016   0.000024
    13  H    0.000224  -0.000032   0.000346   0.000001   0.000000   0.000000
    14  H    0.000004   0.000000  -0.000038   0.000155   0.000148   0.000499
    15  O   -0.023197   0.009479   0.003232  -0.000014   0.000001  -0.000003
    16  H    0.073769  -0.005346  -0.008395   0.000000   0.000000   0.000000
    17  O    0.000000   0.000000  -0.000003   0.000000   0.000000  -0.000001
    18  H    0.000000   0.000000  -0.000001   0.000000   0.000000   0.000000
    19  O    0.000000  -0.000001  -0.000005  -0.050078   0.004275   0.003909
    20  H    0.000000   0.000000   0.000000   0.028512  -0.001240  -0.002476
    21  O    0.000000   0.000000   0.000000  -0.043521   0.002422   0.030694
    22  H    0.000000   0.000000   0.000000   0.002077  -0.000121  -0.001706
    23  O    0.000000   0.000000  -0.000007   0.000000   0.000000   0.000000
    24  H    0.000000   0.000000  -0.000006   0.000000   0.000000   0.000000
    25  O    8.299036   0.241658   0.231901   0.000000   0.000000   0.000000
    26  H    0.241658   0.376246  -0.021832   0.000000   0.000000   0.000000
    27  H    0.231901  -0.021832   0.308705   0.000000   0.000000   0.000000
    28  O    0.000000   0.000000   0.000000   8.392792   0.230483   0.214214
    29  H    0.000000   0.000000   0.000000   0.230483   0.379607  -0.007678
    30  H    0.000000   0.000000   0.000000   0.214214  -0.007678   0.356911
 Mulliken charges:
               1
     1  C    0.124478
     2  C    0.125968
     3  O   -0.560240
     4  C    0.333891
     5  C    0.097873
     6  C    0.089082
     7  H    0.152637
     8  H    0.164896
     9  H    0.144895
    10  H    0.111626
    11  H    0.154749
    12  C   -0.084758
    13  H    0.155380
    14  H    0.164609
    15  O   -0.649982
    16  H    0.378143
    17  O   -0.615808
    18  H    0.397788
    19  O   -0.666555
    20  H    0.430336
    21  O   -0.659629
    22  H    0.401818
    23  O   -0.643502
    24  H    0.391381
    25  O   -0.806447
    26  H    0.397977
    27  H    0.438851
    28  O   -0.772602
    29  H    0.392784
    30  H    0.410364
 Sum of Mulliken charges =   0.00000
 Mulliken charges with hydrogens summed into heavy atoms:
               1
     1  C    0.279227
     2  C    0.270863
     3  O   -0.560240
     4  C    0.486528
     5  C    0.209498
     6  C    0.253978
    12  C    0.235230
    15  O   -0.271839
    17  O   -0.218021
    19  O   -0.236220
    21  O   -0.257811
    23  O   -0.252121
    25  O    0.030382
    28  O    0.030546
 Electronic spatial extent (au):  <R**2>=           3070.3426
 Charge=              0.0000 electrons
 Dipole moment (field-independent basis, Debye):
    X=             -1.5338    Y=              4.2680    Z=              1.0666  Tot=              4.6590
 Quadrupole moment (field-independent basis, Debye-Ang):
   XX=            -84.8619   YY=            -81.6920   ZZ=            -80.9135
   XY=              1.0801   XZ=             -2.6880   YZ=             -2.6031
 Traceless Quadrupole moment (field-independent basis, Debye-Ang):
   XX=             -2.3728   YY=              0.7971   ZZ=              1.5757
   XY=              1.0801   XZ=             -2.6880   YZ=             -2.6031
 Octapole moment (field-independent basis, Debye-Ang**2):
  XXX=            -80.3279  YYY=             40.2930  ZZZ=             25.3084  XYY=             32.5295
  XXY=              7.4704  XXZ=              0.4057  XZZ=             -6.6987  YZZ=             -9.8863
  YYZ=             -2.9194  XYZ=             19.9909
 Hexadecapole moment (field-independent basis, Debye-Ang**3):
 XXXX=          -1886.2109 YYYY=          -1167.8021 ZZZZ=           -634.8356 XXXY=            -56.3636
 XXXZ=            -26.9466 YYYX=             30.2101 YYYZ=            -30.8662 ZZZX=            -43.9906
 ZZZY=            -25.0934 XXYY=           -381.6008 XXZZ=           -328.2704 YYZZ=           -275.5281
 XXYZ=              0.0883 YYXZ=             -0.5432 ZZXY=             53.2786
 N-N= 1.116481702657D+03 E-N=-4.205765959553D+03  KE= 8.331633671509D+02
 Calling FoFJK, ICntrl=      2127 FMM=F ISym2X=0 I1Cent= 0 IOpClX= 0 NMat=1 NMatS=1 NMatT=0.
 ***** Axes restored to original set *****
 -------------------------------------------------------------------
 Center     Atomic                   Forces (Hartrees/Bohr)
 Number     Number              X              Y              Z
 -------------------------------------------------------------------
      1        6           0.020217148    0.022650499    0.014146362
      2        6           0.015585915    0.004384177   -0.003523495
      3        8           0.034498157    0.051028867   -0.035665242
      4        6           0.004006532   -0.031051268    0.011501950
      5        6          -0.041248108   -0.058466077    0.015917877
      6        6           0.002374273    0.027566525    0.001152298
      7        1          -0.004276893    0.006032276    0.001302516
      8        1          -0.001601743   -0.008533088    0.007014912
      9        1          -0.009641548   -0.005516015    0.008971342
     10        1          -0.003253902   -0.003106400   -0.000094933
     11        1           0.000721295   -0.008154445   -0.010268930
     12        6          -0.003705473   -0.002026872   -0.006935135
     13        1           0.005937810   -0.000206139    0.005772763
     14        1           0.001175727    0.002570419   -0.000922109
     15        8          -0.010573623    0.013922785   -0.000344564
     16        1           0.001309409   -0.001913330   -0.010110906
     17        8          -0.004956880   -0.000362824    0.000565096
     18        1           0.002700815    0.005300574   -0.001283230
     19        8          -0.004213479   -0.008834847    0.036211680
     20        1          -0.001388756   -0.012174063    0.000623072
     21        8          -0.017962251    0.012776031    0.006272025
     22        1           0.003247274   -0.003883421   -0.001392511
     23        8           0.003364478   -0.001611413    0.001593749
     24        1           0.002509548    0.001037753   -0.001849284
     25        8          -0.005923755   -0.025886701   -0.005096632
     26        1           0.007230523    0.003576095    0.010418671
     27        1          -0.003742191    0.013005595    0.007501201
     28        8           0.012102816    0.008307216   -0.040174620
     29        1           0.001700076   -0.003386617   -0.009046536
     30        1          -0.006193194    0.002954709   -0.002257388
 -------------------------------------------------------------------
 Cartesian Forces:  Max     0.058466077 RMS     0.014970755

 GradGradGradGradGradGradGradGradGradGradGradGradGradGradGradGradGradGrad
 Berny optimization.
 FormGI is forming the generalized inverse of G from B-inverse, IUseBI=4.
 Internal  Forces:  Max     0.035315460 RMS     0.007533673
 Search for a local minimum.
 Step number   1 out of a maximum of  180
 All quantities printed in internal units (Hartrees-Bohrs-Radians)
 Mixed Optimization -- RFO/linear search
 Second derivative matrix not updated -- first step.
 ITU=  0
     Eigenvalues ---    0.00230   0.00650   0.00734   0.00784   0.01012
     Eigenvalues ---    0.01114   0.01196   0.01341   0.01392   0.01415
     Eigenvalues ---    0.01561   0.01898   0.02013   0.02357   0.03223
     Eigenvalues ---    0.03509   0.03652   0.04014   0.04287   0.04535
     Eigenvalues ---    0.04864   0.04934   0.05077   0.05401   0.05417
     Eigenvalues ---    0.05546   0.05980   0.06051   0.06219   0.06322
     Eigenvalues ---    0.06768   0.06938   0.07116   0.07355   0.08260
     Eigenvalues ---    0.09352   0.10582   0.11279   0.11653   0.13790
     Eigenvalues ---    0.13839   0.14020   0.14463   0.15663   0.15770
     Eigenvalues ---    0.15876   0.16000   0.16000   0.16453   0.17363
     Eigenvalues ---    0.19118   0.19509   0.20465   0.21928   0.23845
     Eigenvalues ---    0.26446   0.27748   0.28332   0.28501   0.33622
     Eigenvalues ---    0.33668   0.33837   0.34128   0.34180   0.34210
     Eigenvalues ---    0.34518   0.34956   0.35088   0.37377   0.37452
     Eigenvalues ---    0.39190   0.39934   0.41496   0.44708   0.45991
     Eigenvalues ---    0.48615   0.49484   0.52192   0.52507   0.52609
     Eigenvalues ---    0.53559   0.554731000.000001000.000001000.00000
     Eigenvalues --- 1000.000001000.000001000.000001000.000001000.00000
     Eigenvalues --- 1000.000001000.000001000.000001000.000001000.00000
     Eigenvalues --- 1000.000001000.000001000.000001000.000001000.00000
     Eigenvalues --- 1000.000001000.000001000.000001000.000001000.00000
     Eigenvalues --- 1000.000001000.000001000.000001000.000001000.00000
     Eigenvalues --- 1000.000001000.000001000.000001000.000001000.00000
     Eigenvalues --- 1000.000001000.000001000.000001000.000001000.00000
     Eigenvalues --- 1000.000001000.000001000.000001000.000001000.00000
     Eigenvalues --- 1000.000001000.000001000.000001000.000001000.00000
     Eigenvalues --- 1000.000001000.000001000.000001000.000001000.00000
     Eigenvalues --- 1000.000001000.000001000.000001000.000001000.00000
     Eigenvalues --- 1000.000001000.000001000.000001000.000001000.00000
     Eigenvalues --- 1000.000001000.000001000.000001000.000001000.00000
     Eigenvalues --- 1000.000001000.000001000.000001000.000001000.00000
     Eigenvalues --- 1000.000001000.000001000.000001000.000001000.00000
     Eigenvalues --- 1000.000001000.000001000.000001000.000001000.00000
     Eigenvalues --- 1000.000001000.000001000.000001000.000001000.00000
     Eigenvalues --- 1000.000001000.000001000.000001000.000001000.00000
     Eigenvalues --- 1000.000001000.000001000.000001000.000001000.00000
     Eigenvalues --- 1000.000001000.000001000.000001000.000001000.00000
     Eigenvalues --- 1000.000001000.000001000.000001000.00000
 RFO step:  Lambda=-5.34570140D-02 EMin= 2.30000000D-03
 Linear search not attempted -- first point.
 Maximum step size (   0.300) exceeded in Quadratic search.
    -- Step size scaled by   0.642
 Iteration  1 RMS(Cart)=  0.06101459 RMS(Int)=  0.00221221
 Iteration  2 RMS(Cart)=  0.00347772 RMS(Int)=  0.00056247
 Iteration  3 RMS(Cart)=  0.00001891 RMS(Int)=  0.00056239
 Iteration  4 RMS(Cart)=  0.00000004 RMS(Int)=  0.00056239
 Iteration  1 RMS(Cart)=  0.00004685 RMS(Int)=  0.00007824
 Iteration  2 RMS(Cart)=  0.00003785 RMS(Int)=  0.00008403
 Iteration  3 RMS(Cart)=  0.00003059 RMS(Int)=  0.00009593
 Iteration  4 RMS(Cart)=  0.00002474 RMS(Int)=  0.00010882
 Iteration  5 RMS(Cart)=  0.00002002 RMS(Int)=  0.00012074
 Iteration  6 RMS(Cart)=  0.00001620 RMS(Int)=  0.00013110
 Iteration  7 RMS(Cart)=  0.00001312 RMS(Int)=  0.00013985
 Iteration  8 RMS(Cart)=  0.00001063 RMS(Int)=  0.00014714
 Iteration  9 RMS(Cart)=  0.00000861 RMS(Int)=  0.00015315
 Iteration 10 RMS(Cart)=  0.00000698 RMS(Int)=  0.00015810
 Iteration 11 RMS(Cart)=  0.00000565 RMS(Int)=  0.00016214
 Iteration 12 RMS(Cart)=  0.00000458 RMS(Int)=  0.00016544
 Iteration 13 RMS(Cart)=  0.00000372 RMS(Int)=  0.00016813
 Iteration 14 RMS(Cart)=  0.00000301 RMS(Int)=  0.00017033
 Iteration 15 RMS(Cart)=  0.00000244 RMS(Int)=  0.00017211
 Iteration 16 RMS(Cart)=  0.00000198 RMS(Int)=  0.00017356
 Iteration 17 RMS(Cart)=  0.00000161 RMS(Int)=  0.00017474
 Iteration 18 RMS(Cart)=  0.00000130 RMS(Int)=  0.00017569
 Iteration 19 RMS(Cart)=  0.00000106 RMS(Int)=  0.00017647
 Iteration 20 RMS(Cart)=  0.00000086 RMS(Int)=  0.00017710
 Variable       Old X    -DE/DX   Delta X   Delta X   Delta X     New X
                                 (Linear)    (Quad)   (Total)
    R1        2.78244   0.02683   0.00000   0.04684   0.04681   2.82925
    R2        2.90468   0.00269   0.00000   0.00951   0.00947   2.91416
    R3        2.06977   0.00078   0.00000   0.00126   0.00126   2.07103
    R4        2.71643  -0.00079   0.00000  -0.00112  -0.00112   2.71531
    R5        2.88842  -0.00194   0.00000  -0.00693  -0.00715   2.88127
    R6        2.87477   0.01126   0.00000   0.01432   0.01386   2.88863
    R7        2.06464  -0.00410   0.00000  -0.00660  -0.00660   2.05804
    R8        2.72532  -0.01316   0.00000  -0.02138  -0.02214   2.70318
    R9        2.90447  -0.01831   0.00000  -0.04226  -0.04226   2.86221
   R10        2.75615  -0.01271   0.00000  -0.01920  -0.01893   2.73723
   R11        3.40619   0.00832   0.00000   0.04215   0.04195   3.44813
   R12        2.07027   0.00016   0.00000   0.00026   0.00026   2.07054
   R13        2.69053  -0.00918   0.00000  -0.01313  -0.01318   2.67735
   R14        2.07893   0.00320   0.00000   0.00526   0.00526   2.08419
   R15        2.91419   0.00027   0.00000   0.00051   0.00051   2.91470
   R16        2.07605  -0.00021   0.00000  -0.00034  -0.00034   2.07572
   R17        2.72128   0.01503   0.00000   0.02272   0.02192   2.74320
   R18        2.07115   0.00021   0.00000   0.00034   0.00034   2.07149
   R19        2.05746   0.00208   0.00000   0.00330   0.00330   2.06077
   R20        2.69570   0.00390   0.00000   0.00534   0.00534   2.70104
   R21        1.84274  -0.00120   0.00000   0.00057   0.00072   1.84346
   R22        3.17384   0.00729   0.00000   0.03683   0.03693   3.21077
   R23        3.27171  -0.00140   0.00000   0.00059   0.00077   3.27248
   R24        1.84117  -0.00573   0.00000  -0.00635  -0.00635   1.83481
   R25        1.84896   0.01753   0.00000   0.01930   0.01994   1.86891
   R26        3.26923   0.02956   0.00000   0.14922   0.15036   3.41959
   R27        1.84416  -0.00518   0.00000  -0.00578  -0.00578   1.83838
   R28        3.48692   0.02143   0.00000   0.14075   0.14036   3.62728
   R29        1.84021  -0.00322   0.00000  -0.00357  -0.00357   1.83664
   R30        1.81414   0.00570   0.00000   0.00698   0.00699   1.82113
   R31        1.81414   0.01744   0.00000   0.02138   0.02125   1.83539
   R32        1.81414   0.00928   0.00000   0.00979   0.00979   1.82392
   R33        1.81414   0.01639   0.00000   0.01919   0.02016   1.83430
    A1        1.89954   0.01047   0.00000   0.03804   0.03851   1.93806
    A2        1.95638  -0.00837   0.00000  -0.02750  -0.02787   1.92851
    A3        1.94652   0.00024   0.00000  -0.00778  -0.00735   1.93917
    A4        1.93825   0.00010   0.00000  -0.00294  -0.00287   1.93538
    A5        1.86749  -0.00986   0.00000  -0.02885  -0.02879   1.83870
    A6        1.85372   0.00706   0.00000   0.02782   0.02779   1.88151
    A7        1.93512   0.00448   0.00000   0.00759   0.00815   1.94328
    A8        1.93757  -0.00496   0.00000  -0.01616  -0.01644   1.92113
    A9        1.91609  -0.00600   0.00000  -0.03032  -0.02986   1.88623
   A10        1.94351   0.00051   0.00000  -0.00073  -0.00125   1.94226
   A11        1.91985   0.00083   0.00000   0.01093   0.01120   1.93105
   A12        1.80780   0.00495   0.00000   0.02928   0.02844   1.83624
   A13        1.90281   0.01742   0.00000   0.05448   0.05550   1.95830
   A14        1.74123  -0.00148   0.00000  -0.00496  -0.00492   1.73630
   A15        2.50617  -0.01716   0.00000  -0.04256  -0.04338   2.46279
   A16        2.02528  -0.00279   0.00000  -0.01079  -0.01121   2.01407
   A17        1.94673  -0.00280   0.00000  -0.00324  -0.00331   1.94342
   A18        1.90298  -0.00334   0.00000  -0.01683  -0.01632   1.88666
   A19        1.82805   0.00175   0.00000   0.00588   0.00600   1.83405
   A20        1.87697   0.00339   0.00000   0.00331   0.00299   1.87996
   A21        1.87699   0.00477   0.00000   0.02575   0.02550   1.90249
   A22        2.05834  -0.01805   0.00000  -0.04440  -0.04506   2.01328
   A23        1.82329   0.00604   0.00000   0.02720   0.02752   1.85081
   A24        2.03059   0.00358   0.00000  -0.00304  -0.00304   2.02756
   A25        1.75704   0.00534   0.00000   0.02399   0.02440   1.78144
   A26        1.94849   0.00936   0.00000   0.01240   0.01193   1.96042
   A27        1.79477  -0.00417   0.00000  -0.00214  -0.00246   1.79231
   A28        2.02752  -0.01120   0.00000  -0.02656  -0.02719   2.00034
   A29        1.90969  -0.00155   0.00000  -0.01419  -0.01511   1.89459
   A30        1.93463   0.00686   0.00000   0.01174   0.01352   1.94815
   A31        1.87919   0.00107   0.00000   0.00249   0.00269   1.88188
   A32        1.88038   0.00742   0.00000   0.01814   0.01728   1.89767
   A33        1.82033  -0.00174   0.00000   0.01253   0.01226   1.83259
   A34        1.93324  -0.00719   0.00000  -0.02453  -0.02454   1.90871
   A35        1.97780   0.00060   0.00000  -0.00193  -0.00198   1.97582
   A36        1.92565  -0.00148   0.00000  -0.00316  -0.00314   1.92251
   A37        1.86124   0.00212   0.00000   0.00650   0.00635   1.86759
   A38        1.90086   0.00735   0.00000   0.02896   0.02897   1.92983
   A39        1.86169  -0.00069   0.00000  -0.00327  -0.00330   1.85839
   A40        1.82802   0.00368   0.00000   0.00993   0.00996   1.83799
   A41        2.40087  -0.00303   0.00000  -0.00817  -0.00827   2.39260
   A42        2.34064  -0.00571   0.00000  -0.01124  -0.01125   2.32939
   A43        0.95486   0.00263   0.00000  -0.00686  -0.00711   0.94775
   A44        1.86915   0.00271   0.00000   0.00815   0.00815   1.87730
   A45        1.83149  -0.00460   0.00000   0.01001   0.00996   1.84145
   A46        2.06216   0.03532   0.00000   0.10050   0.10122   2.16338
   A47        1.86089  -0.00679   0.00000  -0.02195  -0.02179   1.83910
   A48        2.07838   0.01480   0.00000   0.04792   0.04621   2.12459
   A49        2.33721  -0.00697   0.00000  -0.02023  -0.01992   2.31730
   A50        1.88731  -0.00109   0.00000  -0.00328  -0.00328   1.88403
   A51        1.91114  -0.00849   0.00000  -0.02535  -0.02538   1.88576
   A52        1.48299  -0.00020   0.00000  -0.00576  -0.00576   1.47723
   A53        1.36971  -0.00267   0.00000  -0.01113  -0.01126   1.35845
   A54        2.78226  -0.00102   0.00000  -0.00115  -0.00138   2.78087
   A55        1.43213   0.00171   0.00000   0.00983   0.00970   1.44183
   A56        2.24977   0.00761   0.00000   0.01912   0.01829   2.26807
   A57        2.10123  -0.01534   0.00000  -0.04238  -0.04315   2.05808
   A58        1.91114   0.00488   0.00000   0.00970   0.00930   1.92044
   A59        1.87451   0.00778   0.00000   0.03622   0.03507   1.90958
    D1        0.96354  -0.00633   0.00000  -0.04686  -0.04591   0.91763
    D2        2.89538  -0.00436   0.00000  -0.02047  -0.02040   2.87498
    D3       -1.42318  -0.00381   0.00000  -0.00704  -0.00703  -1.43020
    D4        3.11444  -0.00442   0.00000  -0.04217  -0.04166   3.07277
    D5       -1.23690  -0.00245   0.00000  -0.01578  -0.01616  -1.25306
    D6        0.72773  -0.00189   0.00000  -0.00234  -0.00278   0.72494
    D7       -1.09274  -0.00092   0.00000  -0.03062  -0.03002  -1.12275
    D8        0.83911   0.00105   0.00000  -0.00423  -0.00451   0.83460
    D9        2.80373   0.00160   0.00000   0.00920   0.00886   2.81260
   D10       -0.02354  -0.00594   0.00000   0.00000   0.00001  -0.02352
   D11       -2.15505   0.00201   0.00000   0.02731   0.02688  -2.12818
   D12        2.13004   0.00117   0.00000   0.01381   0.01336   2.14340
   D13       -2.18525  -0.00269   0.00000   0.01036   0.01052  -2.17473
   D14        1.96642   0.00526   0.00000   0.03767   0.03738   2.00380
   D15       -0.03167   0.00442   0.00000   0.02417   0.02387  -0.00780
   D16        2.08211  -0.00551   0.00000  -0.00475  -0.00464   2.07747
   D17       -0.04940   0.00244   0.00000   0.02256   0.02222  -0.02718
   D18       -2.04749   0.00160   0.00000   0.00906   0.00871  -2.03879
   D19       -0.90739   0.00402   0.00000   0.01396   0.01438  -0.89301
   D20       -2.98286  -0.00274   0.00000  -0.00999  -0.01041  -2.99327
   D21        1.22877  -0.00152   0.00000  -0.00632  -0.00632   1.22246
   D22        0.77891   0.00186   0.00000   0.01760   0.01709   0.79600
   D23       -1.31235   0.00379   0.00000   0.02024   0.01987  -1.29248
   D24        2.90056   0.00173   0.00000   0.00114   0.00085   2.90141
   D25       -1.39110   0.00154   0.00000   0.02474   0.02472  -1.36638
   D26        2.80083   0.00348   0.00000   0.02738   0.02749   2.82832
   D27        0.73055   0.00142   0.00000   0.00828   0.00847   0.73902
   D28        2.90379   0.00183   0.00000   0.01598   0.01643   2.92022
   D29        0.81253   0.00376   0.00000   0.01863   0.01921   0.83174
   D30       -1.25775   0.00170   0.00000  -0.00047   0.00019  -1.25756
   D31       -0.77996   0.00323   0.00000  -0.00578  -0.00502  -0.78499
   D32        1.36756  -0.00580   0.00000  -0.04106  -0.04089   1.32667
   D33       -2.96150  -0.00380   0.00000  -0.01688  -0.01699  -2.97849
   D34        1.38666   0.00044   0.00000  -0.02171  -0.02130   1.36536
   D35       -2.74900  -0.00859   0.00000  -0.05699  -0.05716  -2.80616
   D36       -0.79487  -0.00659   0.00000  -0.03281  -0.03326  -0.82813
   D37       -2.90264   0.00725   0.00000   0.02001   0.01968  -2.88296
   D38       -0.75511  -0.00178   0.00000  -0.01526  -0.01618  -0.77130
   D39        1.19901   0.00022   0.00000   0.00891   0.00771   1.20673
   D40       -3.02050  -0.00698   0.00000  -0.00736  -0.00817  -3.02867
   D41       -0.88651  -0.00477   0.00000  -0.01066  -0.01040  -0.89691
   D42        1.19244  -0.00106   0.00000   0.00987   0.01009   1.20253
   D43        0.03097   0.00824   0.00000   0.00000  -0.00001   0.03096
   D44        2.18541   0.00420   0.00000  -0.00657  -0.00685   2.17856
   D45       -2.10446   0.01188   0.00000   0.02678   0.02637  -2.07808
   D46        2.77800   0.00008   0.00000  -0.00752  -0.00695   2.77105
   D47       -1.35075  -0.00396   0.00000  -0.01410  -0.01379  -1.36454
   D48        0.64257   0.00372   0.00000   0.01925   0.01944   0.66200
   D49       -0.96512   0.00381   0.00000   0.04264   0.04145  -0.92367
   D50       -2.93400   0.00072   0.00000   0.01300   0.01264  -2.92136
   D51        1.45486  -0.00026   0.00000  -0.00026  -0.00084   1.45402
   D52        2.86876   0.00097   0.00000   0.01048   0.01019   2.87895
   D53        0.89988  -0.00212   0.00000  -0.01916  -0.01861   0.88126
   D54       -0.99445  -0.00310   0.00000  -0.03242  -0.03210  -1.02655
   D55       -0.52884  -0.00286   0.00000  -0.01403  -0.01421  -0.54306
   D56       -0.86579  -0.00302   0.00000  -0.01282  -0.01270  -0.87849
   D57        1.95377   0.00464   0.00000   0.03122   0.03059   1.98436
   D58        1.61682   0.00448   0.00000   0.03243   0.03211   1.64893
   D59       -2.56004  -0.00036   0.00000   0.00130   0.00112  -2.55892
   D60       -0.35064  -0.00374   0.00000  -0.02083  -0.02114  -0.37178
   D61        1.60973   0.00211   0.00000  -0.00037  -0.00036   1.60937
   D62        3.08028  -0.00849   0.00000  -0.03960  -0.03982   3.04046
   D63        0.98936  -0.00648   0.00000  -0.02914  -0.02941   0.95995
   D64       -1.09674  -0.00496   0.00000  -0.02144  -0.02169  -1.11843
   D65        0.64794   0.00521   0.00000   0.02115   0.02147   0.66942
   D66       -1.44298   0.00722   0.00000   0.03162   0.03189  -1.41109
   D67        2.75410   0.00874   0.00000   0.03932   0.03960   2.79371
   D68       -1.22198  -0.00220   0.00000  -0.00950  -0.00952  -1.23150
   D69        2.97028  -0.00019   0.00000   0.00096   0.00089   2.97117
   D70        0.88418   0.00133   0.00000   0.00866   0.00861   0.89279
   D71        1.02794   0.00332   0.00000   0.00233   0.00158   1.02952
   D72       -2.00646  -0.00440   0.00000  -0.04144  -0.04297  -2.04943
   D73       -3.01919  -0.00075   0.00000  -0.01010  -0.01091  -3.03010
   D74        0.22959  -0.00847   0.00000  -0.05387  -0.05546   0.17414
   D75       -1.02552   0.00279   0.00000   0.00623   0.00568  -1.01985
   D76        2.22326  -0.00493   0.00000  -0.03754  -0.03887   2.18439
   D77       -1.57892   0.00234   0.00000   0.01051   0.01054  -1.56838
   D78        0.54652  -0.00275   0.00000  -0.00313  -0.00320   0.54331
   D79        2.54918   0.00294   0.00000   0.01688   0.01693   2.56611
   D80       -1.63982   0.00344   0.00000   0.03430   0.03431  -1.60551
   D81       -0.20164  -0.00017   0.00000   0.00490   0.00493  -0.19671
   D82        2.60352   0.00024   0.00000  -0.00125  -0.00108   2.60244
   D83        0.52109   0.00593   0.00000   0.01981   0.01991   0.54099
   D84        0.55377  -0.00036   0.00000  -0.00038  -0.00046   0.55331
   D85       -2.70548  -0.00070   0.00000  -0.00018  -0.00022  -2.70571
   D86        2.73483  -0.00174   0.00000  -0.01450  -0.01450   2.72033
   D87       -0.52442  -0.00208   0.00000  -0.01429  -0.01427  -0.53869
   D88       -0.91501  -0.00741   0.00000  -0.02754  -0.02423  -0.93924
   D89       -0.99575  -0.00079   0.00000  -0.02681  -0.02581  -1.02156
   D90        1.90256  -0.01668   0.00000  -0.10364  -0.10143   1.80113
   D91       -0.80211   0.01331   0.00000   0.03927   0.03781  -0.76429
   D92        2.48228   0.00233   0.00000  -0.02106  -0.02265   2.45962
   D93       -0.89053   0.00106   0.00000  -0.01123  -0.01099  -0.90152
   D94        1.19426   0.00176   0.00000   0.01923   0.01901   1.21327
   D95        0.86104   0.00188   0.00000   0.02168   0.02177   0.88281
   D96       -0.21863   0.01452   0.00000   0.06851   0.06804  -0.15060
   D97        2.72276   0.00243   0.00000   0.00813   0.00954   2.73230
         Item               Value     Threshold  Converged?
 Maximum Force            0.035211     0.000450     NO 
 RMS     Force            0.007382     0.000300     NO 
 Maximum Displacement     0.343467     0.001800     NO 
 RMS     Displacement     0.062829     0.001200     NO 
 Predicted change in Energy=-2.732685D-02
 GradGradGradGradGradGradGradGradGradGradGradGradGradGradGradGradGradGrad

                          Input orientation:                          
 ---------------------------------------------------------------------
 Center     Atomic      Atomic             Coordinates (Angstroms)
 Number     Number       Type             X           Y           Z
 ---------------------------------------------------------------------
      1          6           0       -0.995826    0.976424    0.486249
      2          6           0        1.293006    0.213594   -0.439725
      3          8           0       -0.141119   -1.286331    1.074615
      4          6           0        1.243148   -0.913557    0.585829
      5          6           0       -1.177843   -0.508497    0.427879
      6          6           0        0.401203    1.383523   -0.024310
      7          1           0        1.804877   -0.655013    1.490335
      8          1           0        0.918246    1.933647    0.773538
      9          1           0        1.017404   -0.163687   -1.423478
     10          1           0       -2.058237   -0.732491    1.053288
     11          1           0       -1.783071    1.482238   -0.084264
     12          6           0       -1.578674   -1.091363   -0.942736
     13          1           0       -1.580269   -2.186062   -0.885690
     14          1           0       -0.893090   -0.814778   -1.744416
     15          8           0        1.818618   -2.067834   -0.000503
[...]
 ,-0.00006235,-0.00021015,-0.00009375,-0.00035415,0.00013159,-0.0000157
 5,0.00011556,-0.00012856,0.00050921,-0.00021043,-0.00008160,-0.0001825
 6,-0.00003041,-0.00007879,-0.10813472,-0.03464478,0.03106810,0.0935477
 7,0.03299605,0.04034541,0.00845764,-0.02023079,0.00038906,0.00104405,-
 0.00016214,-0.00133925,0.00052857,-0.00023113,0.00082790,0.00019070,-0
 .00039475,0.00125919,-0.00006667,0.00165483,-0.00045925,-0.00422404,-0
 .00608428,-0.00009749,-0.00006705,0.00002519,-0.00007659,0.00013842,-0
 .00018251,-0.00004881,-0.00007330,-0.00008547,-0.00062573,-0.00130074,
 0.00074170,-0.00025205,0.00102388,0.00101824,-0.00023569,0.00029654,-0
 .00023746,0.00008046,0.00019082,0.00021525,0.00002794,0.00000185,0.000
 17764,-0.00029766,0.00012423,0.00012333,0.00006898,-0.00009470,0.00007
 580,-0.00008538,0.00038757,0.00041189,-0.00014845,-0.00020697,-0.00016
 822,0.00028790,-0.00017374,-0.00002520,0.00001402,-0.00000313,0.000021
 67,0.00072808,0.00075129,-0.00065551,0.00015011,0.00002754,-0.00007326
 ,0.12765822,0.01295196,-0.09761347,-0.16816002,-0.01988856,0.12158738,
 -0.00051828,-0.00016115,-0.00025217,0.00069620,-0.00022770,0.00001780,
 0.00237365,0.00549306,-0.00356305,-0.00790658,0.00394808,0.00222617,0.
 00158051,0.00040750,-0.00010537,-0.00052073,-0.00017917,0.00033630,0.0
 0064782,0.00039504,0.00008533,0.00006201,0.00001445,-0.00002195,-0.000
 03325,-0.00005304,0.00001419,0.00031003,-0.00017154,-0.00001699,0.0000
 5128,0.00020671,-0.00001058,0.00000793,-0.00024499,0.00024011,0.000000
 68,0.00009716,0.00013345,-0.00002299,0.00010466,-0.00014733,0.00472975
 ,-0.00559664,0.00435108,-0.00733582,-0.00081296,-0.00564863,-0.0001247
 0,0.00017239,-0.00014870,0.00009396,-0.00008808,0.00003585,0.00054242,
 -0.00012801,-0.00021878,0.00004033,0.00019686,-0.00007195,0.00033980,-
 0.00011123,-0.00013554,-0.00005925,-0.00007236,0.00004004,0.00014651,0
 .00025912,0.00003850,0.00007320,-0.00014489,-0.00001635,0.34311862,0.0
 0080308,0.00010212,0.00095820,0.00055395,0.00070921,-0.00016431,0.0079
 3715,-0.00657081,0.00484777,-0.00035216,0.00205535,-0.00085906,-0.0051
 0223,0.00017403,-0.00003435,-0.00020999,0.00069637,-0.00021130,0.00044
 293,0.00037846,0.00040999,-0.00001333,-0.00005216,0.00002120,-0.000052
 97,-0.00017031,0.00010884,0.00052510,-0.00008155,-0.00020067,0.0000198
 0,-0.00056677,-0.00004032,-0.00021461,-0.00082501,-0.00061670,-0.00001
 634,0.00012966,-0.00000195,-0.00003226,0.00005085,-0.00000504,-0.00124
 840,-0.00312622,0.00767870,0.00115212,-0.00583028,-0.00370417,0.000959
 05,0.00016163,0.00070567,-0.00017917,-0.00016682,-0.00012562,-0.000678
 39,-0.00077011,0.00062133,0.00012211,0.00026146,-0.00052454,0.00006812
 ,-0.00068994,0.00046789,0.00005490,0.00009540,-0.00001697,0.00015544,-
 0.00045372,-0.00043156,-0.00008714,0.00021053,0.00014594,-0.19851879,0
 .31527726,-0.00029739,-0.00008191,-0.00076784,-0.00068922,0.00019339,0
 .00070051,-0.00451618,0.00465263,0.00117785,0.00312504,-0.00572992,-0.
 00489550,0.00224050,-0.00013801,0.00052499,0.00040259,-0.00027949,-0.0
 0017907,0.00009193,0.00074587,0.00081813,-0.00000658,0.00010216,0.0000
 1188,0.00006057,-0.00013341,0.00020502,-0.00049299,0.00011214,0.000055
 11,-0.00003082,0.00026819,0.00006095,0.00039078,-0.00018882,0.00015798
 ,0.00011185,0.00010202,0.00003416,0.00002116,-0.00003037,0.00008256,0.
 00262375,0.01264867,-0.00786936,-0.00329269,-0.00182842,0.00194698,-0.
 00064971,0.00017244,-0.00019559,0.00011509,0.00002514,0.00000398,0.000
 26660,0.00067124,-0.00019727,-0.00008490,-0.00028078,0.00032643,-0.000
 16117,0.00054587,-0.00016497,-0.00004342,-0.00002610,-0.00003849,-0.00
 007612,0.00018270,0.00064497,-0.00004119,-0.00003051,-0.00018312,0.223
 32186,0.07434037,0.45165790,-0.00001760,0.00004693,-0.00006893,0.00014
 440,-0.00006952,-0.00014178,-0.00015606,0.00034301,0.00053194,0.000732
 37,0.00034561,0.00053140,-0.00002471,0.00008838,-0.00004125,0.00003079
 ,0.00002809,-0.00003066,-0.00000229,-0.00024032,-0.00018958,0.00000311
 ,-0.00001553,-0.00000215,-0.00001817,0.00003530,-0.00004818,-0.0000904
 2,0.00001345,0.00000262,-0.00000130,-0.00001116,0.00001684,-0.00001450
 ,-0.00003761,-0.00004161,-0.00000111,0.00000051,-0.00000609,0.00000403
 ,0.00000152,0.00003024,-0.00126099,-0.00189083,0.00093526,0.00300172,0
 .00261035,-0.00051092,0.00003696,-0.00000286,0.00005226,-0.00001855,0.
 00000247,-0.00002632,-0.00019162,-0.00002278,0.00002250,0.00001835,-0.
 00001253,-0.00001365,-0.00005779,-0.00006277,0.00006501,0.00002166,0.0
 0001625,-0.00000279,-0.00000528,-0.00010950,0.00009598,-0.00004487,0.0
 0007833,-0.00003204,-0.10535287,-0.01121469,-0.15636621,0.11668936,0.0
 0005203,-0.00003892,0.00004328,-0.00028554,-0.00027981,-0.00008315,-0.
 00051304,-0.00097199,-0.00053205,0.00085883,0.00057001,0.00148181,0.00
 046350,-0.00042645,0.00001784,0.00008159,-0.00015806,0.00007170,-0.000
 39888,-0.00049443,-0.00029840,-0.00000667,-0.00001722,-0.00000693,0.00
 000779,0.00009804,-0.00011083,-0.00006795,0.00003517,0.00002561,-0.000
 02006,0.00003825,-0.00001564,0.00006888,0.00011977,0.00008985,0.000007
 24,-0.00002507,0.00000302,0.00000559,-0.00000410,0.00000201,-0.0008311
 2,-0.00110261,0.00025645,0.00102562,0.00055923,0.00055288,-0.00021571,
 -0.00001766,-0.00014007,0.00004488,0.00002852,0.00002931,0.00014087,0.
 00012972,-0.00015640,-0.00004952,-0.00007372,0.00013920,-0.00004092,0.
 00017671,-0.00014035,-0.00000001,-0.00002219,0.00001212,-0.00008915,0.
 00015152,-0.00007053,0.00004910,-0.00007682,0.00000205,-0.04012246,-0.
 05648259,-0.12914719,0.02332371,0.05105167,0.00000841,0.00002703,0.000
 14397,0.00013707,0.00030346,0.00010299,0.00048098,-0.00041049,0.000466
 94,-0.00042630,0.00018271,-0.00091964,-0.00053107,0.00026645,0.0000096
 9,-0.00004579,0.00011443,-0.00001647,0.00018236,0.00040770,0.00024716,
 -0.00000701,-0.00000261,0.00000609,-0.00000272,-0.00009244,0.00007596,
 0.00009240,-0.00001141,-0.00002084,0.00001347,-0.00005813,-0.00001141,
 -0.00004210,-0.00009578,-0.00007867,-0.00000644,0.00000686,-0.00001939
 ,-0.00000633,0.00000032,-0.00000627,0.00105562,0.00040425,0.00044261,-
 0.00193056,-0.00103252,-0.00234688,0.00016718,0.00000443,0.00010290,-0
 .00003355,-0.00001431,-0.00001443,-0.00005576,-0.00014971,0.00008953,0
 .00002402,0.00006508,-0.00009503,0.00003595,-0.00012158,0.00005949,0.0
 0000267,0.00001245,0.00000055,0.00003981,-0.00007783,-0.00012346,0.000
 00091,0.00002802,0.00004727,-0.19121005,-0.08721352,-0.39122838,0.1898
 8121,0.09582647,0.40067054,0.00010838,0.00022302,0.00017567,-0.0010563
 5,0.00014562,-0.00027691,-0.00751316,-0.00105314,0.00117490,0.00610480
 ,-0.00619796,0.00074473,-0.00074041,0.00083922,-0.00058917,0.00035710,
 0.00012896,-0.00027627,-0.00089444,-0.00030446,-0.00022832,-0.00005394
 ,-0.00002636,0.00002298,0.00004748,0.00007200,-0.00006286,-0.00032346,
 0.00022374,0.00008366,-0.00002241,-0.00008230,0.00000903,-0.00013608,0
 .00042326,-0.00012971,-0.00002904,-0.00016492,-0.00024427,0.00003455,-
 0.00013675,0.00012768,-0.00030123,0.00363409,-0.00168152,-0.00508705,-
 0.00057583,0.00622892,0.00012105,-0.00019673,0.00010529,-0.00010950,0.
 00008621,-0.00004973,-0.00039506,-0.00008854,0.00032124,-0.00007003,-0
 .00013320,-0.00000436,-0.00023393,0.00007014,0.00010494,0.00004148,0.0
 0005545,-0.00002617,-0.00010641,-0.00021724,-0.00009621,-0.00004286,0.
 00012584,0.00003592,-0.23290324,0.20508061,-0.06601167,-0.01343451,0.0
 1652333,0.00217209,0.25660880,-0.00119513,-0.00009060,-0.00117324,0.00
 059525,-0.00072749,0.00027827,-0.00169295,-0.00091386,-0.00163106,-0.0
 0906495,0.00114517,0.00351737,0.00719648,-0.00066658,-0.00024528,-0.00
 021281,-0.00083324,0.00042351,0.00041171,-0.00010304,-0.00016707,0.000
 06440,0.00004541,-0.00004165,-0.00001471,0.00008492,-0.00014009,-0.000
 55266,0.00004047,0.00030245,0.00000318,0.00074979,0.00003822,-0.000080
 61,0.00123675,0.00089022,0.00000053,-0.00016459,0.00002054,0.00002269,
 -0.00003853,-0.00008919,0.00156975,-0.00382195,-0.00002658,-0.00085218
 ,0.00366545,-0.00147770,-0.00105584,-0.00023125,-0.00092922,0.00019803
 ,0.00020215,0.00013213,0.00096983,0.00068254,-0.00087576,-0.00001436,-
 0.00006758,0.00043116,0.00013878,0.00050266,-0.00048701,-0.00008139,-0
 .00012648,0.00004129,-0.00006802,0.00054576,0.00045781,0.00011640,-0.0
 0025606,-0.00018051,0.23538744,-0.24439518,0.04305052,-0.01324968,0.00
 719970,-0.00834273,-0.21847600,0.23625524,0.00084265,0.00001496,0.0010
 3185,-0.00001503,0.00034502,-0.00022929,0.00080168,-0.00223455,-0.0018
 4583,0.00462744,0.00316337,-0.00029267,-0.00375791,0.00005776,-0.00068
 554,0.00010022,0.00046528,-0.00014317,-0.00056399,-0.00037816,-0.00025
 076,-0.00005339,-0.00007386,0.00001404,-0.00000718,0.00001713,-0.00006
 266,0.00046642,-0.00009167,-0.00001860,-0.00000386,-0.00047146,-0.0000
 5894,-0.00033520,0.00046005,-0.00033348,-0.00021836,-0.00020561,-0.000
 20893,-0.00000498,-0.00006219,0.00000432,-0.00233408,-0.00007490,-0.00
 065216,0.00593668,-0.00194510,0.00037613,0.00076052,-0.00030578,0.0003
 0811,-0.00016081,-0.00000049,0.00000182,-0.00054394,-0.00046701,0.0003
 6397,0.00002738,0.00010102,-0.00022718,-0.00007873,-0.00034002,0.00020
 732,0.00006126,0.00007224,-0.00000104,-0.00004019,-0.00023573,-0.00071
 841,0.00002898,0.00003741,0.00021831,-0.02934905,0.00376633,-0.0526251
 9,-0.03462217,0.03217254,-0.00761027,0.05840406,-0.03374349,0.06341864
 ,0.00047291,-0.00089444,0.00027466,-0.00367858,-0.00059348,-0.00100733
 ,0.00076764,-0.00020849,-0.00008950,0.00003110,0.00071879,0.00032785,-
 0.00053266,0.00058763,0.00004124,-0.00183393,0.00390684,-0.00302720,0.
 00002178,-0.00022428,0.00018249,0.00000616,-0.00031044,0.00071361,0.00
 059735,0.00060135,0.00059151,-0.00003204,-0.00019428,0.00007027,0.0003
 6087,0.00004284,0.00001580,0.00021442,0.00010583,-0.00003130,-0.000068
 09,-0.00010586,0.00000479,-0.00001406,0.00011264,0.00007293,0.00048369
 ,-0.00056002,-0.00012230,-0.00011268,0.00003906,-0.00005279,-0.0001304
 7,-0.00015132,-0.00006027,0.00005725,0.00002502,0.00006414,0.00553859,
 0.00192388,-0.00369824,-0.00628396,0.00026540,0.00367351,-0.00434486,0
 .00030853,0.01037215,-0.00150748,-0.00141699,0.00163438,-0.00024695,-0
 .00017627,0.00058372,-0.00007313,0.00004380,-0.00002219,0.00009245,-0.
 00017238,0.00007810,-0.00004704,0.00004557,-0.00001479,-0.00004946,0.0
 0017580,-0.00010293,0.44851179,0.00000896,0.00056096,-0.00064385,0.005
 42995,0.00004713,-0.00130152,-0.00143649,-0.00037423,0.00047458,0.0008
 2151,0.00094050,-0.00030618,0.00085589,-0.00044851,-0.00000485,0.00122
 183,-0.00242955,0.00151779,-0.00011766,-0.00022312,0.00006185,-0.00005
 679,0.00020362,-0.00019094,0.00055922,0.00080184,-0.00006540,-0.000159
 17,0.00007913,0.00005043,-0.00028339,0.00002610,0.00003161,0.00041613,
 0.00010686,-0.00010456,-0.00001464,0.00002056,0.00003513,0.00009102,-0
 .00006238,0.00016305,-0.00032901,-0.00051021,0.00030159,0.00008299,0.0
 0036741,-0.00021177,-0.00053074,0.00007325,-0.00010935,0.00005446,0.00
 001798,0.00003872,-0.00296306,-0.00179450,0.01252645,-0.00246534,-0.00
 879277,-0.00710108,0.00197141,0.00598854,-0.00408188,-0.00114168,-0.00
 035409,0.00110233,-0.00014404,0.00034578,0.00017022,0.00004001,-0.0001
 5695,-0.00002000,-0.00015959,-0.00038448,0.00033057,0.00000576,0.00010
 526,-0.00008962,0.00008278,0.00022766,-0.00017442,-0.00491813,0.209020
 88,-0.00033464,0.00016498,0.00016653,-0.00664947,-0.00140517,-0.000999
 12,0.00118172,0.00103923,-0.00049709,0.00004577,-0.00151226,0.00059004
 ,-0.00059598,-0.00007520,-0.00028597,0.00085093,-0.00124574,0.00188935
 ,0.00009193,0.00005311,0.00015987,-0.00014762,0.00017181,0.00002277,0.
 00071704,0.00007104,0.00045532,0.00022052,0.00015010,-0.00005073,0.000
 02039,-0.00007370,-0.00008992,-0.00037686,-0.00010433,-0.00024024,0.00
 005209,0.00007498,0.00001982,-0.00006977,-0.00005677,-0.00017984,-0.00
 000646,0.00131416,-0.00002333,-0.00001598,-0.00038795,0.00024245,0.000
 61021,0.00010490,0.00036294,-0.00011919,-0.00007195,-0.00010982,0.0023
 6816,0.01155105,-0.01455726,0.00382486,-0.00392797,0.00064968,0.008047
 26,-0.00110048,-0.00471230,0.00065238,0.00108451,-0.00116720,0.0004600
 0,-0.00000907,-0.00055406,0.00003291,0.00008175,-0.00001196,0.00008504
 ,0.00054309,-0.00033947,0.00001829,-0.00015302,0.00009958,-0.00003126,
 -0.00041435,0.00023282,-0.06136785,0.27208998,0.44801716,-0.00004073,-
 0.00002297,0.00016869,0.00034821,0.00040081,0.00023508,-0.00010578,0.0
 0013847,-0.00006394,0.00016944,-0.00035537,-0.00010577,0.00005887,-0.0
 0005437,0.00006917,-0.00017077,-0.00012560,0.00012637,-0.00001470,0.00
 005901,-0.00003425,0.00000040,0.00001840,-0.00007455,-0.00003482,-0.00
 022961,-0.00012228,0.00000508,0.00000458,-0.00003465,-0.00001495,0.000
 01027,0.00000163,-0.00011938,-0.00008148,0.00011986,0.00002668,0.00003
 299,-0.00003221,0.00001783,-0.00002814,-0.00001993,-0.00016520,0.00022
 541,0.00006558,0.00004017,-0.00004195,0.00001965,0.00006216,0.00003311
 ,-0.00003188,-0.00001344,-0.00000195,-0.00001932,-0.00005724,0.0006957
 0,-0.00006106,-0.00035300,-0.00238628,-0.00016048,-0.00172514,-0.00075
 723,0.00044203,0.00014029,0.00007663,-0.00014392,0.00001124,-0.0000203
 1,-0.00012485,0.00000485,0.00000758,0.00002682,-0.00003003,0.00007982,
 -0.00003807,0.00001555,-0.00002286,0.00000899,0.00001780,-0.00007362,0
 .00004494,-0.08666783,-0.08989570,-0.12747165,0.07659042,-0.00005300,0
 .00000059,0.00004188,0.00050298,0.00040058,0.00086286,0.00017945,-0.00
 009276,-0.00004645,-0.00035365,0.00003831,0.00007282,-0.00007612,0.000
 08323,0.00001840,-0.00020901,0.00039601,-0.00030600,0.00000654,0.00005
 981,-0.00009152,0.00005661,-0.00012513,0.00002644,-0.00046775,-0.00028
 413,-0.00002185,0.00002509,-0.00001718,-0.00002274,0.00003168,-0.00000
 660,0.00000041,-0.00015780,-0.00000971,0.00006479,0.00000058,-0.000019
 98,0.00000061,-0.00002800,0.00004292,-0.00002224,0.00009011,-0.0000581
 6,-0.00018339,-0.00002343,-0.00007129,0.00004776,0.00013953,-0.0000482
 1,-0.00000403,-0.00001088,0.00000204,-0.00000337,-0.00015597,-0.002573
 69,0.00131688,0.00005677,0.00453011,-0.00028227,0.00005238,-0.00024752
 ,0.00061246,-0.00004809,0.00006781,-0.00013237,0.00003183,-0.00007991,
 -0.00003875,-0.00001068,0.00003782,0.00000300,0.00004354,0.00006062,-0
 .00008168,-0.00000213,-0.00001638,0.00001705,-0.00002550,-0.00001958,0
 .00003503,-0.05637769,-0.15933950,-0.21986811,0.06656213,0.16506498,0.
 00012421,0.00000219,-0.00014683,-0.00009931,-0.00040535,-0.00094172,-0
 .00025385,-0.00012566,0.00010315,0.00035613,0.00052099,0.00001357,0.00
 014139,0.00000017,-0.00000060,0.00013870,0.00008347,-0.00016928,-0.000
 00947,-0.00014031,0.00010733,-0.00004072,0.00004183,0.00009056,0.00051
 402,0.00053389,0.00013984,-0.00005616,-0.00001956,0.00003239,-0.000018
 32,0.00001572,0.00001184,0.00020483,0.00005958,-0.00004146,-0.00002427
 ,-0.00002367,0.00001704,0.00003433,0.00001676,0.00007782,-0.00001523,-
 0.00027669,0.00007849,0.00000954,0.00013476,-0.00006955,-0.00021724,-0
 .00002267,-0.00006758,0.00003120,0.00001820,0.00003472,-0.00014408,0.0
 0110999,0.00069811,-0.00097504,-0.00254165,-0.00295575,0.00038713,0.00
 044280,0.00025779,-0.00003352,-0.00009023,0.00027613,-0.00009551,0.000
 04208,0.00015711,-0.00000461,-0.00003324,-0.00001278,-0.00004039,-0.00
 016464,0.00012147,-0.00000531,0.00004530,-0.00003207,0.00002176,0.0001
 1007,-0.00007382,-0.07767824,-0.21337692,-0.30763201,0.09195830,0.2270
 4619,0.32711482,-0.00074263,0.00123749,-0.00062745,0.00443465,0.000303
 83,-0.00111290,-0.00095520,0.00025644,0.00015682,0.00037610,-0.0003284
 6,-0.00000398,0.00071106,-0.00077171,-0.00013824,0.00366577,-0.0061064
 4,0.00383841,-0.00006110,0.00004529,-0.00008505,-0.00007777,0.00077344
 ,-0.00127164,-0.00009811,-0.00010265,-0.00009636,0.00003699,0.00026832
 ,-0.00006443,-0.00045272,-0.00008494,0.00001782,-0.00016729,-0.0000442
 5,-0.00009609,0.00007357,0.00011947,0.00002088,0.00004385,-0.00015515,
 -0.00004562,-0.00046657,0.00053815,0.00009087,0.00009328,0.00001396,0.
 00004815,0.00010583,0.00017721,0.00012038,-0.00007192,-0.00002754,-0.0
 0007374,-0.00245200,-0.00307321,0.00351992,-0.00302141,0.00572333,-0.0
 0533100,-0.00758135,0.00432716,-0.00215012,0.00072989,0.00158865,-0.00
 168086,0.00039016,0.00026771,-0.00071444,0.00010829,-0.00006927,-0.000
 00308,-0.00009944,0.00013866,-0.00005150,0.00004137,-0.00003464,0.0000
 0933,0.00006114,-0.00016538,0.00008954,-0.35153276,0.09297351,0.177907
 23,0.01200400,-0.00977953,-0.01421027,0.34490430,0.00005711,-0.0004635
 3,0.00064347,-0.00131722,-0.00040084,0.00208085,0.00061694,0.00018335,
 -0.00025375,-0.00051832,-0.00078958,0.00000834,-0.00043273,0.00022155,
 0.00007557,-0.00253467,0.00122976,-0.00001965,0.00002188,0.00020881,-0
 .00014539,0.00007008,-0.00005418,-0.00001933,-0.00027915,-0.00074054,-
 0.00042727,0.00006972,-0.00005803,-0.00004568,0.00014503,0.00001152,-0
 .00001669,-0.00027911,-0.00008467,0.00014552,0.00002504,0.00000186,-0.
 00004560,-0.00003353,0.00000377,-0.00011243,0.00006179,0.00034522,-0.0
 0011834,-0.00002741,-0.00017539,0.00011176,0.00030125,-0.00003528,0.00
 002242,-0.00002509,-0.00000597,-0.00002186,-0.00006103,0.00118959,-0.0
 0195846,0.00575405,-0.00319472,0.00326156,-0.00004705,-0.00937749,0.00
 328578,0.00324176,0.00097438,-0.00313798,0.00002730,-0.00022328,-0.000
 10354,-0.00001432,0.00009262,0.00003336,0.00006658,0.00020302,-0.00016
 732,0.00000223,-0.00005555,0.00004596,-0.00003532,-0.00012765,0.000096
 33,0.05740107,-0.04406314,-0.05808864,0.02575255,-0.00777510,-0.013003
 37,-0.08800944,0.06295948,0.00050293,-0.00093886,0.00045553,-0.0008501
 4,0.00174147,0.00094886,0.00026762,-0.00054722,-0.00000744,-0.00002640
 ,0.00081035,-0.00028987,-0.00030178,0.00065520,0.00030951,-0.00112881,
 0.00514411,-0.00622172,0.00002052,-0.00004622,0.00001978,0.00019132,-0
 .00038492,0.00044474,-0.00020158,-0.00008191,-0.00011723,-0.00011876,-
 0.00030036,0.00005196,0.00034770,0.00008456,0.00005894,0.00022277,0.00
 002358,0.00031443,-0.00006193,-0.00010588,-0.00006689,0.00002969,0.000
 12048,0.00010217,0.00034690,-0.00098765,-0.00004891,-0.00005363,0.0001
 1422,-0.00013272,-0.00032284,-0.00017061,-0.00030760,0.00010296,0.0000
 6172,0.00009651,0.00217178,-0.00091656,-0.00285234,-0.00486892,0.00229
 336,0.00524890,-0.00153359,-0.00221883,0.00014608,0.00011151,-0.001847
 60,0.00133014,-0.00049482,-0.00027742,0.00072232,-0.00008814,0.0000204
 8,0.00003354,0.00003115,-0.00030060,0.00015338,-0.00003392,0.00008311,
 -0.00004210,-0.00002446,0.00027137,-0.00013939,0.12857376,-0.06111195,
 -0.12145801,0.03525170,-0.00906178,-0.01718873,-0.15806257,0.06787440,
 0.13843617\\0.00003536,-0.00005332,0.00009549,-0.00027966,-0.00132851,
 -0.00163304,-0.00060688,-0.00291095,-0.00351227,0.00058605,0.00266940,
 0.00334491,0.00029893,0.00159484,0.00182465,-0.00003506,0.00004140,-0.
 00014912,-0.00000302,0.00000316,-0.00000123,-0.00000223,-0.00000166,0.
 00000777,0.00000303,-0.00000389,0.00000340,-0.00000648,-0.00000544,-0.
 00000501,-0.00000241,0.00000098,0.00000544,-0.00000884,-0.00000601,-0.
 00000505,0.00000180,-0.00000063,-0.00000187,-0.00000825,0.00000549,-0.
 00000157,-0.00001811,0.00001959,0.00001636,0.00000988,-0.00004018,0.00
 000673,0.00000671,-0.00000088,-0.00000792,0.00000274,0.00000463,0.0000
 0724,0.00000608,0.00001070,0.00000365,-0.00000318,-0.00003951,-0.00000
 087,-0.00000072,0.00000942,0.00004839,-0.00000167,-0.00000047,0.000001
 41,0.00000516,-0.00000154,0.00001351,-0.00000231,0.00000219,0.00000099
 ,0.00000148,0.00000601,0.00000869,-0.00000328,-0.00000340,-0.00001157,
 0.00001825,0.00001212,-0.00003832,0.00000645,0.00007363,0.00000624,0.0
 0000323,-0.00000815,-0.00000039,-0.00000307,-0.00004905,-0.00002667\\\
 @


 I WANT TO KNOW HOW GOD CREATED THE WORLD.  I AM NOT INTERESTED IN
 THIS OR THAT PHENOMENON, IN THE SPECTRUM OF THIS OR THAT ELEMENT.
 I WANT TO KNOW HIS THOUGHTS, THE REST ARE DETAILS.
     -- ALBERT EINSTEIN
 Job cpu time:       0 days  1 hours  4 minutes 11.4 seconds.
 File lengths (MBytes):  RWF=    334 Int=      0 D2E=      0 Chk=      7 Scr=      2
 Normal termination of Gaussian 09 at Wed Jan 25 21:42:37 2017.
