 Entering Gaussian System, Link 0=g09
 Initial command:
 /global/software/gaussian/g09.e01/l1.exe "/scratch/10462967.yak.local/Gau-25172.inp" -scrdir="/scratch/10462967.yak.local/"
 Entering Link 1 = /global/software/gaussian/g09.e01/l1.exe PID=     25173.
  
 Copyright (c) 1988,1990,1992,1993,1995,1998,2003,2009,2015,
            Gaussian, Inc.  All Rights Reserved.
  
 This is part of the Gaussian(R) 09 program.  It is based on
 the Gaussian(R) 03 system (copyright 2003, Gaussian, Inc.),
 the Gaussian(R) 98 system (copyright 1998, Gaussian, Inc.),
 the Gaussian(R) 94 system (copyright 1995, Gaussian, Inc.),
 the Gaussian 92(TM) system (copyright 1992, Gaussian, Inc.),
 the Gaussian 90(TM) system (copyright 1990, Gaussian, Inc.),
 the Gaussian 88(TM) system (copyright 1988, Gaussian, Inc.),
 the Gaussian 86(TM) system (copyright 1986, Carnegie Mellon
 University), and the Gaussian 82(TM) system (copyright 1983,
 Carnegie Mellon University). Gaussian is a federally registered
 trademark of Gaussian, Inc.
  
 This software contains proprietary and confidential information,
 including trade secrets, belonging to Gaussian, Inc.
  
 This software is provided under written license and may be
 used, copied, transmitted, or stored only in accord with that
 written license.
  
 The following legend is applicable only to US Government
 contracts under FAR:
  
                    RESTRICTED RIGHTS LEGEND
  
 Use, reproduction and disclosure by the US Government is
 subject to restrictions as set forth in subparagraphs (a)
 and (c) of the Commercial Computer Software - Restricted
 Rights clause in FAR 52.227-19.
  
 Gaussian, Inc.
 340 Quinnipiac St., Bldg. 40, Wallingford CT 06492
  
  
 ---------------------------------------------------------------
 Warning -- This program may not be used in any manner that
 competes with the business of Gaussian, Inc. or will provide
 assistance to any competitor of Gaussian, Inc.  The licensee
 of this program is prohibited from giving any competitor of
 Gaussian, Inc. access to this program.  By using this program,
 the user acknowledges that Gaussian, Inc. is engaged in the
 business of creating and licensing software in the field of
 computational chemistry and represents and warrants to the
 licensee that it is not a competitor of Gaussian, Inc. and that
 it will not use this program in any manner prohibited above.
 ---------------------------------------------------------------
  

 Cite this work as:
 Gaussian 09, Revision E.01,
 M. J. Frisch, G. W. Trucks, H. B. Schlegel, G. E. Scuseria, 
 M. A. Robb, J. R. Cheeseman, G. Scalmani, V. Barone, B. Mennucci, 
 G. A. Petersson, H. Nakatsuji, M. Caricato, X. Li, H. P. Hratchian, 
 A. F. Izmaylov, J. Bloino, G. Zheng, J. L. Sonnenberg, M. Hada, 
 M. Ehara, K. Toyota, R. Fukuda, J. Hasegawa, M. Ishida, T. Nakajima, 
 Y. Honda, O. Kitao, H. Nakai, T. Vreven, J. A. Montgomery, Jr., 
 J. E. Peralta, F. Ogliaro, M. Bearpark, J. J. Heyd, E. Brothers, 
 K. N. Kudin, V. N. Staroverov, T. Keith, R. Kobayashi, J. Normand, 
 K. Raghavachari, A. Rendell, J. C. Burant, S. S. Iyengar, J. Tomasi, 
 M. Cossi, N. Rega, J. M. Millam, M. Klene, J. E. Knox, J. B. Cross, 
 V. Bakken, C. Adamo, J. Jaramillo, R. Gomperts, R. E. Stratmann, 
 O. Yazyev, A. J. Austin, R. Cammi, C. Pomelli, J. W. Ochterski, 
 R. L. Martin, K. Morokuma, V. G. Zakrzewski, G. A. Voth, 
 P. Salvador, J. J. Dannenberg, S. Dapprich, A. D. Daniels, 
 O. Farkas, J. B. Foresman, J. V. Ortiz, J. Cioslowski, 
 and D. J. Fox, Gaussian, Inc., Wallingford CT, 2013.
 
 ******************************************
 Gaussian 09:  ES64L-G09RevE.01 30-Nov-2015
                15-Jan-2017 
 ******************************************
 %NPROCS=4
 Will use up to    4 processors via shared memory.
 -----------------------------------------
 # opt=(MaxCycle=1000) freq B3LYP/6-31G(d)
 -----------------------------------------
 1/6=1000,14=-1,18=20,19=15,26=3,38=1/1,3;
 2/9=110,12=2,17=6,18=5,40=1/2;
 3/5=1,6=6,7=1,11=2,16=1,25=1,30=1,71=1,74=-5/1,2,3;
 4//1;
 5/5=2,38=5/2;
 6/7=2,8=2,9=2,10=2,28=1/1;
 7//1,2,3,16;
 1/6=1000,14=-1,18=20,19=15,26=3/3(2);
 2/9=110/2;
 99//99;
 2/9=110/2;
 3/5=1,6=6,7=1,11=2,16=1,25=1,30=1,71=1,74=-5/1,2,3;
 4/5=5,16=3,69=1/1;
 5/5=2,38=5/2;
 7//1,2,3,16;
 1/6=1000,14=-1,18=20,19=15,26=3/3(-5);
 2/9=110/2;
 6/7=2,8=2,9=2,10=2,19=2,28=1/1;
 99/9=1/99;
 -------------------------------------------------
 ./chairs/1/glo_1w_beta_ircr_chair_B3LYP_631Gd.out
 -------------------------------------------------
 Symbolic Z-matrix:
 Charge =  0 Multiplicity = 1
 C                    -0.02078   1.64355  -0.95902 
 O                     0.17791   1.61287   0.48947 
 H                     3.42267   1.39121  -0.10634 
 O                     0.63696   2.73669  -1.46092 
 H                     1.59554   2.62908  -1.27263 
 O                     2.94387   2.22278   0.03015 
 H                     2.15942   1.97693   0.558 
 C                     0.45305   0.29037  -1.50165 
 C                    -0.30544  -0.86409  -0.83684 
 C                    -0.19763  -0.79531   0.68943 
 C                    -0.58734   0.62006   1.1643 
 C                    -0.33176   0.85742   2.6522 
 O                    -1.08573  -0.10887   3.3945 
 O                     0.25939   0.24566  -2.89775 
 O                     0.22978  -2.05241  -1.39088 
 O                    -1.0684   -1.77652   1.25809 
 H                    -1.09036   1.7852   -1.16241 
 H                     1.52446   0.19164  -1.24982 
 H                     0.33113  -0.7001   -3.12156 
 H                    -0.41668  -2.78176  -1.23353 
 H                    -1.16924  -1.55408   2.20448 
 H                     0.84626  -0.99978   0.97913 
 H                    -1.6601    0.76526   0.95916 
 H                    -0.63451   1.87982   2.91135 
 H                     0.74515   0.75397   2.85193 
 H                    -0.85501  -0.03169   4.33203 
 O                    -1.58286  -3.89409  -0.4395 
 H                    -1.0393   -4.63823  -0.13814 
 H                    -1.37214  -0.76338  -1.09829 
 H                    -1.58053  -3.26956   0.31873 
 
 Add virtual bond connecting atoms O27        and H20        Dist= 3.40D+00.
 Add virtual bond connecting atoms H30        and O16        Dist= 3.47D+00.
 Add virtual bond connecting atoms O6         and H5         Dist= 3.63D+00.
 Add virtual bond connecting atoms H7         and O2         Dist= 3.81D+00.
 Add virtual bond connecting atoms H7         and H5         Dist= 3.82D+00.

 GradGradGradGradGradGradGradGradGradGradGradGradGradGradGradGradGradGrad
 Berny optimization.
 Initialization pass.
                           ----------------------------
                           !    Initial Parameters    !
                           ! (Angstroms and Degrees)  !
 --------------------------                            --------------------------
 ! Name  Definition              Value          Derivative Info.                !
 --------------------------------------------------------------------------------
 ! R1    R(1,2)                  1.4624         estimate D2E/DX2                !
 ! R2    R(1,4)                  1.3709         estimate D2E/DX2                !
 ! R3    R(1,8)                  1.533          estimate D2E/DX2                !
 ! R4    R(1,17)                 1.0979         estimate D2E/DX2                !
 ! R5    R(2,7)                  2.0158         estimate D2E/DX2                !
 ! R6    R(2,11)                 1.4236         estimate D2E/DX2                !
 ! R7    R(3,6)                  0.9692         estimate D2E/DX2                !
 ! R8    R(4,5)                  0.9828         estimate D2E/DX2                !
 ! R9    R(5,6)                  1.9184         estimate D2E/DX2                !
 ! R10   R(5,7)                  2.0235         estimate D2E/DX2                !
 ! R11   R(6,7)                  0.9769         estimate D2E/DX2                !
 ! R12   R(8,9)                  1.533          estimate D2E/DX2                !
 ! R13   R(8,14)                 1.4102         estimate D2E/DX2                !
 ! R14   R(8,18)                 1.105          estimate D2E/DX2                !
 ! R15   R(9,10)                 1.5316         estimate D2E/DX2                !
 ! R16   R(9,15)                 1.4162         estimate D2E/DX2                !
 ! R17   R(9,29)                 1.1029         estimate D2E/DX2                !
 ! R18   R(10,11)                1.5429         estimate D2E/DX2                !
 ! R19   R(10,16)                1.4298         estimate D2E/DX2                !
 ! R20   R(10,22)                1.1025         estimate D2E/DX2                !
 ! R21   R(11,12)                1.5282         estimate D2E/DX2                !
 ! R22   R(11,23)                1.1018         estimate D2E/DX2                !
 ! R23   R(12,13)                1.4329         estimate D2E/DX2                !
 ! R24   R(12,24)                1.0973         estimate D2E/DX2                !
 ! R25   R(12,25)                1.1001         estimate D2E/DX2                !
 ! R26   R(13,26)                0.9686         estimate D2E/DX2                !
 ! R27   R(14,19)                0.9745         estimate D2E/DX2                !
 ! R28   R(15,20)                0.9872         estimate D2E/DX2                !
 ! R29   R(16,21)                0.9774         estimate D2E/DX2                !
 ! R30   R(16,30)                1.8368         estimate D2E/DX2                !
 ! R31   R(20,27)                1.7966         estimate D2E/DX2                !
 ! R32   R(27,28)                0.9695         estimate D2E/DX2                !
 ! R33   R(27,30)                0.9823         estimate D2E/DX2                !
 ! A1    A(2,1,4)              108.3104         estimate D2E/DX2                !
 ! A2    A(2,1,8)              106.8635         estimate D2E/DX2                !
 ! A3    A(2,1,17)             108.5758         estimate D2E/DX2                !
 ! A4    A(4,1,8)              115.2114         estimate D2E/DX2                !
 ! A5    A(4,1,17)             107.2592         estimate D2E/DX2                !
 ! A6    A(8,1,17)             110.4519         estimate D2E/DX2                !
 ! A7    A(1,2,7)               99.4065         estimate D2E/DX2                !
 ! A8    A(1,2,11)             114.2753         estimate D2E/DX2                !
 ! A9    A(7,2,11)             129.6591         estimate D2E/DX2                !
 ! A10   A(1,4,5)              108.0895         estimate D2E/DX2                !
 ! A11   A(4,5,6)              147.014          estimate D2E/DX2                !
 ! A12   A(4,5,7)              118.7124         estimate D2E/DX2                !
 ! A13   A(3,6,5)              115.6761         estimate D2E/DX2                !
 ! A14   A(3,6,7)              104.8828         estimate D2E/DX2                !
 ! A15   A(2,7,5)               75.7311         estimate D2E/DX2                !
 ! A16   A(2,7,6)              144.7224         estimate D2E/DX2                !
 ! A17   A(1,8,9)              110.9965         estimate D2E/DX2                !
 ! A18   A(1,8,14)             109.6318         estimate D2E/DX2                !
 ! A19   A(1,8,18)             107.3306         estimate D2E/DX2                !
 ! A20   A(9,8,14)             109.7256         estimate D2E/DX2                !
 ! A21   A(9,8,18)             108.277          estimate D2E/DX2                !
 ! A22   A(14,8,18)            110.851          estimate D2E/DX2                !
 ! A23   A(8,9,10)             111.3159         estimate D2E/DX2                !
 ! A24   A(8,9,15)             105.9774         estimate D2E/DX2                !
 ! A25   A(8,9,29)             107.8769         estimate D2E/DX2                !
 ! A26   A(10,9,15)            113.6369         estimate D2E/DX2                !
 ! A27   A(10,9,29)            107.4704         estimate D2E/DX2                !
 ! A28   A(15,9,29)            110.4516         estimate D2E/DX2                !
 ! A29   A(9,10,11)            109.2755         estimate D2E/DX2                !
 ! A30   A(9,10,16)            108.8227         estimate D2E/DX2                !
 ! A31   A(9,10,22)            108.6736         estimate D2E/DX2                !
 ! A32   A(11,10,16)           110.6883         estimate D2E/DX2                !
 ! A33   A(11,10,22)           109.1725         estimate D2E/DX2                !
 ! A34   A(16,10,22)           110.1734         estimate D2E/DX2                !
 ! A35   A(2,11,10)            110.9816         estimate D2E/DX2                !
 ! A36   A(2,11,12)            105.2661         estimate D2E/DX2                !
 ! A37   A(2,11,23)            110.0725         estimate D2E/DX2                !
 ! A38   A(10,11,12)           113.5708         estimate D2E/DX2                !
 ! A39   A(10,11,23)           108.0293         estimate D2E/DX2                !
 ! A40   A(12,11,23)           108.8827         estimate D2E/DX2                !
 ! A41   A(11,12,13)           108.1575         estimate D2E/DX2                !
 ! A42   A(11,12,24)           109.1779         estimate D2E/DX2                !
 ! A43   A(11,12,25)           109.0175         estimate D2E/DX2                !
 ! A44   A(13,12,24)           111.1493         estimate D2E/DX2                !
 ! A45   A(13,12,25)           110.9534         estimate D2E/DX2                !
 ! A46   A(24,12,25)           108.3492         estimate D2E/DX2                !
 ! A47   A(12,13,26)           108.8056         estimate D2E/DX2                !
 ! A48   A(8,14,19)            104.3608         estimate D2E/DX2                !
 ! A49   A(9,15,20)            108.0644         estimate D2E/DX2                !
 ! A50   A(10,16,21)           106.9628         estimate D2E/DX2                !
 ! A51   A(10,16,30)           121.6157         estimate D2E/DX2                !
 ! A52   A(21,16,30)           130.6482         estimate D2E/DX2                !
 ! A53   A(15,20,27)           162.345          estimate D2E/DX2                !
 ! A54   A(20,27,28)           104.398          estimate D2E/DX2                !
 ! A55   A(20,27,30)            86.9031         estimate D2E/DX2                !
 ! A56   A(28,27,30)           104.2831         estimate D2E/DX2                !
 ! A57   A(16,30,27)           155.8098         estimate D2E/DX2                !
 ! D1    D(4,1,2,7)            -45.6685         estimate D2E/DX2                !
 ! D2    D(4,1,2,11)           172.668          estimate D2E/DX2                !
 ! D3    D(8,1,2,7)             79.0223         estimate D2E/DX2                !
 ! D4    D(8,1,2,11)           -62.6411         estimate D2E/DX2                !
 ! D5    D(17,1,2,7)          -161.8301         estimate D2E/DX2                !
 ! D6    D(17,1,2,11)           56.5064         estimate D2E/DX2                !
 ! D7    D(2,1,4,5)             62.1108         estimate D2E/DX2                !
 ! D8    D(8,1,4,5)            -57.4624         estimate D2E/DX2                !
 ! D9    D(17,1,4,5)           179.123          estimate D2E/DX2                !
 ! D10   D(2,1,8,9)             57.3466         estimate D2E/DX2                !
 ! D11   D(2,1,8,14)           178.7281         estimate D2E/DX2                !
 ! D12   D(2,1,8,18)           -60.7951         estimate D2E/DX2                !
 ! D13   D(4,1,8,9)            177.7152         estimate D2E/DX2                !
 ! D14   D(4,1,8,14)           -60.9034         estimate D2E/DX2                !
 ! D15   D(4,1,8,18)            59.5735         estimate D2E/DX2                !
 ! D16   D(17,1,8,9)           -60.5781         estimate D2E/DX2                !
 ! D17   D(17,1,8,14)           60.8033         estimate D2E/DX2                !
 ! D18   D(17,1,8,18)         -178.7198         estimate D2E/DX2                !
 ! D19   D(1,2,7,5)             19.6488         estimate D2E/DX2                !
 ! D20   D(1,2,7,6)              7.5886         estimate D2E/DX2                !
 ! D21   D(11,2,7,5)           152.3864         estimate D2E/DX2                !
 ! D22   D(11,2,7,6)           140.3262         estimate D2E/DX2                !
 ! D23   D(1,2,11,10)           62.0831         estimate D2E/DX2                !
 ! D24   D(1,2,11,12)         -174.6451         estimate D2E/DX2                !
 ! D25   D(1,2,11,23)          -57.4582         estimate D2E/DX2                !
 ! D26   D(7,2,11,10)          -65.2734         estimate D2E/DX2                !
 ! D27   D(7,2,11,12)           57.9984         estimate D2E/DX2                !
 ! D28   D(7,2,11,23)          175.1853         estimate D2E/DX2                !
 ! D29   D(1,4,5,6)            -48.8222         estimate D2E/DX2                !
 ! D30   D(1,4,5,7)            -43.6074         estimate D2E/DX2                !
 ! D31   D(4,5,6,3)            112.1942         estimate D2E/DX2                !
 ! D32   D(7,5,6,3)            102.5896         estimate D2E/DX2                !
 ! D33   D(4,5,7,2)             13.3349         estimate D2E/DX2                !
 ! D34   D(3,6,7,2)           -102.0134         estimate D2E/DX2                !
 ! D35   D(1,8,9,10)           -54.8386         estimate D2E/DX2                !
 ! D36   D(1,8,9,15)          -178.8527         estimate D2E/DX2                !
 ! D37   D(1,8,9,29)            62.837          estimate D2E/DX2                !
 ! D38   D(14,8,9,10)         -176.165          estimate D2E/DX2                !
 ! D39   D(14,8,9,15)           59.8209         estimate D2E/DX2                !
 ! D40   D(14,8,9,29)          -58.4894         estimate D2E/DX2                !
 ! D41   D(18,8,9,10)           62.7279         estimate D2E/DX2                !
 ! D42   D(18,8,9,15)          -61.2861         estimate D2E/DX2                !
 ! D43   D(18,8,9,29)         -179.5965         estimate D2E/DX2                !
 ! D44   D(1,8,14,19)         -164.0622         estimate D2E/DX2                !
 ! D45   D(9,8,14,19)          -41.9189         estimate D2E/DX2                !
 ! D46   D(18,8,14,19)          77.6241         estimate D2E/DX2                !
 ! D47   D(8,9,10,11)           51.0863         estimate D2E/DX2                !
 ! D48   D(8,9,10,16)          172.0583         estimate D2E/DX2                !
 ! D49   D(8,9,10,22)          -67.9552         estimate D2E/DX2                !
 ! D50   D(15,9,10,11)         170.6443         estimate D2E/DX2                !
 ! D51   D(15,9,10,16)         -68.3837         estimate D2E/DX2                !
 ! D52   D(15,9,10,22)          51.6028         estimate D2E/DX2                !
 ! D53   D(29,9,10,11)         -66.835          estimate D2E/DX2                !
 ! D54   D(29,9,10,16)          54.137          estimate D2E/DX2                !
 ! D55   D(29,9,10,22)         174.1235         estimate D2E/DX2                !
 ! D56   D(8,9,15,20)         -160.9872         estimate D2E/DX2                !
 ! D57   D(10,9,15,20)          76.4617         estimate D2E/DX2                !
 ! D58   D(29,9,15,20)         -44.3997         estimate D2E/DX2                !
 ! D59   D(9,10,11,2)          -53.7286         estimate D2E/DX2                !
 ! D60   D(9,10,11,12)        -172.0868         estimate D2E/DX2                !
 ! D61   D(9,10,11,23)          67.0274         estimate D2E/DX2                !
 ! D62   D(16,10,11,2)        -173.5585         estimate D2E/DX2                !
 ! D63   D(16,10,11,12)         68.0834         estimate D2E/DX2                !
 ! D64   D(16,10,11,23)        -52.8024         estimate D2E/DX2                !
 ! D65   D(22,10,11,2)          65.0029         estimate D2E/DX2                !
 ! D66   D(22,10,11,12)        -53.3553         estimate D2E/DX2                !
 ! D67   D(22,10,11,23)       -174.2411         estimate D2E/DX2                !
 ! D68   D(9,10,16,21)        -164.8128         estimate D2E/DX2                !
 ! D69   D(9,10,16,30)          24.2554         estimate D2E/DX2                !
 ! D70   D(11,10,16,21)        -44.7117         estimate D2E/DX2                !
 ! D71   D(11,10,16,30)        144.3564         estimate D2E/DX2                !
 ! D72   D(22,10,16,21)         76.1347         estimate D2E/DX2                !
 ! D73   D(22,10,16,30)        -94.7971         estimate D2E/DX2                !
 ! D74   D(2,11,12,13)         179.5756         estimate D2E/DX2                !
 ! D75   D(2,11,12,24)          58.5056         estimate D2E/DX2                !
 ! D76   D(2,11,12,25)         -59.6862         estimate D2E/DX2                !
 ! D77   D(10,11,12,13)        -58.8216         estimate D2E/DX2                !
 ! D78   D(10,11,12,24)       -179.8916         estimate D2E/DX2                !
 ! D79   D(10,11,12,25)         61.9166         estimate D2E/DX2                !
 ! D80   D(23,11,12,13)         61.5835         estimate D2E/DX2                !
 ! D81   D(23,11,12,24)        -59.4865         estimate D2E/DX2                !
 ! D82   D(23,11,12,25)       -177.6784         estimate D2E/DX2                !
 ! D83   D(11,12,13,26)        173.7593         estimate D2E/DX2                !
 ! D84   D(24,12,13,26)        -66.4019         estimate D2E/DX2                !
 ! D85   D(25,12,13,26)         54.2342         estimate D2E/DX2                !
 ! D86   D(9,15,20,27)         -47.6639         estimate D2E/DX2                !
 ! D87   D(10,16,30,27)          5.344          estimate D2E/DX2                !
 ! D88   D(21,16,30,27)       -163.1955         estimate D2E/DX2                !
 ! D89   D(15,20,27,28)        -92.4404         estimate D2E/DX2                !
 ! D90   D(15,20,27,30)         11.5167         estimate D2E/DX2                !
 ! D91   D(20,27,30,16)         -1.9292         estimate D2E/DX2                !
 ! D92   D(28,27,30,16)        102.1457         estimate D2E/DX2                !
 --------------------------------------------------------------------------------
 Trust Radius=3.00D-01 FncErr=1.00D-07 GrdErr=1.00D-06
 Number of steps in this run=    180 maximum allowed number of steps=    180.
 GradGradGradGradGradGradGradGradGradGradGradGradGradGradGradGradGradGrad

                          Input orientation:                          
 ---------------------------------------------------------------------
 Center     Atomic      Atomic             Coordinates (Angstroms)
 Number     Number       Type             X           Y           Z
 ---------------------------------------------------------------------
      1          6           0       -0.020780    1.643550   -0.959020
      2          8           0        0.177910    1.612870    0.489470
      3          1           0        3.422670    1.391210   -0.106340
      4          8           0        0.636960    2.736690   -1.460920
      5          1           0        1.595540    2.629080   -1.272630
      6          8           0        2.943870    2.222780    0.030150
      7          1           0        2.159420    1.976930    0.558000
      8          6           0        0.453050    0.290370   -1.501650
      9          6           0       -0.305440   -0.864090   -0.836840
     10          6           0       -0.197630   -0.795310    0.689430
     11          6           0       -0.587340    0.620060    1.164300
     12          6           0       -0.331760    0.857420    2.652200
     13          8           0       -1.085730   -0.108870    3.394500
     14          8           0        0.259390    0.245660   -2.897750
     15          8           0        0.229780   -2.052410   -1.390880
     16          8           0       -1.068400   -1.776520    1.258090
     17          1           0       -1.090360    1.785200   -1.162410
     18          1           0        1.524460    0.191640   -1.249820
     19          1           0        0.331130   -0.700100   -3.121560
     20          1           0       -0.416680   -2.781760   -1.233530
     21          1           0       -1.169240   -1.554080    2.204480
     22          1           0        0.846260   -0.999780    0.979130
     23          1           0       -1.660100    0.765260    0.959160
     24          1           0       -0.634510    1.879820    2.911350
     25          1           0        0.745150    0.753970    2.851930
     26          1           0       -0.855010   -0.031690    4.332030
     27          8           0       -1.582860   -3.894090   -0.439500
     28          1           0       -1.039300   -4.638230   -0.138140
     29          1           0       -1.372140   -0.763380   -1.098290
     30          1           0       -1.580530   -3.269560    0.318730
 ---------------------------------------------------------------------
                    Distance matrix (angstroms):
                    1          2          3          4          5
     1  C    0.000000
     2  O    1.462376   0.000000
     3  H    3.556415   3.306447   0.000000
     4  O    1.370941   2.297329   3.377186   0.000000
     5  H    1.918883   2.479386   2.496189   0.982807   0.000000
     6  O    3.178540   2.869408   0.969220   2.794499   1.918413
     7  H    2.676894   2.015842   1.542795   2.640295   2.023479
     8  C    1.532990   2.406090   3.460835   2.453561   2.612910
     9  C    2.526701   2.850975   4.418010   3.774018   4.000734
    10  C    2.949017   2.445474   4.303567   4.218480   4.334926
    11  C    2.424254   1.423613   4.276608   3.587592   3.839239
    12  C    3.708857   2.346885   4.689373   4.624698   4.717791
    13  O    4.812300   3.605603   5.901846   5.885574   6.038848
    14  O    2.406505   3.653650   4.371567   2.900391   3.179151
    15  O    3.729531   4.119792   4.868584   4.806889   4.878077
    16  O    4.208321   3.692158   5.662675   5.538080   5.736761
    17  H    1.097922   2.089716   4.651661   1.994511   2.817506
    18  H    2.140181   2.618821   2.519864   2.703609   2.438583
    19  H    3.208289   4.291019   4.798203   3.829201   4.012570
    20  H    4.451456   4.757630   5.781422   5.622735   5.773019
    21  H    4.642363   3.845211   5.924547   5.925219   6.101896
    22  H    3.390483   2.740876   3.678718   4.467534   4.335951
    23  H    2.671737   2.077819   5.230837   3.875540   4.365078
    24  H    3.925844   2.568422   5.079951   4.633315   4.800021
    25  H    3.987649   2.576953   4.040613   4.748006   4.609902
    26  H    5.612270   4.305435   6.326320   6.591523   6.670615
    27  O    5.777149   5.855758   7.287024   7.066693   7.303977
    28  H    6.416540   6.399355   7.500956   7.677828   7.813018
    29  H    2.763853   3.251185   5.349432   4.051972   4.510688
    30  H    5.310755   5.192243   6.850947   6.645258   6.885768
                    6          7          8          9         10
     6  O    0.000000
     7  H    0.976949   0.000000
     8  C    3.504968   3.162015   0.000000
     9  C    4.564916   4.011547   1.532990   0.000000
    10  C    4.405966   3.641191   2.530399   1.531618   0.000000
    11  C    4.040353   3.123041   2.880694   2.507335   1.542935
    12  C    4.412381   3.441650   4.265201   3.890718   2.569431
    13  O    5.743964   4.788245   5.147769   4.368461   2.928707
    14  O    4.437120   4.306927   1.410177   2.407889   3.763024
    15  O    5.259549   4.874138   2.356000   1.416166   2.467928
    16  O    5.796598   4.999733   3.768688   2.409018   1.429821
    17  H    4.229502   3.682070   2.175251   2.782235   3.299289
    18  H    2.789010   2.618902   1.105027   2.152592   2.774951
    19  H    5.030200   4.903906   1.902631   2.377406   3.848675
    20  H    6.159189   5.700088   3.204107   1.961427   2.773399
    21  H    5.992500   5.124344   4.446259   3.236026   1.953237
    22  H    3.960483   3.280631   2.823716   2.154663   1.102470
    23  H    4.917719   4.027134   3.278187   2.777679   2.155679
    24  H    4.606923   3.654276   4.814946   4.656851   3.504870
    25  H    3.867068   2.959376   4.387927   4.162797   2.822323
    26  H    6.166060   5.231123   5.987200   5.264232   3.779391
    27  O    7.624169   7.033388   4.773133   3.312187   3.577119
    28  H    7.935202   7.380838   5.327041   3.907795   4.020114
    29  H    5.368284   4.767023   2.145788   1.102881   2.139261
    30  H    7.121746   6.447490   4.485792   2.957614   2.858626
                   11         12         13         14         15
    11  C    0.000000
    12  C    1.528237   0.000000
    13  O    2.398650   1.432898   0.000000
    14  O    4.166219   5.614771   6.444179   0.000000
    15  O    3.786651   5.012877   5.329895   2.748210   0.000000
    16  O    2.446183   3.069824   2.710278   4.808663   2.962841
    17  H    2.650313   3.998437   4.934871   2.683918   4.064753
    18  H    3.235926   4.372022   5.336020   2.078219   2.594582
    19  H    4.577664   6.016776   6.694482   0.974525   2.198697
    20  H    4.165464   5.324447   5.386152   3.520223   0.987229
    21  H    2.479409   2.591748   1.873967   5.595784   3.890013
    22  H    2.171032   2.763347   3.218745   4.114090   2.665525
    23  H    1.101807   2.153919   2.650450   4.339376   4.127178
    24  H    2.154392   1.097323   2.095691   6.100424   5.892250
    25  H    2.154427   1.100150   2.095471   5.792509   5.113004
    26  H    3.245141   1.971328   0.968582   7.320419   6.165369
    27  O    4.892932   5.805231   5.410599   5.155037   2.753647
    28  H    5.436012   6.203933   5.744284   5.757988   3.141080
    29  H    2.765706   4.216107   4.549239   2.630230   2.076862
    30  H    4.102506   4.902701   4.437922   5.107624   2.771542
                   16         17         18         19         20
    16  O    0.000000
    17  H    4.306408   0.000000
    18  H    4.109281   3.063390   0.000000
    19  H    4.722150   3.469239   2.392206   0.000000
    20  H    2.764673   4.616928   3.550971   2.908124   0.000000
    21  H    0.977396   4.742674   4.715479   5.598848   3.727393
    22  H    2.084962   4.011584   2.616802   4.143769   3.109073
    23  H    2.626807   2.421970   3.917915   4.771221   4.351475
    24  H    4.036131   4.100277   4.982614   6.632077   6.241619
    25  H    3.497523   4.532930   4.212825   6.161843   5.526502
    26  H    3.541056   5.791835   6.071969   7.576919   6.223381
    27  O    2.762351   5.746259   5.196657   4.588941   1.796591
    28  H    3.184288   6.504782   5.579995   5.127157   2.243661
    29  H    2.582874   2.564912   3.053738   2.645516   2.237197
    30  H    1.836802   5.290051   4.907262   4.700230   2.000502
                   21         22         23         24         25
    21  H    0.000000
    22  H    2.423009   0.000000
    23  H    2.677892   3.065551   0.000000
    24  H    3.546445   3.770709   2.470855   0.000000
    25  H    3.067764   2.567731   3.060708   1.781721   0.000000
    26  H    2.634935   3.882455   3.558026   2.391824   2.316996
    27  O    3.554906   4.036108   4.865363   6.742818   6.152853
    28  H    3.875143   4.247581   5.548618   7.207511   6.418769
    29  H    3.402156   3.048419   2.579295   4.858788   4.731755
    30  H    2.582263   3.387822   4.086105   5.842324   5.292890
                   26         27         28         29         30
    26  H    0.000000
    27  O    6.181860   0.000000
    28  H    6.421573   0.969546   0.000000
    29  H    5.503741   3.206205   4.005887   0.000000
    30  H    5.207375   0.982322   1.541077   2.886574   0.000000
 Stoichiometry    C6H16O8
 Framework group  C1[X(C6H16O8)]
 Deg. of freedom    84
 Full point group                 C1      NOp   1
 Largest Abelian subgroup         C1      NOp   1
 Largest concise Abelian subgroup C1      NOp   1
                         Standard orientation:                         
 ---------------------------------------------------------------------
 Center     Atomic      Atomic             Coordinates (Angstroms)
 Number     Number       Type             X           Y           Z
 ---------------------------------------------------------------------
      1          6           0        1.659982   -0.410549   -0.897961
      2          8           0        1.358952    0.928550   -0.393246
      3          1           0        2.786801    0.020869    2.447520
      4          8           0        3.019114   -0.587292   -0.866322
      5          1           0        3.313181   -0.525506    0.069421
      6          8           0        3.247396    0.457949    1.715263
      7          1           0        2.549378    0.942824    1.233499
      8          6           0        0.853082   -1.398190   -0.047352
      9          6           0       -0.645094   -1.079069   -0.108071
     10          6           0       -0.921707    0.373097    0.292620
     11          6           0       -0.006494    1.309765   -0.523276
     12          6           0       -0.062377    2.767557   -0.068054
     13          8           0       -1.417015    3.219978   -0.184100
     14          8           0        1.078694   -2.712602   -0.505631
     15          8           0       -1.280299   -2.029554    0.727762
     16          8           0       -2.298225    0.666866    0.041051
     17          1           0        1.348639   -0.466217   -1.949341
     18          1           0        1.189781   -1.283176    0.998828
     19          1           0        0.358275   -3.234367   -0.107563
     20          1           0       -2.236329   -2.061453    0.483610
     21          1           0       -2.391752    1.639410    0.067778
     22          1           0       -0.697461    0.492084    1.365465
     23          1           0       -0.315797    1.253859   -1.579299
     24          1           0        0.610240    3.366875   -0.694570
     25          1           0        0.285887    2.831460    0.973559
     26          1           0       -1.482643    4.109326    0.193926
     27          8           0       -3.915375   -1.572430    0.072029
     28          1           0       -4.382099   -1.573972    0.921844
     29          1           0       -0.975547   -1.202914   -1.152969
     30          1           0       -3.570840   -0.656503   -0.013585
 ---------------------------------------------------------------------
 Rotational constants (GHZ):      0.6781971      0.5087348      0.3326330
 Standard basis: 6-31G(d) (6D, 7F)
 There are   242 symmetry adapted cartesian basis functions of A   symmetry.
 There are   242 symmetry adapted basis functions of A   symmetry.
   242 basis functions,   456 primitive gaussians,   242 cartesian basis functions
    58 alpha electrons       58 beta electrons
       nuclear repulsion energy      1094.6728432700 Hartrees.
 NAtoms=   30 NActive=   30 NUniq=   30 SFac= 1.00D+00 NAtFMM=   60 NAOKFM=F Big=F
 Integral buffers will be    131072 words long.
 Raffenetti 2 integral format.
 Two-electron integral symmetry is turned on.
 One-electron integrals computed using PRISM.
 NBasis=   242 RedAO= T EigKep=  1.86D-03  NBF=   242
 NBsUse=   242 1.00D-06 EigRej= -1.00D+00 NBFU=   242
 ExpMin= 1.61D-01 ExpMax= 5.48D+03 ExpMxC= 8.25D+02 IAcc=1 IRadAn=         1 AccDes= 0.00D+00
 Harris functional with IExCor=  402 and IRadAn=       1 diagonalized for initial guess.
 HarFok:  IExCor=  402 AccDes= 0.00D+00 IRadAn=         1 IDoV= 1 UseB2=F ITyADJ=14
 ICtDFT=  3500011 ScaDFX=  1.000000  1.000000  1.000000  1.000000
 FoFCou: FMM=F IPFlag=           0 FMFlag=      100000 FMFlg1=           0
         NFxFlg=           0 DoJE=T BraDBF=F KetDBF=T FulRan=T
         wScrn=  0.000000 ICntrl=     500 IOpCl=  0 I1Cent=   200000004 NGrid=           0
         NMat0=    1 NMatS0=      1 NMatT0=    0 NMatD0=    1 NMtDS0=    0 NMtDT0=    0
 Petite list used in FoFCou.
 Requested convergence on RMS density matrix=1.00D-08 within 128 cycles.
 Requested convergence on MAX density matrix=1.00D-06.
 Requested convergence on             energy=1.00D-06.
 No special actions if energy rises.
 Integral accuracy reduced to 1.0D-05 until final iterations.
 Initial convergence to 1.0D-05 achieved.  Increase integral accuracy.
 SCF Done:  E(RB3LYP) =  -840.003650152     A.U. after   14 cycles
            NFock= 14  Conv=0.30D-08     -V/T= 2.0085

 **********************************************************************

            Population analysis using the SCF density.

 **********************************************************************

 Orbital symmetries:
       Occupied  (A) (A) (A) (A) (A) (A) (A) (A) (A) (A) (A) (A)
                 (A) (A) (A) (A) (A) (A) (A) (A) (A) (A) (A) (A)
                 (A) (A) (A) (A) (A) (A) (A) (A) (A) (A) (A) (A)
                 (A) (A) (A) (A) (A) (A) (A) (A) (A) (A) (A) (A)
                 (A) (A) (A) (A) (A) (A) (A) (A) (A) (A)
       Virtual   (A) (A) (A) (A) (A) (A) (A) (A) (A) (A) (A) (A)
                 (A) (A) (A) (A) (A) (A) (A) (A) (A) (A) (A) (A)
                 (A) (A) (A) (A) (A) (A) (A) (A) (A) (A) (A) (A)
                 (A) (A) (A) (A) (A) (A) (A) (A) (A) (A) (A) (A)
                 (A) (A) (A) (A) (A) (A) (A) (A) (A) (A) (A) (A)
                 (A) (A) (A) (A) (A) (A) (A) (A) (A) (A) (A) (A)
                 (A) (A) (A) (A) (A) (A) (A) (A) (A) (A) (A) (A)
                 (A) (A) (A) (A) (A) (A) (A) (A) (A) (A) (A) (A)
                 (A) (A) (A) (A) (A) (A) (A) (A) (A) (A) (A) (A)
                 (A) (A) (A) (A) (A) (A) (A) (A) (A) (A) (A) (A)
                 (A) (A) (A) (A) (A) (A) (A) (A) (A) (A) (A) (A)
                 (A) (A) (A) (A) (A) (A) (A) (A) (A) (A) (A) (A)
                 (A) (A) (A) (A) (A) (A) (A) (A) (A) (A) (A) (A)
                 (A) (A) (A) (A) (A) (A) (A) (A) (A) (A) (A) (A)
                 (A) (A) (A) (A) (A) (A) (A) (A) (A) (A) (A) (A)
                 (A) (A) (A) (A)
 The electronic state is 1-A.
 Alpha  occ. eigenvalues --  -19.19315 -19.17366 -19.16586 -19.15687 -19.15175
 Alpha  occ. eigenvalues --  -19.13972 -19.13632 -19.13528 -10.28596 -10.26430
 Alpha  occ. eigenvalues --  -10.25996 -10.25033 -10.23833 -10.23350  -1.07576
 Alpha  occ. eigenvalues --   -1.06163  -1.04010  -1.02469  -1.01482  -1.00988
 Alpha  occ. eigenvalues --   -1.00619  -0.99477  -0.78985  -0.77303  -0.69893
 Alpha  occ. eigenvalues --   -0.64131  -0.62594  -0.59796  -0.56946  -0.55079
 Alpha  occ. eigenvalues --   -0.53483  -0.52840  -0.52459  -0.51776  -0.48837
 Alpha  occ. eigenvalues --   -0.48099  -0.47015  -0.45658  -0.45519  -0.43751
 Alpha  occ. eigenvalues --   -0.41374  -0.41174  -0.39372  -0.39162  -0.38318
 Alpha  occ. eigenvalues --   -0.37549  -0.36148  -0.34862  -0.34015  -0.32987
 Alpha  occ. eigenvalues --   -0.31423  -0.31150  -0.30545  -0.29712  -0.28435
 Alpha  occ. eigenvalues --   -0.26959  -0.26827  -0.25697
 Alpha virt. eigenvalues --    0.02563   0.04532   0.06717   0.08050   0.09865
 Alpha virt. eigenvalues --    0.11298   0.11440   0.12681   0.13968   0.14424
 Alpha virt. eigenvalues --    0.14861   0.16676   0.17303   0.18449   0.18818
 Alpha virt. eigenvalues --    0.19201   0.19575   0.20721   0.21771   0.22908
 Alpha virt. eigenvalues --    0.24723   0.24914   0.25817   0.27423   0.29702
 Alpha virt. eigenvalues --    0.30189   0.32215   0.34747   0.50545   0.53160
 Alpha virt. eigenvalues --    0.53734   0.54848   0.56890   0.58383   0.59250
 Alpha virt. eigenvalues --    0.60045   0.62318   0.62987   0.64668   0.67409
 Alpha virt. eigenvalues --    0.68647   0.70498   0.73434   0.74367   0.75339
 Alpha virt. eigenvalues --    0.76359   0.77249   0.78599   0.79682   0.80757
 Alpha virt. eigenvalues --    0.81806   0.82866   0.82966   0.84338   0.85159
 Alpha virt. eigenvalues --    0.85281   0.86462   0.87307   0.89004   0.89416
 Alpha virt. eigenvalues --    0.90213   0.90918   0.91373   0.93433   0.95678
 Alpha virt. eigenvalues --    0.96114   0.98809   0.99728   1.00867   1.03720
 Alpha virt. eigenvalues --    1.05288   1.05364   1.06622   1.07719   1.08657
 Alpha virt. eigenvalues --    1.09048   1.09658   1.13458   1.14988   1.17497
 Alpha virt. eigenvalues --    1.19306   1.21539   1.23076   1.24762   1.26252
 Alpha virt. eigenvalues --    1.28191   1.29786   1.32298   1.34000   1.36127
 Alpha virt. eigenvalues --    1.36711   1.41227   1.43815   1.45098   1.46228
 Alpha virt. eigenvalues --    1.51681   1.56498   1.57386   1.60375   1.60928
 Alpha virt. eigenvalues --    1.61906   1.64757   1.66920   1.69177   1.69383
 Alpha virt. eigenvalues --    1.71621   1.71929   1.72382   1.73391   1.73725
 Alpha virt. eigenvalues --    1.74709   1.76218   1.76838   1.78507   1.79374
 Alpha virt. eigenvalues --    1.81112   1.81851   1.82197   1.85030   1.87534
 Alpha virt. eigenvalues --    1.88061   1.92246   1.93182   1.94329   1.95751
 Alpha virt. eigenvalues --    1.99205   1.99839   2.01769   2.03064   2.03739
 Alpha virt. eigenvalues --    2.05735   2.09727   2.10377   2.12586   2.15232
 Alpha virt. eigenvalues --    2.16912   2.18389   2.19721   2.24415   2.26290
 Alpha virt. eigenvalues --    2.28634   2.29832   2.30911   2.32488   2.33493
 Alpha virt. eigenvalues --    2.40944   2.43136   2.45665   2.46314   2.47825
 Alpha virt. eigenvalues --    2.50130   2.53067   2.55812   2.56472   2.58199
 Alpha virt. eigenvalues --    2.58864   2.61777   2.64044   2.67083   2.68263
 Alpha virt. eigenvalues --    2.72164   2.76614   2.81087   2.84273   2.89526
 Alpha virt. eigenvalues --    2.95723   2.98199   3.00185   3.05955   3.09948
 Alpha virt. eigenvalues --    3.68852   3.73562   3.77019   3.83980   3.91127
 Alpha virt. eigenvalues --    3.96359   4.04679   4.16730   4.23466   4.35563
 Alpha virt. eigenvalues --    4.38821   4.54878   4.66032   4.67849
          Condensed to atoms (all electrons):
               1          2          3          4          5          6
     1  C    4.682350   0.146951  -0.000089   0.322100  -0.024772   0.007645
     2  O    0.146951   8.401871   0.000346  -0.049717   0.000395  -0.012923
     3  H   -0.000089   0.000346   0.374904   0.000922  -0.002732   0.240675
     4  O    0.322100  -0.049717   0.000922   8.226045   0.215922  -0.019555
     5  H   -0.024772   0.000395  -0.002732   0.215922   0.334530   0.056533
     6  O    0.007645  -0.012923   0.240675  -0.019555   0.056533   8.302406
     7  H   -0.003464   0.044838  -0.016332   0.004096  -0.008085   0.213924
     8  C    0.291707  -0.041633  -0.000146  -0.036499  -0.008729  -0.004666
     9  C   -0.020561  -0.005548  -0.000044   0.003353   0.000230   0.000106
    10  C   -0.012107  -0.033274  -0.000007  -0.000061  -0.000005  -0.000065
    11  C   -0.011456   0.179256   0.000004   0.002695  -0.000056   0.000603
    12  C    0.002772  -0.038638  -0.000011  -0.000101   0.000009  -0.000030
    13  O   -0.000028   0.001052   0.000000   0.000000  -0.000000   0.000000
    14  O   -0.037727   0.001376  -0.000021   0.001445   0.000346   0.000022
    15  O    0.002161  -0.000027  -0.000002  -0.000012  -0.000002   0.000000
    16  O    0.000147   0.001429  -0.000000   0.000000  -0.000000   0.000000
    17  H    0.370453  -0.040223   0.000022  -0.043980   0.006292  -0.000081
    18  H   -0.049411   0.000646   0.004273  -0.004434   0.005050   0.007985
    19  H    0.006337  -0.000117  -0.000001  -0.000136  -0.000036  -0.000000
    20  H   -0.000100   0.000003  -0.000000   0.000001   0.000000   0.000000
    21  H   -0.000018   0.000034   0.000000  -0.000000  -0.000000  -0.000000
    22  H    0.000446   0.003760   0.000144   0.000008  -0.000019  -0.000038
    23  H   -0.005126  -0.033912   0.000002   0.000011   0.000002  -0.000020
    24  H   -0.000137   0.004186  -0.000000  -0.000005   0.000001   0.000003
    25  H   -0.000103   0.002599   0.000030   0.000003  -0.000010  -0.000053
    26  H    0.000001  -0.000080  -0.000000  -0.000000   0.000000   0.000000
    27  O    0.000000   0.000000  -0.000000  -0.000000  -0.000000   0.000000
    28  H   -0.000000  -0.000000   0.000000   0.000000  -0.000000  -0.000000
    29  H   -0.004736   0.000157   0.000001  -0.000043   0.000006  -0.000002
    30  H   -0.000003  -0.000003   0.000000  -0.000000   0.000000  -0.000000
               7          8          9         10         11         12
     1  C   -0.003464   0.291707  -0.020561  -0.012107  -0.011456   0.002772
     2  O    0.044838  -0.041633  -0.005548  -0.033274   0.179256  -0.038638
     3  H   -0.016332  -0.000146  -0.000044  -0.000007   0.000004  -0.000011
     4  O    0.004096  -0.036499   0.003353  -0.000061   0.002695  -0.000101
     5  H   -0.008085  -0.008729   0.000230  -0.000005  -0.000056   0.000009
     6  O    0.213924  -0.004666   0.000106  -0.000065   0.000603  -0.000030
     7  H    0.352445   0.000088  -0.000342  -0.000092  -0.002364  -0.000624
     8  C    0.000088   5.054708   0.292293  -0.033015  -0.005243  -0.000043
     9  C   -0.000342   0.292293   5.026443   0.289067  -0.022745   0.003487
    10  C   -0.000092  -0.033015   0.289067   5.066369   0.266013  -0.029864
    11  C   -0.002364  -0.005243  -0.022745   0.266013   4.977352   0.359954
    12  C   -0.000624  -0.000043   0.003487  -0.029864   0.359954   4.907229
    13  O    0.000004   0.000006   0.000041   0.005874  -0.041694   0.211239
    14  O   -0.000007   0.232040  -0.029668   0.004180   0.000020   0.000000
    15  O    0.000000  -0.043327   0.226856  -0.043505   0.003536  -0.000047
    16  O    0.000001   0.002410  -0.035901   0.194724  -0.024419  -0.000951
    17  H    0.000675  -0.065358  -0.007996  -0.000277  -0.006011  -0.000147
    18  H    0.000917   0.312743  -0.049292  -0.003714   0.000747  -0.000067
    19  H    0.000000  -0.036612  -0.011408   0.001204  -0.000077   0.000001
    20  H   -0.000000   0.004351  -0.016221  -0.002700  -0.000056   0.000002
    21  H    0.000001  -0.000128   0.003867  -0.020388  -0.010494  -0.003361
    22  H    0.000715  -0.004143  -0.050623   0.340755  -0.051823  -0.009663
    23  H    0.000382  -0.001247  -0.009775  -0.063921   0.350573  -0.047587
    24  H   -0.000043   0.000021  -0.000093   0.005678  -0.034784   0.366936
    25  H    0.002006  -0.000021  -0.000115  -0.013275  -0.033742   0.354803
    26  H   -0.000001  -0.000000   0.000006  -0.000042   0.005432  -0.018166
    27  O   -0.000000   0.000034   0.003140   0.000082  -0.000006  -0.000000
    28  H    0.000000  -0.000002  -0.000262   0.000174   0.000002  -0.000000
    29  H    0.000005  -0.043251   0.341509  -0.054812  -0.004024  -0.000215
    30  H    0.000000   0.000076  -0.001527  -0.003509   0.000416  -0.000012
              13         14         15         16         17         18
     1  C   -0.000028  -0.037727   0.002161   0.000147   0.370453  -0.049411
     2  O    0.001052   0.001376  -0.000027   0.001429  -0.040223   0.000646
     3  H    0.000000  -0.000021  -0.000002  -0.000000   0.000022   0.004273
     4  O    0.000000   0.001445  -0.000012   0.000000  -0.043980  -0.004434
     5  H   -0.000000   0.000346  -0.000002  -0.000000   0.006292   0.005050
     6  O    0.000000   0.000022   0.000000   0.000000  -0.000081   0.007985
     7  H    0.000004  -0.000007   0.000000   0.000001   0.000675   0.000917
     8  C    0.000006   0.232040  -0.043327   0.002410  -0.065358   0.312743
     9  C    0.000041  -0.029668   0.226856  -0.035901  -0.007996  -0.049292
    10  C    0.005874   0.004180  -0.043505   0.194724  -0.000277  -0.003714
    11  C   -0.041694   0.000020   0.003536  -0.024419  -0.006011   0.000747
    12  C    0.211239   0.000000  -0.000047  -0.000951  -0.000147  -0.000067
    13  O    8.257821  -0.000000   0.000000  -0.019173   0.000002   0.000000
    14  O   -0.000000   8.275016  -0.009002  -0.000010   0.004313  -0.040140
    15  O    0.000000  -0.009002   8.381871   0.000696  -0.000120  -0.000978
    16  O   -0.019173  -0.000010   0.000696   8.344143   0.000014  -0.000072
    17  H    0.000002   0.004313  -0.000120   0.000014   0.616701   0.007001
    18  H    0.000000  -0.040140  -0.000978  -0.000072   0.007001   0.705973
    19  H    0.000000   0.233087   0.031120  -0.000011  -0.000393  -0.001094
    20  H    0.000000  -0.000055   0.198706   0.001871   0.000001  -0.000257
    21  H    0.050790   0.000001  -0.000095   0.223791   0.000006   0.000008
    22  H   -0.000032  -0.000057   0.001834  -0.040963   0.000164   0.005883
    23  H    0.003892   0.000012  -0.000040   0.006370   0.010257   0.000168
    24  H   -0.033422  -0.000000   0.000000  -0.000257  -0.000022   0.000003
    25  H   -0.035224   0.000000  -0.000001   0.000222   0.000018  -0.000021
    26  H    0.237743   0.000000  -0.000000   0.000760   0.000000  -0.000000
    27  O   -0.000000  -0.000000  -0.027657  -0.018852   0.000000   0.000000
    28  H    0.000000   0.000000   0.001932   0.000933   0.000000   0.000000
    29  H   -0.000004   0.001216  -0.039848   0.000378   0.006463   0.008021
    30  H    0.000016  -0.000001   0.005090   0.052167  -0.000001  -0.000001
              19         20         21         22         23         24
     1  C    0.006337  -0.000100  -0.000018   0.000446  -0.005126  -0.000137
     2  O   -0.000117   0.000003   0.000034   0.003760  -0.033912   0.004186
     3  H   -0.000001  -0.000000   0.000000   0.000144   0.000002  -0.000000
     4  O   -0.000136   0.000001  -0.000000   0.000008   0.000011  -0.000005
     5  H   -0.000036   0.000000  -0.000000  -0.000019   0.000002   0.000001
     6  O   -0.000000   0.000000  -0.000000  -0.000038  -0.000020   0.000003
     7  H    0.000000  -0.000000   0.000001   0.000715   0.000382  -0.000043
     8  C   -0.036612   0.004351  -0.000128  -0.004143  -0.001247   0.000021
     9  C   -0.011408  -0.016221   0.003867  -0.050623  -0.009775  -0.000093
    10  C    0.001204  -0.002700  -0.020388   0.340755  -0.063921   0.005678
    11  C   -0.000077  -0.000056  -0.010494  -0.051823   0.350573  -0.034784
    12  C    0.000001   0.000002  -0.003361  -0.009663  -0.047587   0.366936
    13  O    0.000000   0.000000   0.050790  -0.000032   0.003892  -0.033422
    14  O    0.233087  -0.000055   0.000001  -0.000057   0.000012  -0.000000
    15  O    0.031120   0.198706  -0.000095   0.001834  -0.000040   0.000000
    16  O   -0.000011   0.001871   0.223791  -0.040963   0.006370  -0.000257
    17  H   -0.000393   0.000001   0.000006   0.000164   0.010257  -0.000022
    18  H   -0.001094  -0.000257   0.000008   0.005883   0.000168   0.000003
    19  H    0.370527  -0.000455   0.000001  -0.000023  -0.000006  -0.000000
    20  H   -0.000455   0.323775  -0.000000  -0.000383   0.000001  -0.000000
    21  H    0.000001  -0.000000   0.323399  -0.000760   0.000335   0.000606
    22  H   -0.000023  -0.000383  -0.000760   0.669645   0.007523  -0.000070
    23  H   -0.000006   0.000001   0.000335   0.007523   0.630599  -0.007797
    24  H   -0.000000  -0.000000   0.000606  -0.000070  -0.007797   0.588590
    25  H   -0.000000   0.000000   0.000356   0.006003   0.006928  -0.049513
    26  H   -0.000000   0.000000  -0.001687  -0.000031  -0.000168  -0.002756
    27  O    0.000012   0.082755   0.000459  -0.000068  -0.000002  -0.000000
    28  H   -0.000001  -0.004076  -0.000025   0.000016   0.000000   0.000000
    29  H   -0.000536  -0.004934  -0.000114   0.007919   0.005952   0.000009
    30  H   -0.000007  -0.010399  -0.001357   0.000466   0.000008   0.000001
              25         26         27         28         29         30
     1  C   -0.000103   0.000001   0.000000  -0.000000  -0.004736  -0.000003
     2  O    0.002599  -0.000080   0.000000  -0.000000   0.000157  -0.000003
     3  H    0.000030  -0.000000  -0.000000   0.000000   0.000001   0.000000
     4  O    0.000003  -0.000000  -0.000000   0.000000  -0.000043  -0.000000
     5  H   -0.000010   0.000000  -0.000000  -0.000000   0.000006   0.000000
     6  O   -0.000053   0.000000   0.000000  -0.000000  -0.000002  -0.000000
     7  H    0.002006  -0.000001  -0.000000   0.000000   0.000005   0.000000
     8  C   -0.000021  -0.000000   0.000034  -0.000002  -0.043251   0.000076
     9  C   -0.000115   0.000006   0.003140  -0.000262   0.341509  -0.001527
    10  C   -0.013275  -0.000042   0.000082   0.000174  -0.054812  -0.003509
    11  C   -0.033742   0.005432  -0.000006   0.000002  -0.004024   0.000416
    12  C    0.354803  -0.018166  -0.000000  -0.000000  -0.000215  -0.000012
    13  O   -0.035224   0.237743  -0.000000   0.000000  -0.000004   0.000016
    14  O    0.000000   0.000000  -0.000000   0.000000   0.001216  -0.000001
    15  O   -0.000001  -0.000000  -0.027657   0.001932  -0.039848   0.005090
    16  O    0.000222   0.000760  -0.018852   0.000933   0.000378   0.052167
    17  H    0.000018   0.000000   0.000000   0.000000   0.006463  -0.000001
    18  H   -0.000021  -0.000000   0.000000   0.000000   0.008021  -0.000001
    19  H   -0.000000  -0.000000   0.000012  -0.000001  -0.000536  -0.000007
    20  H    0.000000   0.000000   0.082755  -0.004076  -0.004934  -0.010399
    21  H    0.000356  -0.001687   0.000459  -0.000025  -0.000114  -0.001357
    22  H    0.006003  -0.000031  -0.000068   0.000016   0.007919   0.000466
    23  H    0.006928  -0.000168  -0.000002   0.000000   0.005952   0.000008
    24  H   -0.049513  -0.002756  -0.000000   0.000000   0.000009   0.000001
    25  H    0.626868  -0.004718   0.000000  -0.000000   0.000003  -0.000001
    26  H   -0.004718   0.368363   0.000000  -0.000000  -0.000000  -0.000002
    27  O    0.000000   0.000000   8.305840   0.239682   0.000623   0.215857
    28  H   -0.000000  -0.000000   0.239682   0.381293  -0.000014  -0.014856
    29  H    0.000003  -0.000000   0.000623  -0.000014   0.647733   0.000392
    30  H   -0.000001  -0.000002   0.215857  -0.014856   0.000392   0.322997
 Mulliken charges:
               1
     1  C    0.336768
     2  O   -0.532804
     3  H    0.398062
     4  O   -0.622059
     5  H    0.425132
     6  O   -0.792469
     7  H    0.411256
     8  C    0.133588
     9  C    0.071722
    10  C    0.140514
    11  C    0.102393
    12  C   -0.056906
    13  O   -0.638905
    14  O   -0.636386
    15  O   -0.689141
    16  O   -0.689445
    17  H    0.142227
    18  H    0.090064
    19  H    0.408624
    20  H    0.428168
    21  H    0.434775
    22  H    0.113417
    23  H    0.146587
    24  H    0.162865
    25  H    0.136961
    26  H    0.415344
    27  O   -0.801897
    28  H    0.395205
    29  H    0.132146
    30  H    0.434192
 Sum of Mulliken charges =  -0.00000
 Mulliken charges with hydrogens summed into heavy atoms:
               1
     1  C    0.478995
     2  O   -0.532804
     4  O   -0.196927
     6  O    0.016849
     8  C    0.223652
     9  C    0.203868
    10  C    0.253930
    11  C    0.248980
    12  C    0.242920
    13  O   -0.223560
    14  O   -0.227762
    15  O   -0.260973
    16  O   -0.254670
    27  O    0.027501
 Electronic spatial extent (au):  <R**2>=           3377.9341
 Charge=             -0.0000 electrons
 Dipole moment (field-independent basis, Debye):
    X=             -4.0423    Y=              5.2272    Z=              3.3156  Tot=              7.3930
 Quadrupole moment (field-independent basis, Debye-Ang):
   XX=            -97.0316   YY=            -74.0323   ZZ=            -80.3363
   XY=             -3.4460   XZ=             -2.2510   YZ=             -1.2979
 Traceless Quadrupole moment (field-independent basis, Debye-Ang):
   XX=            -13.2315   YY=              9.7678   ZZ=              3.4637
   XY=             -3.4460   XZ=             -2.2510   YZ=             -1.2979
 Octapole moment (field-independent basis, Debye-Ang**2):
  XXX=            -84.3428  YYY=             75.3041  ZZZ=             15.9230  XYY=            -24.6130
  XXY=              7.5550  XXZ=             40.2427  XZZ=             -5.5327  YZZ=             -1.0307
  YYZ=             19.8578  XYZ=             -6.8567
 Hexadecapole moment (field-independent basis, Debye-Ang**3):
 XXXX=          -2101.4157 YYYY=          -1181.1593 ZZZZ=           -296.0320 XXXY=            -42.5093
 XXXZ=           -149.3426 YYYX=            -56.9193 YYYZ=             23.1282 ZZZX=             24.9870
 ZZZY=             -7.7355 XXYY=           -607.2475 XXZZ=           -389.3317 YYZZ=           -323.0280
 XXYZ=            -76.0596 YYXZ=            -21.6335 ZZXY=              2.5458
 N-N= 1.094672843270D+03 E-N=-4.161447398102D+03  KE= 8.328865762451D+02
 Calling FoFJK, ICntrl=      2127 FMM=F ISym2X=0 I1Cent= 0 IOpClX= 0 NMat=1 NMatS=1 NMatT=0.
 ***** Axes restored to original set *****
 -------------------------------------------------------------------
 Center     Atomic                   Forces (Hartrees/Bohr)
 Number     Number              X              Y              Z
 -------------------------------------------------------------------
      1        6          -0.000009586   -0.000007009   -0.000002329
      2        8           0.000007555    0.000010142   -0.000007632
      3        1          -0.000001107   -0.000010085    0.000002664
      4        8           0.000027822    0.000007050   -0.000006270
      5        1          -0.000001799    0.000003155    0.000011157
      6        8          -0.000019638    0.000004674   -0.000009893
      7        1           0.000016299   -0.000004781    0.000028919
      8        6           0.000004662   -0.000001813    0.000007404
      9        6          -0.000000598    0.000010492    0.000000405
     10        6          -0.000007153   -0.000011367    0.000002617
     11        6          -0.000006246   -0.000000562    0.000005163
     12        6          -0.000001030   -0.000001328   -0.000003780
     13        8          -0.000008058    0.000000105   -0.000003441
     14        8           0.000000578   -0.000008716   -0.000001102
     15        8          -0.000001603   -0.000006357   -0.000009779
     16        8           0.000002261    0.000000383    0.000018145
     17        1           0.000006622    0.000000330   -0.000001831
     18        1           0.000002329   -0.000007300    0.000003600
     19        1           0.000010915    0.000003939   -0.000003043
     20        1           0.000011775    0.000003577    0.000002083
     21        1          -0.000005466    0.000008569   -0.000010836
     22        1          -0.000003249    0.000000401    0.000000770
     23        1           0.000002825    0.000000830   -0.000005069
     24        1          -0.000004630    0.000004058   -0.000001477
     25        1          -0.000005967    0.000000816    0.000001202
     26        1          -0.000009614    0.000001952   -0.000002111
     27        8           0.000000299   -0.000004762    0.000006599
     28        1          -0.000011737    0.000005120   -0.000001902
     29        1           0.000004521    0.000001723   -0.000001160
     30        1          -0.000000981   -0.000003234   -0.000019071
 -------------------------------------------------------------------
 Cartesian Forces:  Max     0.000028919 RMS     0.000007952

 GradGradGradGradGradGradGradGradGradGradGradGradGradGradGradGradGradGrad
 Berny optimization.
 FormGI is forming the generalized inverse of G from B-inverse, IUseBI=4.
 Internal  Forces:  Max     0.000020876 RMS     0.000003903
 Search for a local minimum.
 Step number   1 out of a maximum of  180
 All quantities printed in internal units (Hartrees-Bohrs-Radians)
 Mixed Optimization -- En-DIIS/RFO-DIIS
 Second derivative matrix not updated -- first step.
 ITU=  0
     Eigenvalues ---    0.00392   0.00546   0.00555   0.00646   0.00650
     Eigenvalues ---    0.00726   0.00953   0.01103   0.01257   0.01557
     Eigenvalues ---    0.01587   0.01862   0.02163   0.02851   0.03139
     Eigenvalues ---    0.04210   0.04399   0.04444   0.04535   0.04690
     Eigenvalues ---    0.04911   0.05017   0.05122   0.05327   0.05579
     Eigenvalues ---    0.05670   0.05850   0.06031   0.06116   0.06338
     Eigenvalues ---    0.06678   0.06866   0.06941   0.07060   0.07393
     Eigenvalues ---    0.07742   0.09201   0.09738   0.09857   0.10977
     Eigenvalues ---    0.11374   0.11645   0.12235   0.13608   0.14820
     Eigenvalues ---    0.15590   0.15876   0.15980   0.16000   0.16000
     Eigenvalues ---    0.17289   0.17636   0.18228   0.18979   0.20890
     Eigenvalues ---    0.22007   0.25671   0.26631   0.28024   0.28775
     Eigenvalues ---    0.29587   0.31946   0.33132   0.33365   0.33410
     Eigenvalues ---    0.33483   0.33666   0.33913   0.33980   0.39620
     Eigenvalues ---    0.39973   0.40576   0.41761   0.43975   0.46612
     Eigenvalues ---    0.47391   0.48516   0.49859   0.50404   0.51894
     Eigenvalues ---    0.52463   0.53470   0.53537   0.53668
 RFO step:  Lambda=-2.56526200D-08 EMin= 3.92430441D-03
 Linear search not attempted -- first point.
 Iteration  1 RMS(Cart)=  0.00011589 RMS(Int)=  0.00000001
 Iteration  2 RMS(Cart)=  0.00000001 RMS(Int)=  0.00000000
 Variable       Old X    -DE/DX   Delta X   Delta X   Delta X     New X
                                 (Linear)    (Quad)   (Total)
    R1        2.76349   0.00000   0.00000   0.00001   0.00001   2.76350
    R2        2.59070   0.00001   0.00000   0.00003   0.00003   2.59074
    R3        2.89693   0.00001   0.00000   0.00003   0.00003   2.89696
    R4        2.07477  -0.00000   0.00000  -0.00001  -0.00001   2.07477
    R5        3.80939  -0.00000   0.00000  -0.00010  -0.00010   3.80929
    R6        2.69024   0.00001   0.00000   0.00001   0.00001   2.69025
    R7        1.83156   0.00001   0.00000   0.00001   0.00001   1.83157
    R8        1.85724  -0.00001   0.00000  -0.00003  -0.00003   1.85721
    R9        3.62528  -0.00002   0.00000  -0.00020  -0.00020   3.62508
   R10        3.82382   0.00001   0.00000   0.00005   0.00005   3.82387
   R11        1.84617  -0.00001   0.00000  -0.00002  -0.00002   1.84615
   R12        2.89693  -0.00000   0.00000  -0.00001  -0.00001   2.89692
   R13        2.66485   0.00001   0.00000   0.00001   0.00001   2.66486
   R14        2.08820  -0.00000   0.00000  -0.00000  -0.00000   2.08820
   R15        2.89434   0.00000   0.00000   0.00001   0.00001   2.89435
   R16        2.67617   0.00001   0.00000   0.00002   0.00002   2.67619
   R17        2.08414  -0.00000   0.00000  -0.00001  -0.00001   2.08414
   R18        2.91572   0.00000   0.00000   0.00001   0.00001   2.91573
   R19        2.70197  -0.00000   0.00000  -0.00001  -0.00001   2.70196
   R20        2.08337  -0.00000   0.00000  -0.00000  -0.00000   2.08336
   R21        2.88795  -0.00000   0.00000  -0.00001  -0.00001   2.88794
   R22        2.08211  -0.00000   0.00000  -0.00001  -0.00001   2.08210
   R23        2.70778   0.00000   0.00000   0.00000   0.00000   2.70779
   R24        2.07364   0.00000   0.00000   0.00001   0.00001   2.07365
   R25        2.07898  -0.00000   0.00000  -0.00000  -0.00000   2.07898
   R26        1.83035  -0.00000   0.00000  -0.00000  -0.00000   1.83035
   R27        1.84159  -0.00000   0.00000  -0.00001  -0.00001   1.84158
   R28        1.86559  -0.00000   0.00000  -0.00001  -0.00001   1.86559
   R29        1.84701  -0.00001   0.00000  -0.00001  -0.00001   1.84700
   R30        3.47105   0.00001   0.00000   0.00011   0.00011   3.47116
   R31        3.39506   0.00001   0.00000   0.00009   0.00009   3.39516
   R32        1.83218  -0.00001   0.00000  -0.00002  -0.00002   1.83216
   R33        1.85632  -0.00001   0.00000  -0.00001  -0.00001   1.85630
    A1        1.89037  -0.00000   0.00000  -0.00002  -0.00002   1.89035
    A2        1.86512  -0.00000   0.00000   0.00000   0.00000   1.86512
    A3        1.89500   0.00000   0.00000  -0.00000  -0.00000   1.89500
    A4        2.01082   0.00000   0.00000   0.00002   0.00002   2.01084
    A5        1.87203   0.00000   0.00000   0.00000   0.00000   1.87203
    A6        1.92775  -0.00000   0.00000  -0.00000  -0.00000   1.92775
    A7        1.73497   0.00000   0.00000   0.00001   0.00001   1.73498
    A8        1.99448  -0.00000   0.00000  -0.00001  -0.00001   1.99447
    A9        2.26298  -0.00000   0.00000  -0.00005  -0.00005   2.26293
   A10        1.88652  -0.00000   0.00000   0.00001   0.00001   1.88652
   A11        2.56588   0.00000   0.00000   0.00002   0.00002   2.56590
   A12        2.07192   0.00001   0.00000   0.00000   0.00000   2.07192
   A13        2.01893  -0.00001   0.00000  -0.00005  -0.00005   2.01888
   A14        1.83055  -0.00001   0.00000  -0.00003  -0.00003   1.83052
   A15        1.32176  -0.00000   0.00000   0.00000   0.00000   1.32176
   A16        2.52588  -0.00002   0.00000  -0.00016  -0.00016   2.52573
   A17        1.93725   0.00000   0.00000   0.00003   0.00003   1.93728
   A18        1.91344  -0.00000   0.00000  -0.00001  -0.00001   1.91343
   A19        1.87327   0.00000   0.00000   0.00002   0.00002   1.87329
   A20        1.91507   0.00000   0.00000  -0.00000  -0.00000   1.91507
   A21        1.88979  -0.00000   0.00000  -0.00004  -0.00004   1.88975
   A22        1.93472   0.00000   0.00000  -0.00000  -0.00000   1.93472
   A23        1.94283   0.00000   0.00000  -0.00000  -0.00000   1.94283
   A24        1.84966  -0.00000   0.00000  -0.00002  -0.00002   1.84964
   A25        1.88281   0.00000   0.00000   0.00000   0.00000   1.88281
   A26        1.98334   0.00000   0.00000   0.00002   0.00002   1.98336
   A27        1.87571  -0.00000   0.00000  -0.00001  -0.00001   1.87570
   A28        1.92774   0.00000   0.00000   0.00001   0.00001   1.92776
   A29        1.90722  -0.00000   0.00000  -0.00003  -0.00003   1.90719
   A30        1.89931   0.00000   0.00000   0.00004   0.00004   1.89935
   A31        1.89671   0.00000   0.00000  -0.00000  -0.00000   1.89671
   A32        1.93188  -0.00000   0.00000   0.00000   0.00000   1.93188
   A33        1.90542   0.00000   0.00000  -0.00001  -0.00001   1.90541
   A34        1.92289  -0.00000   0.00000   0.00000   0.00000   1.92289
   A35        1.93699   0.00000   0.00000  -0.00001  -0.00001   1.93699
   A36        1.83724  -0.00000   0.00000   0.00001   0.00001   1.83725
   A37        1.92113  -0.00000   0.00000  -0.00001  -0.00001   1.92112
   A38        1.98218  -0.00000   0.00000   0.00001   0.00001   1.98219
   A39        1.88547  -0.00000   0.00000   0.00000   0.00000   1.88547
   A40        1.90036   0.00000   0.00000   0.00000   0.00000   1.90036
   A41        1.88770  -0.00000   0.00000  -0.00002  -0.00002   1.88768
   A42        1.90551   0.00000   0.00000  -0.00001  -0.00001   1.90551
   A43        1.90271   0.00000   0.00000   0.00001   0.00001   1.90273
   A44        1.93992   0.00000   0.00000   0.00000   0.00000   1.93992
   A45        1.93650   0.00000   0.00000   0.00002   0.00002   1.93652
   A46        1.89105  -0.00000   0.00000  -0.00000  -0.00000   1.89105
   A47        1.89902   0.00000   0.00000   0.00000   0.00000   1.89902
   A48        1.82144   0.00001   0.00000   0.00005   0.00005   1.82149
   A49        1.88608  -0.00000   0.00000   0.00001   0.00001   1.88609
   A50        1.86685  -0.00000   0.00000  -0.00000  -0.00000   1.86685
   A51        2.12259  -0.00001   0.00000  -0.00002  -0.00002   2.12257
   A52        2.28024   0.00001   0.00000   0.00008   0.00008   2.28032
   A53        2.83345   0.00000   0.00000   0.00001   0.00001   2.83347
   A54        1.82209   0.00001   0.00000   0.00006   0.00006   1.82214
   A55        1.51675  -0.00000   0.00000  -0.00001  -0.00001   1.51673
   A56        1.82008  -0.00000   0.00000  -0.00000  -0.00000   1.82008
   A57        2.71939   0.00001   0.00000   0.00002   0.00002   2.71941
    D1       -0.79707  -0.00000   0.00000  -0.00005  -0.00005  -0.79712
    D2        3.01363   0.00000   0.00000   0.00002   0.00002   3.01364
    D3        1.37920  -0.00000   0.00000  -0.00004  -0.00004   1.37916
    D4       -1.09329   0.00000   0.00000   0.00003   0.00003  -1.09326
    D5       -2.82447  -0.00000   0.00000  -0.00004  -0.00004  -2.82451
    D6        0.98622   0.00000   0.00000   0.00003   0.00003   0.98625
    D7        1.08404  -0.00000   0.00000  -0.00002  -0.00002   1.08402
    D8       -1.00291   0.00000   0.00000  -0.00002  -0.00002  -1.00293
    D9        3.12629  -0.00000   0.00000  -0.00003  -0.00003   3.12625
   D10        1.00089  -0.00000   0.00000  -0.00006  -0.00006   1.00083
   D11        3.11939   0.00000   0.00000  -0.00005  -0.00005   3.11934
   D12       -1.06107   0.00000   0.00000  -0.00004  -0.00004  -1.06112
   D13        3.10171  -0.00000   0.00000  -0.00007  -0.00007   3.10164
   D14       -1.06296  -0.00000   0.00000  -0.00006  -0.00006  -1.06303
   D15        1.03975  -0.00000   0.00000  -0.00006  -0.00006   1.03970
   D16       -1.05729  -0.00000   0.00000  -0.00005  -0.00005  -1.05734
   D17        1.06122   0.00000   0.00000  -0.00005  -0.00005   1.06117
   D18       -3.11925   0.00000   0.00000  -0.00004  -0.00004  -3.11929
   D19        0.34294   0.00000   0.00000   0.00006   0.00006   0.34300
   D20        0.13245   0.00000   0.00000  -0.00014  -0.00014   0.13230
   D21        2.65964   0.00000   0.00000   0.00001   0.00001   2.65965
   D22        2.44915  -0.00000   0.00000  -0.00020  -0.00020   2.44895
   D23        1.08355   0.00000   0.00000   0.00006   0.00006   1.08361
   D24       -3.04813   0.00000   0.00000   0.00007   0.00007  -3.04806
   D25       -1.00283   0.00000   0.00000   0.00007   0.00007  -1.00276
   D26       -1.13924   0.00000   0.00000   0.00012   0.00012  -1.13912
   D27        1.01226   0.00000   0.00000   0.00013   0.00013   1.01239
   D28        3.05756   0.00000   0.00000   0.00013   0.00013   3.05769
   D29       -0.85211   0.00000   0.00000   0.00029   0.00029  -0.85182
   D30       -0.76109  -0.00000   0.00000   0.00008   0.00008  -0.76102
   D31        1.95816  -0.00000   0.00000  -0.00037  -0.00037   1.95779
   D32        1.79053   0.00000   0.00000   0.00003   0.00003   1.79055
   D33        0.23274   0.00000   0.00000  -0.00009  -0.00009   0.23265
   D34       -1.78047   0.00001   0.00000   0.00025   0.00025  -1.78022
   D35       -0.95711  -0.00000   0.00000   0.00002   0.00002  -0.95709
   D36       -3.12157  -0.00000   0.00000   0.00001   0.00001  -3.12156
   D37        1.09671  -0.00000   0.00000   0.00001   0.00001   1.09672
   D38       -3.07466   0.00000   0.00000   0.00002   0.00002  -3.07464
   D39        1.04407  -0.00000   0.00000   0.00001   0.00001   1.04408
   D40       -1.02083  -0.00000   0.00000   0.00000   0.00000  -1.02083
   D41        1.09481   0.00000   0.00000   0.00004   0.00004   1.09485
   D42       -1.06965   0.00000   0.00000   0.00003   0.00003  -1.06961
   D43       -3.13455   0.00000   0.00000   0.00003   0.00003  -3.13452
   D44       -2.86343  -0.00000   0.00000  -0.00021  -0.00021  -2.86363
   D45       -0.73162  -0.00000   0.00000  -0.00018  -0.00018  -0.73180
   D46        1.35480  -0.00000   0.00000  -0.00023  -0.00023   1.35457
   D47        0.89162   0.00000   0.00000   0.00004   0.00004   0.89166
   D48        3.00298  -0.00000   0.00000   0.00004   0.00004   3.00303
   D49       -1.18604   0.00000   0.00000   0.00007   0.00007  -1.18598
   D50        2.97831  -0.00000   0.00000   0.00003   0.00003   2.97833
   D51       -1.19352  -0.00000   0.00000   0.00003   0.00003  -1.19349
   D52        0.90064  -0.00000   0.00000   0.00005   0.00005   0.90069
   D53       -1.16649  -0.00000   0.00000   0.00004   0.00004  -1.16645
   D54        0.94487  -0.00000   0.00000   0.00005   0.00005   0.94492
   D55        3.03903   0.00000   0.00000   0.00007   0.00007   3.03910
   D56       -2.80976  -0.00000   0.00000  -0.00005  -0.00005  -2.80980
   D57        1.33451  -0.00000   0.00000  -0.00004  -0.00004   1.33447
   D58       -0.77492  -0.00000   0.00000  -0.00005  -0.00005  -0.77497
   D59       -0.93774  -0.00000   0.00000  -0.00009  -0.00009  -0.93783
   D60       -3.00348  -0.00000   0.00000  -0.00010  -0.00010  -3.00358
   D61        1.16985  -0.00000   0.00000  -0.00010  -0.00010   1.16975
   D62       -3.02917  -0.00000   0.00000  -0.00011  -0.00011  -3.02928
   D63        1.18828  -0.00000   0.00000  -0.00012  -0.00012   1.18816
   D64       -0.92158  -0.00000   0.00000  -0.00013  -0.00013  -0.92171
   D65        1.13451  -0.00000   0.00000  -0.00011  -0.00011   1.13440
   D66       -0.93123  -0.00000   0.00000  -0.00012  -0.00012  -0.93135
   D67       -3.04108  -0.00000   0.00000  -0.00013  -0.00013  -3.04121
   D68       -2.87653   0.00000   0.00000   0.00021   0.00021  -2.87632
   D69        0.42334   0.00000   0.00000  -0.00008  -0.00008   0.42326
   D70       -0.78037   0.00000   0.00000   0.00020   0.00020  -0.78017
   D71        2.51950  -0.00000   0.00000  -0.00009  -0.00009   2.51941
   D72        1.32880   0.00000   0.00000   0.00019   0.00019   1.32899
   D73       -1.65452  -0.00000   0.00000  -0.00010  -0.00010  -1.65462
   D74        3.13419  -0.00000   0.00000  -0.00005  -0.00005   3.13414
   D75        1.02112  -0.00000   0.00000  -0.00003  -0.00003   1.02108
   D76       -1.04172  -0.00000   0.00000  -0.00003  -0.00003  -1.04175
   D77       -1.02663  -0.00000   0.00000  -0.00005  -0.00005  -1.02668
   D78       -3.13970   0.00000   0.00000  -0.00003  -0.00003  -3.13973
   D79        1.08065   0.00000   0.00000  -0.00003  -0.00003   1.08061
   D80        1.07483  -0.00000   0.00000  -0.00004  -0.00004   1.07479
   D81       -1.03824   0.00000   0.00000  -0.00003  -0.00003  -1.03826
   D82       -3.10107  -0.00000   0.00000  -0.00003  -0.00003  -3.10110
   D83        3.03267   0.00000   0.00000   0.00005   0.00005   3.03272
   D84       -1.15893  -0.00000   0.00000   0.00003   0.00003  -1.15891
   D85        0.94657   0.00000   0.00000   0.00004   0.00004   0.94660
   D86       -0.83189   0.00000   0.00000   0.00019   0.00019  -0.83170
   D87        0.09327   0.00000   0.00000   0.00014   0.00014   0.09341
   D88       -2.84830  -0.00000   0.00000  -0.00021  -0.00021  -2.84851
   D89       -1.61339   0.00000   0.00000  -0.00016  -0.00016  -1.61355
   D90        0.20101  -0.00000   0.00000  -0.00017  -0.00017   0.20084
   D91       -0.03367  -0.00000   0.00000  -0.00006  -0.00006  -0.03373
   D92        1.78278   0.00000   0.00000  -0.00000  -0.00000   1.78277
         Item               Value     Threshold  Converged?
 Maximum Force            0.000021     0.000450     YES
 RMS     Force            0.000004     0.000300     YES
 Maximum Displacement     0.000700     0.001800     YES
 RMS     Displacement     0.000116     0.001200     YES
 Predicted change in Energy=-1.282625D-08
 Optimization completed.
    -- Stationary point found.
                           ----------------------------
                           !   Optimized Parameters   !
                           ! (Angstroms and Degrees)  !
 --------------------------                            --------------------------
 ! Name  Definition              Value          Derivative Info.                !
 --------------------------------------------------------------------------------
 ! R1    R(1,2)                  1.4624         -DE/DX =    0.0                 !
 ! R2    R(1,4)                  1.3709         -DE/DX =    0.0                 !
 ! R3    R(1,8)                  1.533          -DE/DX =    0.0                 !
 ! R4    R(1,17)                 1.0979         -DE/DX =    0.0                 !
 ! R5    R(2,7)                  2.0158         -DE/DX =    0.0                 !
 ! R6    R(2,11)                 1.4236         -DE/DX =    0.0                 !
 ! R7    R(3,6)                  0.9692         -DE/DX =    0.0                 !
 ! R8    R(4,5)                  0.9828         -DE/DX =    0.0                 !
 ! R9    R(5,6)                  1.9184         -DE/DX =    0.0                 !
 ! R10   R(5,7)                  2.0235         -DE/DX =    0.0                 !
 ! R11   R(6,7)                  0.9769         -DE/DX =    0.0                 !
 ! R12   R(8,9)                  1.533          -DE/DX =    0.0                 !
 ! R13   R(8,14)                 1.4102         -DE/DX =    0.0                 !
 ! R14   R(8,18)                 1.105          -DE/DX =    0.0                 !
 ! R15   R(9,10)                 1.5316         -DE/DX =    0.0                 !
 ! R16   R(9,15)                 1.4162         -DE/DX =    0.0                 !
 ! R17   R(9,29)                 1.1029         -DE/DX =    0.0                 !
 ! R18   R(10,11)                1.5429         -DE/DX =    0.0                 !
 ! R19   R(10,16)                1.4298         -DE/DX =    0.0                 !
 ! R20   R(10,22)                1.1025         -DE/DX =    0.0                 !
 ! R21   R(11,12)                1.5282         -DE/DX =    0.0                 !
 ! R22   R(11,23)                1.1018         -DE/DX =    0.0                 !
 ! R23   R(12,13)                1.4329         -DE/DX =    0.0                 !
 ! R24   R(12,24)                1.0973         -DE/DX =    0.0                 !
 ! R25   R(12,25)                1.1001         -DE/DX =    0.0                 !
 ! R26   R(13,26)                0.9686         -DE/DX =    0.0                 !
 ! R27   R(14,19)                0.9745         -DE/DX =    0.0                 !
 ! R28   R(15,20)                0.9872         -DE/DX =    0.0                 !
 ! R29   R(16,21)                0.9774         -DE/DX =    0.0                 !
 ! R30   R(16,30)                1.8368         -DE/DX =    0.0                 !
 ! R31   R(20,27)                1.7966         -DE/DX =    0.0                 !
 ! R32   R(27,28)                0.9695         -DE/DX =    0.0                 !
 ! R33   R(27,30)                0.9823         -DE/DX =    0.0                 !
 ! A1    A(2,1,4)              108.3104         -DE/DX =    0.0                 !
 ! A2    A(2,1,8)              106.8635         -DE/DX =    0.0                 !
 ! A3    A(2,1,17)             108.5758         -DE/DX =    0.0                 !
 ! A4    A(4,1,8)              115.2114         -DE/DX =    0.0                 !
 ! A5    A(4,1,17)             107.2592         -DE/DX =    0.0                 !
 ! A6    A(8,1,17)             110.4519         -DE/DX =    0.0                 !
 ! A7    A(1,2,7)               99.4065         -DE/DX =    0.0                 !
 ! A8    A(1,2,11)             114.2753         -DE/DX =    0.0                 !
 ! A9    A(7,2,11)             129.6591         -DE/DX =    0.0                 !
 ! A10   A(1,4,5)              108.0895         -DE/DX =    0.0                 !
 ! A11   A(4,5,6)              147.014          -DE/DX =    0.0                 !
 ! A12   A(4,5,7)              118.7124         -DE/DX =    0.0                 !
 ! A13   A(3,6,5)              115.6761         -DE/DX =    0.0                 !
 ! A14   A(3,6,7)              104.8828         -DE/DX =    0.0                 !
 ! A15   A(2,7,5)               75.7311         -DE/DX =    0.0                 !
 ! A16   A(2,7,6)              144.7224         -DE/DX =    0.0                 !
 ! A17   A(1,8,9)              110.9965         -DE/DX =    0.0                 !
 ! A18   A(1,8,14)             109.6318         -DE/DX =    0.0                 !
 ! A19   A(1,8,18)             107.3306         -DE/DX =    0.0                 !
 ! A20   A(9,8,14)             109.7256         -DE/DX =    0.0                 !
 ! A21   A(9,8,18)             108.277          -DE/DX =    0.0                 !
 ! A22   A(14,8,18)            110.851          -DE/DX =    0.0                 !
 ! A23   A(8,9,10)             111.3159         -DE/DX =    0.0                 !
 ! A24   A(8,9,15)             105.9774         -DE/DX =    0.0                 !
 ! A25   A(8,9,29)             107.8769         -DE/DX =    0.0                 !
 ! A26   A(10,9,15)            113.6369         -DE/DX =    0.0                 !
 ! A27   A(10,9,29)            107.4704         -DE/DX =    0.0                 !
 ! A28   A(15,9,29)            110.4516         -DE/DX =    0.0                 !
 ! A29   A(9,10,11)            109.2755         -DE/DX =    0.0                 !
[...]
 ,-0.00003238,-0.00002303,0.00008529,0.00001165,0.00003729,0.00005993,0
 .00020843,0.00085339,0.00128967,0.00001167,0.00015129,0.00012330,-0.00
 033433,0.00050441,0.00006200,-0.07339515,0.29389939,-0.00010084,-0.000
 05249,-0.00043517,-0.00092720,0.00036834,0.00278399,-0.00003186,-0.000
 02062,-0.00002776,-0.00000790,0.00022417,0.00007893,-0.00000253,-0.000
 05844,-0.00007379,-0.00000700,0.00007089,0.00009684,0.00006158,-0.0000
 6275,-0.00011103,-0.00014621,-0.00030663,0.00037503,0.00048844,-0.0016
 7381,0.00131172,-0.00111255,0.00247958,-0.00773334,0.01110483,-0.03253
 956,-0.00933911,0.01784053,-0.06222964,-0.07005458,0.00019898,0.026467
 84,0.00392007,0.00007247,0.00027134,-0.00013591,0.00013128,-0.00069997
 ,-0.00127542,-0.00043482,0.00009508,0.00147551,0.00001331,-0.00001786,
 0.00002795,0.00004949,0.00003455,-0.00001122,-0.00005149,-0.00008350,0
 .00015599,0.00019759,0.00026410,-0.00006939,-0.00003667,-0.00054770,-0
 .00148292,0.00005105,0.00012058,0.00014254,-0.00012494,0.00045875,0.00
 169492,-0.02263428,0.06068968,0.07332907,0.00044611,0.00002425,-0.0000
 2924,0.00170059,0.00045604,0.00021934,0.00002933,-0.00001336,-0.000112
 00,0.00014784,0.00009564,-0.00010254,-0.00014124,0.00001154,-0.0001170
 4,0.00013236,-0.00002817,0.00035003,-0.00013688,0.00006209,-0.00048622
 ,-0.00014084,-0.00002779,-0.00005638,0.00044034,-0.00009145,0.00009478
 ,-0.00021447,0.00043734,0.00076598,-0.00781680,0.00105937,-0.00175495,
 -0.28246291,0.03474562,-0.04879439,-0.01806740,-0.01069023,0.00617344,
 0.00006523,0.00002714,0.00000902,0.00006187,-0.00002855,-0.00015241,0.
 00061587,-0.00017867,-0.00055475,0.00000426,-0.00004066,0.00027965,0.0
 0008920,-0.00000823,-0.00000649,-0.00002755,-0.00001881,0.00001339,-0.
 00004409,-0.00000528,0.00002373,-0.00050918,0.00089466,0.00083195,0.00
 067200,-0.00077607,-0.00031738,0.00073936,-0.00054377,-0.00095918,-0.0
 0892482,0.00277116,-0.00364407,0.31299287,0.00012756,-0.00004170,-0.00
 020273,0.00020373,0.00025154,0.00061279,0.00001347,0.00004147,0.000027
 77,-0.00012458,-0.00009040,0.00005151,0.00010026,0.00000243,0.00006136
 ,-0.00009327,-0.00003526,-0.00024211,0.00001823,0.00003003,0.00040970,
 0.00002753,0.00000408,-0.00003384,0.00002504,0.00002237,-0.00022123,-0
 .00212797,0.00027177,0.00050564,-0.00572439,0.00127304,-0.00266365,0.0
 3765482,-0.06069104,0.00560614,-0.03263587,-0.00288681,0.00138694,-0.0
 0001821,-0.00001507,0.00005372,0.00004799,0.00006692,0.00011339,0.0005
 8034,-0.00006949,-0.00066694,-0.00003960,-0.00002741,0.00003826,0.0000
 0223,0.00001614,0.00000053,0.00000958,0.00000132,-0.00001950,-0.000044
 68,-0.00004426,0.00000992,-0.00044324,0.00068115,0.00075729,0.00043649
 ,0.00002211,0.00000779,-0.00066243,0.00037967,-0.00068887,0.02963479,-
 0.00154241,0.00593762,-0.02761350,0.06167079,-0.00026120,0.00003833,-0
 .00022656,0.00061548,-0.00118633,0.00265713,0.00006874,0.00000373,-0.0
 0008702,0.00025342,0.00003862,-0.00004635,-0.00010432,0.00004843,-0.00
 009224,0.00011341,-0.00011673,0.00020071,0.00002794,0.00034906,-0.0003
 6662,-0.00008218,0.00000692,0.00009617,-0.00003522,0.00010569,-0.00014
 277,-0.00123739,0.00207031,0.00179682,-0.03460949,0.00374191,-0.008359
 88,-0.04981691,0.00333326,-0.06313015,0.02546713,0.00633274,0.00131877
 ,0.00005061,0.00000287,0.00003552,0.00014333,-0.00010327,0.00000257,0.
 00015192,-0.00043265,0.00043162,0.00033650,-0.00001146,0.00014808,0.00
 007977,-0.00001958,-0.00002287,-0.00001237,-0.00000101,0.00000522,0.00
 000719,0.00004463,-0.00002996,0.00002809,-0.00037412,-0.00083794,0.000
 91424,-0.00066594,-0.00001713,-0.00012420,-0.00075745,-0.00637910,0.00
 831641,-0.00255211,0.00417116,0.04856808,-0.00924474,0.06687527,-0.000
 10173,-0.00023538,-0.00019086,0.00035853,-0.00014273,0.00174675,-0.000
 00494,-0.00000886,0.00007345,-0.00012761,-0.00005810,0.00017025,0.0000
 9168,-0.00002785,0.00004507,-0.00009137,0.00004554,-0.00016123,0.00010
 054,-0.00003915,0.00013935,0.00004347,-0.00009533,0.00005102,-0.000038
 06,0.00006647,0.00008178,0.00000998,-0.00036559,-0.00003342,-0.0030283
 1,-0.00303445,0.00034982,0.00252458,-0.00054222,0.02820697,-0.04895992
 ,-0.02823712,-0.13671653,-0.00000913,0.00006669,-0.00008161,-0.0000182
 4,0.00000755,-0.00008122,0.00039402,-0.00000023,0.00000766,-0.00000142
 ,0.00000447,0.00000654,-0.00002886,0.00001494,-0.00000265,-0.00000243,
 -0.00000885,0.00004380,0.00003158,0.00003452,0.00004301,-0.00070407,0.
 00057862,0.00021009,-0.00010655,0.00009466,0.00001392,0.00029724,0.000
 00777,0.00008413,0.00022588,-0.00025174,-0.00077769,0.00029447,0.00055
 885,0.00094427,0.04881474,-0.00033721,-0.00000422,-0.00034040,-0.00000
 754,-0.00001838,0.00216319,-0.00000776,0.00000748,-0.00001155,-0.00006
 015,-0.00014183,0.00017770,0.00002765,0.00000959,0.00000003,-0.0000007
 5,-0.00003684,-0.00002493,0.00001376,0.00005463,0.00003759,-0.00000120
 ,-0.00011074,0.00002143,0.00011955,0.00010861,0.00004448,-0.00114773,-
 0.00071214,0.00067729,-0.00303091,-0.00392207,0.00020080,0.00689007,0.
 00081016,0.03248517,-0.03471201,-0.03323163,-0.05924922,0.00003163,0.0
 0007859,-0.00004889,0.00005257,-0.00005735,-0.00008523,0.00077339,-0.0
 0241689,-0.00324671,0.00003685,0.00000259,0.00002337,0.00001830,0.0000
 0808,-0.00000126,-0.00001955,-0.00000435,0.00003873,-0.00001216,0.0000
 6539,0.00004407,-0.00054350,0.00473680,0.00129024,0.00023355,0.0001030
 6,-0.00004325,0.00010701,-0.00009358,-0.00026188,0.00058738,-0.0002897
 1,0.00075912,-0.00062012,0.00074712,-0.00060852,0.03149932,0.03414490,
 0.00036236,0.00016576,0.00016995,-0.00035299,-0.00035146,-0.00124057,0
 .00004046,0.00000692,-0.00003770,0.00001293,0.00003655,-0.00011671,-0.
 00004471,0.00001713,-0.00003957,-0.00002986,-0.00003407,0.00010875,0.0
 0003791,0.00003385,-0.00014817,-0.00001315,0.00004327,-0.00012633,0.00
 006367,0.00004925,-0.00024134,-0.00027607,-0.00025748,0.00054326,0.003
 31930,0.00407935,0.00067321,-0.00800227,-0.00472719,-0.02060030,-0.099
 12360,-0.02199239,-0.46566346,-0.00000619,-0.00003261,0.00011109,-0.00
 002795,0.00014320,0.00017953,0.00011922,-0.00017146,0.00087419,-0.0000
 2259,0.00000143,0.00001798,0.00000835,-0.00000464,0.00000732,0.0000123
 5,0.00000645,-0.00004470,-0.00005256,-0.00007972,0.00000435,-0.0004120
 1,-0.00046216,-0.00195250,0.00012753,-0.00004737,-0.00006380,-0.000064
 83,0.00001494,0.00045277,-0.00104770,-0.00074015,0.00125393,-0.0004750
 2,-0.00163446,0.00181137,0.10582688,0.02596063,0.48405940,-0.00044976,
 0.00080246,0.00083897,0.00012345,-0.00018995,-0.00038176,0.00015626,0.
 00007213,0.00005868,-0.00017214,-0.00090793,-0.00012445,0.00016473,0.0
 0016748,0.00009006,-0.00024452,-0.00017946,-0.00017731,0.00010579,0.00
 011851,0.00012866,0.00110146,-0.00127239,-0.00054064,-0.00451898,0.004
 93929,0.00294177,-0.00007932,-0.00040420,0.00070209,-0.00028217,0.0003
 5611,-0.00022977,-0.00007678,-0.00030048,0.00033523,0.00028924,0.00006
 127,-0.00044164,0.00007673,-0.00078308,0.00019091,-0.00442818,-0.01613
 034,0.00500268,0.00364528,-0.00048486,-0.00271355,0.00008232,-0.000088
 95,-0.00006445,0.00012434,0.00024059,-0.00008430,-0.00008991,0.0008122
 0,-0.00106344,-0.00549513,0.00857174,-0.00481307,-0.00022302,-0.000627
 11,0.00057082,0.00033320,0.00026971,0.00008980,0.00010703,-0.00012423,
 0.00000438,0.00001442,-0.00004936,-0.00015036,0.00004282,0.00004450,-0
 .00000214,-0.00010262,-0.00006445,0.00005504,0.19458472,-0.00013290,0.
 00110138,-0.00001445,-0.00021310,-0.00108788,0.00014795,0.00026919,0.0
 0006540,0.00004203,-0.00042517,-0.00104187,0.00014402,0.00029225,0.000
 18543,0.00004657,-0.00051811,-0.00024117,-0.00018769,0.00035431,0.0001
 8412,0.00014008,0.00065544,-0.00030960,-0.00065015,-0.00168836,0.00400
 914,0.00202260,0.00226969,0.00103974,-0.00187644,-0.00058856,0.0008730
 2,0.00016162,0.00019248,0.00010168,0.00029053,0.00011315,-0.00048846,-
 0.00103234,-0.00019298,-0.00072491,0.00081120,-0.01186866,-0.01081295,
 0.00590835,-0.00238748,-0.00726288,-0.00967339,0.00004070,-0.00003178,
 -0.00002845,-0.00005422,-0.00002543,0.00002472,0.00013198,0.00052041,-
 0.00109514,0.00546634,-0.00450553,-0.00527310,-0.00154234,-0.00199762,
 0.00190273,-0.00055795,-0.00034819,0.00007909,0.00000024,0.00000323,0.
 00000099,-0.00001538,-0.00014922,-0.00014929,-0.00005886,0.00002080,-0
 .00001876,-0.00010504,-0.00029885,0.00008067,-0.21372478,0.52002840,0.
 00018727,-0.00024531,-0.00168630,-0.00027012,-0.00115730,0.00109502,-0
 .00003013,-0.00001678,-0.00010167,-0.00002916,0.00035988,0.00045422,-0
 .00003744,-0.00008102,-0.00017233,-0.00000597,0.00003565,0.00021079,0.
 00012142,0.00001074,-0.00011933,-0.00052275,0.00098545,0.00016650,0.00
 250914,-0.00379615,-0.00328391,0.00311765,0.00212506,-0.00395016,-0.00
 064929,0.00035087,0.00080325,0.00033446,0.00071593,-0.00033126,-0.0001
 9075,-0.00084993,-0.00030699,0.00003805,0.00045918,0.00066649,0.005993
 49,0.01184572,0.00193192,-0.00378238,-0.01054754,-0.00185390,-0.000003
 06,0.00005166,0.00009528,0.00002045,-0.00011190,0.00008381,-0.00010284
 ,-0.00063277,0.00042507,-0.00192792,-0.00682261,-0.00386125,-0.0006865
 2,-0.00076300,0.00158862,-0.00055018,-0.00044259,0.00016043,-0.0000129
 7,0.00003763,-0.00002235,-0.00003446,-0.00012707,0.00007584,-0.0000723
 1,-0.00002984,0.00002835,-0.00004437,-0.00009412,0.00000973,0.10581909
 ,0.09967349,0.39066366,0.00004474,-0.00009834,-0.00004734,-0.00002561,
 0.00002388,0.00003599,-0.00001332,-0.00002140,-0.00000388,0.00000834,0
 .00008939,0.00000577,-0.00000402,-0.00002459,-0.00000254,0.00000977,0.
 00003380,0.00001330,0.00000357,-0.00002239,-0.00001368,-0.00004864,0.0
 0009839,0.00005631,0.00023594,-0.00016099,-0.00014478,0.00032825,-0.00
 007880,-0.00004434,-0.00003714,-0.00006796,0.00001267,0.00005437,0.000
 04524,-0.00006582,-0.00008263,-0.00003060,0.00007144,-0.00002379,0.000
 05469,-0.00003851,-0.00255178,-0.00017788,0.00019012,-0.00048228,-0.00
 027088,-0.00004082,-0.00001078,0.00000848,0.00000494,-0.00002449,-0.00
 003808,0.00000179,0.00002230,-0.00006521,0.00007003,0.00413828,-0.0018
 6854,0.00026782,0.00007642,0.00004363,-0.00013798,-0.00011054,-0.00006
 305,-0.00004171,-0.00002199,0.00003410,0.00000211,-0.00000968,0.000005
 62,0.00002107,-0.00001864,-0.00001366,0.00000017,0.00003499,0.00000611
 ,-0.00001759,-0.16153016,0.22249826,-0.07855391,0.16198337,0.00005978,
 -0.00025423,0.00004521,0.00004957,0.00025984,-0.00006870,-0.00006177,-
 0.00002461,-0.00000296,0.00008982,0.00024572,-0.00004432,-0.00006155,-
 0.00004608,-0.00000318,0.00011173,0.00006406,0.00003122,-0.00007547,-0
 .00004984,-0.00002718,-0.00022441,0.00010483,0.00016676,0.00068067,-0.
 00065766,-0.00030450,-0.00032100,-0.00036910,0.00029170,0.00006179,-0.
 00021356,-0.00001292,-0.00002843,-0.00001482,-0.00005836,-0.00004709,0
 .00011098,0.00013654,0.00003626,0.00015648,-0.00019758,-0.00069115,0.0
 0175077,-0.00065347,-0.00049182,0.00099213,-0.00064027,-0.00001388,0.0
 0000926,0.00000352,-0.00000413,-0.00003205,0.00000728,-0.00002884,-0.0
 0013127,0.00022256,0.00128153,-0.00381712,0.00228849,-0.00005338,-0.00
 020898,-0.00027676,-0.00001162,-0.00003801,-0.00006070,-0.00001635,0.0
 0003579,0.00000433,-0.00000206,0.00003742,0.00003931,0.00000513,-0.000
 01213,-0.00000362,0.00003716,0.00001709,-0.00002959,0.19791161,-0.3005
 7785,0.07948050,-0.21888270,0.32554075,-0.00004336,-0.00002087,0.00017
 971,0.00004935,0.00010573,-0.00014733,-0.00001089,0.00000024,0.0000216
 1,0.00003391,0.00000914,-0.00006381,-0.00001006,0.00000328,0.00002339,
 0.00002571,0.00000639,-0.00003088,-0.00002801,-0.00000902,0.00001562,0
 .00005095,-0.00009945,0.00002520,-0.00027443,0.00005607,0.00020388,-0.
 00021166,-0.00028132,0.00008965,-0.00000747,-0.00004067,-0.00000980,-0
 .00004697,-0.00009469,0.00007574,0.00002659,0.00013551,-0.00008116,0.0
 0003901,-0.00001118,-0.00014696,0.00165679,-0.00027892,-0.00034123,-0.
 00068193,0.00007442,-0.00139051,0.00000251,-0.00000884,-0.00000770,0.0
 0000508,0.00003095,-0.00001506,-0.00003963,0.00006452,0.00004972,-0.00
 344707,0.00238245,-0.00042098,-0.00011458,-0.00045642,-0.00004414,-0.0
 0000812,-0.00001803,0.00003058,0.00000562,0.00000565,-0.00000106,0.000
 00209,0.00002209,-0.00000852,0.00000804,0.00000162,-0.00000820,0.00000
 849,-0.00005456,-0.00001064,-0.10417857,0.12838977,-0.09082674,0.08384
 257,-0.09759292,0.08096037,-0.00149292,0.00163231,0.00015698,0.0004879
 7,-0.00031768,-0.00019277,0.00017793,0.00006150,0.00009365,0.00087828,
 -0.00041649,0.00009632,-0.00007772,0.00039492,-0.00003621,-0.00003662,
 -0.00027344,-0.00015229,-0.00013482,0.00012155,0.00012195,-0.01802322,
 -0.00145034,-0.00601641,-0.27167006,0.01130039,-0.06049586,-0.00573437
 ,-0.00142300,-0.00074111,-0.00071890,0.00042096,-0.00001552,0.00037217
 ,-0.00038127,-0.00005377,0.00002294,0.00002153,0.00005018,0.00340726,0
 .00098332,-0.00030832,-0.01134976,0.01389590,0.00271417,0.00194158,0.0
 0032086,0.00069924,0.00100294,-0.00079833,-0.00010496,-0.00079478,-0.0
 0214677,0.00136241,-0.00085638,0.00053724,-0.00006441,-0.00047699,-0.0
 0167540,0.00163811,0.00021693,0.00009893,0.00006502,0.00051726,-0.0002
 8465,-0.00031517,0.00070524,-0.00046770,-0.00018684,-0.00000220,-0.000
 02780,-0.00011849,0.00003842,0.00008067,0.00020629,-0.00001940,0.00002
 561,0.00000794,0.00105011,0.00023970,-0.00040478,-0.00008941,-0.000202
 27,0.00005560,0.30096878,-0.00172145,0.00163705,-0.00037594,0.00047522
 ,-0.00046409,-0.00019057,0.00021897,0.00001723,0.00011719,0.00045252,-
 0.00010556,0.00002288,0.00002736,0.00023624,0.00000071,-0.00013784,-0.
 00025735,-0.00019957,-0.00005201,0.00009140,0.00014472,-0.02623297,0.0
 0069465,-0.00700099,0.00815007,-0.05180482,0.00437950,-0.00003590,0.00
 217480,0.00219344,-0.00081223,0.00001233,0.00045534,-0.00014504,0.0002
 3757,0.00001375,0.00001173,-0.00004267,-0.00004465,0.00246704,0.001386
 04,-0.00163458,0.03724337,-0.01690137,-0.00076422,0.00067569,0.0003229
 1,-0.00050245,0.00054417,-0.00063747,0.00005309,-0.00255243,-0.0035313
 4,0.00263996,-0.00003810,-0.00032505,0.00060938,0.00246208,0.00316531,
 -0.00031548,-0.00001823,0.00007189,-0.00000790,0.00014903,0.00031525,-
 0.00039122,0.00009663,-0.00008011,-0.00025083,0.00000101,0.00001322,0.
 00008478,0.00004485,-0.00005315,-0.00002495,0.00000068,-0.00000947,-0.
 00001108,-0.00112936,0.00005048,0.00031171,0.00020113,0.00014247,-0.00
 022245,-0.02072191,0.06405593,-0.00026802,-0.00042165,-0.00024849,0.00
 019748,-0.00038758,0.00018735,-0.00002408,0.00001450,-0.00010502,-0.00
 007696,0.00011256,-0.00000930,-0.00004362,-0.00011209,-0.00007762,0.00
 004560,0.00003101,0.00016689,0.00002078,0.00004910,-0.00009116,0.01407
 526,0.00082701,0.00319020,-0.06129983,0.00400151,-0.06902055,-0.034690
 83,0.00066988,-0.01306912,-0.00141434,0.00170716,0.00112681,0.00007816
 ,-0.00013039,-0.00008582,0.00016124,0.00004079,0.00003865,-0.00038282,
 -0.00057778,0.00181537,0.01776862,-0.00765465,0.00436145,0.00091237,-0
 .00056705,0.00378206,-0.00004777,-0.00004485,0.00012317,0.00142128,0.0
 0172471,-0.00097154,0.00047612,-0.00039124,0.00004818,0.00019187,0.001
 49235,0.00026116,-0.00002809,-0.00039496,0.00012566,-0.00023770,-0.000
 08028,-0.00630458,0.00087412,-0.00075276,-0.00014914,0.00013378,-0.000
 03306,-0.00011549,0.00023022,0.00004535,0.00019155,-0.00002697,0.00003
 515,0.00004389,-0.00015478,-0.00028273,0.00014789,-0.00000599,0.000023
 31,-0.00001338,0.06217071,0.00076684,0.07501213,0.00017939,-0.00039575
 ,0.00026612,0.00004372,0.00067687,-0.00019312,-0.00008094,-0.00003603,
 0.00000225,0.00009596,0.00034505,-0.00011507,-0.00007483,-0.00006808,0
 .00001420,0.00014293,0.00009524,0.00002616,-0.00010784,-0.00007628,-0.
 00003180,-0.00029873,-0.00002860,0.00010538,0.00136696,-0.00216245,0.0
 0032772,-0.00244957,-0.00159165,0.00029783,0.00053481,-0.00029612,-0.0
 0021010,-0.00009230,-0.00010545,-0.00013172,-0.00019868,0.00037113,0.0
 0061555,-0.00000451,0.00026738,-0.00043172,-0.00008200,0.00135085,-0.0
 0207288,-0.00376617,-0.00149228,0.00235188,-0.00004893,0.00002935,-0.0
 0000756,-0.00004842,-0.00003311,0.00000529,0.00001681,-0.00018159,0.00
 036643,-0.00128932,0.00046237,0.00636837,0.00082348,0.00166802,-0.0013
 1614,-0.00016216,-0.00022564,-0.00002345,-0.00008077,0.00007447,-0.000
 01050,0.00000715,0.00008566,0.00007829,-0.00000810,-0.00002469,-0.0000
 0759,0.00012298,0.00014228,-0.00002485,-0.02430919,0.00155016,-0.03022
 967,-0.00185541,0.02089289,0.02329043,-0.00031026,0.00037594,-0.000055
 82,0.03193395,-0.00005648,-0.00067104,0.00146710,0.00041245,0.00181342
 ,-0.00100215,-0.00018657,-0.00003073,0.00003461,0.00034343,0.00048039,
 -0.00048193,-0.00019952,-0.00007796,0.00009079,0.00041836,0.00015743,-
 0.00000151,-0.00038708,-0.00015547,-0.00002306,-0.00001750,-0.00084093
 ,0.00041577,-0.00139478,0.00178427,0.00214282,-0.00508174,-0.00438210,
 0.00485019,0.00086295,-0.00111852,-0.00071040,-0.00040352,-0.00065887,
 -0.00007259,0.00000717,0.00106261,0.00134168,0.00017495,0.00003036,-0.
 00119806,-0.00127983,-0.00501062,-0.00099361,0.00046906,-0.00330502,0.
 00076570,-0.00002118,-0.00002971,-0.00006266,0.00011467,0.00016721,-0.
 00010308,-0.00006869,0.00024495,0.00019949,0.00192808,0.00745468,0.001
 47445,0.00299757,0.00276422,-0.00322875,0.00142248,0.00106607,-0.00030
 504,0.00004438,-0.00008302,0.00002870,0.00003987,0.00021250,0.00007652
 ,0.00010868,0.00000639,0.00000473,0.00013540,0.00045397,-0.00006354,0.
 02209333,-0.19827904,-0.17072555,-0.00125764,-0.02302028,-0.03209848,0
 .00045163,-0.00041235,0.00028984,-0.02166993,0.22037720,-0.00003710,0.
 00004593,0.00156312,0.00025162,0.00152656,-0.00102456,-0.00001515,0.00
 000428,0.00007883,0.00009238,-0.00010148,-0.00044215,-0.00002488,0.000
 03967,0.00014370,0.00009771,0.00000447,-0.00015310,-0.00018604,-0.0000
 4400,0.00007959,-0.00010370,-0.00031722,-0.00018728,0.00041184,0.00361
 313,0.00235679,-0.00401335,-0.00084620,0.00602162,0.00121846,-0.000414
 73,-0.00105642,-0.00032538,-0.00062901,0.00016141,0.00011084,0.0006944
 0,0.00034371,-0.00001947,-0.00031453,-0.00052626,-0.00219097,-0.004350
 31,0.00078337,0.00405050,0.00186382,-0.00898448,-0.00002664,-0.0000211
 0,-0.00008768,-0.00012281,-0.00004777,0.00000663,0.00010000,0.00037271
 ,-0.00029862,0.00603729,0.00274392,-0.00716506,0.00033905,-0.00041581,
 -0.00190239,0.00085289,0.00067751,-0.00032506,-0.00003043,-0.00003765,
 0.00002376,0.00003407,0.00013790,-0.00001983,0.00006672,0.00002055,-0.
 00002351,0.00006328,0.00011154,-0.00003495,-0.00170795,-0.21958451,-0.
 29209068,-0.00543720,0.01723630,0.01189262,-0.00023167,0.00014359,-0.0
 0036123,0.00074609,0.19788804,0.29122810\\0.00000954,0.00000694,0.0000
 0236,-0.00000756,-0.00001015,0.00000764,0.00000110,0.00001010,-0.00000
 267,-0.00002779,-0.00000703,0.00000627,0.00000180,-0.00000315,-0.00001
 116,0.00001964,-0.00000469,0.00000990,-0.00001630,0.00000479,-0.000028
 93,-0.00000465,0.00000181,-0.00000741,0.00000058,-0.00001044,-0.000000
 38,0.00000719,0.00001138,-0.00000264,0.00000624,0.00000057,-0.00000520
 ,0.00000105,0.00000135,0.00000378,0.00000805,-0.00000012,0.00000346,-0
 .00000058,0.00000871,0.00000112,0.00000159,0.00000635,0.00000978,-0.00
 000225,-0.00000038,-0.00001815,-0.00000661,-0.00000032,0.00000183,-0.0
 0000234,0.00000730,-0.00000361,-0.00001091,-0.00000393,0.00000303,-0.0
 0001177,-0.00000358,-0.00000208,0.00000546,-0.00000857,0.00001084,0.00
 000323,-0.00000041,-0.00000077,-0.00000282,-0.00000083,0.00000508,0.00
 000463,-0.00000406,0.00000148,0.00000596,-0.00000082,-0.00000120,0.000
 00961,-0.00000195,0.00000210,-0.00000029,0.00000476,-0.00000659,0.0000
 1173,-0.00000512,0.00000190,-0.00000451,-0.00000173,0.00000116,0.00000
 098,0.00000324,0.00001907\\\@


 I think that all right-thinking people in this
 country are sick and tired of being told that
 ordinary, decent people are fed up in this country
 with being sick and tired.  I'm certainly not!
 But I'm sick and tired of being told that I am!
                               -- Monty Python
 Job cpu time:       0 days  0 hours 33 minutes  4.2 seconds.
 File lengths (MBytes):  RWF=    221 Int=      0 D2E=      0 Chk=      6 Scr=      1
 Normal termination of Gaussian 09 at Sun Jan 15 12:36:38 2017.
