 Entering Link 1 = C:\G03W\l1.exe PID=      2260.
  
 Copyright (c) 1988,1990,1992,1993,1995,1998,2003, Gaussian, Inc.
                  All Rights Reserved.
  
 This is the Gaussian(R) 03 program.  It is based on the
 the Gaussian(R) 98 system (copyright 1998, Gaussian, Inc.),
 the Gaussian(R) 94 system (copyright 1995, Gaussian, Inc.),
 the Gaussian 92(TM) system (copyright 1992, Gaussian, Inc.),
 the Gaussian 90(TM) system (copyright 1990, Gaussian, Inc.),
 the Gaussian 88(TM) system (copyright 1988, Gaussian, Inc.),
 the Gaussian 86(TM) system (copyright 1986, Carnegie Mellon
 University), and the Gaussian 82(TM) system (copyright 1983,
 Carnegie Mellon University). Gaussian is a federally registered
 trademark of Gaussian, Inc.
  
 This software contains proprietary and confidential information,
 including trade secrets, belonging to Gaussian, Inc.
  
 This software is provided under written license and may be
 used, copied, transmitted, or stored only in accord with that
 written license.
  
 The following legend is applicable only to US Government
 contracts under DFARS:
  
                    RESTRICTED RIGHTS LEGEND
  
 Use, duplication or disclosure by the US Government is subject
 to restrictions as set forth in subparagraph (c)(1)(ii) of the
 Rights in Technical Data and Computer Software clause at DFARS
 252.227-7013.
  
 Gaussian, Inc.
 Carnegie Office Park, Building 6, Pittsburgh, PA 15106 USA
  
 The following legend is applicable only to US Government
 contracts under FAR:
  
                    RESTRICTED RIGHTS LEGEND
  
 Use, reproduction and disclosure by the US Government is subject
 to restrictions as set forth in subparagraph (c) of the
 Commercial Computer Software - Restricted Rights clause at FAR
 52.227-19.
  
 Gaussian, Inc.
 Carnegie Office Park, Building 6, Pittsburgh, PA 15106 USA
  
  
 ---------------------------------------------------------------
 Warning -- This program may not be used in any manner that
 competes with the business of Gaussian, Inc. or will provide
 assistance to any competitor of Gaussian, Inc.  The licensee
 of this program is prohibited from giving any competitor of
 Gaussian, Inc. access to this program.  By using this program,
 the user acknowledges that Gaussian, Inc. is engaged in the
 business of creating and licensing software in the field of
 computational chemistry and represents and warrants to the
 licensee that it is not a competitor of Gaussian, Inc. and that
 it will not use this program in any manner prohibited above.
 ---------------------------------------------------------------
  

 Cite this work as:
 Gaussian 03, Revision B.03,
 M. J. Frisch, G. W. Trucks, H. B. Schlegel, G. E. Scuseria, 
 M. A. Robb, J. R. Cheeseman, J. A. Montgomery, Jr., T. Vreven, 
 K. N. Kudin, J. C. Burant, J. M. Millam, S. S. Iyengar, J. Tomasi, 
 V. Barone, B. Mennucci, M. Cossi, G. Scalmani, N. Rega, 
 G. A. Petersson, H. Nakatsuji, M. Hada, M. Ehara, K. Toyota, 
 R. Fukuda, J. Hasegawa, M. Ishida, T. Nakajima, Y. Honda, O. Kitao, 
 H. Nakai, M. Klene, X. Li, J. E. Knox, H. P. Hratchian, J. B. Cross, 
 C. Adamo, J. Jaramillo, R. Gomperts, R. E. Stratmann, O. Yazyev, 
 A. J. Austin, R. Cammi, C. Pomelli, J. W. Ochterski, P. Y. Ayala, 
 K. Morokuma, G. A. Voth, P. Salvador, J. J. Dannenberg, 
 V. G. Zakrzewski, S. Dapprich, A. D. Daniels, M. C. Strain, 
 O. Farkas, D. K. Malick, A. D. Rabuck, K. Raghavachari, 
 J. B. Foresman, J. V. Ortiz, Q. Cui, A. G. Baboul, S. Clifford, 
 J. Cioslowski, B. B. Stefanov, G. Liu, A. Liashenko, P. Piskorz, 
 I. Komaromi, R. L. Martin, D. J. Fox, T. Keith, M. A. Al-Laham, 
 C. Y. Peng, A. Nanayakkara, M. Challacombe, P. M. W. Gill, 
 B. Johnson, W. Chen, M. W. Wong, C. Gonzalez, and J. A. Pople, 
 Gaussian, Inc., Pittsburgh PA, 2003.
 
 *********************************************
 Gaussian 03:  x86-Win32-G03RevB.03 4-May-2003
                  01-Jul-2011 
 *********************************************
 %chk=D:\Dropbox\My Dropbox\Sajat gyujtes\Hehre MOLMOD\01\BeH2.chk
 Default route:  MaxDisk=2000MB
 -----------------------------------------------------------------
 #p opt freq b3lyp/6-31g(d,p) guess=(local,save) geom=connectivity
 -----------------------------------------------------------------
 1/14=-1,18=20,26=3,38=1,57=2/1,3;
 2/9=110,17=6,18=5,40=1/2;
 3/5=1,6=6,7=101,11=2,16=1,25=1,30=1,74=-5/1,2,3;
 4/9=10/1;
 5/5=2,38=5/2;
 6/7=2,8=2,9=2,10=2,28=1/1;
 7//1,2,3,16;
 1/14=-1,18=20/3(1);
 99//99;
 2/9=110/2;
 3/5=1,6=6,7=101,11=2,16=1,25=1,30=1,74=-5/1,2,3;
 4/5=5,16=3/1;
 5/5=2,38=5/2;
 7//1,2,3,16;
 1/14=-1,18=20/3(-5);
 2/9=110/2;
 6/7=2,8=2,9=2,10=2,19=2,28=1/1;
 99/9=1/99;
 Leave Link    1 at Fri Jul 01 20:39:15 2011, MaxMem=          0 cpu:       1.0
 (Enter C:\G03W\l101.exe)
 ----
 BeH2
 ----
 Symbolic Z-matrix:
 Charge =  0 Multiplicity = 1
 Be                    5.39103  -0.60763   0. 
 H                     6.58103  -0.60763   0. 
 H                     4.20103  -0.60763   0. 
 
                    Isotopes and Nuclear Properties:

  Atom         1           2           3
 IAtWgt=           9           1           1
 AtmWgt=   9.0121825   1.0078250   1.0078250
 IAtSpn=           3           1           1
 AtZEff=   0.0000000   0.0000000   0.0000000
 AtQMom=   5.3000000   0.0000000   0.0000000
 AtGFac=  -1.1779000   2.7928460   2.7928460
 Leave Link  101 at Fri Jul 01 20:39:15 2011, MaxMem=    6291456 cpu:       0.0
 (Enter C:\G03W\l103.exe)

 GradGradGradGradGradGradGradGradGradGradGradGradGradGradGradGradGradGrad
 Berny optimization.
 Initialization pass.
                           ----------------------------
                           !    Initial Parameters    !
                           ! (Angstroms and Degrees)  !
 --------------------------                            --------------------------
 ! Name  Definition              Value          Derivative Info.                !
 --------------------------------------------------------------------------------
 ! R1    R(1,2)                  1.19           estimate D2E/DX2                !
 ! R2    R(1,3)                  1.19           estimate D2E/DX2                !
 ! A1    L(2,1,3,-2,-1)        180.0            estimate D2E/DX2                !
 ! A2    L(2,1,3,-3,-2)        180.0            estimate D2E/DX2                !
 --------------------------------------------------------------------------------
 Trust Radius=3.00D-01 FncErr=1.00D-07 GrdErr=1.00D-06
 Number of steps in this run=  20 maximum allowed number of steps= 100.
 GradGradGradGradGradGradGradGradGradGradGradGradGradGradGradGradGradGrad

 Leave Link  103 at Fri Jul 01 20:39:16 2011, MaxMem=    6291456 cpu:       0.0
 (Enter C:\G03W\l202.exe)
                          Input orientation:                          
 ---------------------------------------------------------------------
 Center     Atomic     Atomic              Coordinates (Angstroms)
 Number     Number      Type              X           Y           Z
 ---------------------------------------------------------------------
    1          4             0        5.391035   -0.607634    0.000000
    2          1             0        6.581035   -0.607634    0.000000
    3          1             0        4.201035   -0.607634    0.000000
 ---------------------------------------------------------------------
                    Distance matrix (angstroms):
                    1          2          3
     1  Be   0.000000
     2  H    1.190000   0.000000
     3  H    1.190000   2.380000   0.000000
 Stoichiometry    BeH2
 Framework group  D*H[O(Be),C*(H.H)]
 Deg. of freedom     1
 Full point group                 D*H     NOp   8
 Largest Abelian subgroup         D2H     NOp   8
 Largest concise Abelian subgroup C2      NOp   2
                         Standard orientation:                         
 ---------------------------------------------------------------------
 Center     Atomic     Atomic              Coordinates (Angstroms)
 Number     Number      Type              X           Y           Z
 ---------------------------------------------------------------------
    1          4             0        0.000000    0.000000    0.000000
    2          1             0        0.000000    0.000000    1.190000
    3          1             0        0.000000    0.000000   -1.190000
 ---------------------------------------------------------------------
 Rotational constants (GHZ):      0.0000000    177.0549752    177.0549752
 Leave Link  202 at Fri Jul 01 20:39:16 2011, MaxMem=    6291456 cpu:       0.0
 (Enter C:\G03W\l301.exe)
 Standard basis: 6-31G(d,p) (6D, 7F)
 There are     9 symmetry adapted basis functions of AG  symmetry.
 There are     1 symmetry adapted basis functions of B1G symmetry.
 There are     2 symmetry adapted basis functions of B2G symmetry.
 There are     2 symmetry adapted basis functions of B3G symmetry.
 There are     0 symmetry adapted basis functions of AU  symmetry.
 There are     5 symmetry adapted basis functions of B1U symmetry.
 There are     3 symmetry adapted basis functions of B2U symmetry.
 There are     3 symmetry adapted basis functions of B3U symmetry.
 Integral buffers will be    262144 words long.
 Raffenetti 2 integral format.
 Two-electron integral symmetry is turned on.
    25 basis functions,    42 primitive gaussians,    25 cartesian basis functions
     3 alpha electrons        3 beta electrons
       nuclear repulsion energy         3.7798372021 Hartrees.
 IExCor= 402 DFT=T Ex=B+HF Corr=LYP ExCW=0 ScaHFX=  0.200000
 ScaDFX=  0.800000  0.720000  1.000000  0.810000
 IRadAn=      0 IRanWt=     -1 IRanGd=            0 ICorTp=0
 NAtoms=    3 NActive=    3 NUniq=    2 SFac= 2.76D+00 NAtFMM=   60 Big=F
 Leave Link  301 at Fri Jul 01 20:39:17 2011, MaxMem=    6291456 cpu:       1.0
 (Enter C:\G03W\l302.exe)
 NPDir=0 NMtPBC=     1 NCelOv=     1 NCel=       1 NClECP=     1 NCelD=      1
         NCelK=      1 NCelE2=     1 NClLst=     1 CellRange=     0.0.
 One-electron integrals computed using PRISM.
 One-electron integral symmetry used in STVInt
 NBasis=    25 RedAO= T  NBF=     9     1     2     2     0     5     3     3
 NBsUse=    25 1.00D-06 NBFU=     9     1     2     2     0     5     3     3
 Precomputing XC quadrature grid using
 IXCGrd= 2 IRadAn=           0 IRanWt=          -1 IRanGd=           0.
 NRdTot=     181 NPtTot=       22922 NUsed=       23744 NTot=       23760
 NSgBfM=    25    25    25    25.
 Leave Link  302 at Fri Jul 01 20:39:17 2011, MaxMem=    6291456 cpu:       0.0
 (Enter C:\G03W\l303.exe)
 DipDrv:  MaxL=1.
 Leave Link  303 at Fri Jul 01 20:39:18 2011, MaxMem=    6291456 cpu:       0.0
 (Enter C:\G03W\l401.exe)
 Initial guess orbitals will be localized.
 Harris functional with IExCor=  402 diagonalized for initial guess.
 ExpMin= 8.23D-02 ExpMax= 1.26D+03 ExpMxC= 1.90D+02 IAcc=2 IRadAn=         4 AccDes= 0.00D+00
 HarFok:  IExCor= 402 AccDes= 0.00D+00 IRadAn=         4 IDoV=1
 ScaDFX=  1.000000  1.000000  1.000000  1.000000
 Harris En= -15.9381704725718    
 LocMO: Using Boys method
 Initial Trace=-0.31545773D-16 Initial TraceA= 0.14145401D-31
 RMSG= 0.25149782D-09
 LocMO: Using Boys method
 Initial Trace= 0.13822376D-15 Initial TraceA= 0.43023175D-29
 Initial Trace= 0.13822376D-15 Initial TraceA= 0.43023175D-29
 Initial Trace= 0.13822376D-15 Initial TraceA= 0.43023175D-29
 Localization failed after    3 tries of 1000 iterations each.  Last change= 0.29274095D-05
 RMSG= 0.75323465D-06
 Initial guess orbital symmetries:
       Occupied  (SGG) (?A) (?A)
       Virtual   (?B) (?B) (?B) (?B) (?B) (?B) (?B) (?B) (?B) (?B)
                 (?B) (?B) (?B) (?B) (?B) (?B) (?B) (?B) (?B) (?B)
                 (?B) (?B)
 Leave Link  401 at Fri Jul 01 20:39:19 2011, MaxMem=    6291456 cpu:       1.0
 (Enter C:\G03W\l502.exe)
 Closed shell SCF:
 Requested convergence on RMS density matrix=1.00D-08 within 128 cycles.
 Requested convergence on MAX density matrix=1.00D-06.
 Requested convergence on             energy=1.00D-06.
 No special actions if energy rises.
 Using DIIS extrapolation, IDIIS=  1040.
 Integral symmetry usage will be decided dynamically.
        23743 words used for storage of precomputed grid.
 Keep R1 integrals in memory in canonical form, NReq=      534636.
 IEnd=     43196 IEndB=     43196 NGot=   6291456 MDV=   6212562
 LenX=   6212562
 Symmetry not used in FoFDir.
 MinBra= 0 MaxBra= 2 Meth= 1.
 IRaf=       0 NMat=   1 IRICut=       1 DoRegI=T DoRafI=F ISym2E= 0 JSym2E=0.
 Integral accuracy reduced to 1.0D-05 until final iterations.

 Cycle   1  Pass 0  IDiag  1:
 E= -15.8801490306118    
 DIIS: error= 2.99D-02 at cycle   1 NSaved=   1.
 NSaved= 1 IEnMin= 1 EnMin= -15.8801490306118     IErMin= 1 ErrMin= 2.99D-02
 ErrMax= 2.99D-02 EMaxC= 1.00D-01 BMatC= 1.55D-02 BMatP= 1.55D-02
 IDIUse=3 WtCom= 7.01D-01 WtEn= 2.99D-01
 Coeff-Com:  0.100D+01
 Coeff-En:   0.100D+01
 Coeff:      0.100D+01
 Gap=     0.986 Goal=   None    Shift=    0.000
 Fock symm off for IB=2 I1=    1 I=   10 J=    3 Cut=1.00D-04 Err=3.10D-01
 Fock matrix is not symmetric: symmetry in diagonalization turned off.
 GapD=    0.986 DampG=2.000 DampE=0.500 DampFc=1.0000 IDamp=-1.
 RMSDP=9.08D-03 MaxDP=7.25D-02              OVMax= 7.10D-01

 Cycle   2  Pass 0  IDiag  1:
 E= -15.9030116059097     Delta-E=       -0.022862575298 Rises=F Damp=F
 DIIS: error= 8.01D-03 at cycle   2 NSaved=   2.
 NSaved= 2 IEnMin= 2 EnMin= -15.9030116059097     IErMin= 2 ErrMin= 8.01D-03
 ErrMax= 8.01D-03 EMaxC= 1.00D-01 BMatC= 1.06D-03 BMatP= 1.55D-02
 IDIUse=3 WtCom= 9.20D-01 WtEn= 8.01D-02
 Coeff-Com:  0.205D+00 0.795D+00
 Coeff-En:   0.000D+00 0.100D+01
 Coeff:      0.189D+00 0.811D+00
 Gap=     0.305 Goal=   None    Shift=    0.000
 RMSDP=2.07D-03 MaxDP=2.22D-02 DE=-2.29D-02 OVMax= 2.68D-02

 Cycle   3  Pass 0  IDiag  1:
 E= -15.9049046684415     Delta-E=       -0.001893062532 Rises=F Damp=F
 DIIS: error= 3.14D-04 at cycle   3 NSaved=   3.
 NSaved= 3 IEnMin= 3 EnMin= -15.9049046684415     IErMin= 3 ErrMin= 3.14D-04
 ErrMax= 3.14D-04 EMaxC= 1.00D-01 BMatC= 1.63D-06 BMatP= 1.06D-03
 IDIUse=3 WtCom= 9.97D-01 WtEn= 3.14D-03
 Coeff-Com: -0.423D-03 0.343D-01 0.966D+00
 Coeff-En:   0.000D+00 0.000D+00 0.100D+01
 Coeff:     -0.421D-03 0.342D-01 0.966D+00
 Gap=     0.304 Goal=   None    Shift=    0.000
 RMSDP=1.01D-04 MaxDP=8.91D-04 DE=-1.89D-03 OVMax= 1.00D-03

 Cycle   4  Pass 0  IDiag  1:
 E= -15.9049075651247     Delta-E=       -0.000002896683 Rises=F Damp=F
 DIIS: error= 3.12D-05 at cycle   4 NSaved=   4.
 NSaved= 4 IEnMin= 4 EnMin= -15.9049075651247     IErMin= 4 ErrMin= 3.12D-05
 ErrMax= 3.12D-05 EMaxC= 1.00D-01 BMatC= 1.31D-08 BMatP= 1.63D-06
 IDIUse=1 WtCom= 1.00D+00 WtEn= 0.00D+00
 Coeff-Com: -0.177D-02 0.172D-03 0.179D+00 0.823D+00
 Coeff:     -0.177D-02 0.172D-03 0.179D+00 0.823D+00
 Gap=     0.304 Goal=   None    Shift=    0.000
 RMSDP=9.44D-06 MaxDP=9.20D-05 DE=-2.90D-06 OVMax= 7.11D-05

 Initial convergence to 1.0D-05 achieved.  Increase integral accuracy.
 Cycle   5  Pass 1  IDiag  1:
 E= -15.9049099210964     Delta-E=       -0.000002355972 Rises=F Damp=F
 DIIS: error= 2.68D-05 at cycle   1 NSaved=   1.
 NSaved= 1 IEnMin= 1 EnMin= -15.9049099210964     IErMin= 1 ErrMin= 2.68D-05
 ErrMax= 2.68D-05 EMaxC= 1.00D-01 BMatC= 2.17D-08 BMatP= 2.17D-08
 IDIUse=1 WtCom= 1.00D+00 WtEn= 0.00D+00
 Coeff-Com:  0.100D+01
 Coeff:      0.100D+01
 Gap=     0.304 Goal=   None    Shift=    0.000
 RMSDP=9.44D-06 MaxDP=9.20D-05 DE=-2.36D-06 OVMax= 3.94D-05

 Cycle   6  Pass 1  IDiag  1:
 E= -15.9049099335338     Delta-E=       -0.000000012437 Rises=F Damp=F
 DIIS: error= 1.94D-06 at cycle   2 NSaved=   2.
 NSaved= 2 IEnMin= 2 EnMin= -15.9049099335338     IErMin= 2 ErrMin= 1.94D-06
 ErrMax= 1.94D-06 EMaxC= 1.00D-01 BMatC= 4.44D-11 BMatP= 2.17D-08
 IDIUse=1 WtCom= 1.00D+00 WtEn= 0.00D+00
 Coeff-Com: -0.337D-01 0.103D+01
 Coeff:     -0.337D-01 0.103D+01
 Gap=     0.304 Goal=   None    Shift=    0.000
 RMSDP=6.03D-07 MaxDP=6.77D-06 DE=-1.24D-08 OVMax= 4.24D-06

 Cycle   7  Pass 1  IDiag  1:
 E= -15.9049099335934     Delta-E=       -0.000000000060 Rises=F Damp=F
 DIIS: error= 1.29D-07 at cycle   3 NSaved=   3.
 NSaved= 3 IEnMin= 3 EnMin= -15.9049099335934     IErMin= 3 ErrMin= 1.29D-07
 ErrMax= 1.29D-07 EMaxC= 1.00D-01 BMatC= 2.59D-13 BMatP= 4.44D-11
 IDIUse=1 WtCom= 1.00D+00 WtEn= 0.00D+00
 Coeff-Com: -0.509D-03-0.168D-01 0.102D+01
 Coeff:     -0.509D-03-0.168D-01 0.102D+01
 Gap=     0.304 Goal=   None    Shift=    0.000
 RMSDP=5.67D-08 MaxDP=6.83D-07 DE=-5.97D-11 OVMax= 6.30D-07

 Cycle   8  Pass 1  IDiag  1:
 E= -15.9049099335940     Delta-E=       -0.000000000001 Rises=F Damp=F
 DIIS: error= 3.83D-08 at cycle   4 NSaved=   4.
 NSaved= 4 IEnMin= 4 EnMin= -15.9049099335940     IErMin= 4 ErrMin= 3.83D-08
 ErrMax= 3.83D-08 EMaxC= 1.00D-01 BMatC= 1.96D-14 BMatP= 2.59D-13
 IDIUse=1 WtCom= 1.00D+00 WtEn= 0.00D+00
 Coeff-Com:  0.337D-03-0.172D-01 0.209D+00 0.808D+00
 Coeff:      0.337D-03-0.172D-01 0.209D+00 0.808D+00
 Gap=     0.304 Goal=   None    Shift=    0.000
 RMSDP=1.15D-08 MaxDP=1.24D-07 DE=-5.29D-13 OVMax= 9.23D-08

 Cycle   9  Pass 1  IDiag  1:
 E= -15.9049099335940     Delta-E=        0.000000000000 Rises=F Damp=F
 DIIS: error= 8.31D-10 at cycle   5 NSaved=   5.
 NSaved= 5 IEnMin= 5 EnMin= -15.9049099335940     IErMin= 5 ErrMin= 8.31D-10
 ErrMax= 8.31D-10 EMaxC= 1.00D-01 BMatC= 1.19D-17 BMatP= 1.96D-14
 IDIUse=1 WtCom= 1.00D+00 WtEn= 0.00D+00
 Coeff-Com:  0.718D-05-0.182D-03-0.110D-02-0.191D-01 0.102D+01
 Coeff:      0.718D-05-0.182D-03-0.110D-02-0.191D-01 0.102D+01
 Gap=     0.304 Goal=   None    Shift=    0.000
 RMSDP=2.43D-10 MaxDP=3.00D-09 DE=-3.55D-14 OVMax= 2.40D-09

 SCF Done:  E(RB+HF-LYP) =  -15.9049099336     A.U. after    9 cycles
             Convg  =    0.2431D-09             -V/T =  1.9954
             S**2   =   0.0000
 KE= 1.597858920339D+01 PE=-4.382300815241D+01 EE= 8.159671813286D+00
 Leave Link  502 at Fri Jul 01 20:39:20 2011, MaxMem=    6291456 cpu:       1.0
 (Enter C:\G03W\l601.exe)
 Copying SCF densities to generalized density rwf, ISCF=0 IROHF=0.

 **********************************************************************

            Population analysis using the SCF density.

 **********************************************************************

 Orbital symmetries:
       Occupied  (SGG) (SGG) (SGU)
       Virtual   (PIU) (PIU) (SGG) (SGU) (PIU) (PIU) (SGG) (SGU)
                 (SGG) (PIG) (PIG) (DLTG) (DLTG) (SGU) (SGG) (PIU)
                 (PIU) (PIG) (PIG) (SGG) (SGU) (SGG)
 The electronic state is 1-SGG.
 Alpha  occ. eigenvalues --   -4.00988  -0.35734  -0.32595
 Alpha virt. eigenvalues --   -0.02185  -0.02185   0.11096   0.16815   0.30980
 Alpha virt. eigenvalues --    0.30980   0.31911   0.48828   0.74358   0.80336
 Alpha virt. eigenvalues --    0.80336   0.89390   0.89393   1.27288   1.84528
 Alpha virt. eigenvalues --    2.16061   2.16061   2.59100   2.59100   2.65098
 Alpha virt. eigenvalues --    2.93447   3.50921
          Condensed to atoms (all electrons):
              1          2          3
     1  Be   3.121235   0.437593   0.437593
     2  H    0.437593   0.553072   0.011125
     3  H    0.437593   0.011125   0.553072
 Mulliken atomic charges:
              1
     1  Be   0.003580
     2  H   -0.001790
     3  H   -0.001790
 Sum of Mulliken charges=   0.00000
 Atomic charges with hydrogens summed into heavy atoms:
              1
     1  Be   0.000000
     2  H    0.000000
     3  H    0.000000
 Sum of Mulliken charges=   0.00000
 Electronic spatial extent (au):  <R**2>=    27.1635
 Charge=     0.0000 electrons
 Dipole moment (field-independent basis, Debye):
    X=     0.0000    Y=     0.0000    Z=     0.0000  Tot=     0.0000
 Quadrupole moment (field-independent basis, Debye-Ang):
   XX=    -6.3035   YY=    -6.3035   ZZ=   -10.3253
   XY=     0.0000   XZ=     0.0000   YZ=     0.0000
 Traceless Quadrupole moment (field-independent basis, Debye-Ang):
   XX=     1.3406   YY=     1.3406   ZZ=    -2.6812
   XY=     0.0000   XZ=     0.0000   YZ=     0.0000
 Octapole moment (field-independent basis, Debye-Ang**2):
  XXX=     0.0000  YYY=     0.0000  ZZZ=     0.0000  XYY=     0.0000
  XXY=     0.0000  XXZ=     0.0000  XZZ=     0.0000  YZZ=     0.0000
  YYZ=     0.0000  XYZ=     0.0000
 Hexadecapole moment (field-independent basis, Debye-Ang**3):
 XXXX=    -8.1623 YYYY=    -8.1623 ZZZZ=   -34.6635 XXXY=     0.0000
 XXXZ=     0.0000 YYYX=     0.0000 YYYZ=     0.0000 ZZZX=     0.0000
 ZZZY=     0.0000 XXYY=    -2.7208 XXZZ=    -7.4934 YYZZ=    -7.4934
 XXYZ=     0.0000 YYXZ=     0.0000 ZZXY=     0.0000
 N-N= 3.779837202143D+00 E-N=-4.382300815441D+01  KE= 1.597858920339D+01
 Symmetry AG   KE= 1.477066059012D+01
 Symmetry B1G  KE= 1.952161693452D-32
 Symmetry B2G  KE= 5.534565579084D-31
 Symmetry B3G  KE= 2.384421389957D-31
 Symmetry AU   KE= 0.000000000000D+00
 Symmetry B1U  KE= 1.207928613267D+00
 Symmetry B2U  KE= 8.592656600056D-31
 Symmetry B3U  KE= 1.480316569554D-31
 No NMR shielding tensors so no spin-rotation constants.
 Leave Link  601 at Fri Jul 01 20:39:21 2011, MaxMem=    6291456 cpu:       0.0
 (Enter C:\G03W\l701.exe)
 Compute integral first derivatives.
 ... and contract with generalized density number  0.
 Leave Link  701 at Fri Jul 01 20:39:22 2011, MaxMem=    6291456 cpu:       1.0
 (Enter C:\G03W\l702.exe)
 L702 exits ... SP integral derivatives will be done elsewhere.
 Leave Link  702 at Fri Jul 01 20:39:22 2011, MaxMem=    6291456 cpu:       0.0
 (Enter C:\G03W\l703.exe)
 Compute integral first derivatives, UseDBF=F.
 Integral derivatives from FoFDir, PRISM(SPDF).
 Petite list used in FoFDir.
 MinBra= 0 MaxBra= 2 Meth= 1.
 IRaf=       0 NMat=   1 IRICut=       1 DoRegI=T DoRafI=F ISym2E= 1 JSym2E=1.
 Leave Link  703 at Fri Jul 01 20:39:23 2011, MaxMem=    6291456 cpu:       1.0
 (Enter C:\G03W\l716.exe)
 Dipole        =-4.13380113D-17 1.71773355D-31-8.88178420D-16
 ***** Axes restored to original set *****
 -------------------------------------------------------------------
 Center     Atomic                   Forces (Hartrees/Bohr)
 Number     Number              X              Y              Z
 -------------------------------------------------------------------
    1          4           0.000000000    0.000000000    0.000000000
    2          1           0.056120212    0.000000000    0.000000000
    3          1          -0.056120212    0.000000000    0.000000000
 -------------------------------------------------------------------
 Cartesian Forces:  Max     0.056120212 RMS     0.026455322
 Leave Link  716 at Fri Jul 01 20:39:23 2011, MaxMem=    6291456 cpu:       0.0
 (Enter C:\G03W\l103.exe)

 GradGradGradGradGradGradGradGradGradGradGradGradGradGradGradGradGradGrad
 Berny optimization.
 Internal  Forces:  Max     0.056120212 RMS     0.039682983
 Search for a local minimum.
 Step number   1 out of a maximum of  20
 All quantities printed in internal units (Hartrees-Bohrs-Radians)
 Second derivative matrix not updated -- first step.
 The second derivative matrix:
                          R1        R2        A1        A2
           R1           0.25410
           R2           0.00000   0.25410
           A1           0.00000   0.00000   0.16000
           A2           0.00000   0.00000   0.00000   0.16000
     Eigenvalues ---    0.16000   0.16000   0.25410   0.25410
 RFO step:  Lambda=-2.27521652D-02.
 Linear search not attempted -- first point.
 Iteration  1 RMS(Cart)=  0.14142136 RMS(Int)=  0.00191574
 Iteration  2 RMS(Cart)=  0.00191574 RMS(Int)=  0.00000000
 Iteration  3 RMS(Cart)=  0.00000000 RMS(Int)=  0.00000000
 Variable       Old X    -DE/DX   Delta X   Delta X   Delta X     New X
                                 (Linear)    (Quad)   (Total)
    R1        2.24877   0.05612   0.00000   0.20271   0.20271   2.45148
    R2        2.24877   0.05612   0.00000   0.20271   0.20271   2.45148
    A1        3.14159   0.00000   0.00000   0.00000   0.00000   3.14159
    A2        3.14159   0.00000   0.00000   0.00000   0.00000   3.14159
         Item               Value     Threshold  Converged?
 Maximum Force            0.056120     0.000450     NO 
 RMS     Force            0.039683     0.000300     NO 
 Maximum Displacement     0.202709     0.001800     NO 
 RMS     Displacement     0.143337     0.001200     NO 
 Predicted change in Energy=-1.231100D-02
 GradGradGradGradGradGradGradGradGradGradGradGradGradGradGradGradGradGrad

 Leave Link  103 at Fri Jul 01 20:39:24 2011, MaxMem=    6291456 cpu:       1.0
 (Enter C:\G03W\l202.exe)
                          Input orientation:                          
 ---------------------------------------------------------------------
 Center     Atomic     Atomic              Coordinates (Angstroms)
 Number     Number      Type              X           Y           Z
 ---------------------------------------------------------------------
    1          4             0        5.391035   -0.607634    0.000000
    2          1             0        6.688304   -0.607634    0.000000
    3          1             0        4.093766   -0.607634    0.000000
 ---------------------------------------------------------------------
                    Distance matrix (angstroms):
                    1          2          3
     1  Be   0.000000
     2  H    1.297269   0.000000
     3  H    1.297269   2.594538   0.000000
 Stoichiometry    BeH2
 Framework group  D*H[O(Be),C*(H.H)]
 Deg. of freedom     1
 Full point group                 D*H     NOp   8
 Largest Abelian subgroup         D2H     NOp   8
 Largest concise Abelian subgroup C2      NOp   2
                         Standard orientation:                         
 ---------------------------------------------------------------------
 Center     Atomic     Atomic              Coordinates (Angstroms)
 Number     Number      Type              X           Y           Z
 ---------------------------------------------------------------------
    1          4             0        0.000000    0.000000    0.000000
    2          1             0        0.000000    0.000000    1.297269
    3          1             0        0.000000    0.000000   -1.297269
 ---------------------------------------------------------------------
 Rotational constants (GHZ):      0.0000000    148.9847776    148.9847776
 Leave Link  202 at Fri Jul 01 20:39:24 2011, MaxMem=    6291456 cpu:       0.0
 (Enter C:\G03W\l301.exe)
 Standard basis: 6-31G(d,p) (6D, 7F)
 There are     9 symmetry adapted basis functions of AG  symmetry.
 There are     1 symmetry adapted basis functions of B1G symmetry.
 There are     2 symmetry adapted basis functions of B2G symmetry.
 There are     2 symmetry adapted basis functions of B3G symmetry.
 There are     0 symmetry adapted basis functions of AU  symmetry.
 There are     5 symmetry adapted basis functions of B1U symmetry.
 There are     3 symmetry adapted basis functions of B2U symmetry.
 There are     3 symmetry adapted basis functions of B3U symmetry.
 Integral buffers will be    262144 words long.
 Raffenetti 2 integral format.
 Two-electron integral symmetry is turned on.
    25 basis functions,    42 primitive gaussians,    25 cartesian basis functions
     3 alpha electrons        3 beta electrons
       nuclear repulsion energy         3.4672884758 Hartrees.
 IExCor= 402 DFT=T Ex=B+HF Corr=LYP ExCW=0 ScaHFX=  0.200000
 ScaDFX=  0.800000  0.720000  1.000000  0.810000
 IRadAn=      0 IRanWt=     -1 IRanGd=            0 ICorTp=0
 NAtoms=    3 NActive=    3 NUniq=    2 SFac= 2.76D+00 NAtFMM=   60 Big=F
 Leave Link  301 at Fri Jul 01 20:39:25 2011, MaxMem=    6291456 cpu:       1.0
 (Enter C:\G03W\l302.exe)
 NPDir=0 NMtPBC=     1 NCelOv=     1 NCel=       1 NClECP=     1 NCelD=      1
         NCelK=      1 NCelE2=     1 NClLst=     1 CellRange=     0.0.
 One-electron integrals computed using PRISM.
 One-electron integral symmetry used in STVInt
 NBasis=    25 RedAO= T  NBF=     9     1     2     2     0     5     3     3
 NBsUse=    25 1.00D-06 NBFU=     9     1     2     2     0     5     3     3
 Precomputing XC quadrature grid using
 IXCGrd= 2 IRadAn=           0 IRanWt=          -1 IRanGd=           0.
 NRdTot=     181 NPtTot=       22922 NUsed=       23744 NTot=       23760
 NSgBfM=    25    25    25    25.
 Leave Link  302 at Fri Jul 01 20:39:25 2011, MaxMem=    6291456 cpu:       0.0
 (Enter C:\G03W\l303.exe)
 DipDrv:  MaxL=1.
 Leave Link  303 at Fri Jul 01 20:39:25 2011, MaxMem=    6291456 cpu:       0.0
 (Enter C:\G03W\l401.exe)
 Initial guess read from the read-write file:
 Guess basis will be translated and rotated to current coordinates.
 Initial guess orbital symmetries:
       Occupied  (SGG) (SGG) (SGU)
       Virtual   (PIU) (PIU) (SGG) (SGU) (PIU) (PIU) (SGG) (SGU)
                 (SGG) (PIG) (PIG) (DLTG) (DLTG) (SGU) (SGG) (PIU)
                 (PIU) (PIG) (PIG) (SGG) (SGU) (SGG)
 The electronic state of the initial guess is 1-SGG.
 Generating alternative initial guess.
 Harris functional with IExCor=  402 diagonalized for initial guess.
 ExpMin= 8.23D-02 ExpMax= 1.26D+03 ExpMxC= 1.90D+02 IAcc=2 IRadAn=         4 AccDes= 0.00D+00
 HarFok:  IExCor= 402 AccDes= 0.00D+00 IRadAn=         4 IDoV=1
 ScaDFX=  1.000000  1.000000  1.000000  1.000000
 Harris En= -15.9383558559452    
 Leave Link  401 at Fri Jul 01 20:39:26 2011, MaxMem=    6291456 cpu:       1.0
 (Enter C:\G03W\l502.exe)
 Closed shell SCF:
 Requested convergence on RMS density matrix=1.00D-08 within 128 cycles.
 Requested convergence on MAX density matrix=1.00D-06.
 Requested convergence on             energy=1.00D-06.
 No special actions if energy rises.
 Using DIIS extrapolation, IDIIS=  1040.
 Integral symmetry usage will be decided dynamically.
        23743 words used for storage of precomputed grid.
 Keep R1 integrals in memory in canonical form, NReq=      534636.
 IEnd=     43196 IEndB=     43196 NGot=   6291456 MDV=   6212562
 LenX=   6212562
 Symmetry not used in FoFDir.
 MinBra= 0 MaxBra= 2 Meth= 1.
 IRaf=       0 NMat=   1 IRICut=       1 DoRegI=T DoRafI=F ISym2E= 0 JSym2E=0.
 Integral accuracy reduced to 1.0D-05 until final iterations.
 A guess orbital has undefined symmetry, so N**3 symmetry is turned off.

 Cycle   1  Pass 0  IDiag  1:
 E= -15.9158149952633    
 DIIS: error= 8.48D-03 at cycle   1 NSaved=   1.
 NSaved= 1 IEnMin= 1 EnMin= -15.9158149952633     IErMin= 1 ErrMin= 8.48D-03
 ErrMax= 8.48D-03 EMaxC= 1.00D-01 BMatC= 1.07D-03 BMatP= 1.07D-03
 IDIUse=3 WtCom= 9.15D-01 WtEn= 8.48D-02
 Coeff-Com:  0.100D+01
 Coeff-En:   0.100D+01
 Coeff:      0.100D+01
 Gap=     0.287 Goal=   None    Shift=    0.000
 GapD=    0.287 DampG=1.000 DampE=1.000 DampFc=1.0000 IDamp=-1.
 RMSDP=2.91D-03 MaxDP=3.15D-02              OVMax= 3.32D-02

 Cycle   2  Pass 0  IDiag  1:
 E= -15.9175419891342     Delta-E=       -0.001726993871 Rises=F Damp=F
 DIIS: error= 1.77D-03 at cycle   2 NSaved=   2.
 NSaved= 2 IEnMin= 2 EnMin= -15.9175419891342     IErMin= 2 ErrMin= 1.77D-03
 ErrMax= 1.77D-03 EMaxC= 1.00D-01 BMatC= 4.75D-05 BMatP= 1.07D-03
 IDIUse=3 WtCom= 9.82D-01 WtEn= 1.77D-02
 Coeff-Com:  0.146D+00 0.854D+00
 Coeff-En:   0.000D+00 0.100D+01
 Coeff:      0.143D+00 0.857D+00
 Gap=     0.291 Goal=   None    Shift=    0.000
 RMSDP=6.68D-04 MaxDP=6.31D-03 DE=-1.73D-03 OVMax= 5.79D-03

 Cycle   3  Pass 0  IDiag  1:
 E= -15.9176344204350     Delta-E=       -0.000092431301 Rises=F Damp=F
 DIIS: error= 2.12D-04 at cycle   3 NSaved=   3.
 NSaved= 3 IEnMin= 3 EnMin= -15.9176344204350     IErMin= 3 ErrMin= 2.12D-04
 ErrMax= 2.12D-04 EMaxC= 1.00D-01 BMatC= 4.52D-07 BMatP= 4.75D-05
 IDIUse=3 WtCom= 9.98D-01 WtEn= 2.12D-03
 Coeff-Com: -0.605D-02 0.607D-01 0.945D+00
 Coeff-En:   0.000D+00 0.000D+00 0.100D+01
 Coeff:     -0.603D-02 0.606D-01 0.945D+00
 Gap=     0.291 Goal=   None    Shift=    0.000
 RMSDP=5.91D-05 MaxDP=6.56D-04 DE=-9.24D-05 OVMax= 6.41D-04

 Cycle   4  Pass 0  IDiag  1:
 E= -15.9176352506623     Delta-E=       -0.000000830227 Rises=F Damp=F
 DIIS: error= 1.12D-05 at cycle   4 NSaved=   4.
 NSaved= 4 IEnMin= 4 EnMin= -15.9176352506623     IErMin= 4 ErrMin= 1.12D-05
 ErrMax= 1.12D-05 EMaxC= 1.00D-01 BMatC= 3.11D-09 BMatP= 4.52D-07
 IDIUse=1 WtCom= 1.00D+00 WtEn= 0.00D+00
 Coeff-Com: -0.171D-02 0.172D-02 0.983D-01 0.902D+00
 Coeff:     -0.171D-02 0.172D-02 0.983D-01 0.902D+00
 Gap=     0.291 Goal=   None    Shift=    0.000
 RMSDP=4.30D-06 MaxDP=4.49D-05 DE=-8.30D-07 OVMax= 5.85D-05

 Initial convergence to 1.0D-05 achieved.  Increase integral accuracy.
 Cycle   5  Pass 1  IDiag  1:
 E= -15.9176478304414     Delta-E=       -0.000012579779 Rises=F Damp=F
 DIIS: error= 2.61D-05 at cycle   1 NSaved=   1.
 NSaved= 1 IEnMin= 1 EnMin= -15.9176478304414     IErMin= 1 ErrMin= 2.61D-05
 ErrMax= 2.61D-05 EMaxC= 1.00D-01 BMatC= 9.68D-09 BMatP= 9.68D-09
 IDIUse=1 WtCom= 1.00D+00 WtEn= 0.00D+00
 Coeff-Com:  0.100D+01
 Coeff:      0.100D+01
 Gap=     0.291 Goal=   None    Shift=    0.000
 RMSDP=4.30D-06 MaxDP=4.49D-05 DE=-1.26D-05 OVMax= 3.93D-05

 Cycle   6  Pass 1  IDiag  1:
 E= -15.9176478367699     Delta-E=       -0.000000006328 Rises=F Damp=F
 DIIS: error= 2.03D-06 at cycle   2 NSaved=   2.
 NSaved= 2 IEnMin= 2 EnMin= -15.9176478367699     IErMin= 2 ErrMin= 2.03D-06
 ErrMax= 2.03D-06 EMaxC= 1.00D-01 BMatC= 4.18D-11 BMatP= 9.68D-09
 IDIUse=1 WtCom= 1.00D+00 WtEn= 0.00D+00
 Coeff-Com: -0.313D-01 0.103D+01
 Coeff:     -0.313D-01 0.103D+01
 Gap=     0.291 Goal=   None    Shift=    0.000
 RMSDP=6.06D-07 MaxDP=5.73D-06 DE=-6.33D-09 OVMax= 5.52D-06

 Cycle   7  Pass 1  IDiag  1:
 E= -15.9176478368248     Delta-E=       -0.000000000055 Rises=F Damp=F
 DIIS: error= 2.64D-07 at cycle   3 NSaved=   3.
 NSaved= 3 IEnMin= 3 EnMin= -15.9176478368248     IErMin= 3 ErrMin= 2.64D-07
 ErrMax= 2.64D-07 EMaxC= 1.00D-01 BMatC= 1.91D-12 BMatP= 4.18D-11
 IDIUse=1 WtCom= 1.00D+00 WtEn= 0.00D+00
 Coeff-Com: -0.739D-02 0.171D+00 0.836D+00
 Coeff:     -0.739D-02 0.171D+00 0.836D+00
 Gap=     0.291 Goal=   None    Shift=    0.000
 RMSDP=1.00D-07 MaxDP=8.58D-07 DE=-5.49D-11 OVMax= 1.45D-06

 Cycle   8  Pass 1  IDiag  1:
 E= -15.9176478368283     Delta-E=       -0.000000000004 Rises=F Damp=F
 DIIS: error= 4.82D-08 at cycle   4 NSaved=   4.
 NSaved= 4 IEnMin= 4 EnMin= -15.9176478368283     IErMin= 4 ErrMin= 4.82D-08
 ErrMax= 4.82D-08 EMaxC= 1.00D-01 BMatC= 3.09D-14 BMatP= 1.91D-12
 IDIUse=1 WtCom= 1.00D+00 WtEn= 0.00D+00
 Coeff-Com:  0.296D-03-0.166D-01 0.585D-01 0.958D+00
 Coeff:      0.296D-03-0.166D-01 0.585D-01 0.958D+00
 Gap=     0.291 Goal=   None    Shift=    0.000
 RMSDP=1.34D-08 MaxDP=1.49D-07 DE=-3.53D-12 OVMax= 1.31D-07

 Cycle   9  Pass 1  IDiag  1:
 E= -15.9176478368283     Delta-E=        0.000000000000 Rises=F Damp=F
 DIIS: error= 2.45D-09 at cycle   5 NSaved=   5.
 NSaved= 5 IEnMin= 5 EnMin= -15.9176478368283     IErMin= 5 ErrMin= 2.45D-09
 ErrMax= 2.45D-09 EMaxC= 1.00D-01 BMatC= 9.98D-17 BMatP= 3.09D-14
 IDIUse=1 WtCom= 1.00D+00 WtEn= 0.00D+00
 Coeff-Com:  0.776D-04-0.326D-02 0.509D-02 0.119D+00 0.879D+00
 Coeff:      0.776D-04-0.326D-02 0.509D-02 0.119D+00 0.879D+00
 Gap=     0.291 Goal=   None    Shift=    0.000
 RMSDP=8.59D-10 MaxDP=7.30D-09 DE=-2.84D-14 OVMax= 7.72D-09

 SCF Done:  E(RB+HF-LYP) =  -15.9176478368     A.U. after    9 cycles
             Convg  =    0.8586D-09             -V/T =  2.0083
             S**2   =   0.0000
 KE= 1.578623727664D+01 PE=-4.305245946667D+01 EE= 7.881285877366D+00
 Leave Link  502 at Fri Jul 01 20:39:27 2011, MaxMem=    6291456 cpu:       1.0
 (Enter C:\G03W\l701.exe)
 Compute integral first derivatives.
 ... and contract with generalized density number  0.
 Leave Link  701 at Fri Jul 01 20:39:27 2011, MaxMem=    6291456 cpu:       0.0
 (Enter C:\G03W\l702.exe)
 L702 exits ... SP integral derivatives will be done elsewhere.
 Leave Link  702 at Fri Jul 01 20:39:27 2011, MaxMem=    6291456 cpu:       0.0
 (Enter C:\G03W\l703.exe)
 Compute integral first derivatives, UseDBF=F.
 Integral derivatives from FoFDir, PRISM(SPDF).
 Petite list used in FoFDir.
 MinBra= 0 MaxBra= 2 Meth= 1.
 IRaf=       0 NMat=   1 IRICut=       1 DoRegI=T DoRafI=F ISym2E= 1 JSym2E=1.
 Leave Link  703 at Fri Jul 01 20:39:28 2011, MaxMem=    6291456 cpu:       1.0
 (Enter C:\G03W\l716.exe)
 Dipole        =-5.06957650D-17 7.39557099D-32-4.44089210D-16
 ***** Axes restored to original set *****
 -------------------------------------------------------------------
 Center     Atomic                   Forces (Hartrees/Bohr)
 Number     Number              X              Y              Z
 -------------------------------------------------------------------
    1          4           0.000000000    0.000000000    0.000000000
    2          1           0.010037333    0.000000000    0.000000000
    3          1          -0.010037333    0.000000000    0.000000000
 -------------------------------------------------------------------
 Cartesian Forces:  Max     0.010037333 RMS     0.004731644
 Leave Link  716 at Fri Jul 01 20:39:28 2011, MaxMem=    6291456 cpu:       0.0
 (Enter C:\G03W\l103.exe)

 GradGradGradGradGradGradGradGradGradGradGradGradGradGradGradGradGradGrad
 Berny optimization.
 Internal  Forces:  Max     0.010037333 RMS     0.007097466
 Search for a local minimum.
 Step number   2 out of a maximum of  20
 All quantities printed in internal units (Hartrees-Bohrs-Radians)
 Update second derivatives using D2CorX and points  1  2
 Trust test= 1.03D+00 RLast= 2.87D-01 DXMaxT set to 4.24D-01
 The second derivative matrix:
                          R1        R2        A1        A2
           R1           0.24072
           R2          -0.01338   0.24072
           A1           0.00000   0.00000   0.16000
           A2           0.00000   0.00000   0.00000   0.16000
     Eigenvalues ---    0.16000   0.16000   0.22733   0.25410
 RFO step:  Lambda= 0.00000000D+00.
 Quartic linear search produced a step of  0.29590.
 Iteration  1 RMS(Cart)=  0.04241358 RMS(Int)=  0.00000000
 Iteration  2 RMS(Cart)=  0.00000000 RMS(Int)=  0.00000000
 Variable       Old X    -DE/DX   Delta X   Delta X   Delta X     New X
                                 (Linear)    (Quad)   (Total)
    R1        2.45148   0.01004   0.05998   0.00000   0.05998   2.51147
    R2        2.45148   0.01004   0.05998   0.00000   0.05998   2.51147
    A1        3.14159   0.00000   0.00000   0.00000   0.00000   3.14159
    A2        3.14159   0.00000   0.00000   0.00000   0.00000   3.14159
         Item               Value     Threshold  Converged?
 Maximum Force            0.010037     0.000450     NO 
 RMS     Force            0.007097     0.000300     NO 
 Maximum Displacement     0.059982     0.001800     NO 
 RMS     Displacement     0.042414     0.001200     NO 
 Predicted change in Energy=-3.862052D-04
 GradGradGradGradGradGradGradGradGradGradGradGradGradGradGradGradGradGrad

 Leave Link  103 at Fri Jul 01 20:39:28 2011, MaxMem=    6291456 cpu:       0.0
 (Enter C:\G03W\l202.exe)
                          Input orientation:                          
 ---------------------------------------------------------------------
 Center     Atomic     Atomic              Coordinates (Angstroms)
 Number     Number      Type              X           Y           Z
 ---------------------------------------------------------------------
    1          4             0        5.391035   -0.607634    0.000000
    2          1             0        6.720045   -0.607634    0.000000
    3          1             0        4.062025   -0.607634    0.000000
 ---------------------------------------------------------------------
                    Distance matrix (angstroms):
                    1          2          3
     1  Be   0.000000
     2  H    1.329010   0.000000
     3  H    1.329010   2.658020   0.000000
 Stoichiometry    BeH2
 Framework group  D*H[O(Be),C*(H.H)]
 Deg. of freedom     1
 Full point group                 D*H     NOp   8
 Largest Abelian subgroup         D2H     NOp   8
 Largest concise Abelian subgroup C2      NOp   2
                         Standard orientation:                         
 ---------------------------------------------------------------------
 Center     Atomic     Atomic              Coordinates (Angstroms)
 Number     Number      Type              X           Y           Z
 ---------------------------------------------------------------------
    1          4             0        0.000000    0.000000    0.000000
    2          1             0        0.000000    0.000000    1.329010
    3          1             0        0.000000    0.000000   -1.329010
 ---------------------------------------------------------------------
 Rotational constants (GHZ):      0.0000000    141.9532898    141.9532898
 Leave Link  202 at Fri Jul 01 20:39:29 2011, MaxMem=    6291456 cpu:       0.0
 (Enter C:\G03W\l301.exe)
 Standard basis: 6-31G(d,p) (6D, 7F)
 There are     9 symmetry adapted basis functions of AG  symmetry.
 There are     1 symmetry adapted basis functions of B1G symmetry.
 There are     2 symmetry adapted basis functions of B2G symmetry.
 There are     2 symmetry adapted basis functions of B3G symmetry.
 There are     0 symmetry adapted basis functions of AU  symmetry.
 There are     5 symmetry adapted basis functions of B1U symmetry.
 There are     3 symmetry adapted basis functions of B2U symmetry.
 There are     3 symmetry adapted basis functions of B3U symmetry.
 Integral buffers will be    262144 words long.
 Raffenetti 2 integral format.
 Two-electron integral symmetry is turned on.
    25 basis functions,    42 primitive gaussians,    25 cartesian basis functions
     3 alpha electrons        3 beta electrons
       nuclear repulsion energy         3.3844784925 Hartrees.
 IExCor= 402 DFT=T Ex=B+HF Corr=LYP ExCW=0 ScaHFX=  0.200000
 ScaDFX=  0.800000  0.720000  1.000000  0.810000
 IRadAn=      0 IRanWt=     -1 IRanGd=            0 ICorTp=0
 NAtoms=    3 NActive=    3 NUniq=    2 SFac= 2.76D+00 NAtFMM=   60 Big=F
 Leave Link  301 at Fri Jul 01 20:39:29 2011, MaxMem=    6291456 cpu:       0.0
 (Enter C:\G03W\l302.exe)
 NPDir=0 NMtPBC=     1 NCelOv=     1 NCel=       1 NClECP=     1 NCelD=      1
         NCelK=      1 NCelE2=     1 NClLst=     1 CellRange=     0.0.
 One-electron integrals computed using PRISM.
 One-electron integral symmetry used in STVInt
 NBasis=    25 RedAO= T  NBF=     9     1     2     2     0     5     3     3
 NBsUse=    25 1.00D-06 NBFU=     9     1     2     2     0     5     3     3
 Precomputing XC quadrature grid using
 IXCGrd= 2 IRadAn=           0 IRanWt=          -1 IRanGd=           0.
 NRdTot=     181 NPtTot=       22922 NUsed=       23744 NTot=       23760
 NSgBfM=    25    25    25    25.
 Leave Link  302 at Fri Jul 01 20:39:29 2011, MaxMem=    6291456 cpu:       0.0
 (Enter C:\G03W\l303.exe)
 DipDrv:  MaxL=1.
 Leave Link  303 at Fri Jul 01 20:39:30 2011, MaxMem=    6291456 cpu:       0.0
 (Enter C:\G03W\l401.exe)
 Initial guess read from the read-write file:
 Guess basis will be translated and rotated to current coordinates.
 Initial guess orbital symmetries:
       Occupied  (SGG) (SGG) (SGU)
       Virtual   (PIU) (PIU) (SGG) (SGU) (SGG) (PIU) (PIU) (SGU)
                 (SGG) (PIG) (PIG) (DLTG) (DLTG) (SGU) (SGG) (PIU)
                 (PIU) (PIG) (PIG) (SGG) (SGU) (SGG)
 The electronic state of the initial guess is 1-SGG.
 Generating alternative initial guess.
 Harris functional with IExCor=  402 diagonalized for initial guess.
 ExpMin= 8.23D-02 ExpMax= 1.26D+03 ExpMxC= 1.90D+02 IAcc=2 IRadAn=         4 AccDes= 0.00D+00
 HarFok:  IExCor= 402 AccDes= 0.00D+00 IRadAn=         4 IDoV=1
 ScaDFX=  1.000000  1.000000  1.000000  1.000000
 Harris En= -15.9358771032376    
 Leave Link  401 at Fri Jul 01 20:39:30 2011, MaxMem=    6291456 cpu:       0.0
 (Enter C:\G03W\l502.exe)
 Closed shell SCF:
 Requested convergence on RMS density matrix=1.00D-08 within 128 cycles.
 Requested convergence on MAX density matrix=1.00D-06.
 Requested convergence on             energy=1.00D-06.
 No special actions if energy rises.
 Using DIIS extrapolation, IDIIS=  1040.
 Integral symmetry usage will be decided dynamically.
        23743 words used for storage of precomputed grid.
 Keep R1 integrals in memory in canonical form, NReq=      534636.
 IEnd=     43196 IEndB=     43196 NGot=   6291456 MDV=   6212562
 LenX=   6212562
 Symmetry not used in FoFDir.
 MinBra= 0 MaxBra= 2 Meth= 1.
 IRaf=       0 NMat=   1 IRICut=       1 DoRegI=T DoRafI=F ISym2E= 0 JSym2E=0.
 Integral accuracy reduced to 1.0D-05 until final iterations.
 A guess orbital has undefined symmetry, so N**3 symmetry is turned off.

 Cycle   1  Pass 0  IDiag  1:
 E= -15.9180923340341    
 DIIS: error= 2.19D-03 at cycle   1 NSaved=   1.
 NSaved= 1 IEnMin= 1 EnMin= -15.9180923340341     IErMin= 1 ErrMin= 2.19D-03
 ErrMax= 2.19D-03 EMaxC= 1.00D-01 BMatC= 7.05D-05 BMatP= 7.05D-05
 IDIUse=3 WtCom= 9.78D-01 WtEn= 2.19D-02
 Coeff-Com:  0.100D+01
 Coeff-En:   0.100D+01
 Coeff:      0.100D+01
 Gap=     0.286 Goal=   None    Shift=    0.000
 GapD=    0.286 DampG=1.000 DampE=1.000 DampFc=1.0000 IDamp=-1.
 RMSDP=7.58D-04 MaxDP=8.10D-03              OVMax= 8.93D-03

 Cycle   2  Pass 0  IDiag  1:
 E= -15.9182159806956     Delta-E=       -0.000123646662 Rises=F Damp=F
 DIIS: error= 4.71D-04 at cycle   2 NSaved=   2.
 NSaved= 2 IEnMin= 2 EnMin= -15.9182159806956     IErMin= 2 ErrMin= 4.71D-04
 ErrMax= 4.71D-04 EMaxC= 1.00D-01 BMatC= 3.36D-06 BMatP= 7.05D-05
 IDIUse=3 WtCom= 9.95D-01 WtEn= 4.71D-03
 Coeff-Com:  0.154D+00 0.846D+00
 Coeff-En:   0.000D+00 0.100D+01
 Coeff:      0.153D+00 0.847D+00
 Gap=     0.287 Goal=   None    Shift=    0.000
 RMSDP=1.74D-04 MaxDP=1.67D-03 DE=-1.24D-04 OVMax= 1.52D-03

 Cycle   3  Pass 0  IDiag  1:
 E= -15.9182225307003     Delta-E=       -0.000006550005 Rises=F Damp=F
 DIIS: error= 4.84D-05 at cycle   3 NSaved=   3.
 NSaved= 3 IEnMin= 3 EnMin= -15.9182225307003     IErMin= 3 ErrMin= 4.84D-05
 ErrMax= 4.84D-05 EMaxC= 1.00D-01 BMatC= 2.35D-08 BMatP= 3.36D-06
 IDIUse=1 WtCom= 1.00D+00 WtEn= 0.00D+00
 Coeff-Com: -0.507D-02 0.474D-01 0.958D+00
 Coeff:     -0.507D-02 0.474D-01 0.958D+00
 Gap=     0.287 Goal=   None    Shift=    0.000
 RMSDP=1.49D-05 MaxDP=1.66D-04 DE=-6.55D-06 OVMax= 1.57D-04

 Cycle   4  Pass 0  IDiag  1:
 E= -15.9182225750063     Delta-E=       -0.000000044306 Rises=F Damp=F
 DIIS: error= 3.93D-06 at cycle   4 NSaved=   4.
 NSaved= 4 IEnMin= 4 EnMin= -15.9182225750063     IErMin= 4 ErrMin= 3.93D-06
 ErrMax= 3.93D-06 EMaxC= 1.00D-01 BMatC= 3.53D-10 BMatP= 2.35D-08
 IDIUse=1 WtCom= 1.00D+00 WtEn= 0.00D+00
 Coeff-Com: -0.216D-02-0.802D-03 0.119D+00 0.884D+00
 Coeff:     -0.216D-02-0.802D-03 0.119D+00 0.884D+00
 Gap=     0.287 Goal=   None    Shift=    0.000
 RMSDP=1.43D-06 MaxDP=1.47D-05 DE=-4.43D-08 OVMax= 2.05D-05

 Initial convergence to 1.0D-05 achieved.  Increase integral accuracy.
 Cycle   5  Pass 1  IDiag  1:
 E= -15.9182261206223     Delta-E=       -0.000003545616 Rises=F Damp=F
 DIIS: error= 2.18D-05 at cycle   1 NSaved=   1.
 NSaved= 1 IEnMin= 1 EnMin= -15.9182261206223     IErMin= 1 ErrMin= 2.18D-05
 ErrMax= 2.18D-05 EMaxC= 1.00D-01 BMatC= 7.80D-09 BMatP= 7.80D-09
 IDIUse=1 WtCom= 1.00D+00 WtEn= 0.00D+00
 Coeff-Com:  0.100D+01
 Coeff:      0.100D+01
 Gap=     0.287 Goal=   None    Shift=    0.000
 RMSDP=1.43D-06 MaxDP=1.47D-05 DE=-3.55D-06 OVMax= 3.18D-05

 Cycle   6  Pass 1  IDiag  1:
 E= -15.9182261261234     Delta-E=       -0.000000005501 Rises=F Damp=F
 DIIS: error= 1.45D-06 at cycle   2 NSaved=   2.
 NSaved= 2 IEnMin= 2 EnMin= -15.9182261261234     IErMin= 2 ErrMin= 1.45D-06
 ErrMax= 1.45D-06 EMaxC= 1.00D-01 BMatC= 2.50D-11 BMatP= 7.80D-09
 IDIUse=1 WtCom= 1.00D+00 WtEn= 0.00D+00
 Coeff-Com: -0.418D-01 0.104D+01
 Coeff:     -0.418D-01 0.104D+01
 Gap=     0.287 Goal=   None    Shift=    0.000
 RMSDP=5.02D-07 MaxDP=3.88D-06 DE=-5.50D-09 OVMax= 3.68D-06

 Cycle   7  Pass 1  IDiag  1:
 E= -15.9182261261609     Delta-E=       -0.000000000037 Rises=F Damp=F
 DIIS: error= 1.19D-07 at cycle   3 NSaved=   3.
 NSaved= 3 IEnMin= 3 EnMin= -15.9182261261609     IErMin= 3 ErrMin= 1.19D-07
 ErrMax= 1.19D-07 EMaxC= 1.00D-01 BMatC= 1.92D-13 BMatP= 2.50D-11
 IDIUse=1 WtCom= 1.00D+00 WtEn= 0.00D+00
 Coeff-Com: -0.215D-02 0.268D-01 0.975D+00
 Coeff:     -0.215D-02 0.268D-01 0.975D+00
 Gap=     0.287 Goal=   None    Shift=    0.000
 RMSDP=3.24D-08 MaxDP=2.55D-07 DE=-3.75D-11 OVMax= 6.64D-07

 Cycle   8  Pass 1  IDiag  1:
 E= -15.9182261261613     Delta-E=        0.000000000000 Rises=F Damp=F
 DIIS: error= 3.61D-08 at cycle   4 NSaved=   4.
 NSaved= 4 IEnMin= 4 EnMin= -15.9182261261613     IErMin= 4 ErrMin= 3.61D-08
 ErrMax= 3.61D-08 EMaxC= 1.00D-01 BMatC= 1.74D-14 BMatP= 1.92D-13
 IDIUse=1 WtCom= 1.00D+00 WtEn= 0.00D+00
 Coeff-Com:  0.500D-03-0.199D-01 0.179D+00 0.840D+00
 Coeff:      0.500D-03-0.199D-01 0.179D+00 0.840D+00
 Gap=     0.287 Goal=   None    Shift=    0.000
 RMSDP=8.78D-09 MaxDP=7.59D-08 DE=-4.41D-13 OVMax= 8.82D-08

 SCF Done:  E(RB+HF-LYP) =  -15.9182261262     A.U. after    8 cycles
             Convg  =    0.8778D-08             -V/T =  2.0115
             S**2   =   0.0000
 KE= 1.573706763152D+01 PE=-4.284402579037D+01 EE= 7.804253540224D+00
 Leave Link  502 at Fri Jul 01 20:39:31 2011, MaxMem=    6291456 cpu:       1.0
 (Enter C:\G03W\l701.exe)
 Compute integral first derivatives.
 ... and contract with generalized density number  0.
 Leave Link  701 at Fri Jul 01 20:39:31 2011, MaxMem=    6291456 cpu:       0.0
 (Enter C:\G03W\l702.exe)
 L702 exits ... SP integral derivatives will be done elsewhere.
 Leave Link  702 at Fri Jul 01 20:39:31 2011, MaxMem=    6291456 cpu:       0.0
 (Enter C:\G03W\l703.exe)
 Compute integral first derivatives, UseDBF=F.
 Integral derivatives from FoFDir, PRISM(SPDF).
 Petite list used in FoFDir.
 MinBra= 0 MaxBra= 2 Meth= 1.
 IRaf=       0 NMat=   1 IRICut=       1 DoRegI=T DoRafI=F ISym2E= 1 JSym2E=1.
 Leave Link  703 at Fri Jul 01 20:39:32 2011, MaxMem=    6291456 cpu:       0.0
 (Enter C:\G03W\l716.exe)
 Dipole        =-5.36564990D-17 6.16297582D-31 0.00000000D+00
 ***** Axes restored to original set *****
 -------------------------------------------------------------------
 Center     Atomic                   Forces (Hartrees/Bohr)
 Number     Number              X              Y              Z
 -------------------------------------------------------------------
    1          4           0.000000000    0.000000000    0.000000000
    2          1          -0.000177654    0.000000000    0.000000000
    3          1           0.000177654    0.000000000    0.000000000
 -------------------------------------------------------------------
 Cartesian Forces:  Max     0.000177654 RMS     0.000083747
 Leave Link  716 at Fri Jul 01 20:39:32 2011, MaxMem=    6291456 cpu:       0.0
 (Enter C:\G03W\l103.exe)

 GradGradGradGradGradGradGradGradGradGradGradGradGradGradGradGradGradGrad
 Berny optimization.
 Internal  Forces:  Max     0.000177654 RMS     0.000125620
 Search for a local minimum.
 Step number   3 out of a maximum of  20
 All quantities printed in internal units (Hartrees-Bohrs-Radians)
 Update second derivatives using D2CorX and points  1  2  3
 Trust test= 1.50D+00 RLast= 8.48D-02 DXMaxT set to 4.24D-01
 The second derivative matrix:
                          R1        R2        A1        A2
           R1           0.21220
           R2          -0.04190   0.21220
           A1           0.00000   0.00000   0.16000
           A2           0.00000   0.00000   0.00000   0.16000
     Eigenvalues ---    0.16000   0.16000   0.17030   0.25410
 RFO step:  Lambda= 0.00000000D+00.
 Quartic linear search produced a step of -0.01855.
 Iteration  1 RMS(Cart)=  0.00078669 RMS(Int)=  0.00000000
 Iteration  2 RMS(Cart)=  0.00000000 RMS(Int)=  0.00000000
 Variable       Old X    -DE/DX   Delta X   Delta X   Delta X     New X
                                 (Linear)    (Quad)   (Total)
    R1        2.51147  -0.00018  -0.00111   0.00000  -0.00111   2.51035
    R2        2.51147  -0.00018  -0.00111   0.00000  -0.00111   2.51035
    A1        3.14159   0.00000   0.00000   0.00000   0.00000   3.14159
    A2        3.14159   0.00000   0.00000   0.00000   0.00000   3.14159
         Item               Value     Threshold  Converged?
 Maximum Force            0.000178     0.000450     YES
 RMS     Force            0.000126     0.000300     YES
 Maximum Displacement     0.001113     0.001800     YES
 RMS     Displacement     0.000787     0.001200     YES
 Predicted change in Energy=-1.845038D-07
 Optimization completed.
    -- Stationary point found.
                           ----------------------------
                           !   Optimized Parameters   !
                           ! (Angstroms and Degrees)  !
 --------------------------                            --------------------------
 ! Name  Definition              Value          Derivative Info.                !
 --------------------------------------------------------------------------------
 ! R1    R(1,2)                  1.329          -DE/DX =   -0.0002              !
 ! R2    R(1,3)                  1.329          -DE/DX =   -0.0002              !
 ! A1    L(2,1,3,-2,-1)        180.0            -DE/DX =    0.0                 !
 ! A2    L(2,1,3,-3,-2)        180.0            -DE/DX =    0.0                 !
 --------------------------------------------------------------------------------
 GradGradGradGradGradGradGradGradGradGradGradGradGradGradGradGradGradGrad

 Largest change from initial coordinates is atom    2       0.139 Angstoms.
 Leave Link  103 at Fri Jul 01 20:39:32 2011, MaxMem=    6291456 cpu:       0.0
 (Enter C:\G03W\l202.exe)
                          Input orientation:                          
 ---------------------------------------------------------------------
 Center     Atomic     Atomic              Coordinates (Angstroms)
 Number     Number      Type              X           Y           Z
 ---------------------------------------------------------------------
    1          4             0        5.391035   -0.607634    0.000000
    2          1             0        6.720045   -0.607634    0.000000
    3          1             0        4.062025   -0.607634    0.000000
 ---------------------------------------------------------------------
                    Distance matrix (angstroms):
                    1          2          3
     1  Be   0.000000
     2  H    1.329010   0.000000
     3  H    1.329010   2.658020   0.000000
 Stoichiometry    BeH2
 Framework group  D*H[O(Be),C*(H.H)]
 Deg. of freedom     1
 Full point group                 D*H     NOp   8
 Largest Abelian subgroup         D2H     NOp   8
 Largest concise Abelian subgroup C2      NOp   2
                         Standard orientation:                         
 ---------------------------------------------------------------------
 Center     Atomic     Atomic              Coordinates (Angstroms)
 Number     Number      Type              X           Y           Z
 ---------------------------------------------------------------------
    1          4             0        0.000000    0.000000    0.000000
    2          1             0        0.000000    0.000000    1.329010
    3          1             0        0.000000    0.000000   -1.329010
 ---------------------------------------------------------------------
 Rotational constants (GHZ):      0.0000000    141.9532898    141.9532898
 Leave Link  202 at Fri Jul 01 20:39:33 2011, MaxMem=    6291456 cpu:       0.0
 (Enter C:\G03W\l601.exe)
 Copying SCF densities to generalized density rwf, ISCF=0 IROHF=0.

 **********************************************************************

            Population analysis using the SCF density.

 **********************************************************************

 Orbital symmetries:
       Occupied  (SGG) (SGG) (SGU)
       Virtual   (PIU) (PIU) (SGG) (SGU) (SGG) (PIU) (PIU) (SGU)
                 (SGG) (PIG) (PIG) (DLTG) (DLTG) (SGU) (SGG) (PIU)
                 (PIU) (PIG) (PIG) (SGG) (SGU) (SGG)
 The electronic state is 1-SGG.
 Alpha  occ. eigenvalues --   -4.03604  -0.34891  -0.31274
 Alpha virt. eigenvalues --   -0.02540  -0.02540   0.08754   0.18953   0.30376
 Alpha virt. eigenvalues --    0.30470   0.30470   0.39868   0.74279   0.80535
 Alpha virt. eigenvalues --    0.80535   0.88810   0.88812   1.19643   1.60042
 Alpha virt. eigenvalues --    2.12503   2.12503   2.42086   2.42086   2.62196
 Alpha virt. eigenvalues --    2.71633   3.41665
          Condensed to atoms (all electrons):
              1          2          3
     1  Be   3.045736   0.428826   0.428826
     2  H    0.428826   0.617736   0.001744
     3  H    0.428826   0.001744   0.617736
 Mulliken atomic charges:
              1
     1  Be   0.096612
     2  H   -0.048306
     3  H   -0.048306
 Sum of Mulliken charges=   0.00000
 Atomic charges with hydrogens summed into heavy atoms:
              1
     1  Be   0.000000
     2  H    0.000000
     3  H    0.000000
 Sum of Mulliken charges=   0.00000
 Electronic spatial extent (au):  <R**2>=    30.5935
 Charge=     0.0000 electrons
 Dipole moment (field-independent basis, Debye):
    X=     0.0000    Y=     0.0000    Z=     0.0000  Tot=     0.0000
 Quadrupole moment (field-independent basis, Debye-Ang):
   XX=    -6.5835   YY=    -6.5835   ZZ=   -11.0148
   XY=     0.0000   XZ=     0.0000   YZ=     0.0000
 Traceless Quadrupole moment (field-independent basis, Debye-Ang):
   XX=     1.4771   YY=     1.4771   ZZ=    -2.9542
   XY=     0.0000   XZ=     0.0000   YZ=     0.0000
 Octapole moment (field-independent basis, Debye-Ang**2):
  XXX=     0.0000  YYY=     0.0000  ZZZ=     0.0000  XYY=     0.0000
  XXY=     0.0000  XXZ=     0.0000  XZZ=     0.0000  YZZ=     0.0000
  YYZ=     0.0000  XYZ=     0.0000
 Hexadecapole moment (field-independent basis, Debye-Ang**3):
 XXXX=    -8.7341 YYYY=    -8.7341 ZZZZ=   -42.0436 XXXY=     0.0000
 XXXZ=     0.0000 YYYX=     0.0000 YYYZ=     0.0000 ZZZX=     0.0000
 ZZZY=     0.0000 XXYY=    -2.9114 XXZZ=    -8.8668 YYZZ=    -8.8668
 XXYZ=     0.0000 YYXZ=     0.0000 ZZXY=     0.0000
 N-N= 3.384478492469D+00 E-N=-4.284402587645D+01  KE= 1.573706763152D+01
 Symmetry AG   KE= 1.464490270791D+01
 Symmetry B1G  KE= 1.508999134343D-31
 Symmetry B2G  KE= 1.731938290070D-31
 Symmetry B3G  KE= 6.945853119236D-32
 Symmetry AU   KE= 0.000000000000D+00
 Symmetry B1U  KE= 1.092164923609D+00
 Symmetry B2U  KE= 1.221907357560D-31
 Symmetry B3U  KE= 1.710662129173D-31
 No NMR shielding tensors so no spin-rotation constants.
 Leave Link  601 at Fri Jul 01 20:39:33 2011, MaxMem=    6291456 cpu:       0.0
 (Enter C:\G03W\l9999.exe)
 1|1|UNPC-UNK|FOpt|RB3LYP|6-31G(d,p)|Be1H2|PCUSER|01-Jul-2011|0||#P OPT
  FREQ B3LYP/6-31G(D,P) GUESS=(LOCAL,SAVE) GEOM=CONNECTIVITY||BeH2||0,1
 |Be,0.,0.,0.|H,1.3290101505,0.,0.|H,-1.3290101505,0.,0.||Version=x86-W
 in32-G03RevB.03|State=1-SGG|HF=-15.9182261|RMSD=8.778e-009|RMSF=8.375e
 -005|Dipole=0.,0.,0.|PG=D*H [O(Be1),C*(H1.H1)]||@


 THERE IS NOTHING NOBLE IN BEING SUPERIOR TO SOME OTHER MAN.
 TRUE NOBILITY IS BEING SUPERIOR TO YOUR FORMER SELF.

                                                   -- HINDU PROVERB
 Leave Link 9999 at Fri Jul 01 20:39:34 2011, MaxMem=    6291456 cpu:       0.0
 Job cpu time:  0 days  0 hours  0 minutes 20.0 seconds.
 File lengths (MBytes):  RWF=     11 Int=      0 D2E=      0 Chk=      4 Scr=      1
 Normal termination of Gaussian 03 at Fri Jul 01 20:39:34 2011.
 (Enter C:\G03W\l1.exe)
 Link1:  Proceeding to internal job step number  2.
 --------------------------------------------------------------------
 #P Geom=AllCheck Guess=Read SCRF=Check GenChk RB3LYP/6-31G(d,p) Freq
 --------------------------------------------------------------------
 1/10=4,29=7,30=1,38=1,40=1,46=1/1,3;
 2/40=1/2;
 3/5=1,6=6,7=101,11=2,16=1,25=1,30=1,70=2,71=2,74=-5/1,2,3;
 4/5=1,7=1,9=10/1;
 5/5=2,38=6/2;
 8/6=4,10=90,11=11,27=262144000/1;
 11/6=1,8=1,9=11,15=111,16=1/1,2,10;
 10/6=1/2;
 6/7=2,8=2,9=2,10=2,18=1,28=1/1;
 7/8=1,10=1,25=1/1,2,3,16;
 1/10=4,30=1,46=1/3;
 99//99;
 Leave Link    1 at Fri Jul 01 20:39:34 2011, MaxMem=          0 cpu:       0.0
 (Enter C:\G03W\l101.exe)
 ----
 BeH2
 ----
 Redundant internal coordinates taken from checkpoint file:
 D:\Dropbox\My Dropbox\Sajat gyujtes\Hehre MOLMOD\01\BeH2.chk
 Charge =  0 Multiplicity = 1
 Be,0,0.,0.,0.
 H,0,1.3290101505,0.,0.
 H,0,-1.3290101505,0.,0.
 Recover connectivity data from disk.
                    Isotopes and Nuclear Properties:

  Atom         1           2           3
 IAtWgt=           9           1           1
 AtmWgt=   9.0121825   1.0078250   1.0078250
 IAtSpn=           3           1           1
 AtZEff=  -2.0000000  -1.0000000  -1.0000000
 AtQMom=   5.3000000   0.0000000   0.0000000
 AtGFac=  -1.1779000   2.7928460   2.7928460
 Leave Link  101 at Fri Jul 01 20:39:34 2011, MaxMem=    6291456 cpu:       0.0
 (Enter C:\G03W\l103.exe)

 GradGradGradGradGradGradGradGradGradGradGradGradGradGradGradGradGradGrad
 Berny optimization.
 Initialization pass.
                           ----------------------------
                           !    Initial Parameters    !
                           ! (Angstroms and Degrees)  !
 --------------------------                            --------------------------
 ! Name  Definition              Value          Derivative Info.                !
 --------------------------------------------------------------------------------
 ! R1    R(1,2)                  1.329          calculate D2E/DX2 analytically  !
 ! R2    R(1,3)                  1.329          calculate D2E/DX2 analytically  !
 ! A1    L(2,1,3,-2,-1)        180.0            calculate D2E/DX2 analytically  !
 ! A2    L(2,1,3,-3,-2)        180.0            calculate D2E/DX2 analytically  !
 --------------------------------------------------------------------------------
 Trust Radius=3.00D-01 FncErr=1.00D-07 GrdErr=1.00D-07
 Number of steps in this run=   2 maximum allowed number of steps=   2.
 GradGradGradGradGradGradGradGradGradGradGradGradGradGradGradGradGradGrad

 Leave Link  103 at Fri Jul 01 20:39:35 2011, MaxMem=    6291456 cpu:       0.0
 (Enter C:\G03W\l202.exe)
                          Input orientation:                          
 ---------------------------------------------------------------------
 Center     Atomic     Atomic              Coordinates (Angstroms)
 Number     Number      Type              X           Y           Z
 ---------------------------------------------------------------------
    1          4             0        0.000000    0.000000    0.000000
    2          1             0        1.329010    0.000000    0.000000
    3          1             0       -1.329010    0.000000    0.000000
 ---------------------------------------------------------------------
                    Distance matrix (angstroms):
                    1          2          3
     1  Be   0.000000
     2  H    1.329010   0.000000
     3  H    1.329010   2.658020   0.000000
 Stoichiometry    BeH2
 Framework group  D*H[O(Be),C*(H.H)]
 Deg. of freedom     1
 Full point group                 D*H     NOp   8
 Largest Abelian subgroup         D2H     NOp   8
 Largest concise Abelian subgroup C2      NOp   2
                         Standard orientation:                         
 ---------------------------------------------------------------------
 Center     Atomic     Atomic              Coordinates (Angstroms)
 Number     Number      Type              X           Y           Z
 ---------------------------------------------------------------------
    1          4             0        0.000000    0.000000    0.000000
    2          1             0        0.000000    0.000000    1.329010
    3          1             0        0.000000    0.000000   -1.329010
 ---------------------------------------------------------------------
 Rotational constants (GHZ):      0.0000000    141.9532898    141.9532898
 Leave Link  202 at Fri Jul 01 20:39:35 2011, MaxMem=    6291456 cpu:       0.0
 (Enter C:\G03W\l301.exe)
 Standard basis: 6-31G(d,p) (6D, 7F)
 There are     9 symmetry adapted basis functions of AG  symmetry.
 There are     1 symmetry adapted basis functions of B1G symmetry.
 There are     2 symmetry adapted basis functions of B2G symmetry.
 There are     2 symmetry adapted basis functions of B3G symmetry.
 There are     0 symmetry adapted basis functions of AU  symmetry.
 There are     5 symmetry adapted basis functions of B1U symmetry.
 There are     3 symmetry adapted basis functions of B2U symmetry.
 There are     3 symmetry adapted basis functions of B3U symmetry.
 Integral buffers will be    262144 words long.
 Raffenetti 2 integral format.
 Two-electron integral symmetry is turned on.
    25 basis functions,    42 primitive gaussians,    25 cartesian basis functions
     3 alpha electrons        3 beta electrons
       nuclear repulsion energy         3.3844784925 Hartrees.
 IExCor= 402 DFT=T Ex=B+HF Corr=LYP ExCW=0 ScaHFX=  0.200000
 ScaDFX=  0.800000  0.720000  1.000000  0.810000
 IRadAn=      0 IRanWt=     -1 IRanGd=            0 ICorTp=0
 NAtoms=    3 NActive=    3 NUniq=    2 SFac= 2.76D+00 NAtFMM=   60 Big=F
 Leave Link  301 at Fri Jul 01 20:39:35 2011, MaxMem=    6291456 cpu:       0.0
 (Enter C:\G03W\l302.exe)
 NPDir=0 NMtPBC=     1 NCelOv=     1 NCel=       1 NClECP=     1 NCelD=      1
         NCelK=      1 NCelE2=     1 NClLst=     1 CellRange=     0.0.
 One-electron integrals computed using PRISM.
 One-electron integral symmetry used in STVInt
 NBasis=    25 RedAO= T  NBF=     9     1     2     2     0     5     3     3
 NBsUse=    25 1.00D-06 NBFU=     9     1     2     2     0     5     3     3
 Precomputing XC quadrature grid using
 IXCGrd= 2 IRadAn=           0 IRanWt=          -1 IRanGd=           0.
 NRdTot=     181 NPtTot=       22922 NUsed=       23744 NTot=       23760
 NSgBfM=    25    25    25    25.
 Leave Link  302 at Fri Jul 01 20:39:36 2011, MaxMem=    6291456 cpu:       0.0
 (Enter C:\G03W\l303.exe)
 DipDrv:  MaxL=1.
 Leave Link  303 at Fri Jul 01 20:39:36 2011, MaxMem=    6291456 cpu:       0.0
 (Enter C:\G03W\l401.exe)
 Initial guess orbitals will be localized.
 Initial guess read from the checkpoint file:
 D:\Dropbox\My Dropbox\Sajat gyujtes\Hehre MOLMOD\01\BeH2.chk
 Guess basis will be translated and rotated to current coordinates.
 LocMO: Using Boys method
 Initial Trace=-0.47857052D-15 Initial TraceA= 0.21282298D-28
 RMSG= 0.52669905D-10
 LocMO: Using Boys method
 Initial Trace=-0.59900952D-15 Initial TraceA= 0.13204036D-26
 Initial Trace=-0.59900952D-15 Initial TraceA= 0.13204036D-26
 Initial Trace=-0.59900952D-15 Initial TraceA= 0.13204036D-26
 Localization failed after    3 tries of 1000 iterations each.  Last change= 0.95086517D-04
 RMSG= 0.25457922D-03
 Initial guess orbital symmetries:
       Occupied  (SGG) (?A) (?A)
       Virtual   (?B) (?B) (?B) (?B) (?B) (?B) (?B) (?B) (?B) (?B)
                 (?B) (?B) (?B) (?B) (?B) (?B) (?B) (?B) (?B) (?B)
                 (?B) (?B)
 Leave Link  401 at Fri Jul 01 20:39:37 2011, MaxMem=    6291456 cpu:       1.0
 (Enter C:\G03W\l502.exe)
 Closed shell SCF:
 Requested convergence on RMS density matrix=1.00D-08 within 128 cycles.
 Requested convergence on MAX density matrix=1.00D-06.
 Requested convergence on             energy=1.00D-06.
 No special actions if energy rises.
 Using DIIS extrapolation, IDIIS=  1040.
 Integral symmetry usage will be decided dynamically.
        23743 words used for storage of precomputed grid.
 Keep R1 integrals in memory in canonical form, NReq=      534636.
 IEnd=     43196 IEndB=     43196 NGot=   6291456 MDV=   6212562
 LenX=   6212562
 Symmetry not used in FoFDir.
 MinBra= 0 MaxBra= 2 Meth= 1.
 IRaf=       0 NMat=   1 IRICut=       1 DoRegI=T DoRafI=F ISym2E= 0 JSym2E=0.
 A guess orbital has undefined symmetry, so N**3 symmetry is turned off.

 Cycle   1  Pass 1  IDiag  1:
 E= -15.9182261261613    
 DIIS: error= 1.67D-09 at cycle   1 NSaved=   1.
 NSaved= 1 IEnMin= 1 EnMin= -15.9182261261613     IErMin= 1 ErrMin= 1.67D-09
 ErrMax= 1.67D-09 EMaxC= 1.00D-01 BMatC= 3.93D-17 BMatP= 3.93D-17
 IDIUse=1 WtCom= 1.00D+00 WtEn= 0.00D+00
 Coeff-Com:  0.100D+01
 Coeff:      0.100D+01
 Gap=     1.654 Goal=   None    Shift=    0.000
 RMSDP=7.18D-10 MaxDP=7.24D-09              OVMax= 5.85D-09

 SCF Done:  E(RB+HF-LYP) =  -15.9182261262     A.U. after    1 cycles
             Convg  =    0.7182D-09             -V/T =  2.0115
             S**2   =   0.0000
 KE= 1.573706760529D+01 PE=-4.284402585023D+01 EE= 7.804253626304D+00
 Leave Link  502 at Fri Jul 01 20:39:37 2011, MaxMem=    6291456 cpu:       0.0
 (Enter C:\G03W\l801.exe)
 Range of M.O.s used for correlation:     1    25
 NBasis=    25 NAE=     3 NBE=     3 NFC=     0 NFV=     0
 NROrb=     25 NOA=     3 NOB=     3 NVA=    22 NVB=    22
 Leave Link  801 at Fri Jul 01 20:39:38 2011, MaxMem=    6291456 cpu:       0.0
 (Enter C:\G03W\l1101.exe)
 Using compressed storage, NAtomX=     3.
 Will process   4 centers per pass.
 Leave Link 1101 at Fri Jul 01 20:39:39 2011, MaxMem=    6291456 cpu:       1.0
 (Enter C:\G03W\l1102.exe)
 Use density number 0.
 Symmetrizing basis deriv contribution to polar:
 IMax=3 JMax=2 DiffMx= 0.00D+00
 Leave Link 1102 at Fri Jul 01 20:39:39 2011, MaxMem=    6291456 cpu:       0.0
 (Enter C:\G03W\l1110.exe)
 Forming Gx(P) for the SCF density, NAtomX=     3.
 Integral derivatives from FoFDir, PRISM(SPDF).
 Do as many integral derivatives as possible in FoFDir.
 G2DrvN: MDV=       6291436.
 G2DrvN: will do    4 centers at a time, making    1 passes doing MaxLOS=2.
 Petite list used in FoFDir.
 MinBra= 0 MaxBra= 2 Meth= 1.
 IRaf=       0 NMat=   1 IRICut=       1 DoRegI=T DoRafI=F ISym2E= 1 JSym2E=1.
 FoFDir/FoFCou used for L=0 through L=2.
 Leave Link 1110 at Fri Jul 01 20:39:40 2011, MaxMem=    6291456 cpu:       1.0
 (Enter C:\G03W\l1002.exe)
 Minotr:  Closed-shell wavefunction.
          Direct CPHF calculation.
          Solving linear equations simultaneously.
          Differentiating once with respect to electric field.
                with respect to dipole field.
          Differentiating once with respect to nuclear coordinates.
          Using symmetry in CPHF.
          Requested convergence is 1.0D-08 RMS, and 1.0D-07 maximum.
          Secondary convergence is 1.0D-12 RMS, and 1.0D-12 maximum.
          NewPWx=T KeepS1=F KeepF1=F KeepIn=T MapXYZ=F.
          MDV=       6291456 using IRadAn=       2.
          Store integrals in memory, NReq=      483440.
 Symmetry not used in FoFDir.
 MinBra= 0 MaxBra= 2 Meth= 1.
 IRaf=       0 NMat=   1 IRICut=       1 DoRegI=T DoRafI=F ISym2E= 0 JSym2E=0.
          There are   9 degrees of freedom in the 1st order CPHF.
     9 vectors were produced by pass  0.
 AX will form   9 AO Fock derivatives at one time.
     9 vectors were produced by pass  1.
     9 vectors were produced by pass  2.
     7 vectors were produced by pass  3.
     5 vectors were produced by pass  4.
     2 vectors were produced by pass  5.
 Inv2:  IOpt= 1 Iter= 1 AM= 9.33D-16 Conv= 1.00D-12.
 Inverted reduced A of dimension   41 with in-core refinement.
 Isotropic polarizability for W=    0.000000       15.39 Bohr**3.
 End of Minotr Frequency-dependent properties file   721 does not exist.
 Leave Link 1002 at Fri Jul 01 20:39:42 2011, MaxMem=    6291456 cpu:       1.0
 (Enter C:\G03W\l601.exe)
 Copying SCF densities to generalized density rwf, ISCF=0 IROHF=0.

 **********************************************************************

            Population analysis using the SCF density.

 **********************************************************************

 Orbital symmetries:
       Occupied  (SGG) (SGG) (SGU)
       Virtual   (PIU) (PIU) (SGG) (SGU) (SGG) (PIU) (PIU) (SGU)
                 (SGG) (PIG) (PIG) (DLTG) (DLTG) (SGU) (SGG) (PIU)
                 (PIU) (PIG) (PIG) (SGG) (SGU) (SGG)
 The electronic state is 1-SGG.
 Alpha  occ. eigenvalues --   -4.03604  -0.34891  -0.31274
 Alpha virt. eigenvalues --   -0.02540  -0.02540   0.08754   0.18953   0.30376
 Alpha virt. eigenvalues --    0.30470   0.30470   0.39868   0.74279   0.80535
 Alpha virt. eigenvalues --    0.80535   0.88810   0.88812   1.19643   1.60042
 Alpha virt. eigenvalues --    2.12503   2.12503   2.42086   2.42086   2.62196
 Alpha virt. eigenvalues --    2.71633   3.41665
          Condensed to atoms (all electrons):
              1          2          3
     1  Be   3.045736   0.428826   0.428826
     2  H    0.428826   0.617736   0.001744
     3  H    0.428826   0.001744   0.617736
 Mulliken atomic charges:
              1
     1  Be   0.096612
     2  H   -0.048306
     3  H   -0.048306
 Sum of Mulliken charges=   0.00000
 Atomic charges with hydrogens summed into heavy atoms:
              1
     1  Be   0.000000
     2  H    0.000000
     3  H    0.000000
 Sum of Mulliken charges=   0.00000
 APT atomic charges:
              1
     1  Be   0.642141
     2  H   -0.321070
     3  H   -0.321070
 Sum of APT charges=   0.00000
 APT Atomic charges with hydrogens summed into heavy atoms:
              1
     1  Be   0.000000
     2  H    0.000000
     3  H    0.000000
 Sum of APT charges=   0.00000
 Electronic spatial extent (au):  <R**2>=    30.5935
 Charge=     0.0000 electrons
 Dipole moment (field-independent basis, Debye):
    X=     0.0000    Y=     0.0000    Z=     0.0000  Tot=     0.0000
 Quadrupole moment (field-independent basis, Debye-Ang):
   XX=    -6.5835   YY=    -6.5835   ZZ=   -11.0148
   XY=     0.0000   XZ=     0.0000   YZ=     0.0000
 Traceless Quadrupole moment (field-independent basis, Debye-Ang):
   XX=     1.4771   YY=     1.4771   ZZ=    -2.9542
   XY=     0.0000   XZ=     0.0000   YZ=     0.0000
 Octapole moment (field-independent basis, Debye-Ang**2):
  XXX=     0.0000  YYY=     0.0000  ZZZ=     0.0000  XYY=     0.0000
  XXY=     0.0000  XXZ=     0.0000  XZZ=     0.0000  YZZ=     0.0000
  YYZ=     0.0000  XYZ=     0.0000
 Hexadecapole moment (field-independent basis, Debye-Ang**3):
 XXXX=    -8.7341 YYYY=    -8.7341 ZZZZ=   -42.0436 XXXY=     0.0000
 XXXZ=     0.0000 YYYX=     0.0000 YYYZ=     0.0000 ZZZX=     0.0000
 ZZZY=     0.0000 XXYY=    -2.9114 XXZZ=    -8.8668 YYZZ=    -8.8668
 XXYZ=     0.0000 YYXZ=     0.0000 ZZXY=     0.0000
 N-N= 3.384478492469D+00 E-N=-4.284402582479D+01  KE= 1.573706760529D+01
 Symmetry AG   KE= 1.464490269026D+01
 Symmetry B1G  KE= 4.074085772576D-31
 Symmetry B2G  KE= 8.980079131240D-32
 Symmetry B3G  KE= 5.218661899840D-32
 Symmetry AU   KE= 0.000000000000D+00
 Symmetry B1U  KE= 1.092164915026D+00
 Symmetry B2U  KE= 2.480076130473D-31
 Symmetry B3U  KE= 3.624126876147D-31
  Exact polarizability:  14.971   0.000  14.971   0.000   0.000  16.236
 Approx polarizability:  17.310   0.000  17.310   0.000   0.000  17.930
 No NMR shielding tensors so no spin-rotation constants.
 Leave Link  601 at Fri Jul 01 20:39:43 2011, MaxMem=    6291456 cpu:       1.0
 (Enter C:\G03W\l701.exe)
 Compute integral second derivatives.
 ... and contract with generalized density number  0.
 Leave Link  701 at Fri Jul 01 20:39:43 2011, MaxMem=    6291456 cpu:       0.0
 (Enter C:\G03W\l702.exe)
 L702 exits ... SP integral derivatives will be done elsewhere.
 Leave Link  702 at Fri Jul 01 20:39:43 2011, MaxMem=    6291456 cpu:       0.0
 (Enter C:\G03W\l703.exe)
 Compute integral second derivatives, UseDBF=F.
 Integral derivatives from FoFDir, PRISM(SPDF).
 Petite list used in FoFDir.
 MinBra= 0 MaxBra= 2 Meth= 1.
 IRaf=       0 NMat=   1 IRICut=       1 DoRegI=T DoRafI=F ISym2E= 1 JSym2E=1.
 Leave Link  703 at Fri Jul 01 20:39:45 2011, MaxMem=    6291456 cpu:       1.0
 (Enter C:\G03W\l716.exe)
 Dipole        =-5.36565021D-17 5.02182734D-31-3.64291930D-17
 Polarizability= 1.49709509D+01-1.62643556D-09 1.49709509D+01
                 1.10039579D-10-1.47791032D-09 1.62364922D+01
 Full mass-weighted force constant matrix:
 Low frequencies ---    0.0003    0.0003    0.0003   41.2805   41.2805  744.8200
 Low frequencies ---  744.8200 2045.6763 2274.8402
 Diagonal vibrational polarizability:
       12.4648536      12.4648536       1.1399238
 Harmonic frequencies (cm**-1), IR intensities (KM/Mole), Raman scattering
 activities (A**4/AMU), depolarization ratios for plane and unpolarized
 incident light, reduced masses (AMU), force constants (mDyne/A),
 and normal coordinates:
                     1                      2                      3
                    PIU                    PIU                    SGG
 Frequencies --   744.8200               744.8200              2045.6763
 Red. masses --     1.2031                 1.2031                 1.0078
 Frc consts  --     0.3933                 0.3933                 2.4849
 IR Inten    --   256.9548               256.9548                 0.0000
 Atom AN      X      Y      Z        X      Y      Z        X      Y      Z
   1   4    -0.01   0.16   0.00     0.16   0.01   0.00     0.00   0.00   0.00
   2   1     0.06  -0.70   0.00    -0.70  -0.06   0.00     0.00   0.00   0.71
   3   1     0.06  -0.70   0.00    -0.70  -0.06   0.00     0.00   0.00  -0.71
                     4
                    SGU
 Frequencies --  2274.8402
 Red. masses --     1.2031
 Frc consts  --     3.6683
 IR Inten    --   219.2020
 Atom AN      X      Y      Z
   1   4     0.00   0.00   0.16
   2   1     0.00   0.00  -0.70
   3   1     0.00   0.00  -0.70

 -------------------
 - Thermochemistry -
 -------------------
 Temperature   298.150 Kelvin.  Pressure   1.00000 Atm.
 Atom  1 has atomic number  4 and mass   9.01218
 Atom  2 has atomic number  1 and mass   1.00783
 Atom  3 has atomic number  1 and mass   1.00783
 Molecular mass:    11.02783 amu.
 Principal axes and moments of inertia in atomic units:
                           1         2         3
     EIGENVALUES --     0.00000  12.71363  12.71363
           X            0.00000   1.00000   0.00000
           Y            0.00000   0.00000   1.00000
           Z            1.00000   0.00000   0.00000
 This molecule is a prolate symmetric top.
 Rotational symmetry number  2.
 Rotational temperature (Kelvin)      6.81268
 Rotational constant (GHZ):         141.953290
 Zero-point vibrational energy      34752.5 (Joules/Mol)
                                    8.30604 (Kcal/Mol)
 Vibrational temperatures:   1071.63  1071.63  2943.27  3272.98
          (Kelvin)
 
 Zero-point correction=                           0.013237 (Hartree/Particle)
 Thermal correction to Energy=                    0.015789
 Thermal correction to Enthalpy=                  0.016734
 Thermal correction to Gibbs Free Energy=        -0.003118
 Sum of electronic and zero-point Energies=            -15.904990
 Sum of electronic and thermal Energies=               -15.902437
 Sum of electronic and thermal Enthalpies=             -15.901493
 Sum of electronic and thermal Free Energies=          -15.921344
 
                     E (Thermal)             CV                S
                      KCal/Mol        Cal/Mol-Kelvin    Cal/Mol-Kelvin
 Total                    9.908              6.474             41.781
 Electronic               0.000              0.000              0.000
 Translational            0.889              2.981             33.146
 Rotational               0.592              1.987              8.119
 Vibrational              8.427              1.506              0.516
                       Q            Log10(Q)             Ln(Q)
 Total Bot       0.271739D+02          1.434152          3.302256
 Total V=0       0.333051D+08          7.522511         17.321222
 Vib (Bot)       0.862729D-06         -6.064126        -13.963166
 Vib (V=0)       0.105739D+01          0.024234          0.055800
 Electronic      0.100000D+01          0.000000          0.000000
 Translational   0.143943D+07          6.158190         14.179757
 Rotational      0.218820D+02          1.340087          3.085665
 
                                                                 BeH2
                                                             IR Spectrum
 
     2            2                                                                                                                  
     2            0                                                                        7                                         
     7            4                                                                        4                                         
     5            6                                                                        5                                         
 
     X                                                                                     X                                         
     X                                                                                     X                                         
     X                                                                                     X                                         
     X                                                                                     X                                         
     X                                                                                     X                                         
     X                                                                                     X                                         
     X                                                                                     X                                         
     X                                                                                     X                                         
     X                                                                                     X                                         
                                                                                           X                                         
                                                                                           X                                         
                                                                                           X                                         
                                                                                           X                                         
                                                                                           X                                         
                                                                                           X                                         
                                                                                           X                                         
                                                                                           X                                         
                                                                                           X                                         
                                                                                           X                                         
                                                                                           X                                         
 
 ***** Axes restored to original set *****
 -------------------------------------------------------------------
 Center     Atomic                   Forces (Hartrees/Bohr)
 Number     Number              X              Y              Z
 -------------------------------------------------------------------
    1          4           0.000000000    0.000000000    0.000000000
    2          1          -0.000177655    0.000000000    0.000000000
    3          1           0.000177655    0.000000000    0.000000000
 -------------------------------------------------------------------
 Cartesian Forces:  Max     0.000177655 RMS     0.000083747
 Force constants in Cartesian coordinates: 
                1             2             3             4             5
      1  0.322588D+00
      2  0.000000D+00  0.345819D-01
      3  0.000000D+00  0.000000D+00  0.345819D-01
      4 -0.161294D+00  0.000000D+00  0.000000D+00  0.160450D+00
      5  0.000000D+00 -0.172910D-01  0.000000D+00  0.000000D+00  0.867798D-02
      6  0.000000D+00  0.000000D+00 -0.172910D-01  0.000000D+00  0.000000D+00
      7 -0.161294D+00  0.000000D+00  0.000000D+00  0.843777D-03  0.000000D+00
      8  0.000000D+00 -0.172910D-01  0.000000D+00  0.000000D+00  0.861298D-02
      9  0.000000D+00  0.000000D+00 -0.172910D-01  0.000000D+00  0.000000D+00
                6             7             8             9
      6  0.867798D-02
      7  0.000000D+00  0.160450D+00
      8  0.000000D+00  0.000000D+00  0.867798D-02
      9  0.861298D-02  0.000000D+00  0.000000D+00  0.867798D-02
 Force constants in internal coordinates: 
                1             2             3             4
      1  0.160450D+00
      2 -0.843777D-03  0.160450D+00
      3  0.000000D+00  0.000000D+00  0.543079D-01
      4  0.000000D+00  0.000000D+00  0.000000D+00  0.543079D-01
 Leave Link  716 at Fri Jul 01 20:39:45 2011, MaxMem=    6291456 cpu:       0.0
 (Enter C:\G03W\l103.exe)

 GradGradGradGradGradGradGradGradGradGradGradGradGradGradGradGradGradGrad
 Berny optimization.
 Internal  Forces:  Max     0.000177655 RMS     0.000125621
 Search for a local minimum.
 Step number   1 out of a maximum of   2
 All quantities printed in internal units (Hartrees-Bohrs-Radians)
 Second derivative matrix not updated -- analytic derivatives used.
 The second derivative matrix:
                          R1        R2        A1        A2
           R1           0.16045
           R2          -0.00084   0.16045
           A1           0.00000   0.00000   0.05431
           A2           0.00000   0.00000   0.00000   0.05431
     Eigenvalues ---    0.05431   0.05431   0.15961   0.16129
 Angle between quadratic step and forces=   0.00 degrees.
 Linear search not attempted -- first point.
 Iteration  1 RMS(Cart)=  0.00078707 RMS(Int)=  0.00000000
 Iteration  2 RMS(Cart)=  0.00000000 RMS(Int)=  0.00000000
 Variable       Old X    -DE/DX   Delta X   Delta X   Delta X     New X
                                 (Linear)    (Quad)   (Total)
    R1        2.51147  -0.00018   0.00000  -0.00111  -0.00111   2.51035
    R2        2.51147  -0.00018   0.00000  -0.00111  -0.00111   2.51035
    A1        3.14159   0.00000   0.00000   0.00000   0.00000   3.14159
    A2        3.14159   0.00000   0.00000   0.00000   0.00000   3.14159
         Item               Value     Threshold  Converged?
 Maximum Force            0.000178     0.000450     YES
 RMS     Force            0.000126     0.000300     YES
 Maximum Displacement     0.001113     0.001800     YES
 RMS     Displacement     0.000787     0.001200     YES
 Predicted change in Energy=-1.977447D-07
 Optimization completed.
    -- Stationary point found.
                           ----------------------------
                           !   Optimized Parameters   !
                           ! (Angstroms and Degrees)  !
 --------------------------                            --------------------------
 ! Name  Definition              Value          Derivative Info.                !
 --------------------------------------------------------------------------------
 ! R1    R(1,2)                  1.329          -DE/DX =   -0.0002              !
 ! R2    R(1,3)                  1.329          -DE/DX =   -0.0002              !
 ! A1    L(2,1,3,-2,-1)        180.0            -DE/DX =    0.0                 !
 ! A2    L(2,1,3,-3,-2)        180.0            -DE/DX =    0.0                 !
 --------------------------------------------------------------------------------
 GradGradGradGradGradGradGradGradGradGradGradGradGradGradGradGradGradGrad

 Leave Link  103 at Fri Jul 01 20:39:45 2011, MaxMem=    6291456 cpu:       0.0
 (Enter C:\G03W\l9999.exe)
 1|1|UNPC-UNK|Freq|RB3LYP|6-31G(d,p)|Be1H2|PCUSER|01-Jul-2011|0||#P GEO
 M=ALLCHECK GUESS=READ SCRF=CHECK GENCHK RB3LYP/6-31G(D,P) FREQ||BeH2||
 0,1|Be,0.,0.,0.|H,1.3290101505,0.,0.|H,-1.3290101505,0.,0.||Version=x8
 6-Win32-G03RevB.03|State=1-SGG|HF=-15.9182261|RMSD=7.182e-010|RMSF=8.3
 75e-005|Dipole=0.,0.,0.|DipoleDeriv=0.608589,0.,0.,0.,0.6589163,0.,0.,
 0.,0.6589163,-0.3042945,0.,0.,0.,-0.3294581,0.,0.,0.,-0.3294581,-0.304
 2945,0.,0.,0.,-0.3294581,0.,0.,0.,-0.3294581|Polar=16.2364922,0.,14.97
 09509,0.,0.,14.9709509|PG=D*H [O(Be1),C*(H1.H1)]|NImag=0||0.32258798,0
 .,0.03458192,0.,0.,0.03458192,-0.16129399,0.,0.,0.16045021,0.,-0.01729
 096,0.,0.,0.00867798,0.,0.,-0.01729096,0.,0.,0.00867798,-0.16129399,0.
 ,0.,0.00084378,0.,0.,0.16045021,0.,-0.01729096,0.,0.,0.00861298,0.,0.,
 0.00867798,0.,0.,-0.01729096,0.,0.,0.00861298,0.,0.,0.00867798||0.,0.,
 0.,0.00017766,0.,0.,-0.00017766,0.,0.|||@


 THERE IS NOTHING NOBLE IN BEING SUPERIOR TO SOME OTHER MAN.
 TRUE NOBILITY IS BEING SUPERIOR TO YOUR FORMER SELF.

                                                   -- HINDU PROVERB
 Job cpu time:  0 days  0 hours  0 minutes 12.0 seconds.
 File lengths (MBytes):  RWF=     11 Int=      0 D2E=      0 Chk=      4 Scr=      1
 Normal termination of Gaussian 03 at Fri Jul 01 20:39:46 2011.
