 Entering Link 1 = C:\G03W\l1.exe PID=      1632.
  
 Copyright (c) 1988,1990,1992,1993,1995,1998,2003, Gaussian, Inc.
                  All Rights Reserved.
  
 This is the Gaussian(R) 03 program.  It is based on the
 the Gaussian(R) 98 system (copyright 1998, Gaussian, Inc.),
 the Gaussian(R) 94 system (copyright 1995, Gaussian, Inc.),
 the Gaussian 92(TM) system (copyright 1992, Gaussian, Inc.),
 the Gaussian 90(TM) system (copyright 1990, Gaussian, Inc.),
 the Gaussian 88(TM) system (copyright 1988, Gaussian, Inc.),
 the Gaussian 86(TM) system (copyright 1986, Carnegie Mellon
 University), and the Gaussian 82(TM) system (copyright 1983,
 Carnegie Mellon University). Gaussian is a federally registered
 trademark of Gaussian, Inc.
  
 This software contains proprietary and confidential information,
 including trade secrets, belonging to Gaussian, Inc.
  
 This software is provided under written license and may be
 used, copied, transmitted, or stored only in accord with that
 written license.
  
 The following legend is applicable only to US Government
 contracts under DFARS:
  
                    RESTRICTED RIGHTS LEGEND
  
 Use, duplication or disclosure by the US Government is subject
 to restrictions as set forth in subparagraph (c)(1)(ii) of the
 Rights in Technical Data and Computer Software clause at DFARS
 252.227-7013.
  
 Gaussian, Inc.
 Carnegie Office Park, Building 6, Pittsburgh, PA 15106 USA
  
 The following legend is applicable only to US Government
 contracts under FAR:
  
                    RESTRICTED RIGHTS LEGEND
  
 Use, reproduction and disclosure by the US Government is subject
 to restrictions as set forth in subparagraph (c) of the
 Commercial Computer Software - Restricted Rights clause at FAR
 52.227-19.
  
 Gaussian, Inc.
 Carnegie Office Park, Building 6, Pittsburgh, PA 15106 USA
  
  
 ---------------------------------------------------------------
 Warning -- This program may not be used in any manner that
 competes with the business of Gaussian, Inc. or will provide
 assistance to any competitor of Gaussian, Inc.  The licensee
 of this program is prohibited from giving any competitor of
 Gaussian, Inc. access to this program.  By using this program,
 the user acknowledges that Gaussian, Inc. is engaged in the
 business of creating and licensing software in the field of
 computational chemistry and represents and warrants to the
 licensee that it is not a competitor of Gaussian, Inc. and that
 it will not use this program in any manner prohibited above.
 ---------------------------------------------------------------
  

 Cite this work as:
 Gaussian 03, Revision B.03,
 M. J. Frisch, G. W. Trucks, H. B. Schlegel, G. E. Scuseria, 
 M. A. Robb, J. R. Cheeseman, J. A. Montgomery, Jr., T. Vreven, 
 K. N. Kudin, J. C. Burant, J. M. Millam, S. S. Iyengar, J. Tomasi, 
 V. Barone, B. Mennucci, M. Cossi, G. Scalmani, N. Rega, 
 G. A. Petersson, H. Nakatsuji, M. Hada, M. Ehara, K. Toyota, 
 R. Fukuda, J. Hasegawa, M. Ishida, T. Nakajima, Y. Honda, O. Kitao, 
 H. Nakai, M. Klene, X. Li, J. E. Knox, H. P. Hratchian, J. B. Cross, 
 C. Adamo, J. Jaramillo, R. Gomperts, R. E. Stratmann, O. Yazyev, 
 A. J. Austin, R. Cammi, C. Pomelli, J. W. Ochterski, P. Y. Ayala, 
 K. Morokuma, G. A. Voth, P. Salvador, J. J. Dannenberg, 
 V. G. Zakrzewski, S. Dapprich, A. D. Daniels, M. C. Strain, 
 O. Farkas, D. K. Malick, A. D. Rabuck, K. Raghavachari, 
 J. B. Foresman, J. V. Ortiz, Q. Cui, A. G. Baboul, S. Clifford, 
 J. Cioslowski, B. B. Stefanov, G. Liu, A. Liashenko, P. Piskorz, 
 I. Komaromi, R. L. Martin, D. J. Fox, T. Keith, M. A. Al-Laham, 
 C. Y. Peng, A. Nanayakkara, M. Challacombe, P. M. W. Gill, 
 B. Johnson, W. Chen, M. W. Wong, C. Gonzalez, and J. A. Pople, 
 Gaussian, Inc., Pittsburgh PA, 2003.
 
 *********************************************
 Gaussian 03:  x86-Win32-G03RevB.03 4-May-2003
                  01-Jul-2011 
 *********************************************
 %chk=D:\Dropbox\My Dropbox\Sajat gyujtes\Hehre MOLMOD\01\BH3.chk
 Default route:  MaxDisk=2000MB
 -----------------------------------------------------------------
 #p opt freq b3lyp/6-31g(d,p) guess=(local,save) geom=connectivity
 -----------------------------------------------------------------
 1/14=-1,18=20,26=3,38=1,57=2/1,3;
 2/9=110,17=6,18=5,40=1/2;
 3/5=1,6=6,7=101,11=2,16=1,25=1,30=1,74=-5/1,2,3;
 4/9=10/1;
 5/5=2,38=5/2;
 6/7=2,8=2,9=2,10=2,28=1/1;
 7//1,2,3,16;
 1/14=-1,18=20/3(1);
 99//99;
 2/9=110/2;
 3/5=1,6=6,7=101,11=2,16=1,25=1,30=1,74=-5/1,2,3;
 4/5=5,16=3/1;
 5/5=2,38=5/2;
 7//1,2,3,16;
 1/14=-1,18=20/3(-5);
 2/9=110/2;
 6/7=2,8=2,9=2,10=2,19=2,28=1/1;
 99/9=1/99;
 Leave Link    1 at Fri Jul 01 20:52:25 2011, MaxMem=          0 cpu:       0.0
 (Enter C:\G03W\l101.exe)
 ---
 BH3
 ---
 Symbolic Z-matrix:
 Charge =  0 Multiplicity = 1
 B                     5.2388   -0.54674   0. 
 H                     6.4188   -0.54674   0. 
 H                     4.6488    0.47517   0. 
 H                     4.6488   -1.56865   0. 
 
                    Isotopes and Nuclear Properties:

  Atom         1           2           3           4
 IAtWgt=          11           1           1           1
 AtmWgt=  11.0093053   1.0078250   1.0078250   1.0078250
 IAtSpn=           3           1           1           1
 AtZEff=   0.0000000   0.0000000   0.0000000   0.0000000
 AtQMom=   4.0650000   0.0000000   0.0000000   0.0000000
 AtGFac=   2.6886370   2.7928460   2.7928460   2.7928460
 Leave Link  101 at Fri Jul 01 20:52:26 2011, MaxMem=    6291456 cpu:       0.0
 (Enter C:\G03W\l103.exe)

 GradGradGradGradGradGradGradGradGradGradGradGradGradGradGradGradGradGrad
 Berny optimization.
 Initialization pass.
                           ----------------------------
                           !    Initial Parameters    !
                           ! (Angstroms and Degrees)  !
 --------------------------                            --------------------------
 ! Name  Definition              Value          Derivative Info.                !
 --------------------------------------------------------------------------------
 ! R1    R(1,2)                  1.18           estimate D2E/DX2                !
 ! R2    R(1,3)                  1.18           estimate D2E/DX2                !
 ! R3    R(1,4)                  1.18           estimate D2E/DX2                !
 ! A1    A(2,1,3)              120.0            estimate D2E/DX2                !
 ! A2    A(2,1,4)              120.0            estimate D2E/DX2                !
 ! A3    A(3,1,4)              120.0            estimate D2E/DX2                !
 ! A4    L(2,1,3,4,-2)         180.0            estimate D2E/DX2                !
 --------------------------------------------------------------------------------
 Trust Radius=3.00D-01 FncErr=1.00D-07 GrdErr=1.00D-06
 Number of steps in this run=  20 maximum allowed number of steps= 100.
 GradGradGradGradGradGradGradGradGradGradGradGradGradGradGradGradGradGrad

 Leave Link  103 at Fri Jul 01 20:52:26 2011, MaxMem=    6291456 cpu:       0.0
 (Enter C:\G03W\l202.exe)
                          Input orientation:                          
 ---------------------------------------------------------------------
 Center     Atomic     Atomic              Coordinates (Angstroms)
 Number     Number      Type              X           Y           Z
 ---------------------------------------------------------------------
    1          5             0        5.238805   -0.546742    0.000000
    2          1             0        6.418805   -0.546742    0.000000
    3          1             0        4.648805    0.475168    0.000000
    4          1             0        4.648805   -1.568652    0.000000
 ---------------------------------------------------------------------
                    Distance matrix (angstroms):
                    1          2          3          4
     1  B    0.000000
     2  H    1.180000   0.000000
     3  H    1.180000   2.043820   0.000000
     4  H    1.180000   2.043820   2.043820   0.000000
 Stoichiometry    BH3
 Framework group  D3H[O(B),3C2(H)]
 Deg. of freedom     1
 Full point group                 D3H     NOp  12
 Largest Abelian subgroup         C2V     NOp   4
 Largest concise Abelian subgroup C2      NOp   2
                         Standard orientation:                         
 ---------------------------------------------------------------------
 Center     Atomic     Atomic              Coordinates (Angstroms)
 Number     Number      Type              X           Y           Z
 ---------------------------------------------------------------------
    1          5             0        0.000000    0.000000    0.000000
    2          1             0        0.000000    1.180000    0.000000
    3          1             0       -1.021910   -0.590000    0.000000
    4          1             0        1.021910   -0.590000    0.000000
 ---------------------------------------------------------------------
 Rotational constants (GHZ):    240.0914971    240.0914971    120.0457486
 Leave Link  202 at Fri Jul 01 20:52:27 2011, MaxMem=    6291456 cpu:       1.0
 (Enter C:\G03W\l301.exe)
 Standard basis: 6-31G(d,p) (6D, 7F)
 There are    15 symmetry adapted basis functions of A1  symmetry.
 There are     2 symmetry adapted basis functions of A2  symmetry.
 There are     8 symmetry adapted basis functions of B1  symmetry.
 There are     5 symmetry adapted basis functions of B2  symmetry.
 Integral buffers will be    262144 words long.
 Raffenetti 2 integral format.
 Two-electron integral symmetry is turned on.
    30 basis functions,    49 primitive gaussians,    30 cartesian basis functions
     4 alpha electrons        4 beta electrons
       nuclear repulsion energy         7.5035762165 Hartrees.
 IExCor= 402 DFT=T Ex=B+HF Corr=LYP ExCW=0 ScaHFX=  0.200000
 ScaDFX=  0.800000  0.720000  1.000000  0.810000
 IRadAn=      0 IRanWt=     -1 IRanGd=            0 ICorTp=0
 NAtoms=    4 NActive=    4 NUniq=    2 SFac= 5.66D+00 NAtFMM=   60 Big=F
 Leave Link  301 at Fri Jul 01 20:52:27 2011, MaxMem=    6291456 cpu:       0.0
 (Enter C:\G03W\l302.exe)
 NPDir=0 NMtPBC=     1 NCelOv=     1 NCel=       1 NClECP=     1 NCelD=      1
         NCelK=      1 NCelE2=     1 NClLst=     1 CellRange=     0.0.
 One-electron integrals computed using PRISM.
 One-electron integral symmetry used in STVInt
 NBasis=    30 RedAO= T  NBF=    15     2     8     5
 NBsUse=    30 1.00D-06 NBFU=    15     2     8     5
 Precomputing XC quadrature grid using
 IXCGrd= 2 IRadAn=           0 IRanWt=          -1 IRanGd=           0.
 NRdTot=     241 NPtTot=       30506 NUsed=       31600 NTot=       31616
 NSgBfM=    30    30    30    30.
 Leave Link  302 at Fri Jul 01 20:52:28 2011, MaxMem=    6291456 cpu:       1.0
 (Enter C:\G03W\l303.exe)
 DipDrv:  MaxL=1.
 Leave Link  303 at Fri Jul 01 20:52:28 2011, MaxMem=    6291456 cpu:       0.0
 (Enter C:\G03W\l401.exe)
 Initial guess orbitals will be localized.
 Harris functional with IExCor=  402 diagonalized for initial guess.
 ExpMin= 1.27D-01 ExpMax= 2.07D+03 ExpMxC= 3.11D+02 IAcc=1 IRadAn=         1 AccDes= 1.00D-06
 HarFok:  IExCor= 402 AccDes= 1.00D-06 IRadAn=         1 IDoV=1
 ScaDFX=  1.000000  1.000000  1.000000  1.000000
 Harris En= -26.6397924767233    
 LocMO: Using Boys method
 Initial Trace=-0.38857806D-15 Initial TraceA= 0.19078101D+00
 RMSG= 0.48529824D-08
 LocMO: Using Boys method
 Initial Trace=-0.25118796D-14 Initial TraceA= 0.12135166D+01
 RMSG= 0.44521009D-08
 Initial guess orbital symmetries:
       Occupied  (A1') (?A) (?A) (?A)
       Virtual   (?B) (?B) (?B) (?B) (?B) (?B) (?B) (?B) (?B) (?B)
                 (?B) (?B) (?B) (?B) (?B) (?B) (?B) (?B) (?B) (?B)
                 (?B) (?B) (?B) (?B) (?B) (?B)
 Leave Link  401 at Fri Jul 01 20:52:29 2011, MaxMem=    6291456 cpu:       1.0
 (Enter C:\G03W\l502.exe)
 Closed shell SCF:
 Requested convergence on RMS density matrix=1.00D-08 within 128 cycles.
 Requested convergence on MAX density matrix=1.00D-06.
 Requested convergence on             energy=1.00D-06.
 No special actions if energy rises.
 Using DIIS extrapolation, IDIIS=  1040.
 Integral symmetry usage will be decided dynamically.
        31599 words used for storage of precomputed grid.
 Keep R1 integrals in memory in canonical form, NReq=      604815.
 IEnd=     52041 IEndB=     52041 NGot=   6291456 MDV=   6148627
 LenX=   6148627
 Symmetry not used in FoFDir.
 MinBra= 0 MaxBra= 2 Meth= 1.
 IRaf=       0 NMat=   1 IRICut=       1 DoRegI=T DoRafI=F ISym2E= 0 JSym2E=0.
 Integral accuracy reduced to 1.0D-05 until final iterations.

 Cycle   1  Pass 0  IDiag  1:
 E= -26.5899843748410    
 DIIS: error= 2.12D-02 at cycle   1 NSaved=   1.
 NSaved= 1 IEnMin= 1 EnMin= -26.5899843748410     IErMin= 1 ErrMin= 2.12D-02
 ErrMax= 2.12D-02 EMaxC= 1.00D-01 BMatC= 1.49D-02 BMatP= 1.49D-02
 IDIUse=3 WtCom= 7.88D-01 WtEn= 2.12D-01
 Coeff-Com:  0.100D+01
 Coeff-En:   0.100D+01
 Coeff:      0.100D+01
 Gap=     0.811 Goal=   None    Shift=    0.000
 Fock symm off for IB=2 I1=    1 I=   16 J=   11 Cut=1.00D-04 Err=1.95D-01
 Fock matrix is not symmetric: symmetry in diagonalization turned off.
 GapD=    0.811 DampG=2.000 DampE=0.500 DampFc=1.0000 IDamp=-1.
 RMSDP=7.56D-03 MaxDP=8.31D-02              OVMax= 6.73D-01

 Cycle   2  Pass 0  IDiag  1:
 E= -26.6081279468635     Delta-E=       -0.018143572023 Rises=F Damp=F
 DIIS: error= 1.54D-02 at cycle   2 NSaved=   2.
 NSaved= 2 IEnMin= 2 EnMin= -26.6081279468635     IErMin= 2 ErrMin= 1.54D-02
 ErrMax= 1.54D-02 EMaxC= 1.00D-01 BMatC= 4.76D-03 BMatP= 1.49D-02
 IDIUse=3 WtCom= 8.46D-01 WtEn= 1.54D-01
 Coeff-Com:  0.349D+00 0.651D+00
 Coeff-En:   0.417D-02 0.996D+00
 Coeff:      0.296D+00 0.704D+00
 Gap=     0.285 Goal=   None    Shift=    0.000
 RMSDP=3.02D-03 MaxDP=3.23D-02 DE=-1.81D-02 OVMax= 3.87D-02

 Cycle   3  Pass 0  IDiag  1:
 E= -26.6149071726338     Delta-E=       -0.006779225770 Rises=F Damp=F
 DIIS: error= 2.81D-03 at cycle   3 NSaved=   3.
 NSaved= 3 IEnMin= 3 EnMin= -26.6149071726338     IErMin= 3 ErrMin= 2.81D-03
 ErrMax= 2.81D-03 EMaxC= 1.00D-01 BMatC= 1.66D-04 BMatP= 4.76D-03
 IDIUse=3 WtCom= 9.72D-01 WtEn= 2.81D-02
 Coeff-Com:  0.445D-01 0.198D+00 0.758D+00
 Coeff-En:   0.000D+00 0.000D+00 0.100D+01
 Coeff:      0.433D-01 0.192D+00 0.765D+00
 Gap=     0.287 Goal=   None    Shift=    0.000
 RMSDP=4.70D-04 MaxDP=5.35D-03 DE=-6.78D-03 OVMax= 5.80D-03

 Cycle   4  Pass 0  IDiag  1:
 E= -26.6151238473648     Delta-E=       -0.000216674731 Rises=F Damp=F
 DIIS: error= 8.82D-05 at cycle   4 NSaved=   4.
 NSaved= 4 IEnMin= 4 EnMin= -26.6151238473648     IErMin= 4 ErrMin= 8.82D-05
 ErrMax= 8.82D-05 EMaxC= 1.00D-01 BMatC= 1.86D-07 BMatP= 1.66D-04
 IDIUse=1 WtCom= 1.00D+00 WtEn= 0.00D+00
 Coeff-Com: -0.157D-02-0.460D-02 0.183D-01 0.988D+00
 Coeff:     -0.157D-02-0.460D-02 0.183D-01 0.988D+00
 Gap=     0.286 Goal=   None    Shift=    0.000
 RMSDP=1.38D-05 MaxDP=1.58D-04 DE=-2.17D-04 OVMax= 1.71D-04

 Cycle   5  Pass 0  IDiag  1:
 E= -26.6151240656420     Delta-E=       -0.000000218277 Rises=F Damp=F
 DIIS: error= 1.27D-06 at cycle   5 NSaved=   5.
 NSaved= 5 IEnMin= 5 EnMin= -26.6151240656420     IErMin= 5 ErrMin= 1.27D-06
 ErrMax= 1.27D-06 EMaxC= 1.00D-01 BMatC= 4.27D-11 BMatP= 1.86D-07
 IDIUse=1 WtCom= 1.00D+00 WtEn= 0.00D+00
 Coeff-Com:  0.302D-04 0.376D-04-0.967D-03-0.443D-01 0.105D+01
 Coeff:      0.302D-04 0.376D-04-0.967D-03-0.443D-01 0.105D+01
 Gap=     0.286 Goal=   None    Shift=    0.000
 RMSDP=2.29D-07 MaxDP=2.38D-06 DE=-2.18D-07 OVMax= 2.54D-06

 Initial convergence to 1.0D-05 achieved.  Increase integral accuracy.
 Cycle   6  Pass 1  IDiag  1:
 E= -26.6151122666242     Delta-E=        0.000011799018 Rises=F Damp=F
 DIIS: error= 3.92D-06 at cycle   1 NSaved=   1.
 NSaved= 1 IEnMin= 1 EnMin= -26.6151122666242     IErMin= 1 ErrMin= 3.92D-06
 ErrMax= 3.92D-06 EMaxC= 1.00D-01 BMatC= 1.42D-10 BMatP= 1.42D-10
 IDIUse=1 WtCom= 1.00D+00 WtEn= 0.00D+00
 Coeff-Com:  0.100D+01
 Coeff:      0.100D+01
 Gap=     0.286 Goal=   None    Shift=    0.000
 RMSDP=2.29D-07 MaxDP=2.38D-06 DE= 1.18D-05 OVMax= 3.09D-06

 Cycle   7  Pass 1  IDiag  1:
 E= -26.6151122666959     Delta-E=       -0.000000000072 Rises=F Damp=F
 DIIS: error= 1.48D-07 at cycle   2 NSaved=   2.
 NSaved= 2 IEnMin= 2 EnMin= -26.6151122666959     IErMin= 2 ErrMin= 1.48D-07
 ErrMax= 1.48D-07 EMaxC= 1.00D-01 BMatC= 4.20D-13 BMatP= 1.42D-10
 IDIUse=1 WtCom= 1.00D+00 WtEn= 0.00D+00
 Coeff-Com: -0.227D-01 0.102D+01
 Coeff:     -0.227D-01 0.102D+01
 Gap=     0.286 Goal=   None    Shift=    0.000
 RMSDP=2.64D-08 MaxDP=3.29D-07 DE=-7.17D-11 OVMax= 3.16D-07

 Cycle   8  Pass 1  IDiag  1:
 E= -26.6151122666964     Delta-E=        0.000000000000 Rises=F Damp=F
 DIIS: error= 5.02D-08 at cycle   3 NSaved=   3.
 NSaved= 3 IEnMin= 3 EnMin= -26.6151122666964     IErMin= 3 ErrMin= 5.02D-08
 ErrMax= 5.02D-08 EMaxC= 1.00D-01 BMatC= 5.62D-14 BMatP= 4.20D-13
 IDIUse=1 WtCom= 1.00D+00 WtEn= 0.00D+00
 Coeff-Com: -0.813D-02 0.271D+00 0.738D+00
 Coeff:     -0.813D-02 0.271D+00 0.738D+00
 Gap=     0.286 Goal=   None    Shift=    0.000
 RMSDP=1.05D-08 MaxDP=1.15D-07 DE=-4.41D-13 OVMax= 1.24D-07

 Cycle   9  Pass 1  IDiag  1:
 E= -26.6151122666964     Delta-E=        0.000000000000 Rises=F Damp=F
 DIIS: error= 1.19D-08 at cycle   4 NSaved=   4.
 NSaved= 4 IEnMin= 4 EnMin= -26.6151122666964     IErMin= 4 ErrMin= 1.19D-08
 ErrMax= 1.19D-08 EMaxC= 1.00D-01 BMatC= 2.66D-15 BMatP= 5.62D-14
 IDIUse=1 WtCom= 1.00D+00 WtEn= 0.00D+00
 Coeff-Com: -0.735D-03 0.184D-01 0.200D+00 0.783D+00
 Coeff:     -0.735D-03 0.184D-01 0.200D+00 0.783D+00
 Gap=     0.286 Goal=   None    Shift=    0.000
 RMSDP=1.89D-09 MaxDP=2.28D-08 DE=-4.26D-14 OVMax= 2.59D-08

 SCF Done:  E(RB+HF-LYP) =  -26.6151122667     A.U. after    9 cycles
             Convg  =    0.1889D-08             -V/T =  2.0098
             S**2   =   0.0000
 KE= 2.635570824300D+01 PE=-7.561008188536D+01 EE= 1.513568515915D+01
 Leave Link  502 at Fri Jul 01 20:52:31 2011, MaxMem=    6291456 cpu:       2.0
 (Enter C:\G03W\l601.exe)
 Copying SCF densities to generalized density rwf, ISCF=0 IROHF=0.

 **********************************************************************

            Population analysis using the SCF density.

 **********************************************************************

 Orbital symmetries:
       Occupied  (A1') (A1') (E') (E')
       Virtual   (A2") (A1') (E') (E') (E') (E') (A2") (A1') (E')
                 (E') (A1') (E") (E") (A1') (E') (E') (A2') (A2")
                 (E") (E") (E') (E') (A1') (E') (E') (A1')
 The electronic state is 1-A1'.
 Alpha  occ. eigenvalues --   -6.76753  -0.51445  -0.35204  -0.35204
 Alpha virt. eigenvalues --   -0.06557   0.17374   0.18219   0.18219   0.37954
 Alpha virt. eigenvalues --    0.37954   0.44509   0.47063   0.90870   0.90870
 Alpha virt. eigenvalues --    0.92146   1.17078   1.17078   1.58598   1.63359
 Alpha virt. eigenvalues --    1.63359   2.00606   2.21848   2.40463   2.40463
 Alpha virt. eigenvalues --    2.57355   2.57355   3.02853   3.27310   3.27310
 Alpha virt. eigenvalues --    3.45217
          Condensed to atoms (all electrons):
              1          2          3          4
     1  B    3.668952   0.412916   0.412916   0.412916
     2  H    0.412916   0.669476  -0.025813  -0.025813
     3  H    0.412916  -0.025813   0.669476  -0.025813
     4  H    0.412916  -0.025813  -0.025813   0.669476
 Mulliken atomic charges:
              1
     1  B    0.092299
     2  H   -0.030766
     3  H   -0.030766
     4  H   -0.030766
 Sum of Mulliken charges=   0.00000
 Atomic charges with hydrogens summed into heavy atoms:
              1
     1  B    0.000000
     2  H    0.000000
     3  H    0.000000
     4  H    0.000000
 Sum of Mulliken charges=   0.00000
 Electronic spatial extent (au):  <R**2>=    33.4195
 Charge=     0.0000 electrons
 Dipole moment (field-independent basis, Debye):
    X=     0.0000    Y=     0.0000    Z=     0.0000  Tot=     0.0000
 Quadrupole moment (field-independent basis, Debye-Ang):
   XX=    -8.9760   YY=    -8.9760   ZZ=    -6.9344
   XY=     0.0000   XZ=     0.0000   YZ=     0.0000
 Traceless Quadrupole moment (field-independent basis, Debye-Ang):
   XX=    -0.6805   YY=    -0.6805   ZZ=     1.3611
   XY=     0.0000   XZ=     0.0000   YZ=     0.0000
 Octapole moment (field-independent basis, Debye-Ang**2):
  XXX=     0.0000  YYY=     0.1028  ZZZ=     0.0000  XYY=     0.0000
  XXY=    -0.1028  XXZ=     0.0000  XZZ=     0.0000  YZZ=     0.0000
  YYZ=     0.0000  XYZ=     0.0000
 Hexadecapole moment (field-independent basis, Debye-Ang**3):
 XXXX=   -22.1406 YYYY=   -22.1406 ZZZZ=    -6.5486 XXXY=     0.0000
 XXXZ=     0.0000 YYYX=     0.0000 YYYZ=     0.0000 ZZZX=     0.0000
 ZZZY=     0.0000 XXYY=    -7.3802 XXZZ=    -5.0035 YYZZ=    -5.0035
 XXYZ=     0.0000 YYXZ=     0.0000 ZZXY=     0.0000
 N-N= 7.503576216511D+00 E-N=-7.561008211833D+01  KE= 2.635570824300D+01
 Symmetry A1   KE= 2.488608035920D+01
 Symmetry A2   KE= 1.657073062600D-31
 Symmetry B1   KE= 1.469627883793D+00
 Symmetry B2   KE= 1.288993382716D-30
 No NMR shielding tensors so no spin-rotation constants.
 Leave Link  601 at Fri Jul 01 20:52:31 2011, MaxMem=    6291456 cpu:       0.0
 (Enter C:\G03W\l701.exe)
 Compute integral first derivatives.
 ... and contract with generalized density number  0.
 Leave Link  701 at Fri Jul 01 20:52:32 2011, MaxMem=    6291456 cpu:       1.0
 (Enter C:\G03W\l702.exe)
 L702 exits ... SP integral derivatives will be done elsewhere.
 Leave Link  702 at Fri Jul 01 20:52:32 2011, MaxMem=    6291456 cpu:       0.0
 (Enter C:\G03W\l703.exe)
 Compute integral first derivatives, UseDBF=F.
 Integral derivatives from FoFDir, PRISM(SPDF).
 Petite list used in FoFDir.
 MinBra= 0 MaxBra= 2 Meth= 1.
 IRaf=       0 NMat=   1 IRICut=       1 DoRegI=T DoRafI=F ISym2E= 1 JSym2E=1.
 Leave Link  703 at Fri Jul 01 20:52:33 2011, MaxMem=    6291456 cpu:       1.0
 (Enter C:\G03W\l716.exe)
 Dipole        = 6.66133815D-16-4.44089210D-16 9.64426546D-33
 ***** Axes restored to original set *****
 -------------------------------------------------------------------
 Center     Atomic                   Forces (Hartrees/Bohr)
 Number     Number              X              Y              Z
 -------------------------------------------------------------------
    1          5           0.000000000    0.000000000    0.000000000
    2          1           0.006106426    0.000000000    0.000000000
    3          1          -0.003053213    0.005288320    0.000000000
    4          1          -0.003053213   -0.005288320    0.000000000
 -------------------------------------------------------------------
 Cartesian Forces:  Max     0.006106426 RMS     0.003053213
 Leave Link  716 at Fri Jul 01 20:52:33 2011, MaxMem=    6291456 cpu:       0.0
 (Enter C:\G03W\l103.exe)

 GradGradGradGradGradGradGradGradGradGradGradGradGradGradGradGradGradGrad
 Berny optimization.
 Internal  Forces:  Max     0.006106426 RMS     0.003997594
 Search for a local minimum.
 Step number   1 out of a maximum of  20
 All quantities printed in internal units (Hartrees-Bohrs-Radians)
 Second derivative matrix not updated -- first step.
 The second derivative matrix:
                          R1        R2        R3        A1        A2
           R1           0.26185
           R2           0.00000   0.26185
           R3           0.00000   0.00000   0.26185
           A1           0.00000   0.00000   0.00000   0.16000
           A2           0.00000   0.00000   0.00000   0.00000   0.16000
           A3           0.00000   0.00000   0.00000   0.00000   0.00000
           A4           0.00000   0.00000   0.00000   0.00000   0.00000
                          A3        A4
           A3           0.16000
           A4           0.00000   0.16000
     Eigenvalues ---    0.16000   0.16000   0.16000   0.26185   0.26185
     Eigenvalues ---    0.261851000.00000
 RFO step:  Lambda=-4.26520238D-04.
 Linear search not attempted -- first point.
 Iteration  1 RMS(Cart)=  0.01524207 RMS(Int)=  0.00000000
 Iteration  2 RMS(Cart)=  0.00000000 RMS(Int)=  0.00000000
 Variable       Old X    -DE/DX   Delta X   Delta X   Delta X     New X
                                 (Linear)    (Quad)   (Total)
    R1        2.22988   0.00611   0.00000   0.02328   0.02328   2.25316
    R2        2.22988   0.00611   0.00000   0.02328   0.02328   2.25316
    R3        2.22988   0.00611   0.00000   0.02328   0.02328   2.25316
    A1        2.09440   0.00000   0.00000   0.00000   0.00000   2.09440
    A2        2.09440   0.00000   0.00000   0.00000   0.00000   2.09440
    A3        2.09440   0.00000   0.00000   0.00000   0.00000   2.09440
    A4        3.14159   0.00000   0.00000   0.00000   0.00000   3.14159
         Item               Value     Threshold  Converged?
 Maximum Force            0.006106     0.000450     NO 
 RMS     Force            0.003998     0.000300     NO 
 Maximum Displacement     0.023283     0.001800     NO 
 RMS     Displacement     0.015242     0.001200     NO 
 Predicted change in Energy=-2.136075D-04
 GradGradGradGradGradGradGradGradGradGradGradGradGradGradGradGradGradGrad

 Leave Link  103 at Fri Jul 01 20:52:34 2011, MaxMem=    6291456 cpu:       1.0
 (Enter C:\G03W\l202.exe)
                          Input orientation:                          
 ---------------------------------------------------------------------
 Center     Atomic     Atomic              Coordinates (Angstroms)
 Number     Number      Type              X           Y           Z
 ---------------------------------------------------------------------
    1          5             0        5.238805   -0.546742    0.000000
    2          1             0        6.431125   -0.546742    0.000000
    3          1             0        4.642644    0.485838    0.000000
    4          1             0        4.642644   -1.579322    0.000000
 ---------------------------------------------------------------------
                    Distance matrix (angstroms):
                    1          2          3          4
     1  B    0.000000
     2  H    1.192321   0.000000
     3  H    1.192321   2.065160   0.000000
     4  H    1.192321   2.065160   2.065160   0.000000
 Stoichiometry    BH3
 Framework group  D3H[O(B),3C2(H)]
 Deg. of freedom     1
 Full point group                 D3H     NOp  12
 Largest Abelian subgroup         C2V     NOp   4
 Largest concise Abelian subgroup C2      NOp   2
                         Standard orientation:                         
 ---------------------------------------------------------------------
 Center     Atomic     Atomic              Coordinates (Angstroms)
 Number     Number      Type              X           Y           Z
 ---------------------------------------------------------------------
    1          5             0        0.000000    0.000000    0.000000
    2          1             0        0.000000    1.192321    0.000000
    3          1             0        1.032580   -0.596160    0.000000
    4          1             0       -1.032580   -0.596160    0.000000
 ---------------------------------------------------------------------
 Rotational constants (GHZ):    235.1552416    235.1552416    117.5776208
 Leave Link  202 at Fri Jul 01 20:52:34 2011, MaxMem=    6291456 cpu:       0.0
 (Enter C:\G03W\l301.exe)
 Standard basis: 6-31G(d,p) (6D, 7F)
 There are    15 symmetry adapted basis functions of A1  symmetry.
 There are     2 symmetry adapted basis functions of A2  symmetry.
 There are     8 symmetry adapted basis functions of B1  symmetry.
 There are     5 symmetry adapted basis functions of B2  symmetry.
 Integral buffers will be    262144 words long.
 Raffenetti 2 integral format.
 Two-electron integral symmetry is turned on.
    30 basis functions,    49 primitive gaussians,    30 cartesian basis functions
     4 alpha electrons        4 beta electrons
       nuclear repulsion energy         7.4260392468 Hartrees.
 IExCor= 402 DFT=T Ex=B+HF Corr=LYP ExCW=0 ScaHFX=  0.200000
 ScaDFX=  0.800000  0.720000  1.000000  0.810000
 IRadAn=      0 IRanWt=     -1 IRanGd=            0 ICorTp=0
 NAtoms=    4 NActive=    4 NUniq=    2 SFac= 5.66D+00 NAtFMM=   60 Big=F
 Leave Link  301 at Fri Jul 01 20:52:34 2011, MaxMem=    6291456 cpu:       0.0
 (Enter C:\G03W\l302.exe)
 NPDir=0 NMtPBC=     1 NCelOv=     1 NCel=       1 NClECP=     1 NCelD=      1
         NCelK=      1 NCelE2=     1 NClLst=     1 CellRange=     0.0.
 One-electron integrals computed using PRISM.
 One-electron integral symmetry used in STVInt
 NBasis=    30 RedAO= T  NBF=    15     2     8     5
 NBsUse=    30 1.00D-06 NBFU=    15     2     8     5
 Precomputing XC quadrature grid using
 IXCGrd= 2 IRadAn=           0 IRanWt=          -1 IRanGd=           0.
 NRdTot=     241 NPtTot=       30506 NUsed=       31600 NTot=       31616
 NSgBfM=    30    30    30    30.
 Leave Link  302 at Fri Jul 01 20:52:35 2011, MaxMem=    6291456 cpu:       0.0
 (Enter C:\G03W\l303.exe)
 DipDrv:  MaxL=1.
 Leave Link  303 at Fri Jul 01 20:52:35 2011, MaxMem=    6291456 cpu:       0.0
 (Enter C:\G03W\l401.exe)
 Initial guess read from the read-write file:
 Guess basis will be translated and rotated to current coordinates.
 Initial guess orbital symmetries:
       Occupied  (A1') (?A) (?A) (?A)
       Virtual   (A2") (?A) (?A) (?A) (?A) (?A) (A2") (?A) (?A)
                 (?A) (?A) (?B) (?B) (?A) (?A) (?A) (?A) (A2")
                 (?B) (?B) (?A) (?A) (?A) (?A) (?A) (?A)
 Generating alternative initial guess.
 Harris functional with IExCor=  402 diagonalized for initial guess.
 ExpMin= 1.27D-01 ExpMax= 2.07D+03 ExpMxC= 3.11D+02 IAcc=1 IRadAn=         1 AccDes= 1.00D-06
 HarFok:  IExCor= 402 AccDes= 1.00D-06 IRadAn=         1 IDoV=1
 ScaDFX=  1.000000  1.000000  1.000000  1.000000
 Harris En= -26.6374602654786    
 Leave Link  401 at Fri Jul 01 20:52:36 2011, MaxMem=    6291456 cpu:       1.0
 (Enter C:\G03W\l502.exe)
 Closed shell SCF:
 Requested convergence on RMS density matrix=1.00D-08 within 128 cycles.
 Requested convergence on MAX density matrix=1.00D-06.
 Requested convergence on             energy=1.00D-06.
 No special actions if energy rises.
 Using DIIS extrapolation, IDIIS=  1040.
 Integral symmetry usage will be decided dynamically.
        31599 words used for storage of precomputed grid.
 Keep R1 integrals in memory in canonical form, NReq=      604815.
 IEnd=     52041 IEndB=     52041 NGot=   6291456 MDV=   6148627
 LenX=   6148627
 Symmetry not used in FoFDir.
 MinBra= 0 MaxBra= 2 Meth= 1.
 IRaf=       0 NMat=   1 IRICut=       1 DoRegI=T DoRafI=F ISym2E= 0 JSym2E=0.
 Integral accuracy reduced to 1.0D-05 until final iterations.
 A guess orbital has undefined symmetry, so N**3 symmetry is turned off.

 Density matrix breaks symmetry, PCut= 1.00D-04
 Density has only Abelian symmetry.
 Cycle   1  Pass 0  IDiag  1:
 E= -25.2279564922594    
 DIIS: error= 1.23D-01 at cycle   1 NSaved=   1.
 NSaved= 1 IEnMin= 1 EnMin= -25.2279564922594     IErMin= 1 ErrMin= 1.23D-01
 ErrMax= 1.23D-01 EMaxC= 1.00D-01 BMatC= 2.00D-01 BMatP= 2.00D-01
 IDIUse=3 WtCom= 0.00D+00 WtEn= 1.00D+00
 Coeff-Com:  0.100D+01
 Coeff-En:   0.100D+01
 Coeff:      0.100D+01
 Recover alternate guess density for next cycle.
 RMSDP=7.29D-02 MaxDP=6.31D-01              OVMax= 0.00D+00

 Cycle   2  Pass 0  IDiag  1:
 E= -26.5914857717772     Delta-E=       -1.363529279518 Rises=F Damp=F
 DIIS: error= 2.08D-02 at cycle   2 NSaved=   2.
 NSaved= 2 IEnMin= 2 EnMin= -26.5914857717772     IErMin= 2 ErrMin= 2.08D-02
 ErrMax= 2.08D-02 EMaxC= 1.00D-01 BMatC= 1.41D-02 BMatP= 2.00D-01
 IDIUse=3 WtCom= 7.92D-01 WtEn= 2.08D-01
 Coeff-Com:  0.739D-01 0.926D+00
 Coeff-En:   0.000D+00 0.100D+01
 Coeff:      0.586D-01 0.941D+00
 Gap=     0.213 Goal=   None    Shift=    0.000
 RMSDP=7.29D-03 MaxDP=7.97D-02 DE=-1.36D+00 OVMax= 9.07D-01

 Density matrix breaks symmetry, PCut= 1.00D-04
 Density has only Abelian symmetry.
 Cycle   3  Pass 0  IDiag  1:
 E= -26.6091099019104     Delta-E=       -0.017624130133 Rises=F Damp=F
 DIIS: error= 1.50D-02 at cycle   3 NSaved=   3.
 NSaved= 3 IEnMin= 3 EnMin= -26.6091099019104     IErMin= 3 ErrMin= 1.50D-02
 ErrMax= 1.50D-02 EMaxC= 1.00D-01 BMatC= 4.27D-03 BMatP= 1.41D-02
 IDIUse=3 WtCom= 8.50D-01 WtEn= 1.50D-01
 Coeff-Com: -0.563D-02 0.342D+00 0.664D+00
 Coeff-En:   0.000D+00 0.000D+00 0.100D+01
 Coeff:     -0.479D-02 0.290D+00 0.714D+00
 Gap=     0.283 Goal=   None    Shift=    0.000
 RMSDP=2.87D-03 MaxDP=3.12D-02 DE=-1.76D-02 OVMax= 3.76D-02

 Density matrix breaks symmetry, PCut= 1.00D-04
 Density has only Abelian symmetry.
 Cycle   4  Pass 0  IDiag  1:
 E= -26.6151208142532     Delta-E=       -0.006010912343 Rises=F Damp=F
 DIIS: error= 2.84D-03 at cycle   4 NSaved=   4.
 NSaved= 4 IEnMin= 4 EnMin= -26.6151208142532     IErMin= 4 ErrMin= 2.84D-03
 ErrMax= 2.84D-03 EMaxC= 1.00D-01 BMatC= 1.61D-04 BMatP= 4.27D-03
 IDIUse=3 WtCom= 9.72D-01 WtEn= 2.84D-02
 Coeff-Com:  0.142D-03 0.419D-01 0.200D+00 0.758D+00
 Coeff-En:   0.000D+00 0.000D+00 0.000D+00 0.100D+01
 Coeff:      0.138D-03 0.407D-01 0.195D+00 0.765D+00
 Gap=     0.285 Goal=   None    Shift=    0.000
 RMSDP=4.67D-04 MaxDP=5.32D-03 DE=-6.01D-03 OVMax= 5.92D-03

 Cycle   5  Pass 0  IDiag  1:
 E= -26.6153573530800     Delta-E=       -0.000236538827 Rises=F Damp=F
 DIIS: error= 1.08D-04 at cycle   5 NSaved=   5.
 NSaved= 5 IEnMin= 5 EnMin= -26.6153573530800     IErMin= 5 ErrMin= 1.08D-04
 ErrMax= 1.08D-04 EMaxC= 1.00D-01 BMatC= 2.62D-07 BMatP= 1.61D-04
 IDIUse=3 WtCom= 9.99D-01 WtEn= 1.08D-03
 Coeff-Com: -0.196D-04-0.153D-02-0.447D-02 0.255D-01 0.981D+00
 Coeff-En:   0.000D+00 0.000D+00 0.000D+00 0.000D+00 0.100D+01
 Coeff:     -0.196D-04-0.153D-02-0.447D-02 0.255D-01 0.981D+00
 Gap=     0.285 Goal=   None    Shift=    0.000
 RMSDP=1.64D-05 MaxDP=2.10D-04 DE=-2.37D-04 OVMax= 2.32D-04

 Cycle   6  Pass 0  IDiag  1:
 E= -26.6153373315554     Delta-E=        0.000020021525 Rises=F Damp=F
 DIIS: error= 1.17D-06 at cycle   6 NSaved=   6.
 NSaved= 6 IEnMin= 5 EnMin= -26.6153573530800     IErMin= 6 ErrMin= 1.17D-06
 ErrMax= 1.17D-06 EMaxC= 1.00D-01 BMatC= 3.89D-11 BMatP= 2.62D-07
 IDIUse=1 WtCom= 1.00D+00 WtEn= 0.00D+00
 Coeff-Com: -0.262D-06 0.915D-06 0.635D-05-0.134D-02-0.432D-01 0.104D+01
 Coeff:     -0.262D-06 0.915D-06 0.635D-05-0.134D-02-0.432D-01 0.104D+01
 Gap=     0.285 Goal=   None    Shift=    0.000
 RMSDP=4.18D-07 MaxDP=2.96D-06 DE= 2.00D-05 OVMax= 4.96D-06

 Initial convergence to 1.0D-05 achieved.  Increase integral accuracy.
 Cycle   7  Pass 1  IDiag  1:
 E= -26.6153234911108     Delta-E=        0.000013840445 Rises=F Damp=F
 DIIS: error= 4.28D-06 at cycle   1 NSaved=   1.
 NSaved= 1 IEnMin= 1 EnMin= -26.6153234911108     IErMin= 1 ErrMin= 4.28D-06
 ErrMax= 4.28D-06 EMaxC= 1.00D-01 BMatC= 1.38D-10 BMatP= 1.38D-10
 IDIUse=1 WtCom= 1.00D+00 WtEn= 0.00D+00
 Coeff-Com:  0.100D+01
 Coeff:      0.100D+01
 Gap=     0.285 Goal=   None    Shift=    0.000
 RMSDP=4.18D-07 MaxDP=2.96D-06 DE= 1.38D-05 OVMax= 3.37D-06

 Cycle   8  Pass 1  IDiag  1:
 E= -26.6153236279191     Delta-E=       -0.000000136808 Rises=F Damp=F
 DIIS: error= 3.20D-07 at cycle   2 NSaved=   2.
 NSaved= 2 IEnMin= 2 EnMin= -26.6153236279191     IErMin= 2 ErrMin= 3.20D-07
 ErrMax= 3.20D-07 EMaxC= 1.00D-01 BMatC= 2.11D-12 BMatP= 1.38D-10
 IDIUse=1 WtCom= 1.00D+00 WtEn= 0.00D+00
 Coeff-Com:  0.137D-01 0.986D+00
 Coeff:      0.137D-01 0.986D+00
 Gap=     0.285 Goal=   None    Shift=    0.000
 RMSDP=7.44D-08 MaxDP=9.94D-07 DE=-1.37D-07 OVMax= 1.05D-06

 Cycle   9  Pass 1  IDiag  1:
 E= -26.6153236279207     Delta-E=       -0.000000000002 Rises=F Damp=F
 DIIS: error= 1.97D-07 at cycle   3 NSaved=   3.
 NSaved= 3 IEnMin= 3 EnMin= -26.6153236279207     IErMin= 3 ErrMin= 1.97D-07
 ErrMax= 1.97D-07 EMaxC= 1.00D-01 BMatC= 7.71D-13 BMatP= 2.11D-12
 IDIUse=1 WtCom= 1.00D+00 WtEn= 0.00D+00
 Coeff-Com: -0.114D-01 0.373D+00 0.638D+00
 Coeff:     -0.114D-01 0.373D+00 0.638D+00
 Gap=     0.285 Goal=   None    Shift=    0.000
 RMSDP=3.32D-08 MaxDP=3.67D-07 DE=-1.56D-12 OVMax= 4.10D-07

 Cycle  10  Pass 1  IDiag  1:
 E= -26.6153236279218     Delta-E=       -0.000000000001 Rises=F Damp=F
 DIIS: error= 6.70D-09 at cycle   4 NSaved=   4.
 NSaved= 4 IEnMin= 4 EnMin= -26.6153236279218     IErMin= 4 ErrMin= 6.70D-09
 ErrMax= 6.70D-09 EMaxC= 1.00D-01 BMatC= 8.11D-16 BMatP= 7.71D-13
 IDIUse=1 WtCom= 1.00D+00 WtEn= 0.00D+00
 Coeff-Com: -0.670D-03 0.151D-01 0.528D-01 0.933D+00
 Coeff:     -0.670D-03 0.151D-01 0.528D-01 0.933D+00
 Gap=     0.285 Goal=   None    Shift=    0.000
 RMSDP=1.11D-09 MaxDP=1.32D-08 DE=-1.12D-12 OVMax= 1.60D-08

 SCF Done:  E(RB+HF-LYP) =  -26.6153236279     A.U. after   10 cycles
             Convg  =    0.1115D-08             -V/T =  2.0113
             S**2   =   0.0000
 KE= 2.631793681052D+01 PE=-7.542483291676D+01 EE= 1.506553323154D+01
 Leave Link  502 at Fri Jul 01 20:52:37 2011, MaxMem=    6291456 cpu:       1.0
 (Enter C:\G03W\l701.exe)
 Compute integral first derivatives.
 ... and contract with generalized density number  0.
 Leave Link  701 at Fri Jul 01 20:52:37 2011, MaxMem=    6291456 cpu:       0.0
 (Enter C:\G03W\l702.exe)
 L702 exits ... SP integral derivatives will be done elsewhere.
 Leave Link  702 at Fri Jul 01 20:52:37 2011, MaxMem=    6291456 cpu:       0.0
 (Enter C:\G03W\l703.exe)
 Compute integral first derivatives, UseDBF=F.
 Integral derivatives from FoFDir, PRISM(SPDF).
 Petite list used in FoFDir.
 MinBra= 0 MaxBra= 2 Meth= 1.
 IRaf=       0 NMat=   1 IRICut=       1 DoRegI=T DoRafI=F ISym2E= 1 JSym2E=1.
 Leave Link  703 at Fri Jul 01 20:52:38 2011, MaxMem=    6291456 cpu:       0.0
 (Enter C:\G03W\l716.exe)
 Dipole        = 1.33226763D-15-4.44089210D-16 4.90485371D-33
 ***** Axes restored to original set *****
 -------------------------------------------------------------------
 Center     Atomic                   Forces (Hartrees/Bohr)
 Number     Number              X              Y              Z
 -------------------------------------------------------------------
    1          5           0.000000000    0.000000000    0.000000000
    2          1           0.000005926    0.000000000    0.000000000
    3          1          -0.000002963    0.000005132    0.000000000
    4          1          -0.000002963   -0.000005132    0.000000000
 -------------------------------------------------------------------
 Cartesian Forces:  Max     0.000005926 RMS     0.000002963
 Leave Link  716 at Fri Jul 01 20:52:38 2011, MaxMem=    6291456 cpu:       0.0
 (Enter C:\G03W\l103.exe)

 GradGradGradGradGradGradGradGradGradGradGradGradGradGradGradGradGradGrad
 Berny optimization.
 Internal  Forces:  Max     0.000005926 RMS     0.000003880
 Search for a local minimum.
 Step number   2 out of a maximum of  20
 All quantities printed in internal units (Hartrees-Bohrs-Radians)
 Update second derivatives using D2CorX and points  1  2
 Trust test= 9.89D-01 RLast= 4.03D-02 DXMaxT set to 3.00D-01
 The second derivative matrix:
                          R1        R2        R3        A1        A2
           R1           0.26190
           R2           0.00006   0.26190
           R3           0.00006   0.00006   0.26190
           A1           0.00000   0.00000   0.00000   0.16000
           A2           0.00000   0.00000   0.00000   0.00000   0.16000
           A3           0.00000   0.00000   0.00000   0.00000   0.00000
           A4           0.00000   0.00000   0.00000   0.00000   0.00000
                          A3        A4
           A3           0.16000
           A4           0.00000   0.16000
     Eigenvalues ---    0.16000   0.16000   0.16000   0.26185   0.26185
     Eigenvalues ---    0.262021000.00000
 RFO step:  Lambda= 0.00000000D+00.
 Quartic linear search produced a step of  0.00100.
 Iteration  1 RMS(Cart)=  0.00001526 RMS(Int)=  0.00000000
 Iteration  2 RMS(Cart)=  0.00000000 RMS(Int)=  0.00000000
 Variable       Old X    -DE/DX   Delta X   Delta X   Delta X     New X
                                 (Linear)    (Quad)   (Total)
    R1        2.25316   0.00001   0.00002   0.00000   0.00002   2.25318
    R2        2.25316   0.00001   0.00002   0.00000   0.00002   2.25318
    R3        2.25316   0.00001   0.00002   0.00000   0.00002   2.25318
    A1        2.09440   0.00000   0.00000   0.00000   0.00000   2.09440
    A2        2.09440   0.00000   0.00000   0.00000   0.00000   2.09440
    A3        2.09440   0.00000   0.00000   0.00000   0.00000   2.09440
    A4        3.14159   0.00000   0.00000   0.00000   0.00000   3.14159
         Item               Value     Threshold  Converged?
 Maximum Force            0.000006     0.000450     YES
 RMS     Force            0.000004     0.000300     YES
 Maximum Displacement     0.000023     0.001800     YES
 RMS     Displacement     0.000015     0.001200     YES
 Predicted change in Energy=-2.008768D-10
 Optimization completed.
    -- Stationary point found.
                           ----------------------------
                           !   Optimized Parameters   !
                           ! (Angstroms and Degrees)  !
 --------------------------                            --------------------------
 ! Name  Definition              Value          Derivative Info.                !
 --------------------------------------------------------------------------------
 ! R1    R(1,2)                  1.1923         -DE/DX =    0.0                 !
 ! R2    R(1,3)                  1.1923         -DE/DX =    0.0                 !
 ! R3    R(1,4)                  1.1923         -DE/DX =    0.0                 !
 ! A1    A(2,1,3)              120.0            -DE/DX =    0.0                 !
 ! A2    A(2,1,4)              120.0            -DE/DX =    0.0                 !
 ! A3    A(3,1,4)              120.0            -DE/DX =    0.0                 !
 ! A4    L(2,1,3,4,-2)         180.0            -DE/DX =    0.0                 !
 --------------------------------------------------------------------------------
 GradGradGradGradGradGradGradGradGradGradGradGradGradGradGradGradGradGrad

 Largest change from initial coordinates is atom    3       2.054 Angstoms.
 Leave Link  103 at Fri Jul 01 20:52:39 2011, MaxMem=    6291456 cpu:       1.0
 (Enter C:\G03W\l202.exe)
                          Input orientation:                          
 ---------------------------------------------------------------------
 Center     Atomic     Atomic              Coordinates (Angstroms)
 Number     Number      Type              X           Y           Z
 ---------------------------------------------------------------------
    1          5             0        5.238805   -0.546742    0.000000
    2          1             0        6.431125   -0.546742    0.000000
    3          1             0        4.642644    0.485838    0.000000
    4          1             0        4.642644   -1.579322    0.000000
 ---------------------------------------------------------------------
                    Distance matrix (angstroms):
                    1          2          3          4
     1  B    0.000000
     2  H    1.192321   0.000000
     3  H    1.192321   2.065160   0.000000
     4  H    1.192321   2.065160   2.065160   0.000000
 Stoichiometry    BH3
 Framework group  D3H[O(B),3C2(H)]
 Deg. of freedom     1
 Full point group                 D3H     NOp  12
 Largest Abelian subgroup         C2V     NOp   4
 Largest concise Abelian subgroup C2      NOp   2
                         Standard orientation:                         
 ---------------------------------------------------------------------
 Center     Atomic     Atomic              Coordinates (Angstroms)
 Number     Number      Type              X           Y           Z
 ---------------------------------------------------------------------
    1          5             0        0.000000    0.000000    0.000000
    2          1             0        0.000000    1.192321    0.000000
    3          1             0        1.032580   -0.596160    0.000000
    4          1             0       -1.032580   -0.596160    0.000000
 ---------------------------------------------------------------------
 Rotational constants (GHZ):    235.1552416    235.1552416    117.5776208
 Leave Link  202 at Fri Jul 01 20:52:39 2011, MaxMem=    6291456 cpu:       0.0
 (Enter C:\G03W\l601.exe)
 Copying SCF densities to generalized density rwf, ISCF=0 IROHF=0.

 **********************************************************************

            Population analysis using the SCF density.

 **********************************************************************

 Orbital symmetries:
       Occupied  (A1') (A1') (E') (E')
       Virtual   (A2") (A1') (E') (E') (E') (E') (A2") (A1') (E')
                 (E') (A1') (E") (E") (A1') (E') (E') (A2') (A2")
                 (E") (E") (E') (E') (A1') (E') (E') (A1')
 The electronic state is 1-A1'.
 Alpha  occ. eigenvalues --   -6.77140  -0.51254  -0.35079  -0.35079
 Alpha virt. eigenvalues --   -0.06605   0.16839   0.17929   0.17929   0.38115
 Alpha virt. eigenvalues --    0.38115   0.44414   0.47384   0.90329   0.90329
 Alpha virt. eigenvalues --    0.91301   1.17085   1.17085   1.57603   1.62062
 Alpha virt. eigenvalues --    1.62062   2.00618   2.21192   2.39234   2.39234
 Alpha virt. eigenvalues --    2.55214   2.55214   3.00183   3.24489   3.24489
 Alpha virt. eigenvalues --    3.46267
          Condensed to atoms (all electrons):
              1          2          3          4
     1  B    3.673018   0.410815   0.410815   0.410815
     2  H    0.410815   0.671541  -0.025422  -0.025422
     3  H    0.410815  -0.025422   0.671541  -0.025422
     4  H    0.410815  -0.025422  -0.025422   0.671541
 Mulliken atomic charges:
              1
     1  B    0.094538
     2  H   -0.031513
     3  H   -0.031513
     4  H   -0.031513
 Sum of Mulliken charges=   0.00000
 Atomic charges with hydrogens summed into heavy atoms:
              1
     1  B    0.000000
     2  H    0.000000
     3  H    0.000000
     4  H    0.000000
 Sum of Mulliken charges=   0.00000
 Electronic spatial extent (au):  <R**2>=    33.8257
 Charge=     0.0000 electrons
 Dipole moment (field-independent basis, Debye):
    X=     0.0000    Y=     0.0000    Z=     0.0000  Tot=     0.0000
 Quadrupole moment (field-independent basis, Debye-Ang):
   XX=    -9.0171   YY=    -9.0171   ZZ=    -6.9774
   XY=     0.0000   XZ=     0.0000   YZ=     0.0000
 Traceless Quadrupole moment (field-independent basis, Debye-Ang):
   XX=    -0.6799   YY=    -0.6799   ZZ=     1.3597
   XY=     0.0000   XZ=     0.0000   YZ=     0.0000
 Octapole moment (field-independent basis, Debye-Ang**2):
  XXX=     0.0000  YYY=     0.1135  ZZZ=     0.0000  XYY=     0.0000
  XXY=    -0.1135  XXZ=     0.0000  XZZ=     0.0000  YZZ=     0.0000
  YYZ=     0.0000  XYZ=     0.0000
 Hexadecapole moment (field-independent basis, Debye-Ang**3):
 XXXX=   -22.5340 YYYY=   -22.5340 ZZZZ=    -6.6224 XXXY=     0.0000
 XXXZ=     0.0000 YYYX=     0.0000 YYYZ=     0.0000 ZZZX=     0.0000
 ZZZY=     0.0000 XXYY=    -7.5113 XXZZ=    -5.0905 YYZZ=    -5.0905
 XXYZ=     0.0000 YYXZ=     0.0000 ZZXY=     0.0000
 N-N= 7.426039246784D+00 E-N=-7.542483304773D+01  KE= 2.631793681052D+01
 Symmetry A1   KE= 2.486140103404D+01
 Symmetry A2   KE= 3.334478476653D-31
 Symmetry B1   KE= 1.456535776477D+00
 Symmetry B2   KE= 1.230164285787D-30
 No NMR shielding tensors so no spin-rotation constants.
 Leave Link  601 at Fri Jul 01 20:52:39 2011, MaxMem=    6291456 cpu:       0.0
 (Enter C:\G03W\l9999.exe)
 1|1|UNPC-UNK|FOpt|RB3LYP|6-31G(d,p)|B1H3|PCUSER|01-Jul-2011|0||#P OPT 
 FREQ B3LYP/6-31G(D,P) GUESS=(LOCAL,SAVE) GEOM=CONNECTIVITY||BH3||0,1|B
 ,0.,0.,0.|H,1.1923206492,-0.000000002,0.|H,-0.5961603228,1.0325799726,
 0.|H,-0.5961603263,-1.0325799706,0.||Version=x86-Win32-G03RevB.03|Stat
 e=1-A1'|HF=-26.6153236|RMSD=1.115e-009|RMSF=2.963e-006|Dipole=0.,0.,0.
 |PG=D03H [O(B1),3C2(H1)]||@


 THE FIRST AND LAST THING REQUIRED OF GENIUS IS THE LOVE OF TRUTH.

                          -- GOETHE
 Leave Link 9999 at Fri Jul 01 20:52:40 2011, MaxMem=    6291456 cpu:       0.0
 Job cpu time:  0 days  0 hours  0 minutes 15.0 seconds.
 File lengths (MBytes):  RWF=     11 Int=      0 D2E=      0 Chk=      4 Scr=      1
 Normal termination of Gaussian 03 at Fri Jul 01 20:52:40 2011.
 (Enter C:\G03W\l1.exe)
 Link1:  Proceeding to internal job step number  2.
 --------------------------------------------------------------------
 #P Geom=AllCheck Guess=Read SCRF=Check GenChk RB3LYP/6-31G(d,p) Freq
 --------------------------------------------------------------------
 1/10=4,29=7,30=1,38=1,40=1,46=1/1,3;
 2/40=1/2;
 3/5=1,6=6,7=101,11=2,16=1,25=1,30=1,70=2,71=2,74=-5/1,2,3;
 4/5=1,7=1,9=10/1;
 5/5=2,38=6/2;
 8/6=4,10=90,11=11,27=262144000/1;
 11/6=1,8=1,9=11,15=111,16=1/1,2,10;
 10/6=1/2;
 6/7=2,8=2,9=2,10=2,18=1,28=1/1;
 7/8=1,10=1,25=1/1,2,3,16;
 1/10=4,30=1,46=1/3;
 99//99;
 Leave Link    1 at Fri Jul 01 20:52:40 2011, MaxMem=          0 cpu:       0.0
 (Enter C:\G03W\l101.exe)
 ---
 BH3
 ---
 Redundant internal coordinates taken from checkpoint file:
 D:\Dropbox\My Dropbox\Sajat gyujtes\Hehre MOLMOD\01\BH3.chk
 Charge =  0 Multiplicity = 1
 B,0,0.,0.,0.
 H,0,1.1923206492,-0.000000002,0.
 H,0,-0.5961603228,1.0325799726,0.
 H,0,-0.5961603263,-1.0325799706,0.
 Recover connectivity data from disk.
                    Isotopes and Nuclear Properties:

  Atom         1           2           3           4
 IAtWgt=          11           1           1           1
 AtmWgt=  11.0093053   1.0078250   1.0078250   1.0078250
 IAtSpn=           3           1           1           1
 AtZEff=  -2.7500000  -1.0000000  -1.0000000  -1.0000000
 AtQMom=   4.0650000   0.0000000   0.0000000   0.0000000
 AtGFac=   2.6886370   2.7928460   2.7928460   2.7928460
 Leave Link  101 at Fri Jul 01 20:52:40 2011, MaxMem=    6291456 cpu:       0.0
 (Enter C:\G03W\l103.exe)

 GradGradGradGradGradGradGradGradGradGradGradGradGradGradGradGradGradGrad
 Berny optimization.
 Initialization pass.
                           ----------------------------
                           !    Initial Parameters    !
                           ! (Angstroms and Degrees)  !
 --------------------------                            --------------------------
 ! Name  Definition              Value          Derivative Info.                !
 --------------------------------------------------------------------------------
 ! R1    R(1,2)                  1.1923         calculate D2E/DX2 analytically  !
 ! R2    R(1,3)                  1.1923         calculate D2E/DX2 analytically  !
 ! R3    R(1,4)                  1.1923         calculate D2E/DX2 analytically  !
 ! A1    A(2,1,3)              120.0            calculate D2E/DX2 analytically  !
 ! A2    A(2,1,4)              120.0            calculate D2E/DX2 analytically  !
 ! A3    A(3,1,4)              120.0            calculate D2E/DX2 analytically  !
 ! A4    L(2,1,3,4,-2)         180.0            calculate D2E/DX2 analytically  !
 --------------------------------------------------------------------------------
 Trust Radius=3.00D-01 FncErr=1.00D-07 GrdErr=1.00D-07
 Number of steps in this run=   2 maximum allowed number of steps=   2.
 GradGradGradGradGradGradGradGradGradGradGradGradGradGradGradGradGradGrad

 Leave Link  103 at Fri Jul 01 20:52:41 2011, MaxMem=    6291456 cpu:       0.0
 (Enter C:\G03W\l202.exe)
                          Input orientation:                          
 ---------------------------------------------------------------------
 Center     Atomic     Atomic              Coordinates (Angstroms)
 Number     Number      Type              X           Y           Z
 ---------------------------------------------------------------------
    1          5             0        0.000000    0.000000    0.000000
    2          1             0        1.192321    0.000000    0.000000
    3          1             0       -0.596160    1.032580    0.000000
    4          1             0       -0.596160   -1.032580    0.000000
 ---------------------------------------------------------------------
                    Distance matrix (angstroms):
                    1          2          3          4
     1  B    0.000000
     2  H    1.192321   0.000000
     3  H    1.192321   2.065160   0.000000
     4  H    1.192321   2.065160   2.065160   0.000000
 Stoichiometry    BH3
 Framework group  D3H[O(B),3C2(H)]
 Deg. of freedom     1
 Full point group                 D3H     NOp  12
 Largest Abelian subgroup         C2V     NOp   4
 Largest concise Abelian subgroup C2      NOp   2
                         Standard orientation:                         
 ---------------------------------------------------------------------
 Center     Atomic     Atomic              Coordinates (Angstroms)
 Number     Number      Type              X           Y           Z
 ---------------------------------------------------------------------
    1          5             0        0.000000    0.000000    0.000000
    2          1             0        0.000000    1.192321    0.000000
    3          1             0        1.032580   -0.596160    0.000000
    4          1             0       -1.032580   -0.596160    0.000000
 ---------------------------------------------------------------------
 Rotational constants (GHZ):    235.1552416    235.1552416    117.5776208
 Leave Link  202 at Fri Jul 01 20:52:41 2011, MaxMem=    6291456 cpu:       0.0
 (Enter C:\G03W\l301.exe)
 Standard basis: 6-31G(d,p) (6D, 7F)
 There are    15 symmetry adapted basis functions of A1  symmetry.
 There are     2 symmetry adapted basis functions of A2  symmetry.
 There are     8 symmetry adapted basis functions of B1  symmetry.
 There are     5 symmetry adapted basis functions of B2  symmetry.
 Integral buffers will be    262144 words long.
 Raffenetti 2 integral format.
 Two-electron integral symmetry is turned on.
    30 basis functions,    49 primitive gaussians,    30 cartesian basis functions
     4 alpha electrons        4 beta electrons
       nuclear repulsion energy         7.4260392468 Hartrees.
 IExCor= 402 DFT=T Ex=B+HF Corr=LYP ExCW=0 ScaHFX=  0.200000
 ScaDFX=  0.800000  0.720000  1.000000  0.810000
 IRadAn=      0 IRanWt=     -1 IRanGd=            0 ICorTp=0
 NAtoms=    4 NActive=    4 NUniq=    2 SFac= 5.66D+00 NAtFMM=   60 Big=F
 Leave Link  301 at Fri Jul 01 20:52:41 2011, MaxMem=    6291456 cpu:       0.0
 (Enter C:\G03W\l302.exe)
 NPDir=0 NMtPBC=     1 NCelOv=     1 NCel=       1 NClECP=     1 NCelD=      1
         NCelK=      1 NCelE2=     1 NClLst=     1 CellRange=     0.0.
 One-electron integrals computed using PRISM.
 One-electron integral symmetry used in STVInt
 NBasis=    30 RedAO= T  NBF=    15     2     8     5
 NBsUse=    30 1.00D-06 NBFU=    15     2     8     5
 Precomputing XC quadrature grid using
 IXCGrd= 2 IRadAn=           0 IRanWt=          -1 IRanGd=           0.
 NRdTot=     241 NPtTot=       30506 NUsed=       31600 NTot=       31616
 NSgBfM=    30    30    30    30.
 Leave Link  302 at Fri Jul 01 20:52:42 2011, MaxMem=    6291456 cpu:       0.0
 (Enter C:\G03W\l303.exe)
 DipDrv:  MaxL=1.
 Leave Link  303 at Fri Jul 01 20:52:42 2011, MaxMem=    6291456 cpu:       0.0
 (Enter C:\G03W\l401.exe)
 Initial guess orbitals will be localized.
 Initial guess read from the checkpoint file:
 D:\Dropbox\My Dropbox\Sajat gyujtes\Hehre MOLMOD\01\BH3.chk
 Guess basis will be translated and rotated to current coordinates.
 LocMO: Using Boys method
 Initial Trace= 0.94483147D-14 Initial TraceA= 0.21079326D+00
 RMSG= 0.42140070D-08
 LocMO: Using Boys method
 Initial Trace=-0.45668028D-14 Initial TraceA= 0.11210685D+01
 Initial Trace=-0.45668028D-14 Initial TraceA= 0.11210685D+01
 RMSG= 0.47366491D-08
 Initial guess orbital symmetries:
       Occupied  (A1') (?A) (?A) (?A)
       Virtual   (?B) (?B) (?B) (?B) (?B) (?B) (?B) (?B) (?B) (?B)
                 (?B) (?B) (?B) (?B) (?B) (?B) (?B) (?B) (?B) (?B)
                 (?B) (?B) (?B) (?B) (?B) (?B)
 Leave Link  401 at Fri Jul 01 20:52:43 2011, MaxMem=    6291456 cpu:       1.0
 (Enter C:\G03W\l502.exe)
 Closed shell SCF:
 Requested convergence on RMS density matrix=1.00D-08 within 128 cycles.
 Requested convergence on MAX density matrix=1.00D-06.
 Requested convergence on             energy=1.00D-06.
 No special actions if energy rises.
 Using DIIS extrapolation, IDIIS=  1040.
 Integral symmetry usage will be decided dynamically.
        31599 words used for storage of precomputed grid.
 Keep R1 integrals in memory in canonical form, NReq=      604815.
 IEnd=     52041 IEndB=     52041 NGot=   6291456 MDV=   6148627
 LenX=   6148627
 Symmetry not used in FoFDir.
 MinBra= 0 MaxBra= 2 Meth= 1.
 IRaf=       0 NMat=   1 IRICut=       1 DoRegI=T DoRafI=F ISym2E= 0 JSym2E=0.
 A guess orbital has undefined symmetry, so N**3 symmetry is turned off.

 Cycle   1  Pass 1  IDiag  1:
 E= -26.6153236279215    
 DIIS: error= 2.39D-10 at cycle   1 NSaved=   1.
 NSaved= 1 IEnMin= 1 EnMin= -26.6153236279215     IErMin= 1 ErrMin= 2.39D-10
 ErrMax= 2.39D-10 EMaxC= 1.00D-01 BMatC= 1.94D-18 BMatP= 1.94D-18
 IDIUse=1 WtCom= 1.00D+00 WtEn= 0.00D+00
 Coeff-Com:  0.100D+01
 Coeff:      0.100D+01
 Gap=     1.640 Goal=   None    Shift=    0.000
 RMSDP=7.30D-11 MaxDP=8.34D-10              OVMax= 9.58D-10

 SCF Done:  E(RB+HF-LYP) =  -26.6153236279     A.U. after    1 cycles
             Convg  =    0.7301D-10             -V/T =  2.0113
             S**2   =   0.0000
 KE= 2.631793680444D+01 PE=-7.542483304165D+01 EE= 1.506553336250D+01
 Leave Link  502 at Fri Jul 01 20:52:43 2011, MaxMem=    6291456 cpu:       0.0
 (Enter C:\G03W\l801.exe)
 Range of M.O.s used for correlation:     1    30
 NBasis=    30 NAE=     4 NBE=     4 NFC=     0 NFV=     0
 NROrb=     30 NOA=     4 NOB=     4 NVA=    26 NVB=    26
 Leave Link  801 at Fri Jul 01 20:52:44 2011, MaxMem=    6291456 cpu:       0.0
 (Enter C:\G03W\l1101.exe)
 Using compressed storage, NAtomX=     4.
 Will process   5 centers per pass.
 Leave Link 1101 at Fri Jul 01 20:52:44 2011, MaxMem=    6291456 cpu:       0.0
 (Enter C:\G03W\l1102.exe)
 Use density number 0.
 Symmetrizing basis deriv contribution to polar:
 IMax=3 JMax=2 DiffMx= 0.00D+00
 Leave Link 1102 at Fri Jul 01 20:52:45 2011, MaxMem=    6291456 cpu:       0.0
 (Enter C:\G03W\l1110.exe)
 Forming Gx(P) for the SCF density, NAtomX=     4.
 Integral derivatives from FoFDir, PRISM(SPDF).
 Do as many integral derivatives as possible in FoFDir.
 G2DrvN: MDV=       6291430.
 G2DrvN: will do    5 centers at a time, making    1 passes doing MaxLOS=2.
 Petite list used in FoFDir.
 MinBra= 0 MaxBra= 2 Meth= 1.
 IRaf=       0 NMat=   1 IRICut=       1 DoRegI=T DoRafI=F ISym2E= 1 JSym2E=1.
 FoFDir/FoFCou used for L=0 through L=2.
 Leave Link 1110 at Fri Jul 01 20:52:47 2011, MaxMem=    6291456 cpu:       2.0
 (Enter C:\G03W\l1002.exe)
 Minotr:  Closed-shell wavefunction.
          Direct CPHF calculation.
          Solving linear equations simultaneously.
          Differentiating once with respect to electric field.
                with respect to dipole field.
          Differentiating once with respect to nuclear coordinates.
          Using symmetry in CPHF.
          Requested convergence is 1.0D-08 RMS, and 1.0D-07 maximum.
          Secondary convergence is 1.0D-12 RMS, and 1.0D-12 maximum.
          NewPWx=T KeepS1=F KeepF1=F KeepIn=T MapXYZ=F.
          MDV=       6291456 using IRadAn=       2.
          Store integrals in memory, NReq=      538939.
 Symmetry not used in FoFDir.
 MinBra= 0 MaxBra= 2 Meth= 1.
 IRaf=       0 NMat=   1 IRICut=       1 DoRegI=T DoRafI=F ISym2E= 0 JSym2E=0.
          There are   9 degrees of freedom in the 1st order CPHF.
     9 vectors were produced by pass  0.
 AX will form   9 AO Fock derivatives at one time.
     9 vectors were produced by pass  1.
     9 vectors were produced by pass  2.
     8 vectors were produced by pass  3.
     7 vectors were produced by pass  4.
     3 vectors were produced by pass  5.
 Inv2:  IOpt= 1 Iter= 1 AM= 6.80D-16 Conv= 1.00D-12.
 Inverted reduced A of dimension   45 with in-core refinement.
 Isotropic polarizability for W=    0.000000       13.31 Bohr**3.
 End of Minotr Frequency-dependent properties file   721 does not exist.
 Leave Link 1002 at Fri Jul 01 20:52:50 2011, MaxMem=    6291456 cpu:       3.0
 (Enter C:\G03W\l601.exe)
 Copying SCF densities to generalized density rwf, ISCF=0 IROHF=0.

 **********************************************************************

            Population analysis using the SCF density.

 **********************************************************************

 Orbital symmetries:
       Occupied  (A1') (A1') (E') (E')
       Virtual   (A2") (A1') (E') (E') (E') (E') (A2") (A1') (E')
                 (E') (A1') (E") (E") (A1') (E') (E') (A2') (A2")
                 (E") (E") (E') (E') (A1') (E') (E') (A1')
 The electronic state is 1-A1'.
 Alpha  occ. eigenvalues --   -6.77140  -0.51254  -0.35079  -0.35079
 Alpha virt. eigenvalues --   -0.06605   0.16839   0.17929   0.17929   0.38115
 Alpha virt. eigenvalues --    0.38115   0.44414   0.47384   0.90329   0.90329
 Alpha virt. eigenvalues --    0.91301   1.17085   1.17085   1.57603   1.62062
 Alpha virt. eigenvalues --    1.62062   2.00618   2.21192   2.39234   2.39234
 Alpha virt. eigenvalues --    2.55214   2.55214   3.00183   3.24489   3.24489
 Alpha virt. eigenvalues --    3.46267
          Condensed to atoms (all electrons):
              1          2          3          4
     1  B    3.673018   0.410815   0.410815   0.410815
     2  H    0.410815   0.671541  -0.025422  -0.025422
     3  H    0.410815  -0.025422   0.671541  -0.025422
     4  H    0.410815  -0.025422  -0.025422   0.671541
 Mulliken atomic charges:
              1
     1  B    0.094538
     2  H   -0.031513
     3  H   -0.031513
     4  H   -0.031513
 Sum of Mulliken charges=   0.00000
 Atomic charges with hydrogens summed into heavy atoms:
              1
     1  B    0.000000
     2  H    0.000000
     3  H    0.000000
     4  H    0.000000
 Sum of Mulliken charges=   0.00000
 APT atomic charges:
              1
     1  B    0.513679
     2  H   -0.171218
     3  H   -0.171224
     4  H   -0.171224
 Sum of APT charges=   0.00001
 APT Atomic charges with hydrogens summed into heavy atoms:
              1
     1  B    0.000012
     2  H    0.000000
     3  H    0.000000
     4  H    0.000000
 Sum of APT charges=   0.00001
 Electronic spatial extent (au):  <R**2>=    33.8257
 Charge=     0.0000 electrons
 Dipole moment (field-independent basis, Debye):
    X=     0.0000    Y=     0.0000    Z=     0.0000  Tot=     0.0000
 Quadrupole moment (field-independent basis, Debye-Ang):
   XX=    -9.0171   YY=    -9.0171   ZZ=    -6.9774
   XY=     0.0000   XZ=     0.0000   YZ=     0.0000
 Traceless Quadrupole moment (field-independent basis, Debye-Ang):
   XX=    -0.6799   YY=    -0.6799   ZZ=     1.3597
   XY=     0.0000   XZ=     0.0000   YZ=     0.0000
 Octapole moment (field-independent basis, Debye-Ang**2):
  XXX=     0.0000  YYY=     0.1135  ZZZ=     0.0000  XYY=     0.0000
  XXY=    -0.1135  XXZ=     0.0000  XZZ=     0.0000  YZZ=     0.0000
  YYZ=     0.0000  XYZ=     0.0000
 Hexadecapole moment (field-independent basis, Debye-Ang**3):
 XXXX=   -22.5340 YYYY=   -22.5340 ZZZZ=    -6.6224 XXXY=     0.0000
 XXXZ=     0.0000 YYYX=     0.0000 YYYZ=     0.0000 ZZZX=     0.0000
 ZZZY=     0.0000 XXYY=    -7.5113 XXZZ=    -5.0905 YYZZ=    -5.0905
 XXYZ=     0.0000 YYXZ=     0.0000 ZZXY=     0.0000
 N-N= 7.426039246784D+00 E-N=-7.542483303614D+01  KE= 2.631793680444D+01
 Symmetry A1   KE= 2.486140102955D+01
 Symmetry A2   KE= 7.059177626873D-31
 Symmetry B1   KE= 1.456535774889D+00
 Symmetry B2   KE= 9.354049664801D-31
  Exact polarizability:  15.869   0.000  15.869   0.000   0.000   8.184
 Approx polarizability:  18.730   0.000  18.730   0.000   0.000  10.593
 No NMR shielding tensors so no spin-rotation constants.
 Leave Link  601 at Fri Jul 01 20:52:50 2011, MaxMem=    6291456 cpu:       0.0
 (Enter C:\G03W\l701.exe)
 Compute integral second derivatives.
 ... and contract with generalized density number  0.
 Leave Link  701 at Fri Jul 01 20:52:51 2011, MaxMem=    6291456 cpu:       0.0
 (Enter C:\G03W\l702.exe)
 L702 exits ... SP integral derivatives will be done elsewhere.
 Leave Link  702 at Fri Jul 01 20:52:51 2011, MaxMem=    6291456 cpu:       0.0
 (Enter C:\G03W\l703.exe)
 Compute integral second derivatives, UseDBF=F.
 Integral derivatives from FoFDir, PRISM(SPDF).
 Petite list used in FoFDir.
 MinBra= 0 MaxBra= 2 Meth= 1.
 IRaf=       0 NMat=   1 IRICut=       1 DoRegI=T DoRafI=F ISym2E= 1 JSym2E=1.
 Leave Link  703 at Fri Jul 01 20:52:53 2011, MaxMem=    6291456 cpu:       2.0
 (Enter C:\G03W\l716.exe)
 Dipole        = 3.90312782D-16-5.86336535D-16-5.10094154D-33
 Polarizability= 1.58689703D+01 1.45082082D-10 1.58690634D+01
                -2.56577654D-11-1.51218926D-11 8.18416432D+00
 Full mass-weighted force constant matrix:
 Low frequencies ---   -0.9475   -0.8777   -0.0055    5.6370   11.6707   11.7091
 Low frequencies --- 1162.9959 1213.1824 1213.1851
 Diagonal vibrational polarizability:
        0.7181137       0.7180136       1.8413872
 Harmonic frequencies (cm**-1), IR intensities (KM/Mole), Raman scattering
 activities (A**4/AMU), depolarization ratios for plane and unpolarized
 incident light, reduced masses (AMU), force constants (mDyne/A),
 and normal coordinates:
                     1                      2                      3
                    A2"                    E'                     E'
 Frequencies --  1162.9959              1213.1824              1213.1851
 Red. masses --     1.2531                 1.1072                 1.1072
 Frc consts  --     0.9986                 0.9601                 0.9601
 IR Inten    --    92.5483                14.0551                14.0587
 Atom AN      X      Y      Z        X      Y      Z        X      Y      Z
   1   5     0.00   0.00   0.16     0.00   0.10   0.00    -0.10   0.00   0.00
   2   1     0.00   0.00  -0.57     0.00   0.08   0.00     0.81   0.00   0.00
   3   1     0.00   0.00  -0.57    -0.39  -0.59   0.00     0.14   0.39   0.00
   4   1     0.00   0.00  -0.57     0.39  -0.59   0.00     0.14  -0.39   0.00
                     4                      5                      6
                    A1'                    E'                     E'
 Frequencies --  2582.2779              2715.4480              2715.4492
 Red. masses --     1.0078                 1.1273                 1.1273
 Frc consts  --     3.9595                 4.8977                 4.8977
 IR Inten    --     0.0000               126.3301               126.3206
 Atom AN      X      Y      Z        X      Y      Z        X      Y      Z
   1   5     0.00   0.00   0.00     0.11   0.00   0.00     0.00   0.11   0.00
   2   1     0.00   0.58   0.00     0.02   0.00   0.00     0.00  -0.81   0.00
   3   1     0.50  -0.29   0.00    -0.60   0.36   0.00     0.36  -0.19   0.00
   4   1    -0.50  -0.29   0.00    -0.60  -0.36   0.00    -0.36  -0.19   0.00

 -------------------
 - Thermochemistry -
 -------------------
 Temperature   298.150 Kelvin.  Pressure   1.00000 Atm.
 Atom  1 has atomic number  5 and mass  11.00931
 Atom  2 has atomic number  1 and mass   1.00783
 Atom  3 has atomic number  1 and mass   1.00783
 Atom  4 has atomic number  1 and mass   1.00783
 Molecular mass:    14.03278 amu.
 Principal axes and moments of inertia in atomic units:
                           1         2         3
     EIGENVALUES --     7.67468   7.67468  15.34936
           X           -0.44721   0.89443   0.00000
           Y            0.89443   0.44721   0.00000
           Z            0.00000   0.00000   1.00000
 This molecule is an oblate symmetric top.
 Rotational symmetry number  6.
 Rotational temperatures (Kelvin)     11.28566    11.28566     5.64283
 Rotational constants (GHZ):         235.15524   235.15524   117.57762
 Zero-point vibrational energy      69398.6 (Joules/Mol)
                                   16.58666 (Kcal/Mol)
 Vibrational temperatures:   1673.29  1745.50  1745.50  3715.32  3906.92
          (Kelvin)           3906.92
 
 Zero-point correction=                           0.026433 (Hartree/Particle)
 Thermal correction to Energy=                    0.029316
 Thermal correction to Enthalpy=                  0.030261
 Thermal correction to Gibbs Free Energy=         0.008881
 Sum of electronic and zero-point Energies=            -26.588891
 Sum of electronic and thermal Energies=               -26.586007
 Sum of electronic and thermal Enthalpies=             -26.585063
 Sum of electronic and thermal Free Energies=          -26.606442
 
                     E (Thermal)             CV                S
                      KCal/Mol        Cal/Mol-Kelvin    Cal/Mol-Kelvin
 Total                   18.396              6.587             44.997
 Electronic               0.000              0.000              0.000
 Translational            0.889              2.981             33.864
 Rotational               0.889              2.981             11.006
 Vibrational             16.619              0.626              0.127
                       Q            Log10(Q)             Ln(Q)
 Total Bot       0.822176D-04         -4.085035         -9.406141
 Total V=0       0.118320D+09          8.073058         18.588903
 Vib (Bot)       0.701445D-12        -12.154006        -27.985634
 Vib (V=0)       0.100945D+01          0.004087          0.009410
 Electronic      0.100000D+01          0.000000          0.000000
 Translational   0.206619D+07          6.315171         14.541218
 Rotational      0.567284D+02          1.753801          4.038275
 
                                                                 BH3
                                                             IR Spectrum
 
      2     2                                                               1 1                                                      
      7     5                                                               2 1                                                      
      1     8                                                               1 6                                                      
      5     2                                                               3 3                                                      
 
      X                                                                     X X                                                      
      X                                                                     X X                                                      
      X                                                                       X                                                      
      X                                                                       X                                                      
      X                                                                       X                                                      
      X                                                                       X                                                      
      X                                                                       X                                                      
      X                                                                                                                              
      X                                                                                                                              
      X                                                                                                                              
      X                                                                                                                              
      X                                                                                                                              
      X                                                                                                                              
      X                                                                                                                              
      X                                                                                                                              
      X                                                                                                                              
      X                                                                                                                              
      X                                                                                                                              
      X                                                                                                                              
      X                                                                                                                              
 
 ***** Axes restored to original set *****
 -------------------------------------------------------------------
 Center     Atomic                   Forces (Hartrees/Bohr)
 Number     Number              X              Y              Z
 -------------------------------------------------------------------
    1          5           0.000000000    0.000000000    0.000000000
    2          1           0.000005926    0.000000000    0.000000000
    3          1          -0.000002963    0.000005132    0.000000000
    4          1          -0.000002963   -0.000005132    0.000000000
 -------------------------------------------------------------------
 Cartesian Forces:  Max     0.000005926 RMS     0.000002963
 Force constants in Cartesian coordinates: 
                1             2             3             4             5
      1  0.419077D+00
      2  0.000000D+00  0.419077D+00
      3  0.000000D+00  0.000000D+00  0.121408D+00
      4 -0.239034D+00  0.000000D+00  0.000000D+00  0.250668D+00
      5  0.000000D+00 -0.403537D-01  0.000000D+00  0.000000D+00  0.334392D-01
      6  0.000000D+00  0.000000D+00 -0.404720D-01  0.000000D+00  0.000000D+00
      7 -0.900227D-01  0.860313D-01  0.000000D+00 -0.581617D-02  0.173098D-01
      8  0.860316D-01 -0.189363D+00  0.000000D+00 -0.124884D-02  0.345661D-02
      9  0.000000D+00  0.000000D+00 -0.404701D-01  0.000000D+00  0.000000D+00
     10 -0.900227D-01 -0.860313D-01  0.000000D+00 -0.581617D-02 -0.173098D-01
     11 -0.860316D-01 -0.189363D+00  0.000000D+00  0.124884D-02  0.345661D-02
     12  0.000000D+00  0.000000D+00 -0.404701D-01  0.000000D+00  0.000000D+00
                6             7             8             9            10
      6  0.134941D-01
      7  0.000000D+00  0.877464D-01
      8  0.000000D+00 -0.940629D-01  0.196361D+00
      9  0.134889D-01  0.000000D+00  0.000000D+00  0.134941D-01
     10  0.000000D+00  0.809300D-02  0.927930D-02  0.000000D+00  0.877464D-01
     11  0.000000D+00 -0.927930D-02 -0.104526D-01  0.000000D+00  0.940629D-01
     12  0.134889D-01  0.000000D+00  0.000000D+00  0.134889D-01  0.000000D+00
               11            12
     11  0.196361D+00
     12  0.000000D+00  0.134941D-01
 Force constants in internal coordinates: 
                1             2             3             4             5
      1  0.250667D+00
      2  0.182697D-02  0.250667D+00
      3  0.182697D-02  0.182726D-02  0.250667D+00
      4  0.425222D-02  0.425221D-02 -0.850454D-02  0.565901D-01
      5  0.425222D-02 -0.850454D-02  0.425221D-02 -0.282954D-01  0.565901D-01
      6 -0.850444D-02  0.425232D-02  0.425232D-02 -0.282947D-01 -0.282947D-01
      7  0.000000D+00  0.000000D+00  0.000000D+00  0.000000D+00  0.000000D+00
                6             7
      6  0.565894D-01
      7  0.000000D+00  0.513673D-01
 Leave Link  716 at Fri Jul 01 20:52:53 2011, MaxMem=    6291456 cpu:       0.0
 (Enter C:\G03W\l103.exe)

 GradGradGradGradGradGradGradGradGradGradGradGradGradGradGradGradGradGrad
 Berny optimization.
 Internal  Forces:  Max     0.000005926 RMS     0.000003879
 Search for a local minimum.
 Step number   1 out of a maximum of   2
 All quantities printed in internal units (Hartrees-Bohrs-Radians)
 Second derivative matrix not updated -- analytic derivatives used.
 The second derivative matrix:
                          R1        R2        R3        A1        A2
           R1           0.25067
           R2           0.00183   0.25067
           R3           0.00183   0.00183   0.25067
           A1           0.00425   0.00425  -0.00850   0.05659
           A2           0.00425  -0.00850   0.00425  -0.02830   0.05659
           A3          -0.00850   0.00425   0.00425  -0.02829  -0.02829
           A4           0.00000   0.00000   0.00000   0.00000   0.00000
                          A3        A4
           A3           0.05659
           A4           0.00000   0.05137
     Eigenvalues ---    0.05137   0.08390   0.08390   0.24983   0.24983
     Eigenvalues ---    0.254321000.00000
 Angle between quadratic step and forces=   0.00 degrees.
 Linear search not attempted -- first point.
 Iteration  1 RMS(Cart)=  0.00001525 RMS(Int)=  0.00000000
 Iteration  2 RMS(Cart)=  0.00000000 RMS(Int)=  0.00000000
 Variable       Old X    -DE/DX   Delta X   Delta X   Delta X     New X
                                 (Linear)    (Quad)   (Total)
    R1        2.25316   0.00001   0.00000   0.00002   0.00002   2.25318
    R2        2.25316   0.00001   0.00000   0.00002   0.00002   2.25318
    R3        2.25316   0.00001   0.00000   0.00002   0.00002   2.25318
    A1        2.09440   0.00000   0.00000   0.00000   0.00000   2.09440
    A2        2.09440   0.00000   0.00000   0.00000   0.00000   2.09440
    A3        2.09440   0.00000   0.00000   0.00000   0.00000   2.09440
    A4        3.14159   0.00000   0.00000   0.00000   0.00000   3.14159
         Item               Value     Threshold  Converged?
 Maximum Force            0.000006     0.000450     YES
 RMS     Force            0.000004     0.000300     YES
 Maximum Displacement     0.000023     0.001800     YES
 RMS     Displacement     0.000015     0.001200     YES
 Predicted change in Energy=-2.071208D-10
 Optimization completed.
    -- Stationary point found.
                           ----------------------------
                           !   Optimized Parameters   !
                           ! (Angstroms and Degrees)  !
 --------------------------                            --------------------------
 ! Name  Definition              Value          Derivative Info.                !
 --------------------------------------------------------------------------------
 ! R1    R(1,2)                  1.1923         -DE/DX =    0.0                 !
 ! R2    R(1,3)                  1.1923         -DE/DX =    0.0                 !
 ! R3    R(1,4)                  1.1923         -DE/DX =    0.0                 !
 ! A1    A(2,1,3)              120.0            -DE/DX =    0.0                 !
 ! A2    A(2,1,4)              120.0            -DE/DX =    0.0                 !
 ! A3    A(3,1,4)              120.0            -DE/DX =    0.0                 !
 ! A4    L(2,1,3,4,-2)         180.0            -DE/DX =    0.0                 !
 --------------------------------------------------------------------------------
 GradGradGradGradGradGradGradGradGradGradGradGradGradGradGradGradGradGrad

 Leave Link  103 at Fri Jul 01 20:52:54 2011, MaxMem=    6291456 cpu:       0.0
 (Enter C:\G03W\l9999.exe)
 1|1|UNPC-UNK|Freq|RB3LYP|6-31G(d,p)|B1H3|PCUSER|01-Jul-2011|0||#P GEOM
 =ALLCHECK GUESS=READ SCRF=CHECK GENCHK RB3LYP/6-31G(D,P) FREQ||BH3||0,
 1|B,0.,0.,0.|H,1.1923206492,-0.000000002,0.|H,-0.5961603228,1.03257997
 26,0.|H,-0.5961603263,-1.0325799706,0.||Version=x86-Win32-G03RevB.03|S
 tate=1-A1'|HF=-26.6153236|RMSD=7.301e-011|RMSF=2.963e-006|Dipole=0.,0.
 ,0.|DipoleDeriv=0.5332181,0.,0.,0.,0.53327,0.,0.,0.,0.4745495,-0.26777
 71,0.,0.,0.,-0.0877058,0.,0.,0.,-0.1581723,-0.1327221,0.0779567,0.,0.0
 779646,-0.2227707,0.,0.,0.,-0.1581805,-0.1327221,-0.0779567,0.,-0.0779
 646,-0.2227707,0.,0.,0.,-0.1581805|Polar=15.8690634,0.,15.8689703,0.,0
 .,8.1841643|PG=D03H [O(B1),3C2(H1)]|NImag=0||0.41907723,0.,0.41907736,
 0.,0.,0.12140839,-0.23903439,0.,0.,0.25066806,0.,-0.04035372,0.,0.,0.0
 3343917,0.,0.,-0.04047204,0.,0.,0.01349414,-0.09002265,0.08603127,0.,-
 0.00581617,0.01730976,0.,0.08774639,0.08603160,-0.18936302,0.,-0.00124
 884,0.00345661,0.,-0.09406287,0.19636084,0.,0.,-0.04047011,0.,0.,0.013
 48895,0.,0.,0.01349414,-0.09002265,-0.08603127,0.,-0.00581617,-0.01730
 976,0.,0.00809300,0.00927930,0.,0.08774639,-0.08603160,-0.18936302,0.,
 0.00124884,0.00345661,0.,-0.00927930,-0.01045256,0.,0.09406287,0.19636
 084,0.,0.,-0.04047011,0.,0.,0.01348895,0.,0.,0.01348895,0.,0.,0.013494
 14||0.,0.,0.,-0.00000593,0.,0.,0.00000296,-0.00000513,0.,0.00000296,0.
 00000513,0.|||@


 THE FIRST AND LAST THING REQUIRED OF GENIUS IS THE LOVE OF TRUTH.

                          -- GOETHE
 Job cpu time:  0 days  0 hours  0 minutes 14.0 seconds.
 File lengths (MBytes):  RWF=     11 Int=      0 D2E=      0 Chk=      4 Scr=      1
 Normal termination of Gaussian 03 at Fri Jul 01 20:52:54 2011.
