 Entering Link 1 = C:\G03W\l1.exe PID=      3516.
  
 Copyright (c) 1988,1990,1992,1993,1995,1998,2003, Gaussian, Inc.
                  All Rights Reserved.
  
 This is the Gaussian(R) 03 program.  It is based on the
 the Gaussian(R) 98 system (copyright 1998, Gaussian, Inc.),
 the Gaussian(R) 94 system (copyright 1995, Gaussian, Inc.),
 the Gaussian 92(TM) system (copyright 1992, Gaussian, Inc.),
 the Gaussian 90(TM) system (copyright 1990, Gaussian, Inc.),
 the Gaussian 88(TM) system (copyright 1988, Gaussian, Inc.),
 the Gaussian 86(TM) system (copyright 1986, Carnegie Mellon
 University), and the Gaussian 82(TM) system (copyright 1983,
 Carnegie Mellon University). Gaussian is a federally registered
 trademark of Gaussian, Inc.
  
 This software contains proprietary and confidential information,
 including trade secrets, belonging to Gaussian, Inc.
  
 This software is provided under written license and may be
 used, copied, transmitted, or stored only in accord with that
 written license.
  
 The following legend is applicable only to US Government
 contracts under DFARS:
  
                    RESTRICTED RIGHTS LEGEND
  
 Use, duplication or disclosure by the US Government is subject
 to restrictions as set forth in subparagraph (c)(1)(ii) of the
 Rights in Technical Data and Computer Software clause at DFARS
 252.227-7013.
  
 Gaussian, Inc.
 Carnegie Office Park, Building 6, Pittsburgh, PA 15106 USA
  
 The following legend is applicable only to US Government
 contracts under FAR:
  
                    RESTRICTED RIGHTS LEGEND
  
 Use, reproduction and disclosure by the US Government is subject
 to restrictions as set forth in subparagraph (c) of the
 Commercial Computer Software - Restricted Rights clause at FAR
 52.227-19.
  
 Gaussian, Inc.
 Carnegie Office Park, Building 6, Pittsburgh, PA 15106 USA
  
  
 ---------------------------------------------------------------
 Warning -- This program may not be used in any manner that
 competes with the business of Gaussian, Inc. or will provide
 assistance to any competitor of Gaussian, Inc.  The licensee
 of this program is prohibited from giving any competitor of
 Gaussian, Inc. access to this program.  By using this program,
 the user acknowledges that Gaussian, Inc. is engaged in the
 business of creating and licensing software in the field of
 computational chemistry and represents and warrants to the
 licensee that it is not a competitor of Gaussian, Inc. and that
 it will not use this program in any manner prohibited above.
 ---------------------------------------------------------------
  

 Cite this work as:
 Gaussian 03, Revision B.03,
 M. J. Frisch, G. W. Trucks, H. B. Schlegel, G. E. Scuseria, 
 M. A. Robb, J. R. Cheeseman, J. A. Montgomery, Jr., T. Vreven, 
 K. N. Kudin, J. C. Burant, J. M. Millam, S. S. Iyengar, J. Tomasi, 
 V. Barone, B. Mennucci, M. Cossi, G. Scalmani, N. Rega, 
 G. A. Petersson, H. Nakatsuji, M. Hada, M. Ehara, K. Toyota, 
 R. Fukuda, J. Hasegawa, M. Ishida, T. Nakajima, Y. Honda, O. Kitao, 
 H. Nakai, M. Klene, X. Li, J. E. Knox, H. P. Hratchian, J. B. Cross, 
 C. Adamo, J. Jaramillo, R. Gomperts, R. E. Stratmann, O. Yazyev, 
 A. J. Austin, R. Cammi, C. Pomelli, J. W. Ochterski, P. Y. Ayala, 
 K. Morokuma, G. A. Voth, P. Salvador, J. J. Dannenberg, 
 V. G. Zakrzewski, S. Dapprich, A. D. Daniels, M. C. Strain, 
 O. Farkas, D. K. Malick, A. D. Rabuck, K. Raghavachari, 
 J. B. Foresman, J. V. Ortiz, Q. Cui, A. G. Baboul, S. Clifford, 
 J. Cioslowski, B. B. Stefanov, G. Liu, A. Liashenko, P. Piskorz, 
 I. Komaromi, R. L. Martin, D. J. Fox, T. Keith, M. A. Al-Laham, 
 C. Y. Peng, A. Nanayakkara, M. Challacombe, P. M. W. Gill, 
 B. Johnson, W. Chen, M. W. Wong, C. Gonzalez, and J. A. Pople, 
 Gaussian, Inc., Pittsburgh PA, 2003.
 
 *********************************************
 Gaussian 03:  x86-Win32-G03RevB.03 4-May-2003
                  01-Jul-2011 
 *********************************************
 %chk=D:\Dropbox\My Dropbox\Sajat gyujtes\Hehre MOLMOD\01\FH.chk
 Default route:  MaxDisk=2000MB
 -----------------------------------------------------------------
 #p opt freq b3lyp/6-31g(d,p) guess=(local,save) geom=connectivity
 -----------------------------------------------------------------
 1/14=-1,18=20,26=3,38=1,57=2/1,3;
 2/9=110,17=6,18=5,40=1/2;
 3/5=1,6=6,7=101,11=2,16=1,25=1,30=1,74=-5/1,2,3;
 4/9=10/1;
 5/5=2,38=5/2;
 6/7=2,8=2,9=2,10=2,28=1/1;
 7//1,2,3,16;
 1/14=-1,18=20/3(1);
 99//99;
 2/9=110/2;
 3/5=1,6=6,7=101,11=2,16=1,25=1,30=1,74=-5/1,2,3;
 4/5=5,16=3/1;
 5/5=2,38=5/2;
 7//1,2,3,16;
 1/14=-1,18=20/3(-5);
 2/9=110/2;
 6/7=2,8=2,9=2,10=2,19=2,28=1/1;
 99/9=1/99;
 Leave Link    1 at Fri Jul 01 21:21:09 2011, MaxMem=          0 cpu:       1.0
 (Enter C:\G03W\l101.exe)
 --
 FH
 --
 Symbolic Z-matrix:
 Charge =  0 Multiplicity = 1
 F                     5.61025  -0.82076   0. 
 H                     6.49025  -0.82076   0. 
 
                    Isotopes and Nuclear Properties:

  Atom         1           2
 IAtWgt=          19           1
 AtmWgt=  18.9984033   1.0078250
 IAtSpn=           1           1
 AtZEff=   0.0000000   0.0000000
 AtQMom=   0.0000000   0.0000000
 AtGFac=   2.6288670   2.7928460
 Leave Link  101 at Fri Jul 01 21:21:09 2011, MaxMem=    6291456 cpu:       0.0
 (Enter C:\G03W\l103.exe)

 GradGradGradGradGradGradGradGradGradGradGradGradGradGradGradGradGradGrad
 Berny optimization.
 Initialization pass.
                           ----------------------------
                           !    Initial Parameters    !
                           ! (Angstroms and Degrees)  !
 --------------------------                            --------------------------
 ! Name  Definition              Value          Derivative Info.                !
 --------------------------------------------------------------------------------
 ! R1    R(1,2)                  0.88           estimate D2E/DX2                !
 --------------------------------------------------------------------------------
 Trust Radius=3.00D-01 FncErr=1.00D-07 GrdErr=1.00D-06
 Number of steps in this run=  20 maximum allowed number of steps= 100.
 GradGradGradGradGradGradGradGradGradGradGradGradGradGradGradGradGradGrad

 Leave Link  103 at Fri Jul 01 21:21:09 2011, MaxMem=    6291456 cpu:       0.0
 (Enter C:\G03W\l202.exe)
                          Input orientation:                          
 ---------------------------------------------------------------------
 Center     Atomic     Atomic              Coordinates (Angstroms)
 Number     Number      Type              X           Y           Z
 ---------------------------------------------------------------------
    1          9             0        5.610246   -0.820756    0.000000
    2          1             0        6.490246   -0.820756    0.000000
 ---------------------------------------------------------------------
 Stoichiometry    FH
 Framework group  C*V[C*(HF)]
 Deg. of freedom     1
 Full point group                 C*V     NOp   4
 Largest Abelian subgroup         C2V     NOp   4
 Largest concise Abelian subgroup C1      NOp   1
                         Standard orientation:                         
 ---------------------------------------------------------------------
 Center     Atomic     Atomic              Coordinates (Angstroms)
 Number     Number      Type              X           Y           Z
 ---------------------------------------------------------------------
    1          9             0        0.000000    0.000000    0.088000
    2          1             0        0.000000    0.000000   -0.792000
 ---------------------------------------------------------------------
 Rotational constants (GHZ):      0.0000000    681.8907947    681.8907947
 Leave Link  202 at Fri Jul 01 21:21:10 2011, MaxMem=    6291456 cpu:       0.0
 (Enter C:\G03W\l301.exe)
 Standard basis: 6-31G(d,p) (6D, 7F)
 There are    11 symmetry adapted basis functions of A1  symmetry.
 There are     1 symmetry adapted basis functions of A2  symmetry.
 There are     4 symmetry adapted basis functions of B1  symmetry.
 There are     4 symmetry adapted basis functions of B2  symmetry.
 Integral buffers will be    262144 words long.
 Raffenetti 2 integral format.
 Two-electron integral symmetry is turned on.
    20 basis functions,    35 primitive gaussians,    20 cartesian basis functions
     5 alpha electrons        5 beta electrons
       nuclear repulsion energy         5.4120396303 Hartrees.
 IExCor= 402 DFT=T Ex=B+HF Corr=LYP ExCW=0 ScaHFX=  0.200000
 ScaDFX=  0.800000  0.720000  1.000000  0.810000
 IRadAn=      0 IRanWt=     -1 IRanGd=            0 ICorTp=0
 NAtoms=    2 NActive=    2 NUniq=    2 SFac= 1.00D+00 NAtFMM=   60 Big=F
 Leave Link  301 at Fri Jul 01 21:21:10 2011, MaxMem=    6291456 cpu:       0.0
 (Enter C:\G03W\l302.exe)
 NPDir=0 NMtPBC=     1 NCelOv=     1 NCel=       1 NClECP=     1 NCelD=      1
         NCelK=      1 NCelE2=     1 NClLst=     1 CellRange=     0.0.
 One-electron integrals computed using PRISM.
 NBasis=    20 RedAO= T  NBF=    11     1     4     4
 NBsUse=    20 1.00D-06 NBFU=    11     1     4     4
 Precomputing XC quadrature grid using
 IXCGrd= 2 IRadAn=           0 IRanWt=          -1 IRanGd=           0.
 NRdTot=     121 NPtTot=       15338 NUsed=       15888 NTot=       15904
 NSgBfM=    20    20    20    20.
 Leave Link  302 at Fri Jul 01 21:21:11 2011, MaxMem=    6291456 cpu:       0.0
 (Enter C:\G03W\l303.exe)
 DipDrv:  MaxL=1.
 Leave Link  303 at Fri Jul 01 21:21:11 2011, MaxMem=    6291456 cpu:       0.0
 (Enter C:\G03W\l401.exe)
 Initial guess orbitals will be localized.
 Harris functional with IExCor=  402 diagonalized for initial guess.
 ExpMin= 1.61D-01 ExpMax= 7.00D+03 ExpMxC= 1.05D+03 IAcc=1 IRadAn=         1 AccDes= 1.00D-06
 HarFok:  IExCor= 402 AccDes= 1.00D-06 IRadAn=         1 IDoV=1
 ScaDFX=  1.000000  1.000000  1.000000  1.000000
 Harris En= -100.444676375916    
 LocMO: Using Boys method
 Initial Trace= 0.22940999D+00 Initial TraceA= 0.21713718D-01
 RMSG= 0.30911307D-09
 LocMO: Using Boys method
 Initial Trace=-0.27993475D+01 Initial TraceA= 0.20788207D+01
 Initial Trace=-0.27993475D+01 Initial TraceA= 0.20788207D+01
 Initial Trace=-0.27993475D+01 Initial TraceA= 0.20788207D+01
 Localization failed after    3 tries of 1000 iterations each.  Last change= 0.39885215D-04
 RMSG= 0.62895491D-05
 Initial guess orbital symmetries:
       Occupied  (?A) (?A) (SG) (SG) (?A)
       Virtual   (?B) (?B) (?B) (?B) (?B) (?B) (?B) (?B) (?B) (?B)
                 (?B) (?B) (?B) (?B) (?B)
 Leave Link  401 at Fri Jul 01 21:21:12 2011, MaxMem=    6291456 cpu:       0.0
 (Enter C:\G03W\l502.exe)
 Closed shell SCF:
 Requested convergence on RMS density matrix=1.00D-08 within 128 cycles.
 Requested convergence on MAX density matrix=1.00D-06.
 Requested convergence on             energy=1.00D-06.
 No special actions if energy rises.
 Using DIIS extrapolation, IDIIS=  1040.
 Integral symmetry usage will be decided dynamically.
        15887 words used for storage of precomputed grid.
 Keep R1 integrals in memory in canonical form, NReq=      491238.
 IEnd=     34659 IEndB=     34659 NGot=   6291456 MDV=   6251731
 LenX=   6251731
 Symmetry not used in FoFDir.
 MinBra= 0 MaxBra= 2 Meth= 1.
 IRaf=       0 NMat=   1 IRICut=       1 DoRegI=T DoRafI=F ISym2E= 0 JSym2E=0.
 Integral accuracy reduced to 1.0D-05 until final iterations.

 Cycle   1  Pass 0  IDiag  1:
 E= -100.388771722461    
 DIIS: error= 4.32D-02 at cycle   1 NSaved=   1.
 NSaved= 1 IEnMin= 1 EnMin= -100.388771722461     IErMin= 1 ErrMin= 4.32D-02
 ErrMax= 4.32D-02 EMaxC= 1.00D-01 BMatC= 5.98D-02 BMatP= 5.98D-02
 IDIUse=3 WtCom= 5.68D-01 WtEn= 4.32D-01
 Coeff-Com:  0.100D+01
 Coeff-En:   0.100D+01
 Coeff:      0.100D+01
 Gap=     2.180 Goal=   None    Shift=    0.000
 Fock symm off for IB=2 I1=    1 I=   12 J=    5 Cut=1.00D-04 Err=4.45D-01
 Fock matrix is not symmetric: symmetry in diagonalization turned off.
 GapD=    2.180 DampG=2.000 DampE=0.500 DampFc=1.0000 IDamp=-1.
 RMSDP=1.59D-02 MaxDP=1.39D-01              OVMax= 8.14D-01

 Cycle   2  Pass 0  IDiag  1:
 E= -100.370185641018     Delta-E=        0.018586081443 Rises=F Damp=F
 DIIS: error= 5.37D-02 at cycle   2 NSaved=   2.
 NSaved= 2 IEnMin= 1 EnMin= -100.388771722461     IErMin= 1 ErrMin= 4.32D-02
 ErrMax= 5.37D-02 EMaxC= 1.00D-01 BMatC= 9.54D-02 BMatP= 5.98D-02
 IDIUse=2 WtCom= 0.00D+00 WtEn= 1.00D+00
 Coeff-En:   0.595D+00 0.405D+00
 Coeff:      0.595D+00 0.405D+00
 Gap=     0.450 Goal=   None    Shift=    0.000
 RMSDP=8.25D-03 MaxDP=7.74D-02 DE= 1.86D-02 OVMax= 6.42D-02

 Cycle   3  Pass 0  IDiag  1:
 E= -100.424555833115     Delta-E=       -0.054370192097 Rises=F Damp=F
 DIIS: error= 4.56D-03 at cycle   3 NSaved=   3.
 NSaved= 3 IEnMin= 3 EnMin= -100.424555833115     IErMin= 3 ErrMin= 4.56D-03
 ErrMax= 4.56D-03 EMaxC= 1.00D-01 BMatC= 7.04D-04 BMatP= 5.98D-02
 IDIUse=3 WtCom= 9.54D-01 WtEn= 4.56D-02
 Coeff-Com:  0.411D-01-0.544D-01 0.101D+01
 Coeff-En:   0.000D+00 0.000D+00 0.100D+01
 Coeff:      0.392D-01-0.520D-01 0.101D+01
 Gap=     0.463 Goal=   None    Shift=    0.000
 RMSDP=7.68D-04 MaxDP=6.85D-03 DE=-5.44D-02 OVMax= 6.12D-03

 Cycle   4  Pass 0  IDiag  1:
 E= -100.424957123761     Delta-E=       -0.000401290646 Rises=F Damp=F
 DIIS: error= 2.25D-04 at cycle   4 NSaved=   4.
 NSaved= 4 IEnMin= 4 EnMin= -100.424957123761     IErMin= 4 ErrMin= 2.25D-04
 ErrMax= 2.25D-04 EMaxC= 1.00D-01 BMatC= 1.19D-06 BMatP= 7.04D-04
 IDIUse=3 WtCom= 9.98D-01 WtEn= 2.25D-03
 Coeff-Com:  0.129D-02-0.126D-01 0.188D+00 0.824D+00
 Coeff-En:   0.000D+00 0.000D+00 0.000D+00 0.100D+01
 Coeff:      0.129D-02-0.126D-01 0.187D+00 0.824D+00
 Gap=     0.463 Goal=   None    Shift=    0.000
 RMSDP=3.68D-05 MaxDP=3.44D-04 DE=-4.01D-04 OVMax= 3.52D-04

 Cycle   5  Pass 0  IDiag  1:
 E= -100.424957881386     Delta-E=       -0.000000757625 Rises=F Damp=F
 DIIS: error= 1.42D-05 at cycle   5 NSaved=   5.
 NSaved= 5 IEnMin= 5 EnMin= -100.424957881386     IErMin= 5 ErrMin= 1.42D-05
 ErrMax= 1.42D-05 EMaxC= 1.00D-01 BMatC= 6.78D-09 BMatP= 1.19D-06
 IDIUse=1 WtCom= 1.00D+00 WtEn= 0.00D+00
 Coeff-Com:  0.881D-04-0.647D-04 0.415D-03 0.443D-01 0.955D+00
 Coeff:      0.881D-04-0.647D-04 0.415D-03 0.443D-01 0.955D+00
 Gap=     0.463 Goal=   None    Shift=    0.000
 RMSDP=2.99D-06 MaxDP=3.50D-05 DE=-7.58D-07 OVMax= 2.14D-05

 Initial convergence to 1.0D-05 achieved.  Increase integral accuracy.
 Cycle   6  Pass 1  IDiag  1:
 E= -100.424967900083     Delta-E=       -0.000010018697 Rises=F Damp=F
 DIIS: error= 1.86D-06 at cycle   1 NSaved=   1.
 NSaved= 1 IEnMin= 1 EnMin= -100.424967900083     IErMin= 1 ErrMin= 1.86D-06
 ErrMax= 1.86D-06 EMaxC= 1.00D-01 BMatC= 1.40D-10 BMatP= 1.40D-10
 IDIUse=1 WtCom= 1.00D+00 WtEn= 0.00D+00
 Coeff-Com:  0.100D+01
 Coeff:      0.100D+01
 Gap=     0.463 Goal=   None    Shift=    0.000
 RMSDP=2.99D-06 MaxDP=3.50D-05 DE=-1.00D-05 OVMax= 5.51D-06

 Cycle   7  Pass 1  IDiag  1:
 E= -100.424967900200     Delta-E=       -0.000000000118 Rises=F Damp=F
 DIIS: error= 1.03D-06 at cycle   2 NSaved=   2.
 NSaved= 2 IEnMin= 2 EnMin= -100.424967900200     IErMin= 2 ErrMin= 1.03D-06
 ErrMax= 1.03D-06 EMaxC= 1.00D-01 BMatC= 2.68D-11 BMatP= 1.40D-10
 IDIUse=1 WtCom= 1.00D+00 WtEn= 0.00D+00
 Coeff-Com:  0.238D+00 0.762D+00
 Coeff:      0.238D+00 0.762D+00
 Gap=     0.463 Goal=   None    Shift=    0.000
 RMSDP=2.37D-07 MaxDP=1.83D-06 DE=-1.18D-10 OVMax= 1.84D-06

 Cycle   8  Pass 1  IDiag  1:
 E= -100.424967900209     Delta-E=       -0.000000000009 Rises=F Damp=F
 DIIS: error= 5.75D-07 at cycle   3 NSaved=   3.
 NSaved= 3 IEnMin= 3 EnMin= -100.424967900209     IErMin= 3 ErrMin= 5.75D-07
 ErrMax= 5.75D-07 EMaxC= 1.00D-01 BMatC= 1.15D-11 BMatP= 2.68D-11
 IDIUse=1 WtCom= 1.00D+00 WtEn= 0.00D+00
 Coeff-Com: -0.129D-01 0.391D+00 0.622D+00
 Coeff:     -0.129D-01 0.391D+00 0.622D+00
 Gap=     0.463 Goal=   None    Shift=    0.000
 RMSDP=9.18D-08 MaxDP=7.15D-07 DE=-8.64D-12 OVMax= 7.18D-07

 Cycle   9  Pass 1  IDiag  1:
 E= -100.424967900215     Delta-E=       -0.000000000006 Rises=F Damp=F
 DIIS: error= 5.69D-08 at cycle   4 NSaved=   4.
 NSaved= 4 IEnMin= 4 EnMin= -100.424967900215     IErMin= 4 ErrMin= 5.69D-08
 ErrMax= 5.69D-08 EMaxC= 1.00D-01 BMatC= 5.78D-14 BMatP= 1.15D-11
 IDIUse=1 WtCom= 1.00D+00 WtEn= 0.00D+00
 Coeff-Com: -0.408D-02 0.809D-01 0.163D+00 0.761D+00
 Coeff:     -0.408D-02 0.809D-01 0.163D+00 0.761D+00
 Gap=     0.463 Goal=   None    Shift=    0.000
 RMSDP=8.84D-09 MaxDP=8.82D-08 DE=-6.31D-12 OVMax= 8.42D-08

 SCF Done:  E(RB+HF-LYP) =  -100.424967900     A.U. after    9 cycles
             Convg  =    0.8839D-08             -V/T =  2.0049
             S**2   =   0.0000
 KE= 9.993666011149D+01 PE=-2.510332737598D+02 EE= 4.525960611773D+01
 Leave Link  502 at Fri Jul 01 21:21:13 2011, MaxMem=    6291456 cpu:       0.0
 (Enter C:\G03W\l601.exe)
 Copying SCF densities to generalized density rwf, ISCF=0 IROHF=0.

 **********************************************************************

            Population analysis using the SCF density.

 **********************************************************************

 Orbital symmetries:
       Occupied  (SG) (SG) (SG) (PI) (PI)
       Virtual   (SG) (SG) (SG) (PI) (PI) (SG) (PI) (PI) (DLTA)
                 (DLTA) (SG) (PI) (PI) (SG) (SG)
 The electronic state is 1-SG.
 Alpha  occ. eigenvalues --  -24.66189  -1.18441  -0.52767  -0.38095  -0.38095
 Alpha virt. eigenvalues --    0.08187   0.80188   1.08927   1.17550   1.17550
 Alpha virt. eigenvalues --    1.42912   1.62539   1.62539   1.86608   1.86608
 Alpha virt. eigenvalues --    2.60003   2.77378   2.77378   3.67966   3.77343
          Condensed to atoms (all electrons):
              1          2
     1  F    9.064990   0.275950
     2  H    0.275950   0.383110
 Mulliken atomic charges:
              1
     1  F   -0.340940
     2  H    0.340940
 Sum of Mulliken charges=   0.00000
 Atomic charges with hydrogens summed into heavy atoms:
              1
     1  F    0.000000
     2  H    0.000000
 Sum of Mulliken charges=   0.00000
 Electronic spatial extent (au):  <R**2>=    13.0551
 Charge=     0.0000 electrons
 Dipole moment (field-independent basis, Debye):
    X=     0.0000    Y=     0.0000    Z=    -1.7730  Tot=     1.7730
 Quadrupole moment (field-independent basis, Debye-Ang):
   XX=    -5.3274   YY=    -5.3274   ZZ=    -3.5572
   XY=     0.0000   XZ=     0.0000   YZ=     0.0000
 Traceless Quadrupole moment (field-independent basis, Debye-Ang):
   XX=    -0.5901   YY=    -0.5901   ZZ=     1.1802
   XY=     0.0000   XZ=     0.0000   YZ=     0.0000
 Octapole moment (field-independent basis, Debye-Ang**2):
  XXX=     0.0000  YYY=     0.0000  ZZZ=    -1.5047  XYY=     0.0000
  XXY=     0.0000  XXZ=    -0.1337  XZZ=     0.0000  YZZ=     0.0000
  YYZ=    -0.1337  XYZ=     0.0000
 Hexadecapole moment (field-independent basis, Debye-Ang**3):
 XXXX=    -2.8460 YYYY=    -2.8460 ZZZZ=    -2.9844 XXXY=     0.0000
 XXXZ=     0.0000 YYYX=     0.0000 YYYZ=     0.0000 ZZZX=     0.0000
 ZZZY=     0.0000 XXYY=    -0.9487 XXZZ=    -1.1665 YYZZ=    -1.1665
 XXYZ=     0.0000 YYXZ=     0.0000 ZZXY=     0.0000
 N-N= 5.412039630341D+00 E-N=-2.510332729361D+02  KE= 9.993666011149D+01
 Symmetry A1   KE= 8.718369050592D+01
 Symmetry A2   KE= 4.026399156836D-31
 Symmetry B1   KE= 6.376484802786D+00
 Symmetry B2   KE= 6.376484802786D+00
 No NMR shielding tensors so no spin-rotation constants.
 Leave Link  601 at Fri Jul 01 21:21:14 2011, MaxMem=    6291456 cpu:       0.0
 (Enter C:\G03W\l701.exe)
 Compute integral first derivatives.
 ... and contract with generalized density number  0.
 Leave Link  701 at Fri Jul 01 21:21:15 2011, MaxMem=    6291456 cpu:       1.0
 (Enter C:\G03W\l702.exe)
 L702 exits ... SP integral derivatives will be done elsewhere.
 Leave Link  702 at Fri Jul 01 21:21:15 2011, MaxMem=    6291456 cpu:       0.0
 (Enter C:\G03W\l703.exe)
 Compute integral first derivatives, UseDBF=F.
 Integral derivatives from FoFDir, PRISM(SPDF).
 Petite list used in FoFDir.
 MinBra= 0 MaxBra= 2 Meth= 1.
 IRaf=       0 NMat=   1 IRICut=       1 DoRegI=T DoRafI=F ISym2E= 1 JSym2E=1.
 Leave Link  703 at Fri Jul 01 21:21:16 2011, MaxMem=    6291456 cpu:       1.0
 (Enter C:\G03W\l716.exe)
 Dipole        = 5.14474060D-61-5.20151902D-31-6.97559963D-01
 ***** Axes restored to original set *****
 -------------------------------------------------------------------
 Center     Atomic                   Forces (Hartrees/Bohr)
 Number     Number              X              Y              Z
 -------------------------------------------------------------------
    1          9          -0.061586685    0.000000000    0.000000000
    2          1           0.061586685    0.000000000    0.000000000
 -------------------------------------------------------------------
 Cartesian Forces:  Max     0.061586685 RMS     0.035557089
 Leave Link  716 at Fri Jul 01 21:21:16 2011, MaxMem=    6291456 cpu:       0.0
 (Enter C:\G03W\l103.exe)

 GradGradGradGradGradGradGradGradGradGradGradGradGradGradGradGradGradGrad
 Berny optimization.
 Internal  Forces:  Max     0.061586685 RMS     0.061586685
 Search for a local minimum.
 Step number   1 out of a maximum of  20
 All quantities printed in internal units (Hartrees-Bohrs-Radians)
 Second derivative matrix not updated -- first step.
 The second derivative matrix:
                          R1
           R1           0.76963
     Eigenvalues ---    0.76963
 RFO step:  Lambda=-4.89708078D-03.
 Linear search not attempted -- first point.
 Iteration  1 RMS(Cart)=  0.05622577 RMS(Int)=  0.00000000
 Iteration  2 RMS(Cart)=  0.00000000 RMS(Int)=  0.00000000
 Variable       Old X    -DE/DX   Delta X   Delta X   Delta X     New X
                                 (Linear)    (Quad)   (Total)
    R1        1.66296   0.06159   0.00000   0.07952   0.07952   1.74247
         Item               Value     Threshold  Converged?
 Maximum Force            0.061587     0.000450     NO 
 RMS     Force            0.061587     0.000300     NO 
 Maximum Displacement     0.039758     0.001800     NO 
 RMS     Displacement     0.056226     0.001200     NO 
 Predicted change in Energy=-2.464022D-03
 GradGradGradGradGradGradGradGradGradGradGradGradGradGradGradGradGradGrad

 Leave Link  103 at Fri Jul 01 21:21:16 2011, MaxMem=    6291456 cpu:       0.0
 (Enter C:\G03W\l202.exe)
                          Input orientation:                          
 ---------------------------------------------------------------------
 Center     Atomic     Atomic              Coordinates (Angstroms)
 Number     Number      Type              X           Y           Z
 ---------------------------------------------------------------------
    1          9             0        5.589208   -0.820756    0.000000
    2          1             0        6.511285   -0.820756    0.000000
 ---------------------------------------------------------------------
 Stoichiometry    FH
 Framework group  C*V[C*(HF)]
 Deg. of freedom     1
 Full point group                 C*V     NOp   4
 Largest Abelian subgroup         C2V     NOp   4
 Largest concise Abelian subgroup C1      NOp   1
                         Standard orientation:                         
 ---------------------------------------------------------------------
 Center     Atomic     Atomic              Coordinates (Angstroms)
 Number     Number      Type              X           Y           Z
 ---------------------------------------------------------------------
    1          9             0        0.000000    0.000000    0.092208
    2          1             0        0.000000    0.000000   -0.829870
 ---------------------------------------------------------------------
 Rotational constants (GHZ):      0.0000000    621.0766082    621.0766082
 Leave Link  202 at Fri Jul 01 21:21:17 2011, MaxMem=    6291456 cpu:       0.0
 (Enter C:\G03W\l301.exe)
 Standard basis: 6-31G(d,p) (6D, 7F)
 There are    11 symmetry adapted basis functions of A1  symmetry.
 There are     1 symmetry adapted basis functions of A2  symmetry.
 There are     4 symmetry adapted basis functions of B1  symmetry.
 There are     4 symmetry adapted basis functions of B2  symmetry.
 Integral buffers will be    262144 words long.
 Raffenetti 2 integral format.
 Two-electron integral symmetry is turned on.
    20 basis functions,    35 primitive gaussians,    20 cartesian basis functions
     5 alpha electrons        5 beta electrons
       nuclear repulsion energy         5.1650691539 Hartrees.
 IExCor= 402 DFT=T Ex=B+HF Corr=LYP ExCW=0 ScaHFX=  0.200000
 ScaDFX=  0.800000  0.720000  1.000000  0.810000
 IRadAn=      0 IRanWt=     -1 IRanGd=            0 ICorTp=0
 NAtoms=    2 NActive=    2 NUniq=    2 SFac= 1.00D+00 NAtFMM=   60 Big=F
 Leave Link  301 at Fri Jul 01 21:21:17 2011, MaxMem=    6291456 cpu:       0.0
 (Enter C:\G03W\l302.exe)
 NPDir=0 NMtPBC=     1 NCelOv=     1 NCel=       1 NClECP=     1 NCelD=      1
         NCelK=      1 NCelE2=     1 NClLst=     1 CellRange=     0.0.
 One-electron integrals computed using PRISM.
 NBasis=    20 RedAO= T  NBF=    11     1     4     4
 NBsUse=    20 1.00D-06 NBFU=    11     1     4     4
 Precomputing XC quadrature grid using
 IXCGrd= 2 IRadAn=           0 IRanWt=          -1 IRanGd=           0.
 NRdTot=     121 NPtTot=       15338 NUsed=       15888 NTot=       15904
 NSgBfM=    20    20    20    20.
 Leave Link  302 at Fri Jul 01 21:21:17 2011, MaxMem=    6291456 cpu:       0.0
 (Enter C:\G03W\l303.exe)
 DipDrv:  MaxL=1.
 Leave Link  303 at Fri Jul 01 21:21:18 2011, MaxMem=    6291456 cpu:       0.0
 (Enter C:\G03W\l401.exe)
 Initial guess read from the read-write file:
 Guess basis will be translated and rotated to current coordinates.
 Initial guess orbital symmetries:
       Occupied  (SG) (SG) (SG) (PI) (PI)
       Virtual   (SG) (SG) (SG) (PI) (PI) (SG) (PI) (PI) (DLTA)
                 (DLTA) (SG) (PI) (PI) (SG) (SG)
 The electronic state of the initial guess is 1-SG.
 Generating alternative initial guess.
 Harris functional with IExCor=  402 diagonalized for initial guess.
 ExpMin= 1.61D-01 ExpMax= 7.00D+03 ExpMxC= 1.05D+03 IAcc=1 IRadAn=         1 AccDes= 1.00D-06
 HarFok:  IExCor= 402 AccDes= 1.00D-06 IRadAn=         1 IDoV=1
 ScaDFX=  1.000000  1.000000  1.000000  1.000000
 Harris En= -100.447662401729    
 Leave Link  401 at Fri Jul 01 21:21:18 2011, MaxMem=    6291456 cpu:       0.0
 (Enter C:\G03W\l502.exe)
 Closed shell SCF:
 Requested convergence on RMS density matrix=1.00D-08 within 128 cycles.
 Requested convergence on MAX density matrix=1.00D-06.
 Requested convergence on             energy=1.00D-06.
 No special actions if energy rises.
 Using DIIS extrapolation, IDIIS=  1040.
 Integral symmetry usage will be decided dynamically.
        15887 words used for storage of precomputed grid.
 Keep R1 integrals in memory in canonical form, NReq=      491238.
 IEnd=     34659 IEndB=     34659 NGot=   6291456 MDV=   6251731
 LenX=   6251731
 Symmetry not used in FoFDir.
 MinBra= 0 MaxBra= 2 Meth= 1.
 IRaf=       0 NMat=   1 IRICut=       1 DoRegI=T DoRafI=F ISym2E= 0 JSym2E=0.
 Integral accuracy reduced to 1.0D-05 until final iterations.
 A guess orbital has undefined symmetry, so N**3 symmetry is turned off.

 Cycle   1  Pass 0  IDiag  1:
 E= -100.426778109084    
 DIIS: error= 7.29D-03 at cycle   1 NSaved=   1.
 NSaved= 1 IEnMin= 1 EnMin= -100.426778109084     IErMin= 1 ErrMin= 7.29D-03
 ErrMax= 7.29D-03 EMaxC= 1.00D-01 BMatC= 7.49D-04 BMatP= 7.49D-04
 IDIUse=3 WtCom= 9.27D-01 WtEn= 7.29D-02
 Coeff-Com:  0.100D+01
 Coeff-En:   0.100D+01
 Coeff:      0.100D+01
 Gap=     0.459 Goal=   None    Shift=    0.000
 GapD=    0.459 DampG=2.000 DampE=1.000 DampFc=2.0000 IDamp=-1.
 RMSDP=1.47D-03 MaxDP=8.67D-03              OVMax= 1.36D-02

 Cycle   2  Pass 0  IDiag  1:
 E= -100.427380886667     Delta-E=       -0.000602777584 Rises=F Damp=F
 DIIS: error= 1.88D-03 at cycle   2 NSaved=   2.
 NSaved= 2 IEnMin= 2 EnMin= -100.427380886667     IErMin= 2 ErrMin= 1.88D-03
 ErrMax= 1.88D-03 EMaxC= 1.00D-01 BMatC= 1.10D-04 BMatP= 7.49D-04
 IDIUse=3 WtCom= 9.81D-01 WtEn= 1.88D-02
 Coeff-Com:  0.177D+00 0.823D+00
 Coeff-En:   0.000D+00 0.100D+01
 Coeff:      0.174D+00 0.826D+00
 Gap=     0.448 Goal=   None    Shift=    0.000
 RMSDP=4.95D-04 MaxDP=3.67D-03 DE=-6.03D-04 OVMax= 3.25D-03

 Cycle   3  Pass 0  IDiag  1:
 E= -100.427402225413     Delta-E=       -0.000021338746 Rises=F Damp=F
 DIIS: error= 1.55D-03 at cycle   3 NSaved=   3.
 NSaved= 3 IEnMin= 3 EnMin= -100.427402225413     IErMin= 3 ErrMin= 1.55D-03
 ErrMax= 1.55D-03 EMaxC= 1.00D-01 BMatC= 7.15D-05 BMatP= 1.10D-04
 IDIUse=3 WtCom= 9.84D-01 WtEn= 1.55D-02
 Coeff-Com: -0.560D-03 0.446D+00 0.555D+00
 Coeff-En:   0.000D+00 0.401D+00 0.599D+00
 Coeff:     -0.551D-03 0.445D+00 0.556D+00
 Gap=     0.445 Goal=   None    Shift=    0.000
 RMSDP=2.43D-04 MaxDP=1.90D-03 DE=-2.13D-05 OVMax= 2.23D-03

 Cycle   4  Pass 0  IDiag  1:
 E= -100.427443402991     Delta-E=       -0.000041177578 Rises=F Damp=F
 DIIS: error= 1.46D-04 at cycle   4 NSaved=   4.
 NSaved= 4 IEnMin= 4 EnMin= -100.427443402991     IErMin= 4 ErrMin= 1.46D-04
 ErrMax= 1.46D-04 EMaxC= 1.00D-01 BMatC= 3.67D-07 BMatP= 7.15D-05
 IDIUse=3 WtCom= 9.99D-01 WtEn= 1.46D-03
 Coeff-Com: -0.535D-02 0.900D-01 0.151D+00 0.765D+00
 Coeff-En:   0.000D+00 0.000D+00 0.000D+00 0.100D+01
 Coeff:     -0.534D-02 0.898D-01 0.151D+00 0.765D+00
 Gap=     0.445 Goal=   None    Shift=    0.000
 RMSDP=2.08D-05 MaxDP=2.16D-04 DE=-4.12D-05 OVMax= 1.84D-04

 Cycle   5  Pass 0  IDiag  1:
 E= -100.427443654513     Delta-E=       -0.000000251523 Rises=F Damp=F
 DIIS: error= 6.40D-06 at cycle   5 NSaved=   5.
 NSaved= 5 IEnMin= 5 EnMin= -100.427443654513     IErMin= 5 ErrMin= 6.40D-06
 ErrMax= 6.40D-06 EMaxC= 1.00D-01 BMatC= 7.01D-10 BMatP= 3.67D-07
 IDIUse=1 WtCom= 1.00D+00 WtEn= 0.00D+00
 Coeff-Com: -0.134D-03-0.440D-02-0.359D-02 0.318D-01 0.976D+00
 Coeff:     -0.134D-03-0.440D-02-0.359D-02 0.318D-01 0.976D+00
 Gap=     0.445 Goal=   None    Shift=    0.000
 RMSDP=1.12D-06 MaxDP=7.58D-06 DE=-2.52D-07 OVMax= 1.13D-05

 Initial convergence to 1.0D-05 achieved.  Increase integral accuracy.
 Cycle   6  Pass 1  IDiag  1:
 E= -100.427449724827     Delta-E=       -0.000006070314 Rises=F Damp=F
 DIIS: error= 1.89D-06 at cycle   1 NSaved=   1.
 NSaved= 1 IEnMin= 1 EnMin= -100.427449724827     IErMin= 1 ErrMin= 1.89D-06
 ErrMax= 1.89D-06 EMaxC= 1.00D-01 BMatC= 8.67D-11 BMatP= 8.67D-11
 IDIUse=1 WtCom= 1.00D+00 WtEn= 0.00D+00
 Coeff-Com:  0.100D+01
 Coeff:      0.100D+01
 Gap=     0.445 Goal=   None    Shift=    0.000
 RMSDP=1.12D-06 MaxDP=7.58D-06 DE=-6.07D-06 OVMax= 5.41D-06

 Cycle   7  Pass 1  IDiag  1:
 E= -100.427449724920     Delta-E=       -0.000000000093 Rises=F Damp=F
 DIIS: error= 8.54D-07 at cycle   2 NSaved=   2.
 NSaved= 2 IEnMin= 2 EnMin= -100.427449724920     IErMin= 2 ErrMin= 8.54D-07
 ErrMax= 8.54D-07 EMaxC= 1.00D-01 BMatC= 1.55D-11 BMatP= 8.67D-11
 IDIUse=1 WtCom= 1.00D+00 WtEn= 0.00D+00
 Coeff-Com:  0.230D+00 0.770D+00
 Coeff:      0.230D+00 0.770D+00
 Gap=     0.445 Goal=   None    Shift=    0.000
 RMSDP=1.90D-07 MaxDP=1.47D-06 DE=-9.27D-11 OVMax= 1.57D-06

 Cycle   8  Pass 1  IDiag  1:
 E= -100.427449724924     Delta-E=       -0.000000000004 Rises=F Damp=F
 DIIS: error= 4.66D-07 at cycle   3 NSaved=   3.
 NSaved= 3 IEnMin= 3 EnMin= -100.427449724924     IErMin= 3 ErrMin= 4.66D-07
 ErrMax= 4.66D-07 EMaxC= 1.00D-01 BMatC= 7.65D-12 BMatP= 1.55D-11
 IDIUse=1 WtCom= 1.00D+00 WtEn= 0.00D+00
 Coeff-Com: -0.120D-01 0.408D+00 0.604D+00
 Coeff:     -0.120D-01 0.408D+00 0.604D+00
 Gap=     0.445 Goal=   None    Shift=    0.000
 RMSDP=7.59D-08 MaxDP=6.03D-07 DE=-4.39D-12 OVMax= 6.41D-07

 Cycle   9  Pass 1  IDiag  1:
 E= -100.427449724929     Delta-E=       -0.000000000004 Rises=F Damp=F
 DIIS: error= 3.78D-08 at cycle   4 NSaved=   4.
 NSaved= 4 IEnMin= 4 EnMin= -100.427449724929     IErMin= 4 ErrMin= 3.78D-08
 ErrMax= 3.78D-08 EMaxC= 1.00D-01 BMatC= 2.87D-14 BMatP= 7.65D-12
 IDIUse=1 WtCom= 1.00D+00 WtEn= 0.00D+00
 Coeff-Com: -0.329D-02 0.591D-01 0.126D+00 0.818D+00
 Coeff:     -0.329D-02 0.591D-01 0.126D+00 0.818D+00
 Gap=     0.445 Goal=   None    Shift=    0.000
 RMSDP=6.74D-09 MaxDP=6.38D-08 DE=-4.38D-12 OVMax= 7.03D-08

 SCF Done:  E(RB+HF-LYP) =  -100.427449725     A.U. after    9 cycles
             Convg  =    0.6744D-08             -V/T =  2.0058
             S**2   =   0.0000
 KE= 9.984887467776D+01 PE=-2.505282255184D+02 EE= 4.508683196181D+01
 Leave Link  502 at Fri Jul 01 21:21:19 2011, MaxMem=    6291456 cpu:       1.0
 (Enter C:\G03W\l701.exe)
 Compute integral first derivatives.
 ... and contract with generalized density number  0.
 Leave Link  701 at Fri Jul 01 21:21:19 2011, MaxMem=    6291456 cpu:       0.0
 (Enter C:\G03W\l702.exe)
 L702 exits ... SP integral derivatives will be done elsewhere.
 Leave Link  702 at Fri Jul 01 21:21:20 2011, MaxMem=    6291456 cpu:       0.0
 (Enter C:\G03W\l703.exe)
 Compute integral first derivatives, UseDBF=F.
 Integral derivatives from FoFDir, PRISM(SPDF).
 Petite list used in FoFDir.
 MinBra= 0 MaxBra= 2 Meth= 1.
 IRaf=       0 NMat=   1 IRICut=       1 DoRegI=T DoRafI=F ISym2E= 1 JSym2E=1.
 Leave Link  703 at Fri Jul 01 21:21:20 2011, MaxMem=    6291456 cpu:       0.0
 (Enter C:\G03W\l716.exe)
 Dipole        = 0.00000000D+00 5.73913140D-33-7.17531002D-01
 ***** Axes restored to original set *****
 -------------------------------------------------------------------
 Center     Atomic                   Forces (Hartrees/Bohr)
 Number     Number              X              Y              Z
 -------------------------------------------------------------------
    1          9          -0.003819864    0.000000000    0.000000000
    2          1           0.003819864    0.000000000    0.000000000
 -------------------------------------------------------------------
 Cartesian Forces:  Max     0.003819864 RMS     0.002205400
 Leave Link  716 at Fri Jul 01 21:21:20 2011, MaxMem=    6291456 cpu:       0.0
 (Enter C:\G03W\l103.exe)

 GradGradGradGradGradGradGradGradGradGradGradGradGradGradGradGradGradGrad
 Berny optimization.
 Internal  Forces:  Max     0.003819864 RMS     0.003819864
 Search for a local minimum.
 Step number   2 out of a maximum of  20
 All quantities printed in internal units (Hartrees-Bohrs-Radians)
 Update second derivatives using D2CorX and points  1  2
 Trust test= 1.01D+00 RLast= 7.95D-02 DXMaxT set to 3.00D-01
 The second derivative matrix:
                          R1
           R1           0.72649
     Eigenvalues ---    0.72649
 RFO step:  Lambda= 0.00000000D+00.
 Quartic linear search produced a step of  0.07892.
 Iteration  1 RMS(Cart)=  0.00443734 RMS(Int)=  0.00000000
 Iteration  2 RMS(Cart)=  0.00000000 RMS(Int)=  0.00000000
 Variable       Old X    -DE/DX   Delta X   Delta X   Delta X     New X
                                 (Linear)    (Quad)   (Total)
    R1        1.74247   0.00382   0.00628   0.00000   0.00628   1.74875
         Item               Value     Threshold  Converged?
 Maximum Force            0.003820     0.000450     NO 
 RMS     Force            0.003820     0.000300     NO 
 Maximum Displacement     0.003138     0.001800     NO 
 RMS     Displacement     0.004437     0.001200     NO 
 Predicted change in Energy=-9.666451D-06
 GradGradGradGradGradGradGradGradGradGradGradGradGradGradGradGradGradGrad

 Leave Link  103 at Fri Jul 01 21:21:21 2011, MaxMem=    6291456 cpu:       0.0
 (Enter C:\G03W\l202.exe)
                          Input orientation:                          
 ---------------------------------------------------------------------
 Center     Atomic     Atomic              Coordinates (Angstroms)
 Number     Number      Type              X           Y           Z
 ---------------------------------------------------------------------
    1          9             0        5.587547   -0.820756    0.000000
    2          1             0        6.512946   -0.820756    0.000000
 ---------------------------------------------------------------------
 Stoichiometry    FH
 Framework group  C*V[C*(HF)]
 Deg. of freedom     1
 Full point group                 C*V     NOp   4
 Largest Abelian subgroup         C2V     NOp   4
 Largest concise Abelian subgroup C1      NOp   1
                         Standard orientation:                         
 ---------------------------------------------------------------------
 Center     Atomic     Atomic              Coordinates (Angstroms)
 Number     Number      Type              X           Y           Z
 ---------------------------------------------------------------------
    1          9             0        0.000000    0.000000    0.092540
    2          1             0        0.000000    0.000000   -0.832859
 ---------------------------------------------------------------------
 Rotational constants (GHZ):      0.0000000    616.6271723    616.6271723
 Leave Link  202 at Fri Jul 01 21:21:21 2011, MaxMem=    6291456 cpu:       0.0
 (Enter C:\G03W\l301.exe)
 Standard basis: 6-31G(d,p) (6D, 7F)
 There are    11 symmetry adapted basis functions of A1  symmetry.
 There are     1 symmetry adapted basis functions of A2  symmetry.
 There are     4 symmetry adapted basis functions of B1  symmetry.
 There are     4 symmetry adapted basis functions of B2  symmetry.
 Integral buffers will be    262144 words long.
 Raffenetti 2 integral format.
 Two-electron integral symmetry is turned on.
    20 basis functions,    35 primitive gaussians,    20 cartesian basis functions
     5 alpha electrons        5 beta electrons
       nuclear repulsion energy         5.1465344416 Hartrees.
 IExCor= 402 DFT=T Ex=B+HF Corr=LYP ExCW=0 ScaHFX=  0.200000
 ScaDFX=  0.800000  0.720000  1.000000  0.810000
 IRadAn=      0 IRanWt=     -1 IRanGd=            0 ICorTp=0
 NAtoms=    2 NActive=    2 NUniq=    2 SFac= 1.00D+00 NAtFMM=   60 Big=F
 Leave Link  301 at Fri Jul 01 21:21:21 2011, MaxMem=    6291456 cpu:       0.0
 (Enter C:\G03W\l302.exe)
 NPDir=0 NMtPBC=     1 NCelOv=     1 NCel=       1 NClECP=     1 NCelD=      1
         NCelK=      1 NCelE2=     1 NClLst=     1 CellRange=     0.0.
 One-electron integrals computed using PRISM.
 NBasis=    20 RedAO= T  NBF=    11     1     4     4
 NBsUse=    20 1.00D-06 NBFU=    11     1     4     4
 Precomputing XC quadrature grid using
 IXCGrd= 2 IRadAn=           0 IRanWt=          -1 IRanGd=           0.
 NRdTot=     121 NPtTot=       15338 NUsed=       15888 NTot=       15904
 NSgBfM=    20    20    20    20.
 Leave Link  302 at Fri Jul 01 21:21:22 2011, MaxMem=    6291456 cpu:       1.0
 (Enter C:\G03W\l303.exe)
 DipDrv:  MaxL=1.
 Leave Link  303 at Fri Jul 01 21:21:22 2011, MaxMem=    6291456 cpu:       0.0
 (Enter C:\G03W\l401.exe)
 Initial guess read from the read-write file:
 Guess basis will be translated and rotated to current coordinates.
 Initial guess orbital symmetries:
       Occupied  (SG) (SG) (SG) (PI) (PI)
       Virtual   (SG) (SG) (SG) (PI) (PI) (SG) (PI) (PI) (DLTA)
                 (DLTA) (SG) (PI) (PI) (SG) (SG)
 The electronic state of the initial guess is 1-SG.
 Leave Link  401 at Fri Jul 01 21:21:22 2011, MaxMem=    6291456 cpu:       0.0
 (Enter C:\G03W\l502.exe)
 Closed shell SCF:
 Requested convergence on RMS density matrix=1.00D-08 within 128 cycles.
 Requested convergence on MAX density matrix=1.00D-06.
 Requested convergence on             energy=1.00D-06.
 No special actions if energy rises.
 Using DIIS extrapolation, IDIIS=  1040.
 Integral symmetry usage will be decided dynamically.
        15887 words used for storage of precomputed grid.
 Keep R1 integrals in memory in canonical form, NReq=      491238.
 IEnd=     34659 IEndB=     34659 NGot=   6291456 MDV=   6251731
 LenX=   6251731
 Symmetry not used in FoFDir.
 MinBra= 0 MaxBra= 2 Meth= 1.
 IRaf=       0 NMat=   1 IRICut=       1 DoRegI=T DoRafI=F ISym2E= 0 JSym2E=0.
 A guess orbital has undefined symmetry, so N**3 symmetry is turned off.

 Cycle   1  Pass 1  IDiag  1:
 E= -100.427457770914    
 DIIS: error= 5.58D-04 at cycle   1 NSaved=   1.
 NSaved= 1 IEnMin= 1 EnMin= -100.427457770914     IErMin= 1 ErrMin= 5.58D-04
 ErrMax= 5.58D-04 EMaxC= 1.00D-01 BMatC= 4.27D-06 BMatP= 4.27D-06
 IDIUse=3 WtCom= 9.94D-01 WtEn= 5.58D-03
 Coeff-Com:  0.100D+01
 Coeff-En:   0.100D+01
 Coeff:      0.100D+01
 Gap=     0.444 Goal=   None    Shift=    0.000
 RMSDP=1.11D-04 MaxDP=6.46D-04              OVMax= 1.06D-03

 Cycle   2  Pass 1  IDiag  1:
 E= -100.427461205581     Delta-E=       -0.000003434666 Rises=F Damp=F
 DIIS: error= 1.48D-04 at cycle   2 NSaved=   2.
 NSaved= 2 IEnMin= 2 EnMin= -100.427461205581     IErMin= 2 ErrMin= 1.48D-04
 ErrMax= 1.48D-04 EMaxC= 1.00D-01 BMatC= 6.90D-07 BMatP= 4.27D-06
 IDIUse=3 WtCom= 9.99D-01 WtEn= 1.48D-03
 Coeff-Com:  0.189D+00 0.811D+00
 Coeff-En:   0.000D+00 0.100D+01
 Coeff:      0.189D+00 0.811D+00
 Gap=     0.444 Goal=   None    Shift=    0.000
 RMSDP=3.87D-05 MaxDP=2.90D-04 DE=-3.43D-06 OVMax= 2.59D-04

 Cycle   3  Pass 1  IDiag  1:
 E= -100.427461355869     Delta-E=       -0.000000150288 Rises=F Damp=F
 DIIS: error= 1.19D-04 at cycle   3 NSaved=   3.
 NSaved= 3 IEnMin= 3 EnMin= -100.427461355869     IErMin= 3 ErrMin= 1.19D-04
 ErrMax= 1.19D-04 EMaxC= 1.00D-01 BMatC= 4.20D-07 BMatP= 6.90D-07
 IDIUse=3 WtCom= 9.99D-01 WtEn= 1.19D-03
 Coeff-Com: -0.330D-03 0.437D+00 0.563D+00
 Coeff-En:   0.000D+00 0.387D+00 0.613D+00
 Coeff:     -0.330D-03 0.437D+00 0.563D+00
 Gap=     0.444 Goal=   None    Shift=    0.000
 RMSDP=1.86D-05 MaxDP=1.46D-04 DE=-1.50D-07 OVMax= 1.73D-04

 Cycle   4  Pass 1  IDiag  1:
 E= -100.427461598350     Delta-E=       -0.000000242481 Rises=F Damp=F
 DIIS: error= 1.12D-05 at cycle   4 NSaved=   4.
 NSaved= 4 IEnMin= 4 EnMin= -100.427461598350     IErMin= 4 ErrMin= 1.12D-05
 ErrMax= 1.12D-05 EMaxC= 1.00D-01 BMatC= 2.07D-09 BMatP= 4.20D-07
 IDIUse=1 WtCom= 1.00D+00 WtEn= 0.00D+00
 Coeff-Com: -0.547D-02 0.886D-01 0.151D+00 0.766D+00
 Coeff:     -0.547D-02 0.886D-01 0.151D+00 0.766D+00
 Gap=     0.444 Goal=   None    Shift=    0.000
 RMSDP=1.57D-06 MaxDP=1.63D-05 DE=-2.42D-07 OVMax= 1.39D-05

 Cycle   5  Pass 1  IDiag  1:
 E= -100.427461599777     Delta-E=       -0.000000001427 Rises=F Damp=F
 DIIS: error= 4.74D-07 at cycle   5 NSaved=   5.
 NSaved= 5 IEnMin= 5 EnMin= -100.427461599777     IErMin= 5 ErrMin= 4.74D-07
 ErrMax= 4.74D-07 EMaxC= 1.00D-01 BMatC= 3.73D-12 BMatP= 2.07D-09
 IDIUse=1 WtCom= 1.00D+00 WtEn= 0.00D+00
 Coeff-Com: -0.108D-03-0.457D-02-0.447D-02 0.271D-01 0.982D+00
 Coeff:     -0.108D-03-0.457D-02-0.447D-02 0.271D-01 0.982D+00
 Gap=     0.444 Goal=   None    Shift=    0.000
 RMSDP=8.49D-08 MaxDP=5.98D-07 DE=-1.43D-09 OVMax= 8.80D-07

 Cycle   6  Pass 1  IDiag  1:
 E= -100.427461599781     Delta-E=       -0.000000000003 Rises=F Damp=F
 DIIS: error= 1.29D-08 at cycle   6 NSaved=   6.
 NSaved= 6 IEnMin= 6 EnMin= -100.427461599781     IErMin= 6 ErrMin= 1.29D-08
 ErrMax= 1.29D-08 EMaxC= 1.00D-01 BMatC= 5.55D-15 BMatP= 3.73D-12
 IDIUse=1 WtCom= 1.00D+00 WtEn= 0.00D+00
 Coeff-Com:  0.148D-04-0.377D-03-0.521D-03-0.136D-02 0.293D-01 0.973D+00
 Coeff:      0.148D-04-0.377D-03-0.521D-03-0.136D-02 0.293D-01 0.973D+00
 Gap=     0.444 Goal=   None    Shift=    0.000
 RMSDP=3.83D-09 MaxDP=2.29D-08 DE=-3.48D-12 OVMax= 4.00D-08

 SCF Done:  E(RB+HF-LYP) =  -100.427461600     A.U. after    6 cycles
             Convg  =    0.3826D-08             -V/T =  2.0059
             S**2   =   0.0000
 KE= 9.984254760241D+01 PE=-2.504902444834D+02 EE= 4.507370083963D+01
 Leave Link  502 at Fri Jul 01 21:21:23 2011, MaxMem=    6291456 cpu:       1.0
 (Enter C:\G03W\l701.exe)
 Compute integral first derivatives.
 ... and contract with generalized density number  0.
 Leave Link  701 at Fri Jul 01 21:21:23 2011, MaxMem=    6291456 cpu:       0.0
 (Enter C:\G03W\l702.exe)
 L702 exits ... SP integral derivatives will be done elsewhere.
 Leave Link  702 at Fri Jul 01 21:21:24 2011, MaxMem=    6291456 cpu:       0.0
 (Enter C:\G03W\l703.exe)
 Compute integral first derivatives, UseDBF=F.
 Integral derivatives from FoFDir, PRISM(SPDF).
 Petite list used in FoFDir.
 MinBra= 0 MaxBra= 2 Meth= 1.
 IRaf=       0 NMat=   1 IRICut=       1 DoRegI=T DoRafI=F ISym2E= 1 JSym2E=1.
 Leave Link  703 at Fri Jul 01 21:21:24 2011, MaxMem=    6291456 cpu:       0.0
 (Enter C:\G03W\l716.exe)
 Dipole        = 0.00000000D+00-1.93235367D-32-7.19069943D-01
 ***** Axes restored to original set *****
 -------------------------------------------------------------------
 Center     Atomic                   Forces (Hartrees/Bohr)
 Number     Number              X              Y              Z
 -------------------------------------------------------------------
    1          9           0.000019553    0.000000000    0.000000000
    2          1          -0.000019553    0.000000000    0.000000000
 -------------------------------------------------------------------
 Cartesian Forces:  Max     0.000019553 RMS     0.000011289
 Leave Link  716 at Fri Jul 01 21:21:24 2011, MaxMem=    6291456 cpu:       0.0
 (Enter C:\G03W\l103.exe)

 GradGradGradGradGradGradGradGradGradGradGradGradGradGradGradGradGradGrad
 Berny optimization.
 Internal  Forces:  Max     0.000019553 RMS     0.000019553
 Search for a local minimum.
 Step number   3 out of a maximum of  20
 All quantities printed in internal units (Hartrees-Bohrs-Radians)
 Update second derivatives using D2CorX and points  2  3
 Trust test= 1.23D+00 RLast= 6.28D-03 DXMaxT set to 3.00D-01
 The second derivative matrix:
                          R1
           R1           0.61183
     Eigenvalues ---    0.61183
 RFO step:  Lambda= 0.00000000D+00.
 Quartic linear search produced a step of -0.00516.
 Iteration  1 RMS(Cart)=  0.00002288 RMS(Int)=  0.00000000
 Iteration  2 RMS(Cart)=  0.00000000 RMS(Int)=  0.00000000
 Variable       Old X    -DE/DX   Delta X   Delta X   Delta X     New X
                                 (Linear)    (Quad)   (Total)
    R1        1.74875  -0.00002  -0.00003   0.00000  -0.00003   1.74872
         Item               Value     Threshold  Converged?
 Maximum Force            0.000020     0.000450     YES
 RMS     Force            0.000020     0.000300     YES
 Maximum Displacement     0.000016     0.001800     YES
 RMS     Displacement     0.000023     0.001200     YES
 Predicted change in Energy=-3.124100D-10
 Optimization completed.
    -- Stationary point found.
                           ----------------------------
                           !   Optimized Parameters   !
                           ! (Angstroms and Degrees)  !
 --------------------------                            --------------------------
 ! Name  Definition              Value          Derivative Info.                !
 --------------------------------------------------------------------------------
 ! R1    R(1,2)                  0.9254         -DE/DX =    0.0                 !
 --------------------------------------------------------------------------------
 GradGradGradGradGradGradGradGradGradGradGradGradGradGradGradGradGradGrad

 Largest change from initial coordinates is atom    2       0.041 Angstoms.
 Leave Link  103 at Fri Jul 01 21:21:25 2011, MaxMem=    6291456 cpu:       0.0
 (Enter C:\G03W\l202.exe)
                          Input orientation:                          
 ---------------------------------------------------------------------
 Center     Atomic     Atomic              Coordinates (Angstroms)
 Number     Number      Type              X           Y           Z
 ---------------------------------------------------------------------
    1          9             0        5.587547   -0.820756    0.000000
    2          1             0        6.512946   -0.820756    0.000000
 ---------------------------------------------------------------------
 Stoichiometry    FH
 Framework group  C*V[C*(HF)]
 Deg. of freedom     1
 Full point group                 C*V     NOp   4
 Largest Abelian subgroup         C2V     NOp   4
 Largest concise Abelian subgroup C1      NOp   1
                         Standard orientation:                         
 ---------------------------------------------------------------------
 Center     Atomic     Atomic              Coordinates (Angstroms)
 Number     Number      Type              X           Y           Z
 ---------------------------------------------------------------------
    1          9             0        0.000000    0.000000    0.092540
    2          1             0        0.000000    0.000000   -0.832859
 ---------------------------------------------------------------------
 Rotational constants (GHZ):      0.0000000    616.6271723    616.6271723
 Leave Link  202 at Fri Jul 01 21:21:25 2011, MaxMem=    6291456 cpu:       0.0
 (Enter C:\G03W\l601.exe)
 Copying SCF densities to generalized density rwf, ISCF=0 IROHF=0.

 **********************************************************************

            Population analysis using the SCF density.

 **********************************************************************

 Orbital symmetries:
       Occupied  (SG) (SG) (SG) (PI) (PI)
       Virtual   (SG) (SG) (SG) (PI) (PI) (SG) (PI) (PI) (DLTA)
                 (DLTA) (SG) (PI) (PI) (SG) (SG)
 The electronic state is 1-SG.
 Alpha  occ. eigenvalues --  -24.66310  -1.16883  -0.51803  -0.37691  -0.37691
 Alpha virt. eigenvalues --    0.06685   0.76449   1.08387   1.17509   1.17509
 Alpha virt. eigenvalues --    1.42688   1.61934   1.61934   1.86997   1.86997
 Alpha virt. eigenvalues --    2.49918   2.71682   2.71682   3.62864   3.71521
          Condensed to atoms (all electrons):
              1          2
     1  F    9.101075   0.257004
     2  H    0.257004   0.384917
 Mulliken atomic charges:
              1
     1  F   -0.358079
     2  H    0.358079
 Sum of Mulliken charges=   0.00000
 Atomic charges with hydrogens summed into heavy atoms:
              1
     1  F    0.000000
     2  H    0.000000
 Sum of Mulliken charges=   0.00000
 Electronic spatial extent (au):  <R**2>=    13.3045
 Charge=     0.0000 electrons
 Dipole moment (field-independent basis, Debye):
    X=     0.0000    Y=     0.0000    Z=    -1.8277  Tot=     1.8277
 Quadrupole moment (field-independent basis, Debye-Ang):
   XX=    -5.3698   YY=    -5.3698   ZZ=    -3.4534
   XY=     0.0000   XZ=     0.0000   YZ=     0.0000
 Traceless Quadrupole moment (field-independent basis, Debye-Ang):
   XX=    -0.6388   YY=    -0.6388   ZZ=     1.2776
   XY=     0.0000   XZ=     0.0000   YZ=     0.0000
 Octapole moment (field-independent basis, Debye-Ang**2):
  XXX=     0.0000  YYY=     0.0000  ZZZ=    -1.6350  XYY=     0.0000
  XXY=     0.0000  XXZ=    -0.1121  XZZ=     0.0000  YZZ=     0.0000
  YYZ=    -0.1121  XYZ=     0.0000
 Hexadecapole moment (field-independent basis, Debye-Ang**3):
 XXXX=    -2.8918 YYYY=    -2.8918 ZZZZ=    -3.0573 XXXY=     0.0000
 XXXZ=     0.0000 YYYX=     0.0000 YYYZ=     0.0000 ZZZX=     0.0000
 ZZZY=     0.0000 XXYY=    -0.9639 XXZZ=    -1.2268 YYZZ=    -1.2268
 XXYZ=     0.0000 YYXZ=     0.0000 ZZXY=     0.0000
 N-N= 5.146534441588D+00 E-N=-2.504902444615D+02  KE= 9.984254760241D+01
 Symmetry A1   KE= 8.708406955667D+01
 Symmetry A2   KE= 1.937459588555D-31
 Symmetry B1   KE= 6.379239022869D+00
 Symmetry B2   KE= 6.379239022869D+00
 No NMR shielding tensors so no spin-rotation constants.
 Leave Link  601 at Fri Jul 01 21:21:26 2011, MaxMem=    6291456 cpu:       1.0
 (Enter C:\G03W\l9999.exe)
 1|1|UNPC-UNK|FOpt|RB3LYP|6-31G(d,p)|F1H1|PCUSER|01-Jul-2011|0||#P OPT 
 FREQ B3LYP/6-31G(D,P) GUESS=(LOCAL,SAVE) GEOM=CONNECTIVITY||FH||0,1|F,
 -0.0925398427,0.,0.|H,0.8328585839,0.,0.||Version=x86-Win32-G03RevB.03
 |State=1-SG|HF=-100.4274616|RMSD=3.826e-009|RMSF=1.129e-005|Dipole=0.7
 190699,0.,0.|PG=C*V [C*(H1F1)]||@


 A ROPE OVER THE TOP OF A FENCE HAS THE SAME LENGTH ON EACH SIDE.
 WEIGHS 1/3 POUND PER FOOT.  ON ONE END HANGS A MONKEY HOLDING A
 BANANA, AND ON THE OTHER END A WEIGHT EQUAL TO THE WEIGHT
 OF THE MONKEY.  THE BANANA WEIGHS TWO OUNCES PER INCH.
 THE ROPE IS AS LONG AS THE AGE OF THE MONKEY, 
 AND THE WEIGHT OF THE MONKEY (IN OUNCES) IS AS MUCH
 AS THE AGE OF THE MONKEY'S MOTHER.  THE COMBINED AGES OF MONKEY
 AND MOTHER ARE THIRTY YEARS.  HALF THE WEIGHT OF THE MONKEY,
  PLUS THE WEIGHT OF THE BANANA, IS ONE FOURTH AS MUCH AS THE WEIGHT
 OF THE WEIGHT AND THE ROPE.
 THE MONKEY'S MOTHER IS HALF AS OLD AS THE MONKEY WILL BE
 WHEN IT IS 3 TIMES AS OLD AS ITS MOTHER WAS WHEN
 SHE WAS HALF AS OLD AS THE MONKEY WILL BE WHEN IT IS
 AS OLD AS ITS MOTHER WILL BE WHEN SHE IS 4 TIMES AS
 OLD AS THE MONKEY WAS WHEN IT WAS TWICE AS OLD AS 
 ITS MOTHER WAS WHEN SHE WAS ONE THIRD AS OLD AS THE
 MONKEY WAS WHEN IT WAS AS OLD AS ITS MOTHER WAS WHEN 
 SHE WAS 3 TIMES AS OLD AS THE MONKEY WAS WHEN IT WAS AS OLD AS ITS
 MOTHER WAS WHEN SHE WAS 3 TIMES AS OLD AS THE MONKEY 
 WAS WHEN IT WAS ONE FOURTH WAS OLD AS IT IS NOW.

 HOW LONG IS THE BANANA?
 Leave Link 9999 at Fri Jul 01 21:21:26 2011, MaxMem=    6291456 cpu:       0.0
 Job cpu time:  0 days  0 hours  0 minutes 18.0 seconds.
 File lengths (MBytes):  RWF=     11 Int=      0 D2E=      0 Chk=      4 Scr=      1
 Normal termination of Gaussian 03 at Fri Jul 01 21:21:26 2011.
 (Enter C:\G03W\l1.exe)
 Link1:  Proceeding to internal job step number  2.
 --------------------------------------------------------------------
 #P Geom=AllCheck Guess=Read SCRF=Check GenChk RB3LYP/6-31G(d,p) Freq
 --------------------------------------------------------------------
 1/10=4,29=7,30=1,38=1,40=1,46=1/1,3;
 2/40=1/2;
 3/5=1,6=6,7=101,11=2,16=1,25=1,30=1,70=2,71=2,74=-5/1,2,3;
 4/5=1,7=1,9=10/1;
 5/5=2,38=6/2;
 8/6=4,10=90,11=11,27=262144000/1;
 11/6=1,8=1,9=11,15=111,16=1/1,2,10;
 10/6=1/2;
 6/7=2,8=2,9=2,10=2,18=1,28=1/1;
 7/8=1,10=1,25=1/1,2,3,16;
 1/10=4,30=1,46=1/3;
 99//99;
 Leave Link    1 at Fri Jul 01 21:21:26 2011, MaxMem=          0 cpu:       0.0
 (Enter C:\G03W\l101.exe)
 --
 FH
 --
 Redundant internal coordinates taken from checkpoint file:
 D:\Dropbox\My Dropbox\Sajat gyujtes\Hehre MOLMOD\01\FH.chk
 Charge =  0 Multiplicity = 1
 F,0,-0.0925398427,0.,0.
 H,0,0.8328585839,0.,0.
 Recover connectivity data from disk.
                    Isotopes and Nuclear Properties:

  Atom         1           2
 IAtWgt=          19           1
 AtmWgt=  18.9984033   1.0078250
 IAtSpn=           1           1
 AtZEff=  -6.7500000  -1.0000000
 AtQMom=   0.0000000   0.0000000
 AtGFac=   2.6288670   2.7928460
 Leave Link  101 at Fri Jul 01 21:21:27 2011, MaxMem=    6291456 cpu:       1.0
 (Enter C:\G03W\l103.exe)

 GradGradGradGradGradGradGradGradGradGradGradGradGradGradGradGradGradGrad
 Berny optimization.
 Initialization pass.
                           ----------------------------
                           !    Initial Parameters    !
                           ! (Angstroms and Degrees)  !
 --------------------------                            --------------------------
 ! Name  Definition              Value          Derivative Info.                !
 --------------------------------------------------------------------------------
 ! R1    R(1,2)                  0.9254         calculate D2E/DX2 analytically  !
 --------------------------------------------------------------------------------
 Trust Radius=3.00D-01 FncErr=1.00D-07 GrdErr=1.00D-07
 Number of steps in this run=   2 maximum allowed number of steps=   2.
 GradGradGradGradGradGradGradGradGradGradGradGradGradGradGradGradGradGrad

 Leave Link  103 at Fri Jul 01 21:21:27 2011, MaxMem=    6291456 cpu:       0.0
 (Enter C:\G03W\l202.exe)
                          Input orientation:                          
 ---------------------------------------------------------------------
 Center     Atomic     Atomic              Coordinates (Angstroms)
 Number     Number      Type              X           Y           Z
 ---------------------------------------------------------------------
    1          9             0       -0.092540    0.000000    0.000000
    2          1             0        0.832859    0.000000    0.000000
 ---------------------------------------------------------------------
 Stoichiometry    FH
 Framework group  C*V[C*(HF)]
 Deg. of freedom     1
 Full point group                 C*V     NOp   4
 Largest Abelian subgroup         C2V     NOp   4
 Largest concise Abelian subgroup C1      NOp   1
                         Standard orientation:                         
 ---------------------------------------------------------------------
 Center     Atomic     Atomic              Coordinates (Angstroms)
 Number     Number      Type              X           Y           Z
 ---------------------------------------------------------------------
    1          9             0        0.000000    0.000000    0.092540
    2          1             0        0.000000    0.000000   -0.832859
 ---------------------------------------------------------------------
 Rotational constants (GHZ):      0.0000000    616.6271723    616.6271723
 Leave Link  202 at Fri Jul 01 21:21:27 2011, MaxMem=    6291456 cpu:       0.0
 (Enter C:\G03W\l301.exe)
 Standard basis: 6-31G(d,p) (6D, 7F)
 There are    11 symmetry adapted basis functions of A1  symmetry.
 There are     1 symmetry adapted basis functions of A2  symmetry.
 There are     4 symmetry adapted basis functions of B1  symmetry.
 There are     4 symmetry adapted basis functions of B2  symmetry.
 Integral buffers will be    262144 words long.
 Raffenetti 2 integral format.
 Two-electron integral symmetry is turned on.
    20 basis functions,    35 primitive gaussians,    20 cartesian basis functions
     5 alpha electrons        5 beta electrons
       nuclear repulsion energy         5.1465344416 Hartrees.
 IExCor= 402 DFT=T Ex=B+HF Corr=LYP ExCW=0 ScaHFX=  0.200000
 ScaDFX=  0.800000  0.720000  1.000000  0.810000
 IRadAn=      0 IRanWt=     -1 IRanGd=            0 ICorTp=0
 NAtoms=    2 NActive=    2 NUniq=    2 SFac= 1.00D+00 NAtFMM=   60 Big=F
 Leave Link  301 at Fri Jul 01 21:21:27 2011, MaxMem=    6291456 cpu:       0.0
 (Enter C:\G03W\l302.exe)
 NPDir=0 NMtPBC=     1 NCelOv=     1 NCel=       1 NClECP=     1 NCelD=      1
         NCelK=      1 NCelE2=     1 NClLst=     1 CellRange=     0.0.
 One-electron integrals computed using PRISM.
 NBasis=    20 RedAO= T  NBF=    11     1     4     4
 NBsUse=    20 1.00D-06 NBFU=    11     1     4     4
 Precomputing XC quadrature grid using
 IXCGrd= 2 IRadAn=           0 IRanWt=          -1 IRanGd=           0.
 NRdTot=     121 NPtTot=       15338 NUsed=       15888 NTot=       15904
 NSgBfM=    20    20    20    20.
 Leave Link  302 at Fri Jul 01 21:21:28 2011, MaxMem=    6291456 cpu:       0.0
 (Enter C:\G03W\l303.exe)
 DipDrv:  MaxL=1.
 Leave Link  303 at Fri Jul 01 21:21:28 2011, MaxMem=    6291456 cpu:       0.0
 (Enter C:\G03W\l401.exe)
 Initial guess orbitals will be localized.
 Initial guess read from the checkpoint file:
 D:\Dropbox\My Dropbox\Sajat gyujtes\Hehre MOLMOD\01\FH.chk
 Guess basis will be translated and rotated to current coordinates.
 LocMO: Using Boys method
 Initial Trace= 0.17976749D+00 Initial TraceA= 0.20469157D-01
 RMSG= 0.11001770D-09
 LocMO: Using Boys method
 Initial Trace=-0.29064133D+01 Initial TraceA= 0.23832173D+01
 Initial Trace=-0.29064133D+01 Initial TraceA= 0.23832173D+01
 Initial Trace=-0.29064133D+01 Initial TraceA= 0.23832173D+01
 Localization failed after    3 tries of 1000 iterations each.  Last change= 0.11286575D-04
 RMSG= 0.13922115D-05
 Initial guess orbital symmetries:
       Occupied  (SG) (?A) (SG) (?A) (?A)
       Virtual   (?B) (?B) (?B) (?B) (?B) (?B) (?B) (?B) (?B) (?B)
                 (?B) (?B) (?B) (?B) (?B)
 Leave Link  401 at Fri Jul 01 21:21:29 2011, MaxMem=    6291456 cpu:       1.0
 (Enter C:\G03W\l502.exe)
 Closed shell SCF:
 Requested convergence on RMS density matrix=1.00D-08 within 128 cycles.
 Requested convergence on MAX density matrix=1.00D-06.
 Requested convergence on             energy=1.00D-06.
 No special actions if energy rises.
 Using DIIS extrapolation, IDIIS=  1040.
 Integral symmetry usage will be decided dynamically.
        15887 words used for storage of precomputed grid.
 Keep R1 integrals in memory in canonical form, NReq=      491238.
 IEnd=     34659 IEndB=     34659 NGot=   6291456 MDV=   6251731
 LenX=   6251731
 Symmetry not used in FoFDir.
 MinBra= 0 MaxBra= 2 Meth= 1.
 IRaf=       0 NMat=   1 IRICut=       1 DoRegI=T DoRafI=F ISym2E= 0 JSym2E=0.
 A guess orbital has undefined symmetry, so N**3 symmetry is turned off.

 Cycle   1  Pass 1  IDiag  1:
 E= -100.427461599780    
 DIIS: error= 2.40D-09 at cycle   1 NSaved=   1.
 NSaved= 1 IEnMin= 1 EnMin= -100.427461599780     IErMin= 1 ErrMin= 2.40D-09
 ErrMax= 2.40D-09 EMaxC= 1.00D-01 BMatC= 2.36D-16 BMatP= 2.36D-16
 IDIUse=1 WtCom= 1.00D+00 WtEn= 0.00D+00
 Coeff-Com:  0.100D+01
 Coeff:      0.100D+01
 Gap=     2.746 Goal=   None    Shift=    0.000
 RMSDP=9.45D-10 MaxDP=8.77D-09              OVMax= 7.39D-09

 SCF Done:  E(RB+HF-LYP) =  -100.427461600     A.U. after    1 cycles
             Convg  =    0.9454D-09             -V/T =  2.0059
             S**2   =   0.0000
 KE= 9.984254779835D+01 PE=-2.504902446574D+02 EE= 4.507370081768D+01
 Leave Link  502 at Fri Jul 01 21:21:29 2011, MaxMem=    6291456 cpu:       0.0
 (Enter C:\G03W\l801.exe)
 Range of M.O.s used for correlation:     1    20
 NBasis=    20 NAE=     5 NBE=     5 NFC=     0 NFV=     0
 NROrb=     20 NOA=     5 NOB=     5 NVA=    15 NVB=    15
 Leave Link  801 at Fri Jul 01 21:21:30 2011, MaxMem=    6291456 cpu:       0.0
 (Enter C:\G03W\l1101.exe)
 Using compressed storage, NAtomX=     2.
 Will process   3 centers per pass.
 Leave Link 1101 at Fri Jul 01 21:21:30 2011, MaxMem=    6291456 cpu:       0.0
 (Enter C:\G03W\l1102.exe)
 Use density number 0.
 Symmetrizing basis deriv contribution to polar:
 IMax=3 JMax=2 DiffMx= 0.00D+00
 Leave Link 1102 at Fri Jul 01 21:21:31 2011, MaxMem=    6291456 cpu:       1.0
 (Enter C:\G03W\l1110.exe)
 Forming Gx(P) for the SCF density, NAtomX=     2.
 Integral derivatives from FoFDir, PRISM(SPDF).
 Do as many integral derivatives as possible in FoFDir.
 G2DrvN: MDV=       6291442.
 G2DrvN: will do    3 centers at a time, making    1 passes doing MaxLOS=2.
 Petite list used in FoFDir.
 MinBra= 0 MaxBra= 2 Meth= 1.
 IRaf=       0 NMat=   1 IRICut=       1 DoRegI=T DoRafI=F ISym2E= 1 JSym2E=1.
 FoFDir/FoFCou used for L=0 through L=2.
 Leave Link 1110 at Fri Jul 01 21:21:32 2011, MaxMem=    6291456 cpu:       1.0
 (Enter C:\G03W\l1002.exe)
 Minotr:  Closed-shell wavefunction.
          Direct CPHF calculation.
          Solving linear equations simultaneously.
          Differentiating once with respect to electric field.
                with respect to dipole field.
          Differentiating once with respect to nuclear coordinates.
          Using symmetry in CPHF.
          Requested convergence is 1.0D-08 RMS, and 1.0D-07 maximum.
          Secondary convergence is 1.0D-12 RMS, and 1.0D-12 maximum.
          NewPWx=T KeepS1=F KeepF1=F KeepIn=T MapXYZ=F.
          MDV=       6291456 using IRadAn=       2.
          Store integrals in memory, NReq=      452430.
 Symmetry not used in FoFDir.
 MinBra= 0 MaxBra= 2 Meth= 1.
 IRaf=       0 NMat=   1 IRICut=       1 DoRegI=T DoRafI=F ISym2E= 0 JSym2E=0.
          There are   9 degrees of freedom in the 1st order CPHF.
     6 vectors were produced by pass  0.
 AX will form   6 AO Fock derivatives at one time.
     6 vectors were produced by pass  1.
     6 vectors were produced by pass  2.
     6 vectors were produced by pass  3.
     6 vectors were produced by pass  4.
     3 vectors were produced by pass  5.
 Inv2:  IOpt= 1 Iter= 1 AM= 6.18D-16 Conv= 1.00D-12.
 Inverted reduced A of dimension   33 with in-core refinement.
 Isotropic polarizability for W=    0.000000        2.89 Bohr**3.
 End of Minotr Frequency-dependent properties file   721 does not exist.
 Leave Link 1002 at Fri Jul 01 21:21:33 2011, MaxMem=    6291456 cpu:       1.0
 (Enter C:\G03W\l601.exe)
 Copying SCF densities to generalized density rwf, ISCF=0 IROHF=0.

 **********************************************************************

            Population analysis using the SCF density.

 **********************************************************************

 Orbital symmetries:
       Occupied  (SG) (SG) (SG) (PI) (PI)
       Virtual   (SG) (SG) (SG) (PI) (PI) (SG) (PI) (PI) (DLTA)
                 (DLTA) (SG) (PI) (PI) (SG) (SG)
 The electronic state is 1-SG.
 Alpha  occ. eigenvalues --  -24.66310  -1.16883  -0.51803  -0.37691  -0.37691
 Alpha virt. eigenvalues --    0.06685   0.76449   1.08387   1.17509   1.17509
 Alpha virt. eigenvalues --    1.42688   1.61934   1.61934   1.86997   1.86997
 Alpha virt. eigenvalues --    2.49918   2.71682   2.71682   3.62864   3.71521
          Condensed to atoms (all electrons):
              1          2
     1  F    9.101075   0.257004
     2  H    0.257004   0.384917
 Mulliken atomic charges:
              1
     1  F   -0.358079
     2  H    0.358079
 Sum of Mulliken charges=   0.00000
 Atomic charges with hydrogens summed into heavy atoms:
              1
     1  F    0.000000
     2  H    0.000000
 Sum of Mulliken charges=   0.00000
 APT atomic charges:
              1
     1  F   -0.355725
     2  H    0.355725
 Sum of APT charges=   0.00000
 APT Atomic charges with hydrogens summed into heavy atoms:
              1
     1  F    0.000000
     2  H    0.000000
 Sum of APT charges=   0.00000
 Electronic spatial extent (au):  <R**2>=    13.3045
 Charge=     0.0000 electrons
 Dipole moment (field-independent basis, Debye):
    X=     0.0000    Y=     0.0000    Z=    -1.8277  Tot=     1.8277
 Quadrupole moment (field-independent basis, Debye-Ang):
   XX=    -5.3698   YY=    -5.3698   ZZ=    -3.4534
   XY=     0.0000   XZ=     0.0000   YZ=     0.0000
 Traceless Quadrupole moment (field-independent basis, Debye-Ang):
   XX=    -0.6388   YY=    -0.6388   ZZ=     1.2776
   XY=     0.0000   XZ=     0.0000   YZ=     0.0000
 Octapole moment (field-independent basis, Debye-Ang**2):
  XXX=     0.0000  YYY=     0.0000  ZZZ=    -1.6350  XYY=     0.0000
  XXY=     0.0000  XXZ=    -0.1121  XZZ=     0.0000  YZZ=     0.0000
  YYZ=    -0.1121  XYZ=     0.0000
 Hexadecapole moment (field-independent basis, Debye-Ang**3):
 XXXX=    -2.8918 YYYY=    -2.8918 ZZZZ=    -3.0573 XXXY=     0.0000
 XXXZ=     0.0000 YYYX=     0.0000 YYYZ=     0.0000 ZZZX=     0.0000
 ZZZY=     0.0000 XXYY=    -0.9639 XXZZ=    -1.2268 YYZZ=    -1.2268
 XXYZ=     0.0000 YYXZ=     0.0000 ZZXY=     0.0000
 N-N= 5.146534441588D+00 E-N=-2.504902448425D+02  KE= 9.984254779835D+01
 Symmetry A1   KE= 8.708406964325D+01
 Symmetry A2   KE= 9.608329807971D-32
 Symmetry B1   KE= 6.379239077549D+00
 Symmetry B2   KE= 6.379239077549D+00
  Exact polarizability:   2.016   0.000   2.016   0.000   0.000   4.645
 Approx polarizability:   2.263   0.000   2.263   0.000   0.000   5.959
 No NMR shielding tensors so no spin-rotation constants.
 Leave Link  601 at Fri Jul 01 21:21:33 2011, MaxMem=    6291456 cpu:       0.0
 (Enter C:\G03W\l701.exe)
 Compute integral second derivatives.
 ... and contract with generalized density number  0.
 Leave Link  701 at Fri Jul 01 21:21:34 2011, MaxMem=    6291456 cpu:       0.0
 (Enter C:\G03W\l702.exe)
 L702 exits ... SP integral derivatives will be done elsewhere.
 Leave Link  702 at Fri Jul 01 21:21:34 2011, MaxMem=    6291456 cpu:       0.0
 (Enter C:\G03W\l703.exe)
 Compute integral second derivatives, UseDBF=F.
 Integral derivatives from FoFDir, PRISM(SPDF).
 Petite list used in FoFDir.
 MinBra= 0 MaxBra= 2 Meth= 1.
 IRaf=       0 NMat=   1 IRICut=       1 DoRegI=T DoRafI=F ISym2E= 1 JSym2E=1.
 Leave Link  703 at Fri Jul 01 21:21:36 2011, MaxMem=    6291456 cpu:       2.0
 (Enter C:\G03W\l716.exe)
 Dipole        = 0.00000000D+00 2.22839447D-32-7.19069981D-01
 Polarizability= 2.01644182D+00-6.59975200D-13 2.01644182D+00
                -1.35448408D-11 5.44362128D-12 4.64490436D+00
 Full mass-weighted force constant matrix:
 Low frequencies ---   -0.0023   -0.0023   -0.0006   45.4717   45.4717 4084.8594
 Diagonal vibrational polarizability:
        0.0000000       0.0000000       0.0984683
 Harmonic frequencies (cm**-1), IR intensities (KM/Mole), Raman scattering
 activities (A**4/AMU), depolarization ratios for plane and unpolarized
 incident light, reduced masses (AMU), force constants (mDyne/A),
 and normal coordinates:
                     1
                    SG
 Frequencies --  4084.8594
 Red. masses --     1.0583
 Frc consts  --    10.4044
 IR Inten    --    61.0545
 Atom AN      X      Y      Z
   1   9     0.00   0.00   0.05
   2   1     0.00   0.00  -1.00

 -------------------
 - Thermochemistry -
 -------------------
 Temperature   298.150 Kelvin.  Pressure   1.00000 Atm.
 Atom  1 has atomic number  9 and mass  18.99840
 Atom  2 has atomic number  1 and mass   1.00783
 Molecular mass:    20.00623 amu.
 Principal axes and moments of inertia in atomic units:
                           1         2         3
     EIGENVALUES --     0.00000   2.92679   2.92679
           X            0.00000   0.00000   1.00000
           Y            0.00000   1.00000   0.00000
           Z            1.00000   0.00000   0.00000
 This molecule is a prolate symmetric top.
 Rotational symmetry number  1.
 Rotational temperature (Kelvin)     29.59340
 Rotational constant (GHZ):         616.627172
 Zero-point vibrational energy      24432.9 (Joules/Mol)
                                    5.83960 (Kcal/Mol)
 Vibrational temperatures:   5877.19
          (Kelvin)
 
 Zero-point correction=                           0.009306 (Hartree/Particle)
 Thermal correction to Energy=                    0.011666
 Thermal correction to Enthalpy=                  0.012611
 Thermal correction to Gibbs Free Energy=        -0.007107
 Sum of electronic and zero-point Energies=           -100.418156
 Sum of electronic and thermal Energies=              -100.415795
 Sum of electronic and thermal Enthalpies=            -100.414851
 Sum of electronic and thermal Free Energies=         -100.434569
 
                     E (Thermal)             CV                S
                      KCal/Mol        Cal/Mol-Kelvin    Cal/Mol-Kelvin
 Total                    7.321              4.968             41.499
 Electronic               0.000              0.000              0.000
 Translational            0.889              2.981             34.922
 Rotational               0.592              1.987              6.578
 Vibrational              5.840              0.000              0.000
                       Q            Log10(Q)             Ln(Q)
 Total Bot       0.185777D+04          3.268992          7.527131
 Total V=0       0.354359D+08          7.549443         17.383235
 Vib (Bot)       0.524262D-04         -4.280451         -9.856103
 Vib (V=0)       0.100000D+01          0.000000          0.000000
 Electronic      0.100000D+01          0.000000          0.000000
 Translational   0.351725D+07          6.546203         15.073189
 Rotational      0.100749D+02          1.003240          2.310045
 ***** Axes restored to original set *****
 -------------------------------------------------------------------
 Center     Atomic                   Forces (Hartrees/Bohr)
 Number     Number              X              Y              Z
 -------------------------------------------------------------------
    1          9           0.000019553    0.000000000    0.000000000
    2          1          -0.000019553    0.000000000    0.000000000
 -------------------------------------------------------------------
 Cartesian Forces:  Max     0.000019553 RMS     0.000011289
 Force constants in Cartesian coordinates: 
                1             2             3             4             5
      1  0.604342D+00
      2  0.000000D+00  0.748877D-04
      3  0.000000D+00  0.000000D+00  0.748877D-04
      4 -0.604342D+00  0.000000D+00  0.000000D+00  0.604342D+00
      5  0.000000D+00 -0.748877D-04  0.000000D+00  0.000000D+00  0.748877D-04
      6  0.000000D+00  0.000000D+00 -0.748877D-04  0.000000D+00  0.000000D+00
                6
      6  0.748877D-04
 Force constants in internal coordinates: 
                1
      1  0.604342D+00
 Leave Link  716 at Fri Jul 01 21:21:36 2011, MaxMem=    6291456 cpu:       0.0
 (Enter C:\G03W\l103.exe)

 GradGradGradGradGradGradGradGradGradGradGradGradGradGradGradGradGradGrad
 Berny optimization.
 Internal  Forces:  Max     0.000019553 RMS     0.000019553
 Search for a local minimum.
 Step number   1 out of a maximum of   2
 All quantities printed in internal units (Hartrees-Bohrs-Radians)
 Second derivative matrix not updated -- analytic derivatives used.
 The second derivative matrix:
                          R1
           R1           0.60434
     Eigenvalues ---    0.60434
 Angle between quadratic step and forces=   0.00 degrees.
 Linear search not attempted -- first point.
 Iteration  1 RMS(Cart)=  0.00002288 RMS(Int)=  0.00000000
 Iteration  2 RMS(Cart)=  0.00000000 RMS(Int)=  0.00000000
 Variable       Old X    -DE/DX   Delta X   Delta X   Delta X     New X
                                 (Linear)    (Quad)   (Total)
    R1        1.74875  -0.00002   0.00000  -0.00003  -0.00003   1.74872
         Item               Value     Threshold  Converged?
 Maximum Force            0.000020     0.000450     YES
 RMS     Force            0.000020     0.000300     YES
 Maximum Displacement     0.000016     0.001800     YES
 RMS     Displacement     0.000023     0.001200     YES
 Predicted change in Energy=-3.163184D-10
 Optimization completed.
    -- Stationary point found.
                           ----------------------------
                           !   Optimized Parameters   !
                           ! (Angstroms and Degrees)  !
 --------------------------                            --------------------------
 ! Name  Definition              Value          Derivative Info.                !
 --------------------------------------------------------------------------------
 ! R1    R(1,2)                  0.9254         -DE/DX =    0.0                 !
 --------------------------------------------------------------------------------
 GradGradGradGradGradGradGradGradGradGradGradGradGradGradGradGradGradGrad

 Leave Link  103 at Fri Jul 01 21:21:36 2011, MaxMem=    6291456 cpu:       0.0
 (Enter C:\G03W\l9999.exe)
 1|1|UNPC-UNK|Freq|RB3LYP|6-31G(d,p)|F1H1|PCUSER|01-Jul-2011|0||#P GEOM
 =ALLCHECK GUESS=READ SCRF=CHECK GENCHK RB3LYP/6-31G(D,P) FREQ||FH||0,1
 |F,-0.0925398427,0.,0.|H,0.8328585839,0.,0.||Version=x86-Win32-G03RevB
 .03|State=1-SG|HF=-100.4274616|RMSD=9.454e-010|RMSF=1.129e-005|Dipole=
 0.71907,0.,0.|DipoleDeriv=-0.2448227,0.,0.,0.,-0.4111761,0.,0.,0.,-0.4
 111761,0.2448227,0.,0.,0.,0.4111761,0.,0.,0.,0.4111761|Polar=4.6449044
 ,0.,2.0164418,0.,0.,2.0164418|PG=C*V [C*(H1F1)]|NImag=0||0.60434189,0.
 ,0.00007489,0.,0.,0.00007489,-0.60434189,0.,0.,0.60434189,0.,-0.000074
 89,0.,0.,0.00007489,0.,0.,-0.00007489,0.,0.,0.00007489||-0.00001955,0.
 ,0.,0.00001955,0.,0.|||@


 A ROPE OVER THE TOP OF A FENCE HAS THE SAME LENGTH ON EACH SIDE.
 WEIGHS 1/3 POUND PER FOOT.  ON ONE END HANGS A MONKEY HOLDING A
 BANANA, AND ON THE OTHER END A WEIGHT EQUAL TO THE WEIGHT
 OF THE MONKEY.  THE BANANA WEIGHS TWO OUNCES PER INCH.
 THE ROPE IS AS LONG AS THE AGE OF THE MONKEY, 
 AND THE WEIGHT OF THE MONKEY (IN OUNCES) IS AS MUCH
 AS THE AGE OF THE MONKEY'S MOTHER.  THE COMBINED AGES OF MONKEY
 AND MOTHER ARE THIRTY YEARS.  HALF THE WEIGHT OF THE MONKEY,
  PLUS THE WEIGHT OF THE BANANA, IS ONE FOURTH AS MUCH AS THE WEIGHT
 OF THE WEIGHT AND THE ROPE.
 THE MONKEY'S MOTHER IS HALF AS OLD AS THE MONKEY WILL BE
 WHEN IT IS 3 TIMES AS OLD AS ITS MOTHER WAS WHEN
 SHE WAS HALF AS OLD AS THE MONKEY WILL BE WHEN IT IS
 AS OLD AS ITS MOTHER WILL BE WHEN SHE IS 4 TIMES AS
 OLD AS THE MONKEY WAS WHEN IT WAS TWICE AS OLD AS 
 ITS MOTHER WAS WHEN SHE WAS ONE THIRD AS OLD AS THE
 MONKEY WAS WHEN IT WAS AS OLD AS ITS MOTHER WAS WHEN 
 SHE WAS 3 TIMES AS OLD AS THE MONKEY WAS WHEN IT WAS AS OLD AS ITS
 MOTHER WAS WHEN SHE WAS 3 TIMES AS OLD AS THE MONKEY 
 WAS WHEN IT WAS ONE FOURTH WAS OLD AS IT IS NOW.

 HOW LONG IS THE BANANA?
 Job cpu time:  0 days  0 hours  0 minutes 11.0 seconds.
 File lengths (MBytes):  RWF=     11 Int=      0 D2E=      0 Chk=      4 Scr=      1
 Normal termination of Gaussian 03 at Fri Jul 01 21:21:37 2011.
