 Entering Link 1 = C:\G03W\l1.exe PID=       444.
  
 Copyright (c) 1988,1990,1992,1993,1995,1998,2003, Gaussian, Inc.
                  All Rights Reserved.
  
 This is the Gaussian(R) 03 program.  It is based on the
 the Gaussian(R) 98 system (copyright 1998, Gaussian, Inc.),
 the Gaussian(R) 94 system (copyright 1995, Gaussian, Inc.),
 the Gaussian 92(TM) system (copyright 1992, Gaussian, Inc.),
 the Gaussian 90(TM) system (copyright 1990, Gaussian, Inc.),
 the Gaussian 88(TM) system (copyright 1988, Gaussian, Inc.),
 the Gaussian 86(TM) system (copyright 1986, Carnegie Mellon
 University), and the Gaussian 82(TM) system (copyright 1983,
 Carnegie Mellon University). Gaussian is a federally registered
 trademark of Gaussian, Inc.
  
 This software contains proprietary and confidential information,
 including trade secrets, belonging to Gaussian, Inc.
  
 This software is provided under written license and may be
 used, copied, transmitted, or stored only in accord with that
 written license.
  
 The following legend is applicable only to US Government
 contracts under DFARS:
  
                    RESTRICTED RIGHTS LEGEND
  
 Use, duplication or disclosure by the US Government is subject
 to restrictions as set forth in subparagraph (c)(1)(ii) of the
 Rights in Technical Data and Computer Software clause at DFARS
 252.227-7013.
  
 Gaussian, Inc.
 Carnegie Office Park, Building 6, Pittsburgh, PA 15106 USA
  
 The following legend is applicable only to US Government
 contracts under FAR:
  
                    RESTRICTED RIGHTS LEGEND
  
 Use, reproduction and disclosure by the US Government is subject
 to restrictions as set forth in subparagraph (c) of the
 Commercial Computer Software - Restricted Rights clause at FAR
 52.227-19.
  
 Gaussian, Inc.
 Carnegie Office Park, Building 6, Pittsburgh, PA 15106 USA
  
  
 ---------------------------------------------------------------
 Warning -- This program may not be used in any manner that
 competes with the business of Gaussian, Inc. or will provide
 assistance to any competitor of Gaussian, Inc.  The licensee
 of this program is prohibited from giving any competitor of
 Gaussian, Inc. access to this program.  By using this program,
 the user acknowledges that Gaussian, Inc. is engaged in the
 business of creating and licensing software in the field of
 computational chemistry and represents and warrants to the
 licensee that it is not a competitor of Gaussian, Inc. and that
 it will not use this program in any manner prohibited above.
 ---------------------------------------------------------------
  

 Cite this work as:
 Gaussian 03, Revision B.03,
 M. J. Frisch, G. W. Trucks, H. B. Schlegel, G. E. Scuseria, 
 M. A. Robb, J. R. Cheeseman, J. A. Montgomery, Jr., T. Vreven, 
 K. N. Kudin, J. C. Burant, J. M. Millam, S. S. Iyengar, J. Tomasi, 
 V. Barone, B. Mennucci, M. Cossi, G. Scalmani, N. Rega, 
 G. A. Petersson, H. Nakatsuji, M. Hada, M. Ehara, K. Toyota, 
 R. Fukuda, J. Hasegawa, M. Ishida, T. Nakajima, Y. Honda, O. Kitao, 
 H. Nakai, M. Klene, X. Li, J. E. Knox, H. P. Hratchian, J. B. Cross, 
 C. Adamo, J. Jaramillo, R. Gomperts, R. E. Stratmann, O. Yazyev, 
 A. J. Austin, R. Cammi, C. Pomelli, J. W. Ochterski, P. Y. Ayala, 
 K. Morokuma, G. A. Voth, P. Salvador, J. J. Dannenberg, 
 V. G. Zakrzewski, S. Dapprich, A. D. Daniels, M. C. Strain, 
 O. Farkas, D. K. Malick, A. D. Rabuck, K. Raghavachari, 
 J. B. Foresman, J. V. Ortiz, Q. Cui, A. G. Baboul, S. Clifford, 
 J. Cioslowski, B. B. Stefanov, G. Liu, A. Liashenko, P. Piskorz, 
 I. Komaromi, R. L. Martin, D. J. Fox, T. Keith, M. A. Al-Laham, 
 C. Y. Peng, A. Nanayakkara, M. Challacombe, P. M. W. Gill, 
 B. Johnson, W. Chen, M. W. Wong, C. Gonzalez, and J. A. Pople, 
 Gaussian, Inc., Pittsburgh PA, 2003.
 
 *********************************************
 Gaussian 03:  x86-Win32-G03RevB.03 4-May-2003
                  01-Jul-2011 
 *********************************************
 %chk=D:\Dropbox\My Dropbox\Sajat gyujtes\Hehre MOLMOD\01\H2.chk
 Default route:  MaxDisk=2000MB
 -----------------------------------------------------------------
 #p opt freq b3lyp/6-31g(d,p) guess=(local,save) geom=connectivity
 -----------------------------------------------------------------
 1/14=-1,18=20,26=3,38=1,57=2/1,3;
 2/9=110,17=6,18=5,40=1/2;
 3/5=1,6=6,7=101,11=2,16=1,25=1,30=1,74=-5/1,2,3;
 4/9=10/1;
 5/5=2,38=5/2;
 6/7=2,8=2,9=2,10=2,28=1/1;
 7//1,2,3,16;
 1/14=-1,18=20/3(1);
 99//99;
 2/9=110/2;
 3/5=1,6=6,7=101,11=2,16=1,25=1,30=1,74=-5/1,2,3;
 4/5=5,16=3/1;
 5/5=2,38=5/2;
 7//1,2,3,16;
 1/14=-1,18=20/3(-5);
 2/9=110/2;
 6/7=2,8=2,9=2,10=2,19=2,28=1/1;
 99/9=1/99;
 Leave Link    1 at Fri Jul 01 20:29:19 2011, MaxMem=          0 cpu:       0.0
 (Enter C:\G03W\l101.exe)
 --
 H2
 --
 Symbolic Z-matrix:
 Charge =  0 Multiplicity = 1
 H                     4.48182  -0.27273   0. 
 H                     3.88182  -0.27273   0. 
 
                    Isotopes and Nuclear Properties:

  Atom         1           2
 IAtWgt=           1           1
 AtmWgt=   1.0078250   1.0078250
 IAtSpn=           1           1
 AtZEff=   0.0000000   0.0000000
 AtQMom=   0.0000000   0.0000000
 AtGFac=   2.7928460   2.7928460
 Leave Link  101 at Fri Jul 01 20:29:20 2011, MaxMem=    6291456 cpu:       0.0
 (Enter C:\G03W\l103.exe)

 GradGradGradGradGradGradGradGradGradGradGradGradGradGradGradGradGradGrad
 Berny optimization.
 Initialization pass.
                           ----------------------------
                           !    Initial Parameters    !
                           ! (Angstroms and Degrees)  !
 --------------------------                            --------------------------
 ! Name  Definition              Value          Derivative Info.                !
 --------------------------------------------------------------------------------
 ! R1    R(1,2)                  0.6            estimate D2E/DX2                !
 --------------------------------------------------------------------------------
 Trust Radius=3.00D-01 FncErr=1.00D-07 GrdErr=1.00D-06
 Number of steps in this run=  20 maximum allowed number of steps= 100.
 GradGradGradGradGradGradGradGradGradGradGradGradGradGradGradGradGradGrad

 Leave Link  103 at Fri Jul 01 20:29:20 2011, MaxMem=    6291456 cpu:       0.0
 (Enter C:\G03W\l202.exe)
                          Input orientation:                          
 ---------------------------------------------------------------------
 Center     Atomic     Atomic              Coordinates (Angstroms)
 Number     Number      Type              X           Y           Z
 ---------------------------------------------------------------------
    1          1             0        4.481818   -0.272727    0.000000
    2          1             0        3.881818   -0.272727    0.000000
 ---------------------------------------------------------------------
 Stoichiometry    H2
 Framework group  D*H[C*(H.H)]
 Deg. of freedom     1
 Full point group                 D*H     NOp   8
 Largest Abelian subgroup         D2H     NOp   8
 Largest concise Abelian subgroup C2      NOp   2
                         Standard orientation:                         
 ---------------------------------------------------------------------
 Center     Atomic     Atomic              Coordinates (Angstroms)
 Number     Number      Type              X           Y           Z
 ---------------------------------------------------------------------
    1          1             0        0.000000    0.000000    0.300000
    2          1             0        0.000000    0.000000   -0.300000
 ---------------------------------------------------------------------
 Rotational constants (GHZ):      0.0000000   2785.8616714   2785.8616714
 Leave Link  202 at Fri Jul 01 20:29:21 2011, MaxMem=    6291456 cpu:       0.0
 (Enter C:\G03W\l301.exe)
 Standard basis: 6-31G(d,p) (6D, 7F)
 There are     3 symmetry adapted basis functions of AG  symmetry.
 There are     0 symmetry adapted basis functions of B1G symmetry.
 There are     1 symmetry adapted basis functions of B2G symmetry.
 There are     1 symmetry adapted basis functions of B3G symmetry.
 There are     0 symmetry adapted basis functions of AU  symmetry.
 There are     3 symmetry adapted basis functions of B1U symmetry.
 There are     1 symmetry adapted basis functions of B2U symmetry.
 There are     1 symmetry adapted basis functions of B3U symmetry.
 Integral buffers will be    262144 words long.
 Raffenetti 2 integral format.
 Two-electron integral symmetry is turned on.
    10 basis functions,    14 primitive gaussians,    10 cartesian basis functions
     1 alpha electrons        1 beta electrons
       nuclear repulsion energy         0.8819620138 Hartrees.
 IExCor= 402 DFT=T Ex=B+HF Corr=LYP ExCW=0 ScaHFX=  0.200000
 ScaDFX=  0.800000  0.720000  1.000000  0.810000
 IRadAn=      0 IRanWt=     -1 IRanGd=            0 ICorTp=0
 NAtoms=    2 NActive=    2 NUniq=    1 SFac= 5.66D+00 NAtFMM=   60 Big=F
 Leave Link  301 at Fri Jul 01 20:29:21 2011, MaxMem=    6291456 cpu:       0.0
 (Enter C:\G03W\l302.exe)
 NPDir=0 NMtPBC=     1 NCelOv=     1 NCel=       1 NClECP=     1 NCelD=      1
         NCelK=      1 NCelE2=     1 NClLst=     1 CellRange=     0.0.
 One-electron integrals computed using PRISM.
 One-electron integral symmetry used in STVInt
 NBasis=    10 RedAO= T  NBF=     3     0     1     1     0     3     1     1
 NBsUse=    10 1.00D-06 NBFU=     3     0     1     1     0     3     1     1
 Precomputing XC quadrature grid using
 IXCGrd= 2 IRadAn=           0 IRanWt=          -1 IRanGd=           0.
 NRdTot=     120 NPtTot=       15168 NUsed=       15713 NTot=       15729
 NSgBfM=    10    10    10    10.
 Leave Link  302 at Fri Jul 01 20:29:22 2011, MaxMem=    6291456 cpu:       0.0
 (Enter C:\G03W\l303.exe)
 DipDrv:  MaxL=1.
 Leave Link  303 at Fri Jul 01 20:29:22 2011, MaxMem=    6291456 cpu:       0.0
 (Enter C:\G03W\l401.exe)
 Initial guess orbitals will be localized.
 Harris functional with IExCor=  402 diagonalized for initial guess.
 ExpMin= 1.61D-01 ExpMax= 1.87D+01 ExpMxC= 1.87D+01 IAcc=1 IRadAn=         1 AccDes= 1.00D-06
 HarFok:  IExCor= 402 AccDes= 1.00D-06 IRadAn=         1 IDoV=1
 ScaDFX=  1.000000  1.000000  1.000000  1.000000
 Harris En= -1.17552371976483    
 LocMO: Using Boys method
 Initial Trace=-0.14335854D-15 Initial TraceA= 0.49838102D-31
 RMSG= 0.13053179D-08
 Initial guess orbital symmetries:
       Occupied  (SGG)
       Virtual   (?A) (?A) (?A) (?A) (?A) (?A) (?A) (?A) (?A)
 The electronic state of the initial guess is 1-SGG.
 Leave Link  401 at Fri Jul 01 20:29:23 2011, MaxMem=    6291456 cpu:       0.0
 (Enter C:\G03W\l502.exe)
 Closed shell SCF:
 Requested convergence on RMS density matrix=1.00D-08 within 128 cycles.
 Requested convergence on MAX density matrix=1.00D-06.
 Requested convergence on             energy=1.00D-06.
 No special actions if energy rises.
 Using DIIS extrapolation, IDIIS=  1040.
 Integral symmetry usage will be decided dynamically.
        15712 words used for storage of precomputed grid.
 Keep R1 integrals in memory in canonical form, NReq=      436653.
 IEnd=     34494 IEndB=     34494 NGot=   6291456 MDV=   6272511
 LenX=   6272511
 Symmetry not used in FoFDir.
 MinBra= 0 MaxBra= 1 Meth= 1.
 IRaf=       0 NMat=   1 IRICut=       1 DoRegI=T DoRafI=F ISym2E= 0 JSym2E=0.
 Integral accuracy reduced to 1.0D-05 until final iterations.

 Cycle   1  Pass 0  IDiag  1:
 E= -1.15066097255899    
 DIIS: error= 3.02D-02 at cycle   1 NSaved=   1.
 NSaved= 1 IEnMin= 1 EnMin= -1.15066097255899     IErMin= 1 ErrMin= 3.02D-02
 ErrMax= 3.02D-02 EMaxC= 1.00D-01 BMatC= 5.41D-03 BMatP= 5.41D-03
 IDIUse=3 WtCom= 6.98D-01 WtEn= 3.02D-01
 Coeff-Com:  0.100D+01
 Coeff-En:   0.100D+01
 Coeff:      0.100D+01
 Gap=     1.137 Goal=   None    Shift=    0.000
 Fock symm off for IB=3 I1=    1 I=    4 J=    3 Cut=1.00D-04 Err=1.93D-01
 Fock matrix is not symmetric: symmetry in diagonalization turned off.
 GapD=    1.137 DampG=2.000 DampE=0.500 DampFc=1.0000 IDamp=-1.
 RMSDP=8.17D-03 MaxDP=3.34D-02              OVMax= 7.23D-02

 Cycle   2  Pass 0  IDiag  1:
 E= -1.15887474161113     Delta-E=       -0.008213769052 Rises=F Damp=F
 DIIS: error= 7.27D-03 at cycle   2 NSaved=   2.
 NSaved= 2 IEnMin= 2 EnMin= -1.15887474161113     IErMin= 2 ErrMin= 7.27D-03
 ErrMax= 7.27D-03 EMaxC= 1.00D-01 BMatC= 2.74D-04 BMatP= 5.41D-03
 IDIUse=3 WtCom= 9.27D-01 WtEn= 7.27D-02
 Coeff-Com:  0.183D+00 0.817D+00
 Coeff-En:   0.000D+00 0.100D+01
 Coeff:      0.170D+00 0.830D+00
 Gap=     0.605 Goal=   None    Shift=    0.000
 RMSDP=1.39D-03 MaxDP=5.51D-03 DE=-8.21D-03 OVMax= 1.28D-02

 Cycle   3  Pass 0  IDiag  1:
 E= -1.15927887226164     Delta-E=       -0.000404130651 Rises=F Damp=F
 DIIS: error= 7.51D-05 at cycle   3 NSaved=   3.
 NSaved= 3 IEnMin= 3 EnMin= -1.15927887226164     IErMin= 3 ErrMin= 7.51D-05
 ErrMax= 7.51D-05 EMaxC= 1.00D-01 BMatC= 3.27D-08 BMatP= 2.74D-04
 IDIUse=1 WtCom= 1.00D+00 WtEn= 0.00D+00
 Coeff-Com: -0.111D-01-0.390D-01 0.105D+01
 Coeff:     -0.111D-01-0.390D-01 0.105D+01
 Gap=     0.604 Goal=   None    Shift=    0.000
 RMSDP=1.83D-05 MaxDP=7.55D-05 DE=-4.04D-04 OVMax= 1.52D-04

 Cycle   4  Pass 0  IDiag  1:
 E= -1.15927892760218     Delta-E=       -0.000000055341 Rises=F Damp=F
 DIIS: error= 7.82D-07 at cycle   4 NSaved=   4.
 NSaved= 4 IEnMin= 4 EnMin= -1.15927892760218     IErMin= 4 ErrMin= 7.82D-07
 ErrMax= 7.82D-07 EMaxC= 1.00D-01 BMatC= 2.54D-12 BMatP= 3.27D-08
 IDIUse=1 WtCom= 1.00D+00 WtEn= 0.00D+00
 Coeff-Com: -0.889D-05 0.150D-03 0.119D-01 0.988D+00
 Coeff:     -0.889D-05 0.150D-03 0.119D-01 0.988D+00
 Gap=     0.604 Goal=   None    Shift=    0.000
 RMSDP=6.10D-08 MaxDP=1.63D-07 DE=-5.53D-08 OVMax= 7.52D-07

 Initial convergence to 1.0D-05 achieved.  Increase integral accuracy.
 Cycle   5  Pass 1  IDiag  1:
 E= -1.15928036121612     Delta-E=       -0.000001433614 Rises=F Damp=F
 DIIS: error= 1.92D-07 at cycle   1 NSaved=   1.
 NSaved= 1 IEnMin= 1 EnMin= -1.15928036121612     IErMin= 1 ErrMin= 1.92D-07
 ErrMax= 1.92D-07 EMaxC= 1.00D-01 BMatC= 1.79D-13 BMatP= 1.79D-13
 IDIUse=1 WtCom= 1.00D+00 WtEn= 0.00D+00
 Coeff-Com:  0.100D+01
 Coeff:      0.100D+01
 Gap=     0.604 Goal=   None    Shift=    0.000
 RMSDP=6.10D-08 MaxDP=1.63D-07 DE=-1.43D-06 OVMax= 1.68D-07

 Cycle   6  Pass 1  IDiag  1:
 E= -1.15928036121625     Delta-E=        0.000000000000 Rises=F Damp=F
 DIIS: error= 1.44D-08 at cycle   2 NSaved=   2.
 NSaved= 2 IEnMin= 2 EnMin= -1.15928036121625     IErMin= 2 ErrMin= 1.44D-08
 ErrMax= 1.44D-08 EMaxC= 1.00D-01 BMatC= 1.19D-15 BMatP= 1.79D-13
 IDIUse=1 WtCom= 1.00D+00 WtEn= 0.00D+00
 Coeff-Com:  0.180D-01 0.982D+00
 Coeff:      0.180D-01 0.982D+00
 Gap=     0.604 Goal=   None    Shift=    0.000
 RMSDP=4.03D-09 MaxDP=1.65D-08 DE=-1.24D-13 OVMax= 3.41D-08

 SCF Done:  E(RB+HF-LYP) =  -1.15928036122     A.U. after    6 cycles
             Convg  =    0.4031D-08             -V/T =  1.8944
             S**2   =   0.0000
 KE= 1.296171890541D+00 PE=-4.005262757125D+00 EE= 6.678484915350D-01
 Leave Link  502 at Fri Jul 01 20:29:24 2011, MaxMem=    6291456 cpu:       1.0
 (Enter C:\G03W\l601.exe)
 Copying SCF densities to generalized density rwf, ISCF=0 IROHF=0.

 **********************************************************************

            Population analysis using the SCF density.

 **********************************************************************

 Orbital symmetries:
       Occupied  (SGG)
       Virtual   (SGU) (SGG) (SGU) (PIU) (PIU) (SGG) (PIG) (PIG)
                 (SGU)
 The electronic state is 1-SGG.
 Alpha  occ. eigenvalues --   -0.46409
 Alpha virt. eigenvalues --    0.14027   0.52464   1.17748   1.67786   1.67786
 Alpha virt. eigenvalues --    2.63604   2.77867   2.77867   5.27445
          Condensed to atoms (all electrons):
              1          2
     1  H    0.563980   0.436020
     2  H    0.436020   0.563980
 Mulliken atomic charges:
              1
     1  H    0.000000
     2  H    0.000000
 Sum of Mulliken charges=   0.00000
 Atomic charges with hydrogens summed into heavy atoms:
              1
     1  H    0.000000
     2  H    0.000000
 Sum of Mulliken charges=   0.00000
 Electronic spatial extent (au):  <R**2>=     4.4603
 Charge=     0.0000 electrons
 Dipole moment (field-independent basis, Debye):
    X=     0.0000    Y=     0.0000    Z=     0.0000  Tot=     0.0000
 Quadrupole moment (field-independent basis, Debye-Ang):
   XX=    -1.8361   YY=    -1.8361   ZZ=    -1.4626
   XY=     0.0000   XZ=     0.0000   YZ=     0.0000
 Traceless Quadrupole moment (field-independent basis, Debye-Ang):
   XX=    -0.1245   YY=    -0.1245   ZZ=     0.2490
   XY=     0.0000   XZ=     0.0000   YZ=     0.0000
 Octapole moment (field-independent basis, Debye-Ang**2):
  XXX=     0.0000  YYY=     0.0000  ZZZ=     0.0000  XYY=     0.0000
  XXY=     0.0000  XXZ=     0.0000  XZZ=     0.0000  YZZ=     0.0000
  YYZ=     0.0000  XYZ=     0.0000
 Hexadecapole moment (field-independent basis, Debye-Ang**3):
 XXXX=    -1.5853 YYYY=    -1.5853 ZZZZ=    -2.0999 XXXY=     0.0000
 XXXZ=     0.0000 YYYX=     0.0000 YYYZ=     0.0000 ZZZX=     0.0000
 ZZZY=     0.0000 XXYY=    -0.5284 XXZZ=    -0.6212 YYZZ=    -0.6212
 XXYZ=     0.0000 YYXZ=     0.0000 ZZXY=     0.0000
 N-N= 8.819620138333D-01 E-N=-4.005262782448D+00  KE= 1.296171890541D+00
 Symmetry AG   KE= 1.296171890541D+00
 Symmetry B1G  KE= 0.000000000000D+00
 Symmetry B2G  KE= 3.702061369740D-33
 Symmetry B3G  KE= 5.316699864882D-33
 Symmetry AU   KE= 0.000000000000D+00
 Symmetry B1U  KE= 3.671621280310D-17
 Symmetry B2U  KE= 4.019196887330D-33
 Symmetry B3U  KE= 1.389135577142D-31
 No NMR shielding tensors so no spin-rotation constants.
 Leave Link  601 at Fri Jul 01 20:29:25 2011, MaxMem=    6291456 cpu:       1.0
 (Enter C:\G03W\l701.exe)
 Compute integral first derivatives.
 ... and contract with generalized density number  0.
 Leave Link  701 at Fri Jul 01 20:29:25 2011, MaxMem=    6291456 cpu:       0.0
 (Enter C:\G03W\l702.exe)
 L702 exits ... SP integral derivatives will be done elsewhere.
 Leave Link  702 at Fri Jul 01 20:29:25 2011, MaxMem=    6291456 cpu:       0.0
 (Enter C:\G03W\l703.exe)
 Compute integral first derivatives, UseDBF=F.
 Integral derivatives from FoFDir, PRISM(SPDF).
 Petite list used in FoFDir.
 MinBra= 0 MaxBra= 1 Meth= 1.
 IRaf=       0 NMat=   1 IRICut=       1 DoRegI=T DoRafI=F ISym2E= 1 JSym2E=1.
 Leave Link  703 at Fri Jul 01 20:29:26 2011, MaxMem=    6291456 cpu:       0.0
 (Enter C:\G03W\l716.exe)
 Dipole        =-1.35585468D-31 1.93397973D-32 0.00000000D+00
 ***** Axes restored to original set *****
 -------------------------------------------------------------------
 Center     Atomic                   Forces (Hartrees/Bohr)
 Number     Number              X              Y              Z
 -------------------------------------------------------------------
    1          1           0.168350585    0.000000000    0.000000000
    2          1          -0.168350585    0.000000000    0.000000000
 -------------------------------------------------------------------
 Cartesian Forces:  Max     0.168350585 RMS     0.097197256
 Leave Link  716 at Fri Jul 01 20:29:26 2011, MaxMem=    6291456 cpu:       0.0
 (Enter C:\G03W\l103.exe)

 GradGradGradGradGradGradGradGradGradGradGradGradGradGradGradGradGradGrad
 Berny optimization.
 Internal  Forces:  Max     0.168350585 RMS     0.168350585
 Search for a local minimum.
 Step number   1 out of a maximum of  20
 All quantities printed in internal units (Hartrees-Bohrs-Radians)
 Second derivative matrix not updated -- first step.
 The second derivative matrix:
                          R1
           R1           0.66291
     Eigenvalues ---    0.66291
 RFO step:  Lambda=-4.03032530D-02.
 Linear search not attempted -- first point.
 Iteration  1 RMS(Cart)=  0.14142136 RMS(Int)=  0.03940073
 Iteration  2 RMS(Cart)=  0.02786052 RMS(Int)=  0.00000000
 Iteration  3 RMS(Cart)=  0.00000000 RMS(Int)=  0.00000000
 Variable       Old X    -DE/DX   Delta X   Delta X   Delta X     New X
                                 (Linear)    (Quad)   (Total)
    R1        1.13384   0.16835   0.00000   0.23940   0.23940   1.37324
         Item               Value     Threshold  Converged?
 Maximum Force            0.168351     0.000450     NO 
 RMS     Force            0.168351     0.000300     NO 
 Maximum Displacement     0.119700     0.001800     NO 
 RMS     Displacement     0.169282     0.001200     NO 
 Predicted change in Energy=-2.130657D-02
 GradGradGradGradGradGradGradGradGradGradGradGradGradGradGradGradGradGrad

 Leave Link  103 at Fri Jul 01 20:29:27 2011, MaxMem=    6291456 cpu:       0.0
 (Enter C:\G03W\l202.exe)
                          Input orientation:                          
 ---------------------------------------------------------------------
 Center     Atomic     Atomic              Coordinates (Angstroms)
 Number     Number      Type              X           Y           Z
 ---------------------------------------------------------------------
    1          1             0        4.545161   -0.272727    0.000000
    2          1             0        3.818475   -0.272727    0.000000
 ---------------------------------------------------------------------
 Stoichiometry    H2
 Framework group  D*H[C*(H.H)]
 Deg. of freedom     1
 Full point group                 D*H     NOp   8
 Largest Abelian subgroup         D2H     NOp   8
 Largest concise Abelian subgroup C2      NOp   2
                         Standard orientation:                         
 ---------------------------------------------------------------------
 Center     Atomic     Atomic              Coordinates (Angstroms)
 Number     Number      Type              X           Y           Z
 ---------------------------------------------------------------------
    1          1             0        0.000000    0.000000    0.363343
    2          1             0        0.000000    0.000000   -0.363343
 ---------------------------------------------------------------------
 Rotational constants (GHZ):      0.0000000   1899.1932919   1899.1932919
 Leave Link  202 at Fri Jul 01 20:29:27 2011, MaxMem=    6291456 cpu:       0.0
 (Enter C:\G03W\l301.exe)
 Standard basis: 6-31G(d,p) (6D, 7F)
 There are     3 symmetry adapted basis functions of AG  symmetry.
 There are     0 symmetry adapted basis functions of B1G symmetry.
 There are     1 symmetry adapted basis functions of B2G symmetry.
 There are     1 symmetry adapted basis functions of B3G symmetry.
 There are     0 symmetry adapted basis functions of AU  symmetry.
 There are     3 symmetry adapted basis functions of B1U symmetry.
 There are     1 symmetry adapted basis functions of B2U symmetry.
 There are     1 symmetry adapted basis functions of B3U symmetry.
 Integral buffers will be    262144 words long.
 Raffenetti 2 integral format.
 Two-electron integral symmetry is turned on.
    10 basis functions,    14 primitive gaussians,    10 cartesian basis functions
     1 alpha electrons        1 beta electrons
       nuclear repulsion energy         0.7282067331 Hartrees.
 IExCor= 402 DFT=T Ex=B+HF Corr=LYP ExCW=0 ScaHFX=  0.200000
 ScaDFX=  0.800000  0.720000  1.000000  0.810000
 IRadAn=      0 IRanWt=     -1 IRanGd=            0 ICorTp=0
 NAtoms=    2 NActive=    2 NUniq=    1 SFac= 5.66D+00 NAtFMM=   60 Big=F
 Leave Link  301 at Fri Jul 01 20:29:28 2011, MaxMem=    6291456 cpu:       0.0
 (Enter C:\G03W\l302.exe)
 NPDir=0 NMtPBC=     1 NCelOv=     1 NCel=       1 NClECP=     1 NCelD=      1
         NCelK=      1 NCelE2=     1 NClLst=     1 CellRange=     0.0.
 One-electron integrals computed using PRISM.
 One-electron integral symmetry used in STVInt
 NBasis=    10 RedAO= T  NBF=     3     0     1     1     0     3     1     1
 NBsUse=    10 1.00D-06 NBFU=     3     0     1     1     0     3     1     1
 Precomputing XC quadrature grid using
 IXCGrd= 2 IRadAn=           0 IRanWt=          -1 IRanGd=           0.
 NRdTot=     120 NPtTot=       15168 NUsed=       15713 NTot=       15729
 NSgBfM=    10    10    10    10.
 Leave Link  302 at Fri Jul 01 20:29:28 2011, MaxMem=    6291456 cpu:       0.0
 (Enter C:\G03W\l303.exe)
 DipDrv:  MaxL=1.
 Leave Link  303 at Fri Jul 01 20:29:28 2011, MaxMem=    6291456 cpu:       0.0
 (Enter C:\G03W\l401.exe)
 Initial guess read from the read-write file:
 Guess basis will be translated and rotated to current coordinates.
 Initial guess orbital symmetries:
       Occupied  (SGG)
       Virtual   (SGU) (SGG) (SGU) (PIU) (PIU) (SGG) (PIG) (PIG)
                 (SGU)
 The electronic state of the initial guess is 1-SGG.
 Generating alternative initial guess.
 Harris functional with IExCor=  402 diagonalized for initial guess.
 ExpMin= 1.61D-01 ExpMax= 1.87D+01 ExpMxC= 1.87D+01 IAcc=1 IRadAn=         1 AccDes= 1.00D-06
 HarFok:  IExCor= 402 AccDes= 1.00D-06 IRadAn=         1 IDoV=1
 ScaDFX=  1.000000  1.000000  1.000000  1.000000
 Harris En= -1.18407320972423    
 Leave Link  401 at Fri Jul 01 20:29:29 2011, MaxMem=    6291456 cpu:       1.0
 (Enter C:\G03W\l502.exe)
 Closed shell SCF:
 Requested convergence on RMS density matrix=1.00D-08 within 128 cycles.
 Requested convergence on MAX density matrix=1.00D-06.
 Requested convergence on             energy=1.00D-06.
 No special actions if energy rises.
 Using DIIS extrapolation, IDIIS=  1040.
 Integral symmetry usage will be decided dynamically.
        15712 words used for storage of precomputed grid.
 Keep R1 integrals in memory in canonical form, NReq=      436653.
 IEnd=     34494 IEndB=     34494 NGot=   6291456 MDV=   6272511
 LenX=   6272511
 Symmetry not used in FoFDir.
 MinBra= 0 MaxBra= 1 Meth= 1.
 IRaf=       0 NMat=   1 IRICut=       1 DoRegI=T DoRafI=F ISym2E= 0 JSym2E=0.
 Integral accuracy reduced to 1.0D-05 until final iterations.
 A guess orbital has undefined symmetry, so N**3 symmetry is turned off.

 Cycle   1  Pass 0  IDiag  1:
 E= -1.17576905240646    
 DIIS: error= 1.54D-02 at cycle   1 NSaved=   1.
 NSaved= 1 IEnMin= 1 EnMin= -1.17576905240646     IErMin= 1 ErrMin= 1.54D-02
 ErrMax= 1.54D-02 EMaxC= 1.00D-01 BMatC= 1.54D-03 BMatP= 1.54D-03
 IDIUse=3 WtCom= 8.46D-01 WtEn= 1.54D-01
 Coeff-Com:  0.100D+01
 Coeff-En:   0.100D+01
 Coeff:      0.100D+01
 Recover alternate guess density for next cycle.
 RMSDP=1.47D-03 MaxDP=5.85D-03              OVMax= 0.00D+00

 Cycle   2  Pass 0  IDiag  1:
 E= -1.17326232488279     Delta-E=        0.002506727524 Rises=F Damp=F
 DIIS: error= 1.97D-02 at cycle   2 NSaved=   2.
 NSaved= 2 IEnMin= 1 EnMin= -1.17576905240646     IErMin= 1 ErrMin= 1.54D-02
 ErrMax= 1.97D-02 EMaxC= 1.00D-01 BMatC= 3.13D-03 BMatP= 1.54D-03
 IDIUse=2 WtCom= 0.00D+00 WtEn= 1.00D+00
 Coeff-En:   0.000D+00 0.100D+01
 Coeff:      0.000D+00 0.100D+01
 Switch densities from cycles 1 and 2 for lowest energy.
 Gap=     0.644 Goal=   None    Shift=    0.000
 RMSDP=5.01D-03 MaxDP=2.02D-02 DE= 2.51D-03 OVMax= 4.17D-02

 Cycle   3  Pass 0  IDiag  1:
 E= -1.17816469694554     Delta-E=       -0.004902372063 Rises=F Damp=F
 DIIS: error= 4.75D-03 at cycle   3 NSaved=   3.
 NSaved= 3 IEnMin= 3 EnMin= -1.17816469694554     IErMin= 3 ErrMin= 4.75D-03
 ErrMax= 4.75D-03 EMaxC= 1.00D-01 BMatC= 1.31D-04 BMatP= 1.54D-03
 IDIUse=3 WtCom= 9.53D-01 WtEn= 4.75D-02
 Coeff-Com: -0.383D+00 0.453D+00 0.930D+00
 Coeff-En:   0.000D+00 0.000D+00 0.100D+01
 Coeff:     -0.364D+00 0.431D+00 0.933D+00
 Gap=     0.541 Goal=   None    Shift=    0.000
 RMSDP=9.91D-04 MaxDP=3.82D-03 DE=-4.90D-03 OVMax= 8.85D-03

 Cycle   4  Pass 0  IDiag  1:
 E= -1.17835943143356     Delta-E=       -0.000194734488 Rises=F Damp=F
 DIIS: error= 2.77D-05 at cycle   4 NSaved=   4.
 NSaved= 4 IEnMin= 4 EnMin= -1.17835943143356     IErMin= 4 ErrMin= 2.77D-05
 ErrMax= 2.77D-05 EMaxC= 1.00D-01 BMatC= 5.55D-09 BMatP= 1.31D-04
 IDIUse=1 WtCom= 1.00D+00 WtEn= 0.00D+00
 Coeff-Com: -0.181D-02 0.343D-03 0.205D-02 0.999D+00
 Coeff:     -0.181D-02 0.343D-03 0.205D-02 0.999D+00
 Gap=     0.540 Goal=   None    Shift=    0.000
 RMSDP=7.36D-06 MaxDP=2.92D-05 DE=-1.95D-04 OVMax= 6.18D-05

 Initial convergence to 1.0D-05 achieved.  Increase integral accuracy.
 Cycle   5  Pass 1  IDiag  1:
 E= -1.17835693737541     Delta-E=        0.000002494058 Rises=F Damp=F
 DIIS: error= 1.11D-06 at cycle   1 NSaved=   1.
 NSaved= 1 IEnMin= 1 EnMin= -1.17835693737541     IErMin= 1 ErrMin= 1.11D-06
 ErrMax= 1.11D-06 EMaxC= 1.00D-01 BMatC= 8.94D-12 BMatP= 8.94D-12
 IDIUse=1 WtCom= 1.00D+00 WtEn= 0.00D+00
 Coeff-Com:  0.100D+01
 Coeff:      0.100D+01
 Gap=     0.540 Goal=   None    Shift=    0.000
 RMSDP=7.36D-06 MaxDP=2.92D-05 DE= 2.49D-06 OVMax= 2.87D-06

 Cycle   6  Pass 1  IDiag  1:
 E= -1.17835693738905     Delta-E=       -0.000000000014 Rises=F Damp=F
 DIIS: error= 2.48D-07 at cycle   2 NSaved=   2.
 NSaved= 2 IEnMin= 2 EnMin= -1.17835693738905     IErMin= 2 ErrMin= 2.48D-07
 ErrMax= 2.48D-07 EMaxC= 1.00D-01 BMatC= 3.61D-13 BMatP= 8.94D-12
 IDIUse=1 WtCom= 1.00D+00 WtEn= 0.00D+00
 Coeff-Com:  0.166D+00 0.834D+00
 Coeff:      0.166D+00 0.834D+00
 Gap=     0.540 Goal=   None    Shift=    0.000
 RMSDP=5.19D-08 MaxDP=2.01D-07 DE=-1.36D-11 OVMax= 4.61D-07

 Cycle   7  Pass 1  IDiag  1:
 E= -1.17835693738959     Delta-E=       -0.000000000001 Rises=F Damp=F
 DIIS: error= 2.16D-09 at cycle   3 NSaved=   3.
 NSaved= 3 IEnMin= 3 EnMin= -1.17835693738959     IErMin= 3 ErrMin= 2.16D-09
 ErrMax= 2.16D-09 EMaxC= 1.00D-01 BMatC= 1.96D-17 BMatP= 3.61D-13
 IDIUse=1 WtCom= 1.00D+00 WtEn= 0.00D+00
 Coeff-Com: -0.820D-02-0.458D-01 0.105D+01
 Coeff:     -0.820D-02-0.458D-01 0.105D+01
 Gap=     0.540 Goal=   None    Shift=    0.000
 RMSDP=1.38D-10 MaxDP=3.33D-10 DE=-5.39D-13 OVMax= 1.87D-09

 SCF Done:  E(RB+HF-LYP) =  -1.17835693739     A.U. after    7 cycles
             Convg  =    0.1378D-09             -V/T =  2.0178
             S**2   =   0.0000
 KE= 1.157714605673D+00 PE=-3.681916734906D+00 EE= 6.176384587785D-01
 Leave Link  502 at Fri Jul 01 20:29:29 2011, MaxMem=    6291456 cpu:       0.0
 (Enter C:\G03W\l701.exe)
 Compute integral first derivatives.
 ... and contract with generalized density number  0.
 Leave Link  701 at Fri Jul 01 20:29:30 2011, MaxMem=    6291456 cpu:       1.0
 (Enter C:\G03W\l702.exe)
 L702 exits ... SP integral derivatives will be done elsewhere.
 Leave Link  702 at Fri Jul 01 20:29:30 2011, MaxMem=    6291456 cpu:       0.0
 (Enter C:\G03W\l703.exe)
 Compute integral first derivatives, UseDBF=F.
 Integral derivatives from FoFDir, PRISM(SPDF).
 Petite list used in FoFDir.
 MinBra= 0 MaxBra= 1 Meth= 1.
 IRaf=       0 NMat=   1 IRICut=       1 DoRegI=T DoRafI=F ISym2E= 1 JSym2E=1.
 Leave Link  703 at Fri Jul 01 20:29:30 2011, MaxMem=    6291456 cpu:       0.0
 (Enter C:\G03W\l716.exe)
 Dipole        =-4.93038066D-32-1.84889275D-32-1.11022302D-16
 ***** Axes restored to original set *****
 -------------------------------------------------------------------
 Center     Atomic                   Forces (Hartrees/Bohr)
 Number     Number              X              Y              Z
 -------------------------------------------------------------------
    1          1           0.012193958    0.000000000    0.000000000
    2          1          -0.012193958    0.000000000    0.000000000
 -------------------------------------------------------------------
 Cartesian Forces:  Max     0.012193958 RMS     0.007040185
 Leave Link  716 at Fri Jul 01 20:29:30 2011, MaxMem=    6291456 cpu:       0.0
 (Enter C:\G03W\l103.exe)

 GradGradGradGradGradGradGradGradGradGradGradGradGradGradGradGradGradGrad
 Berny optimization.
 Internal  Forces:  Max     0.012193958 RMS     0.012193958
 Search for a local minimum.
 Step number   2 out of a maximum of  20
 All quantities printed in internal units (Hartrees-Bohrs-Radians)
 Update second derivatives using D2CorX and points  1  2
 Trust test= 8.95D-01 RLast= 2.39D-01 DXMaxT set to 4.24D-01
 The second derivative matrix:
                          R1
           R1           0.65228
     Eigenvalues ---    0.65228
 RFO step:  Lambda= 0.00000000D+00.
 Quartic linear search produced a step of  0.13496.
 Iteration  1 RMS(Cart)=  0.02284592 RMS(Int)=  0.00000000
 Iteration  2 RMS(Cart)=  0.00000000 RMS(Int)=  0.00000000
 Variable       Old X    -DE/DX   Delta X   Delta X   Delta X     New X
                                 (Linear)    (Quad)   (Total)
    R1        1.37324   0.01219   0.03231   0.00000   0.03231   1.40555
         Item               Value     Threshold  Converged?
 Maximum Force            0.012194     0.000450     NO 
 RMS     Force            0.012194     0.000300     NO 
 Maximum Displacement     0.016155     0.001800     NO 
 RMS     Displacement     0.022846     0.001200     NO 
 Predicted change in Energy=-5.352558D-05
 GradGradGradGradGradGradGradGradGradGradGradGradGradGradGradGradGradGrad

 Leave Link  103 at Fri Jul 01 20:29:31 2011, MaxMem=    6291456 cpu:       0.0
 (Enter C:\G03W\l202.exe)
                          Input orientation:                          
 ---------------------------------------------------------------------
 Center     Atomic     Atomic              Coordinates (Angstroms)
 Number     Number      Type              X           Y           Z
 ---------------------------------------------------------------------
    1          1             0        4.553709   -0.272727    0.000000
    2          1             0        3.809927   -0.272727    0.000000
 ---------------------------------------------------------------------
 Stoichiometry    H2
 Framework group  D*H[C*(H.H)]
 Deg. of freedom     1
 Full point group                 D*H     NOp   8
 Largest Abelian subgroup         D2H     NOp   8
 Largest concise Abelian subgroup C2      NOp   2
                         Standard orientation:                         
 ---------------------------------------------------------------------
 Center     Atomic     Atomic              Coordinates (Angstroms)
 Number     Number      Type              X           Y           Z
 ---------------------------------------------------------------------
    1          1             0        0.000000    0.000000    0.371891
    2          1             0        0.000000    0.000000   -0.371891
 ---------------------------------------------------------------------
 Rotational constants (GHZ):      0.0000000   1812.8840138   1812.8840138
 Leave Link  202 at Fri Jul 01 20:29:31 2011, MaxMem=    6291456 cpu:       0.0
 (Enter C:\G03W\l301.exe)
 Standard basis: 6-31G(d,p) (6D, 7F)
 There are     3 symmetry adapted basis functions of AG  symmetry.
 There are     0 symmetry adapted basis functions of B1G symmetry.
 There are     1 symmetry adapted basis functions of B2G symmetry.
 There are     1 symmetry adapted basis functions of B3G symmetry.
 There are     0 symmetry adapted basis functions of AU  symmetry.
 There are     3 symmetry adapted basis functions of B1U symmetry.
 There are     1 symmetry adapted basis functions of B2U symmetry.
 There are     1 symmetry adapted basis functions of B3U symmetry.
 Integral buffers will be    262144 words long.
 Raffenetti 2 integral format.
 Two-electron integral symmetry is turned on.
    10 basis functions,    14 primitive gaussians,    10 cartesian basis functions
     1 alpha electrons        1 beta electrons
       nuclear repulsion energy         0.7114675816 Hartrees.
 IExCor= 402 DFT=T Ex=B+HF Corr=LYP ExCW=0 ScaHFX=  0.200000
 ScaDFX=  0.800000  0.720000  1.000000  0.810000
 IRadAn=      0 IRanWt=     -1 IRanGd=            0 ICorTp=0
 NAtoms=    2 NActive=    2 NUniq=    1 SFac= 5.66D+00 NAtFMM=   60 Big=F
 Leave Link  301 at Fri Jul 01 20:29:31 2011, MaxMem=    6291456 cpu:       0.0
 (Enter C:\G03W\l302.exe)
 NPDir=0 NMtPBC=     1 NCelOv=     1 NCel=       1 NClECP=     1 NCelD=      1
         NCelK=      1 NCelE2=     1 NClLst=     1 CellRange=     0.0.
 One-electron integrals computed using PRISM.
 One-electron integral symmetry used in STVInt
 NBasis=    10 RedAO= T  NBF=     3     0     1     1     0     3     1     1
 NBsUse=    10 1.00D-06 NBFU=     3     0     1     1     0     3     1     1
 Precomputing XC quadrature grid using
 IXCGrd= 2 IRadAn=           0 IRanWt=          -1 IRanGd=           0.
 NRdTot=     120 NPtTot=       15168 NUsed=       15713 NTot=       15729
 NSgBfM=    10    10    10    10.
 Leave Link  302 at Fri Jul 01 20:29:31 2011, MaxMem=    6291456 cpu:       0.0
 (Enter C:\G03W\l303.exe)
 DipDrv:  MaxL=1.
 Leave Link  303 at Fri Jul 01 20:29:32 2011, MaxMem=    6291456 cpu:       0.0
 (Enter C:\G03W\l401.exe)
 Initial guess read from the read-write file:
 Guess basis will be translated and rotated to current coordinates.
 Initial guess orbital symmetries:
       Occupied  (SGG)
       Virtual   (SGU) (SGG) (SGU) (PIU) (PIU) (SGG) (PIG) (PIG)
                 (SGU)
 The electronic state of the initial guess is 1-SGG.
 Leave Link  401 at Fri Jul 01 20:29:32 2011, MaxMem=    6291456 cpu:       0.0
 (Enter C:\G03W\l502.exe)
 Closed shell SCF:
 Requested convergence on RMS density matrix=1.00D-08 within 128 cycles.
 Requested convergence on MAX density matrix=1.00D-06.
 Requested convergence on             energy=1.00D-06.
 No special actions if energy rises.
 Using DIIS extrapolation, IDIIS=  1040.
 Integral symmetry usage will be decided dynamically.
        15712 words used for storage of precomputed grid.
 Keep R1 integrals in memory in canonical form, NReq=      436653.
 IEnd=     34494 IEndB=     34494 NGot=   6291456 MDV=   6272511
 LenX=   6272511
 Symmetry not used in FoFDir.
 MinBra= 0 MaxBra= 1 Meth= 1.
 IRaf=       0 NMat=   1 IRICut=       1 DoRegI=T DoRafI=F ISym2E= 0 JSym2E=0.
 A guess orbital has undefined symmetry, so N**3 symmetry is turned off.

 Cycle   1  Pass 1  IDiag  1:
 E= -1.17849959531033    
 DIIS: error= 2.00D-03 at cycle   1 NSaved=   1.
 NSaved= 1 IEnMin= 1 EnMin= -1.17849959531033     IErMin= 1 ErrMin= 2.00D-03
 ErrMax= 2.00D-03 EMaxC= 1.00D-01 BMatC= 2.32D-05 BMatP= 2.32D-05
 IDIUse=3 WtCom= 9.80D-01 WtEn= 2.00D-02
 Coeff-Com:  0.100D+01
 Coeff-En:   0.100D+01
 Coeff:      0.100D+01
 Gap=     0.533 Goal=   None    Shift=    0.000
 GapD=    0.533 DampG=2.000 DampE=1.000 DampFc=2.0000 IDamp=-1.
 RMSDP=5.79D-04 MaxDP=2.30D-03              OVMax= 4.78D-03

 Cycle   2  Pass 1  IDiag  1:
 E= -1.17853731364804     Delta-E=       -0.000037718338 Rises=F Damp=F
 DIIS: error= 4.12D-04 at cycle   2 NSaved=   2.
 NSaved= 2 IEnMin= 2 EnMin= -1.17853731364804     IErMin= 2 ErrMin= 4.12D-04
 ErrMax= 4.12D-04 EMaxC= 1.00D-01 BMatC= 9.40D-07 BMatP= 2.32D-05
 IDIUse=3 WtCom= 9.96D-01 WtEn= 4.12D-03
 Coeff-Com:  0.158D+00 0.842D+00
 Coeff-En:   0.000D+00 0.100D+01
 Coeff:      0.157D+00 0.843D+00
 Gap=     0.532 Goal=   None    Shift=    0.000
 RMSDP=8.20D-05 MaxDP=3.14D-04 DE=-3.77D-05 OVMax= 7.34D-04

 Cycle   3  Pass 1  IDiag  1:
 E= -1.17853867257864     Delta-E=       -0.000001358931 Rises=F Damp=F
 DIIS: error= 6.62D-06 at cycle   3 NSaved=   3.
 NSaved= 3 IEnMin= 3 EnMin= -1.17853867257864     IErMin= 3 ErrMin= 6.62D-06
 ErrMax= 6.62D-06 EMaxC= 1.00D-01 BMatC= 2.64D-10 BMatP= 9.40D-07
 IDIUse=1 WtCom= 1.00D+00 WtEn= 0.00D+00
 Coeff-Com: -0.807D-02-0.372D-01 0.105D+01
 Coeff:     -0.807D-02-0.372D-01 0.105D+01
 Gap=     0.532 Goal=   None    Shift=    0.000
 RMSDP=1.09D-06 MaxDP=4.25D-06 DE=-1.36D-06 OVMax= 8.15D-06

 Cycle   4  Pass 1  IDiag  1:
 E= -1.17853867282345     Delta-E=       -0.000000000245 Rises=F Damp=F
 DIIS: error= 1.84D-09 at cycle   4 NSaved=   4.
 NSaved= 4 IEnMin= 4 EnMin= -1.17853867282345     IErMin= 4 ErrMin= 1.84D-09
 ErrMax= 1.84D-09 EMaxC= 1.00D-01 BMatC= 2.05D-17 BMatP= 2.64D-10
 IDIUse=1 WtCom= 1.00D+00 WtEn= 0.00D+00
 Coeff-Com: -0.512D-06 0.231D-05 0.484D-04 0.100D+01
 Coeff:     -0.512D-06 0.231D-05 0.484D-04 0.100D+01
 Gap=     0.532 Goal=   None    Shift=    0.000
 RMSDP=3.95D-10 MaxDP=1.53D-09 DE=-2.45D-10 OVMax= 3.49D-09

 SCF Done:  E(RB+HF-LYP) =  -1.17853867282     A.U. after    4 cycles
             Convg  =    0.3954D-09             -V/T =  2.0322
             S**2   =   0.0000
 KE= 1.141808735099D+00 PE=-3.643241905274D+00 EE= 6.114269157943D-01
 Leave Link  502 at Fri Jul 01 20:29:32 2011, MaxMem=    6291456 cpu:       0.0
 (Enter C:\G03W\l701.exe)
 Compute integral first derivatives.
 ... and contract with generalized density number  0.
 Leave Link  701 at Fri Jul 01 20:29:33 2011, MaxMem=    6291456 cpu:       1.0
 (Enter C:\G03W\l702.exe)
 L702 exits ... SP integral derivatives will be done elsewhere.
 Leave Link  702 at Fri Jul 01 20:29:33 2011, MaxMem=    6291456 cpu:       0.0
 (Enter C:\G03W\l703.exe)
 Compute integral first derivatives, UseDBF=F.
 Integral derivatives from FoFDir, PRISM(SPDF).
 Petite list used in FoFDir.
 MinBra= 0 MaxBra= 1 Meth= 1.
 IRaf=       0 NMat=   1 IRICut=       1 DoRegI=T DoRafI=F ISym2E= 1 JSym2E=1.
 Leave Link  703 at Fri Jul 01 20:29:33 2011, MaxMem=    6291456 cpu:       0.0
 (Enter C:\G03W\l716.exe)
 Dipole        = 0.00000000D+00-1.23259516D-32-1.11022302D-16
 ***** Axes restored to original set *****
 -------------------------------------------------------------------
 Center     Atomic                   Forces (Hartrees/Bohr)
 Number     Number              X              Y              Z
 -------------------------------------------------------------------
    1          1          -0.000708784    0.000000000    0.000000000
    2          1           0.000708784    0.000000000    0.000000000
 -------------------------------------------------------------------
 Cartesian Forces:  Max     0.000708784 RMS     0.000409216
 Leave Link  716 at Fri Jul 01 20:29:33 2011, MaxMem=    6291456 cpu:       0.0
 (Enter C:\G03W\l103.exe)

 GradGradGradGradGradGradGradGradGradGradGradGradGradGradGradGradGradGrad
 Berny optimization.
 Internal  Forces:  Max     0.000708784 RMS     0.000708784
 Search for a local minimum.
 Step number   3 out of a maximum of  20
 All quantities printed in internal units (Hartrees-Bohrs-Radians)
 Update second derivatives using D2CorX and points  2  3
 Trust test= 3.40D+00 RLast= 3.23D-02 DXMaxT set to 4.24D-01
 The second derivative matrix:
                          R1
           R1           0.39935
     Eigenvalues ---    0.39935
 RFO step:  Lambda= 0.00000000D+00.
 Quartic linear search produced a step of -0.05789.
 Iteration  1 RMS(Cart)=  0.00132262 RMS(Int)=  0.00000000
 Iteration  2 RMS(Cart)=  0.00000000 RMS(Int)=  0.00000000
 Variable       Old X    -DE/DX   Delta X   Delta X   Delta X     New X
                                 (Linear)    (Quad)   (Total)
    R1        1.40555  -0.00071  -0.00187   0.00000  -0.00187   1.40367
         Item               Value     Threshold  Converged?
 Maximum Force            0.000709     0.000450     NO 
 RMS     Force            0.000709     0.000300     NO 
 Maximum Displacement     0.000935     0.001800     YES
 RMS     Displacement     0.001323     0.001200     NO 
 Predicted change in Energy=-6.271563D-07
 GradGradGradGradGradGradGradGradGradGradGradGradGradGradGradGradGradGrad

 Leave Link  103 at Fri Jul 01 20:29:33 2011, MaxMem=    6291456 cpu:       0.0
 (Enter C:\G03W\l202.exe)
                          Input orientation:                          
 ---------------------------------------------------------------------
 Center     Atomic     Atomic              Coordinates (Angstroms)
 Number     Number      Type              X           Y           Z
 ---------------------------------------------------------------------
    1          1             0        4.553215   -0.272727    0.000000
    2          1             0        3.810422   -0.272727    0.000000
 ---------------------------------------------------------------------
 Stoichiometry    H2
 Framework group  D*H[C*(H.H)]
 Deg. of freedom     1
 Full point group                 D*H     NOp   8
 Largest Abelian subgroup         D2H     NOp   8
 Largest concise Abelian subgroup C2      NOp   2
                         Standard orientation:                         
 ---------------------------------------------------------------------
 Center     Atomic     Atomic              Coordinates (Angstroms)
 Number     Number      Type              X           Y           Z
 ---------------------------------------------------------------------
    1          1             0        0.000000    0.000000    0.371396
    2          1             0        0.000000    0.000000   -0.371396
 ---------------------------------------------------------------------
 Rotational constants (GHZ):      0.0000000   1817.7187637   1817.7187637
 Leave Link  202 at Fri Jul 01 20:29:34 2011, MaxMem=    6291456 cpu:       0.0
 (Enter C:\G03W\l301.exe)
 Standard basis: 6-31G(d,p) (6D, 7F)
 There are     3 symmetry adapted basis functions of AG  symmetry.
 There are     0 symmetry adapted basis functions of B1G symmetry.
 There are     1 symmetry adapted basis functions of B2G symmetry.
 There are     1 symmetry adapted basis functions of B3G symmetry.
 There are     0 symmetry adapted basis functions of AU  symmetry.
 There are     3 symmetry adapted basis functions of B1U symmetry.
 There are     1 symmetry adapted basis functions of B2U symmetry.
 There are     1 symmetry adapted basis functions of B3U symmetry.
 Integral buffers will be    262144 words long.
 Raffenetti 2 integral format.
 Two-electron integral symmetry is turned on.
    10 basis functions,    14 primitive gaussians,    10 cartesian basis functions
     1 alpha electrons        1 beta electrons
       nuclear repulsion energy         0.7124156503 Hartrees.
 IExCor= 402 DFT=T Ex=B+HF Corr=LYP ExCW=0 ScaHFX=  0.200000
 ScaDFX=  0.800000  0.720000  1.000000  0.810000
 IRadAn=      0 IRanWt=     -1 IRanGd=            0 ICorTp=0
 NAtoms=    2 NActive=    2 NUniq=    1 SFac= 5.66D+00 NAtFMM=   60 Big=F
 Leave Link  301 at Fri Jul 01 20:29:34 2011, MaxMem=    6291456 cpu:       0.0
 (Enter C:\G03W\l302.exe)
 NPDir=0 NMtPBC=     1 NCelOv=     1 NCel=       1 NClECP=     1 NCelD=      1
         NCelK=      1 NCelE2=     1 NClLst=     1 CellRange=     0.0.
 One-electron integrals computed using PRISM.
 One-electron integral symmetry used in STVInt
 NBasis=    10 RedAO= T  NBF=     3     0     1     1     0     3     1     1
 NBsUse=    10 1.00D-06 NBFU=     3     0     1     1     0     3     1     1
 Precomputing XC quadrature grid using
 IXCGrd= 2 IRadAn=           0 IRanWt=          -1 IRanGd=           0.
 NRdTot=     120 NPtTot=       15168 NUsed=       15713 NTot=       15729
 NSgBfM=    10    10    10    10.
 Leave Link  302 at Fri Jul 01 20:29:34 2011, MaxMem=    6291456 cpu:       0.0
 (Enter C:\G03W\l303.exe)
 DipDrv:  MaxL=1.
 Leave Link  303 at Fri Jul 01 20:29:34 2011, MaxMem=    6291456 cpu:       0.0
 (Enter C:\G03W\l401.exe)
 Initial guess read from the read-write file:
 Guess basis will be translated and rotated to current coordinates.
 Initial guess orbital symmetries:
       Occupied  (SGG)
       Virtual   (SGU) (SGG) (SGU) (PIU) (PIU) (SGG) (PIG) (PIG)
                 (SGU)
 The electronic state of the initial guess is 1-SGG.
 Leave Link  401 at Fri Jul 01 20:29:35 2011, MaxMem=    6291456 cpu:       0.0
 (Enter C:\G03W\l502.exe)
 Closed shell SCF:
 Requested convergence on RMS density matrix=1.00D-08 within 128 cycles.
 Requested convergence on MAX density matrix=1.00D-06.
 Requested convergence on             energy=1.00D-06.
 No special actions if energy rises.
 Using DIIS extrapolation, IDIIS=  1040.
 Integral symmetry usage will be decided dynamically.
        15712 words used for storage of precomputed grid.
 Keep R1 integrals in memory in canonical form, NReq=      436653.
 IEnd=     34494 IEndB=     34494 NGot=   6291456 MDV=   6272511
 LenX=   6272511
 Symmetry not used in FoFDir.
 MinBra= 0 MaxBra= 1 Meth= 1.
 IRaf=       0 NMat=   1 IRICut=       1 DoRegI=T DoRafI=F ISym2E= 0 JSym2E=0.
 A guess orbital has undefined symmetry, so N**3 symmetry is turned off.

 Cycle   1  Pass 1  IDiag  1:
 E= -1.17853920767547    
 DIIS: error= 1.15D-04 at cycle   1 NSaved=   1.
 NSaved= 1 IEnMin= 1 EnMin= -1.17853920767547     IErMin= 1 ErrMin= 1.15D-04
 ErrMax= 1.15D-04 EMaxC= 1.00D-01 BMatC= 7.63D-08 BMatP= 7.63D-08
 IDIUse=3 WtCom= 9.99D-01 WtEn= 1.15D-03
 Coeff-Com:  0.100D+01
 Coeff-En:   0.100D+01
 Coeff:      0.100D+01
 Gap=     0.533 Goal=   None    Shift=    0.000
 RMSDP=3.32D-05 MaxDP=1.31D-04              OVMax= 2.74D-04

 Cycle   2  Pass 1  IDiag  1:
 E= -1.17853933166044     Delta-E=       -0.000000123985 Rises=F Damp=F
 DIIS: error= 2.37D-05 at cycle   2 NSaved=   2.
 NSaved= 2 IEnMin= 2 EnMin= -1.17853933166044     IErMin= 2 ErrMin= 2.37D-05
 ErrMax= 2.37D-05 EMaxC= 1.00D-01 BMatC= 3.09D-09 BMatP= 7.63D-08
 IDIUse=1 WtCom= 1.00D+00 WtEn= 0.00D+00
 Coeff-Com:  0.158D+00 0.842D+00
 Coeff:      0.158D+00 0.842D+00
 Gap=     0.533 Goal=   None    Shift=    0.000
 RMSDP=4.69D-06 MaxDP=1.80D-05 DE=-1.24D-07 OVMax= 4.21D-05

 Cycle   3  Pass 1  IDiag  1:
 E= -1.17853933612709     Delta-E=       -0.000000004467 Rises=F Damp=F
 DIIS: error= 3.77D-07 at cycle   3 NSaved=   3.
 NSaved= 3 IEnMin= 3 EnMin= -1.17853933612709     IErMin= 3 ErrMin= 3.77D-07
 ErrMax= 3.77D-07 EMaxC= 1.00D-01 BMatC= 8.91D-13 BMatP= 3.09D-09
 IDIUse=1 WtCom= 1.00D+00 WtEn= 0.00D+00
 Coeff-Com: -0.807D-02-0.377D-01 0.105D+01
 Coeff:     -0.807D-02-0.377D-01 0.105D+01
 Gap=     0.533 Goal=   None    Shift=    0.000
 RMSDP=6.13D-08 MaxDP=2.38D-07 DE=-4.47D-09 OVMax= 4.61D-07

 Cycle   4  Pass 1  IDiag  1:
 E= -1.17853933612790     Delta-E=       -0.000000000001 Rises=F Damp=F
 DIIS: error= 5.95D-12 at cycle   4 NSaved=   4.
 NSaved= 4 IEnMin= 4 EnMin= -1.17853933612790     IErMin= 4 ErrMin= 5.95D-12
 ErrMax= 5.95D-12 EMaxC= 1.00D-01 BMatC= 2.16D-22 BMatP= 8.91D-13
 IDIUse=1 WtCom= 1.00D+00 WtEn= 0.00D+00
 Coeff-Com:  0.316D-07-0.118D-06-0.293D-05 0.100D+01
 Coeff:      0.316D-07-0.118D-06-0.293D-05 0.100D+01
 Gap=     0.533 Goal=   None    Shift=    0.000
 RMSDP=1.29D-12 MaxDP=5.00D-12 DE=-8.08D-13 OVMax= 1.14D-11

 SCF Done:  E(RB+HF-LYP) =  -1.17853933613     A.U. after    4 cycles
             Convg  =    0.1292D-11             -V/T =  2.0314
             S**2   =   0.0000
 KE= 1.142713291756D+00 PE=-3.645451328351D+00 EE= 6.117830501249D-01
 Leave Link  502 at Fri Jul 01 20:29:35 2011, MaxMem=    6291456 cpu:       0.0
 (Enter C:\G03W\l701.exe)
 Compute integral first derivatives.
 ... and contract with generalized density number  0.
 Leave Link  701 at Fri Jul 01 20:29:36 2011, MaxMem=    6291456 cpu:       1.0
 (Enter C:\G03W\l702.exe)
 L702 exits ... SP integral derivatives will be done elsewhere.
 Leave Link  702 at Fri Jul 01 20:29:36 2011, MaxMem=    6291456 cpu:       0.0
 (Enter C:\G03W\l703.exe)
 Compute integral first derivatives, UseDBF=F.
 Integral derivatives from FoFDir, PRISM(SPDF).
 Petite list used in FoFDir.
 MinBra= 0 MaxBra= 1 Meth= 1.
 IRaf=       0 NMat=   1 IRICut=       1 DoRegI=T DoRafI=F ISym2E= 1 JSym2E=1.
 Leave Link  703 at Fri Jul 01 20:29:36 2011, MaxMem=    6291456 cpu:       0.0
 (Enter C:\G03W\l716.exe)
 Dipole        =-1.97215226D-31 1.23259516D-32 0.00000000D+00
 ***** Axes restored to original set *****
 -------------------------------------------------------------------
 Center     Atomic                   Forces (Hartrees/Bohr)
 Number     Number              X              Y              Z
 -------------------------------------------------------------------
    1          1           0.000000296    0.000000000    0.000000000
    2          1          -0.000000296    0.000000000    0.000000000
 -------------------------------------------------------------------
 Cartesian Forces:  Max     0.000000296 RMS     0.000000171
 Leave Link  716 at Fri Jul 01 20:29:36 2011, MaxMem=    6291456 cpu:       0.0
 (Enter C:\G03W\l103.exe)

 GradGradGradGradGradGradGradGradGradGradGradGradGradGradGradGradGradGrad
 Berny optimization.
 Internal  Forces:  Max     0.000000296 RMS     0.000000296
 Search for a local minimum.
 Step number   4 out of a maximum of  20
 All quantities printed in internal units (Hartrees-Bohrs-Radians)
 Update second derivatives using D2CorX and points  3  4
 Trust test= 1.06D+00 RLast= 1.87D-03 DXMaxT set to 4.24D-01
 The second derivative matrix:
                          R1
           R1           0.37909
     Eigenvalues ---    0.37909
 RFO step:  Lambda= 0.00000000D+00.
 Quartic linear search produced a step of -0.00042.
 Iteration  1 RMS(Cart)=  0.00000055 RMS(Int)=  0.00000000
 Variable       Old X    -DE/DX   Delta X   Delta X   Delta X     New X
                                 (Linear)    (Quad)   (Total)
    R1        1.40367   0.00000   0.00000   0.00000   0.00000   1.40368
         Item               Value     Threshold  Converged?
 Maximum Force            0.000000     0.000450     YES
 RMS     Force            0.000000     0.000300     YES
 Maximum Displacement     0.000000     0.001800     YES
 RMS     Displacement     0.000001     0.001200     YES
 Predicted change in Energy=-1.154026D-13
 Optimization completed.
    -- Stationary point found.
                           ----------------------------
                           !   Optimized Parameters   !
                           ! (Angstroms and Degrees)  !
 --------------------------                            --------------------------
 ! Name  Definition              Value          Derivative Info.                !
 --------------------------------------------------------------------------------
 ! R1    R(1,2)                  0.7428         -DE/DX =    0.0                 !
 --------------------------------------------------------------------------------
 GradGradGradGradGradGradGradGradGradGradGradGradGradGradGradGradGradGrad

 Largest change from initial coordinates is atom    1       0.071 Angstoms.
 Leave Link  103 at Fri Jul 01 20:29:37 2011, MaxMem=    6291456 cpu:       0.0
 (Enter C:\G03W\l202.exe)
                          Input orientation:                          
 ---------------------------------------------------------------------
 Center     Atomic     Atomic              Coordinates (Angstroms)
 Number     Number      Type              X           Y           Z
 ---------------------------------------------------------------------
    1          1             0        4.553215   -0.272727    0.000000
    2          1             0        3.810422   -0.272727    0.000000
 ---------------------------------------------------------------------
 Stoichiometry    H2
 Framework group  D*H[C*(H.H)]
 Deg. of freedom     1
 Full point group                 D*H     NOp   8
 Largest Abelian subgroup         D2H     NOp   8
 Largest concise Abelian subgroup C2      NOp   2
                         Standard orientation:                         
 ---------------------------------------------------------------------
 Center     Atomic     Atomic              Coordinates (Angstroms)
 Number     Number      Type              X           Y           Z
 ---------------------------------------------------------------------
    1          1             0        0.000000    0.000000    0.371396
    2          1             0        0.000000    0.000000   -0.371396
 ---------------------------------------------------------------------
 Rotational constants (GHZ):      0.0000000   1817.7187637   1817.7187637
 Leave Link  202 at Fri Jul 01 20:29:37 2011, MaxMem=    6291456 cpu:       0.0
 (Enter C:\G03W\l601.exe)
 Copying SCF densities to generalized density rwf, ISCF=0 IROHF=0.

 **********************************************************************

            Population analysis using the SCF density.

 **********************************************************************

 Orbital symmetries:
       Occupied  (SGG)
       Virtual   (SGU) (SGG) (SGU) (PIU) (PIU) (SGG) (PIG) (PIG)
                 (SGU)
 The electronic state is 1-SGG.
 Alpha  occ. eigenvalues --   -0.43158
 Alpha virt. eigenvalues --    0.10097   0.57700   1.03609   1.67471   1.67471
 Alpha virt. eigenvalues --    2.37888   2.61567   2.61567   4.15286
          Condensed to atoms (all electrons):
              1          2
     1  H    0.589017   0.410983
     2  H    0.410983   0.589017
 Mulliken atomic charges:
              1
     1  H    0.000000
     2  H    0.000000
 Sum of Mulliken charges=   0.00000
 Atomic charges with hydrogens summed into heavy atoms:
              1
     1  H    0.000000
     2  H    0.000000
 Sum of Mulliken charges=   0.00000
 Electronic spatial extent (au):  <R**2>=     5.1232
 Charge=     0.0000 electrons
 Dipole moment (field-independent basis, Debye):
    X=     0.0000    Y=     0.0000    Z=     0.0000  Tot=     0.0000
 Quadrupole moment (field-independent basis, Debye-Ang):
   XX=    -2.0291   YY=    -2.0291   ZZ=    -1.5076
   XY=     0.0000   XZ=     0.0000   YZ=     0.0000
 Traceless Quadrupole moment (field-independent basis, Debye-Ang):
   XX=    -0.1738   YY=    -0.1738   ZZ=     0.3477
   XY=     0.0000   XZ=     0.0000   YZ=     0.0000
 Octapole moment (field-independent basis, Debye-Ang**2):
  XXX=     0.0000  YYY=     0.0000  ZZZ=     0.0000  XYY=     0.0000
  XXY=     0.0000  XXZ=     0.0000  XZZ=     0.0000  YZZ=     0.0000
  YYZ=     0.0000  XYZ=     0.0000
 Hexadecapole moment (field-independent basis, Debye-Ang**3):
 XXXX=    -1.8759 YYYY=    -1.8759 ZZZZ=    -2.7679 XXXY=     0.0000
 XXXZ=     0.0000 YYYX=     0.0000 YYYZ=     0.0000 ZZZX=     0.0000
 ZZZY=     0.0000 XXYY=    -0.6253 XXZZ=    -0.7888 YYZZ=    -0.7888
 XXYZ=     0.0000 YYXZ=     0.0000 ZZXY=     0.0000
 N-N= 7.124156503425D-01 E-N=-3.645451328343D+00  KE= 1.142713291756D+00
 Symmetry AG   KE= 1.142713291756D+00
 Symmetry B1G  KE= 0.000000000000D+00
 Symmetry B2G  KE= 3.459749154594D-33
 Symmetry B3G  KE= 2.252017632300D-34
 Symmetry AU   KE= 0.000000000000D+00
 Symmetry B1U  KE=-6.834460435793D-18
 Symmetry B2U  KE= 4.328864261026D-32
 Symmetry B3U  KE= 1.333855123930D-33
 No NMR shielding tensors so no spin-rotation constants.
 Leave Link  601 at Fri Jul 01 20:29:37 2011, MaxMem=    6291456 cpu:       0.0
 (Enter C:\G03W\l9999.exe)
 1|1|UNPC-UNK|FOpt|RB3LYP|6-31G(d,p)|H2|PCUSER|01-Jul-2011|0||#P OPT FR
 EQ B3LYP/6-31G(D,P) GUESS=(LOCAL,SAVE) GEOM=CONNECTIVITY||H2||0,1|H,0.
 3713963948,0.,0.|H,-0.3713963948,0.,0.||Version=x86-Win32-G03RevB.03|S
 tate=1-SGG|HF=-1.1785393|RMSD=1.292e-012|RMSF=1.708e-007|Dipole=0.,0.,
 0.|PG=D*H [C*(H1.H1)]||@


 COMMON SENSE IS NOT SO COMMON.   -- VOLTAIRE
 Leave Link 9999 at Fri Jul 01 20:29:38 2011, MaxMem=    6291456 cpu:       0.0
 Job cpu time:  0 days  0 hours  0 minutes 19.0 seconds.
 File lengths (MBytes):  RWF=     11 Int=      0 D2E=      0 Chk=      4 Scr=      1
 Normal termination of Gaussian 03 at Fri Jul 01 20:29:38 2011.
 (Enter C:\G03W\l1.exe)
 Link1:  Proceeding to internal job step number  2.
 --------------------------------------------------------------------
 #P Geom=AllCheck Guess=Read SCRF=Check GenChk RB3LYP/6-31G(d,p) Freq
 --------------------------------------------------------------------
 1/10=4,29=7,30=1,38=1,40=1,46=1/1,3;
 2/40=1/2;
 3/5=1,6=6,7=101,11=2,16=1,25=1,30=1,70=2,71=2,74=-5/1,2,3;
 4/5=1,7=1,9=10/1;
 5/5=2,38=6/2;
 8/6=4,10=90,11=11,27=262144000/1;
 11/6=1,8=1,9=11,15=111,16=1/1,2,10;
 10/6=1/2;
 6/7=2,8=2,9=2,10=2,18=1,28=1/1;
 7/8=1,10=1,25=1/1,2,3,16;
 1/10=4,30=1,46=1/3;
 99//99;
 Leave Link    1 at Fri Jul 01 20:29:38 2011, MaxMem=          0 cpu:       0.0
 (Enter C:\G03W\l101.exe)
 --
 H2
 --
 Redundant internal coordinates taken from checkpoint file:
 D:\Dropbox\My Dropbox\Sajat gyujtes\Hehre MOLMOD\01\H2.chk
 Charge =  0 Multiplicity = 1
 H,0,0.3713963948,0.,0.
 H,0,-0.3713963948,0.,0.
 Recover connectivity data from disk.
                    Isotopes and Nuclear Properties:

  Atom         1           2
 IAtWgt=           1           1
 AtmWgt=   1.0078250   1.0078250
 IAtSpn=           1           1
 AtZEff=  -1.0000000  -1.0000000
 AtQMom=   0.0000000   0.0000000
 AtGFac=   2.7928460   2.7928460
 Leave Link  101 at Fri Jul 01 20:29:38 2011, MaxMem=    6291456 cpu:       0.0
 (Enter C:\G03W\l103.exe)

 GradGradGradGradGradGradGradGradGradGradGradGradGradGradGradGradGradGrad
 Berny optimization.
 Initialization pass.
                           ----------------------------
                           !    Initial Parameters    !
                           ! (Angstroms and Degrees)  !
 --------------------------                            --------------------------
 ! Name  Definition              Value          Derivative Info.                !
 --------------------------------------------------------------------------------
 ! R1    R(1,2)                  0.7428         calculate D2E/DX2 analytically  !
 --------------------------------------------------------------------------------
 Trust Radius=3.00D-01 FncErr=1.00D-07 GrdErr=1.00D-07
 Number of steps in this run=   2 maximum allowed number of steps=   2.
 GradGradGradGradGradGradGradGradGradGradGradGradGradGradGradGradGradGrad

 Leave Link  103 at Fri Jul 01 20:29:39 2011, MaxMem=    6291456 cpu:       0.0
 (Enter C:\G03W\l202.exe)
                          Input orientation:                          
 ---------------------------------------------------------------------
 Center     Atomic     Atomic              Coordinates (Angstroms)
 Number     Number      Type              X           Y           Z
 ---------------------------------------------------------------------
    1          1             0        0.371396    0.000000    0.000000
    2          1             0       -0.371396    0.000000    0.000000
 ---------------------------------------------------------------------
 Stoichiometry    H2
 Framework group  D*H[C*(H.H)]
 Deg. of freedom     1
 Full point group                 D*H     NOp   8
 Largest Abelian subgroup         D2H     NOp   8
 Largest concise Abelian subgroup C2      NOp   2
                         Standard orientation:                         
 ---------------------------------------------------------------------
 Center     Atomic     Atomic              Coordinates (Angstroms)
 Number     Number      Type              X           Y           Z
 ---------------------------------------------------------------------
    1          1             0        0.000000    0.000000    0.371396
    2          1             0        0.000000    0.000000   -0.371396
 ---------------------------------------------------------------------
 Rotational constants (GHZ):      0.0000000   1817.7187637   1817.7187637
 Leave Link  202 at Fri Jul 01 20:29:39 2011, MaxMem=    6291456 cpu:       0.0
 (Enter C:\G03W\l301.exe)
 Standard basis: 6-31G(d,p) (6D, 7F)
 There are     3 symmetry adapted basis functions of AG  symmetry.
 There are     0 symmetry adapted basis functions of B1G symmetry.
 There are     1 symmetry adapted basis functions of B2G symmetry.
 There are     1 symmetry adapted basis functions of B3G symmetry.
 There are     0 symmetry adapted basis functions of AU  symmetry.
 There are     3 symmetry adapted basis functions of B1U symmetry.
 There are     1 symmetry adapted basis functions of B2U symmetry.
 There are     1 symmetry adapted basis functions of B3U symmetry.
 Integral buffers will be    262144 words long.
 Raffenetti 2 integral format.
 Two-electron integral symmetry is turned on.
    10 basis functions,    14 primitive gaussians,    10 cartesian basis functions
     1 alpha electrons        1 beta electrons
       nuclear repulsion energy         0.7124156503 Hartrees.
 IExCor= 402 DFT=T Ex=B+HF Corr=LYP ExCW=0 ScaHFX=  0.200000
 ScaDFX=  0.800000  0.720000  1.000000  0.810000
 IRadAn=      0 IRanWt=     -1 IRanGd=            0 ICorTp=0
 NAtoms=    2 NActive=    2 NUniq=    1 SFac= 5.66D+00 NAtFMM=   60 Big=F
 Leave Link  301 at Fri Jul 01 20:29:39 2011, MaxMem=    6291456 cpu:       0.0
 (Enter C:\G03W\l302.exe)
 NPDir=0 NMtPBC=     1 NCelOv=     1 NCel=       1 NClECP=     1 NCelD=      1
         NCelK=      1 NCelE2=     1 NClLst=     1 CellRange=     0.0.
 One-electron integrals computed using PRISM.
 One-electron integral symmetry used in STVInt
 NBasis=    10 RedAO= T  NBF=     3     0     1     1     0     3     1     1
 NBsUse=    10 1.00D-06 NBFU=     3     0     1     1     0     3     1     1
 Precomputing XC quadrature grid using
 IXCGrd= 2 IRadAn=           0 IRanWt=          -1 IRanGd=           0.
 NRdTot=     120 NPtTot=       15168 NUsed=       15713 NTot=       15729
 NSgBfM=    10    10    10    10.
 Leave Link  302 at Fri Jul 01 20:29:40 2011, MaxMem=    6291456 cpu:       0.0
 (Enter C:\G03W\l303.exe)
 DipDrv:  MaxL=1.
 Leave Link  303 at Fri Jul 01 20:29:40 2011, MaxMem=    6291456 cpu:       0.0
 (Enter C:\G03W\l401.exe)
 Initial guess orbitals will be localized.
 Initial guess read from the checkpoint file:
 D:\Dropbox\My Dropbox\Sajat gyujtes\Hehre MOLMOD\01\H2.chk
 Guess basis will be translated and rotated to current coordinates.
 LocMO: Using Boys method
 Initial Trace= 0.98220736D-16 Initial TraceA= 0.26881076D-29
 RMSG= 0.28686104D-09
 Initial guess orbital symmetries:
       Occupied  (SGG)
       Virtual   (?A) (?B) (?B) (?A) (?A) (?A) (?A) (?A) (?A)
 The electronic state of the initial guess is 1-SGG.
 Leave Link  401 at Fri Jul 01 20:29:40 2011, MaxMem=    6291456 cpu:       0.0
 (Enter C:\G03W\l502.exe)
 Closed shell SCF:
 Requested convergence on RMS density matrix=1.00D-08 within 128 cycles.
 Requested convergence on MAX density matrix=1.00D-06.
 Requested convergence on             energy=1.00D-06.
 No special actions if energy rises.
 Using DIIS extrapolation, IDIIS=  1040.
 Integral symmetry usage will be decided dynamically.
        15712 words used for storage of precomputed grid.
 Keep R1 integrals in memory in canonical form, NReq=      436653.
 IEnd=     34494 IEndB=     34494 NGot=   6291456 MDV=   6272511
 LenX=   6272511
 Symmetry not used in FoFDir.
 MinBra= 0 MaxBra= 1 Meth= 1.
 IRaf=       0 NMat=   1 IRICut=       1 DoRegI=T DoRafI=F ISym2E= 0 JSym2E=0.
 A guess orbital has undefined symmetry, so N**3 symmetry is turned off.

 Cycle   1  Pass 1  IDiag  1:
 E= -1.17853933612790    
 DIIS: error= 8.80D-16 at cycle   1 NSaved=   1.
 NSaved= 1 IEnMin= 1 EnMin= -1.17853933612790     IErMin= 1 ErrMin= 8.80D-16
 ErrMax= 8.80D-16 EMaxC= 1.00D-01 BMatC= 4.61D-30 BMatP= 4.61D-30
 IDIUse=1 WtCom= 1.00D+00 WtEn= 0.00D+00
 Coeff-Com:  0.100D+01
 Coeff:      0.100D+01
 Gap=     2.779 Goal=   None    Shift=    0.000
 RMSDP=1.85D-16 MaxDP=9.44D-16              OVMax= 1.31D-15

 SCF Done:  E(RB+HF-LYP) =  -1.17853933613     A.U. after    1 cycles
             Convg  =    0.1846D-15             -V/T =  2.0314
             S**2   =   0.0000
 KE= 1.142713291756D+00 PE=-3.645451328343D+00 EE= 6.117830501170D-01
 Leave Link  502 at Fri Jul 01 20:29:41 2011, MaxMem=    6291456 cpu:       1.0
 (Enter C:\G03W\l801.exe)
 Range of M.O.s used for correlation:     1    10
 NBasis=    10 NAE=     1 NBE=     1 NFC=     0 NFV=     0
 NROrb=     10 NOA=     1 NOB=     1 NVA=     9 NVB=     9
 Leave Link  801 at Fri Jul 01 20:29:41 2011, MaxMem=    6291456 cpu:       0.0
 (Enter C:\G03W\l1101.exe)
 Using compressed storage, NAtomX=     2.
 Will process   3 centers per pass.
 Leave Link 1101 at Fri Jul 01 20:29:42 2011, MaxMem=    6291456 cpu:       1.0
 (Enter C:\G03W\l1102.exe)
 Use density number 0.
 Symmetrizing basis deriv contribution to polar:
 IMax=3 JMax=2 DiffMx= 0.00D+00
 Leave Link 1102 at Fri Jul 01 20:29:42 2011, MaxMem=    6291456 cpu:       0.0
 (Enter C:\G03W\l1110.exe)
 Forming Gx(P) for the SCF density, NAtomX=     2.
 Integral derivatives from FoFDir, PRISM(SPDF).
 Do as many integral derivatives as possible in FoFDir.
 G2DrvN: MDV=       6291442.
 G2DrvN: will do    3 centers at a time, making    1 passes doing MaxLOS=1.
 Petite list used in FoFDir.
 MinBra= 0 MaxBra= 1 Meth= 1.
 IRaf=       0 NMat=   1 IRICut=       1 DoRegI=T DoRafI=F ISym2E= 1 JSym2E=1.
 FoFDir/FoFCou used for L=0 through L=1.
 Leave Link 1110 at Fri Jul 01 20:29:43 2011, MaxMem=    6291456 cpu:       1.0
 (Enter C:\G03W\l1002.exe)
 Minotr:  Closed-shell wavefunction.
          Direct CPHF calculation.
          Solving linear equations simultaneously.
          Differentiating once with respect to electric field.
                with respect to dipole field.
          Differentiating once with respect to nuclear coordinates.
          Using symmetry in CPHF.
          Requested convergence is 1.0D-08 RMS, and 1.0D-07 maximum.
          Secondary convergence is 1.0D-12 RMS, and 1.0D-12 maximum.
          NewPWx=T KeepS1=F KeepF1=F KeepIn=T MapXYZ=F.
          MDV=       6291456 using IRadAn=       2.
          Store integrals in memory, NReq=      401794.
 Symmetry not used in FoFDir.
 MinBra= 0 MaxBra= 1 Meth= 1.
 IRaf=       0 NMat=   1 IRICut=       1 DoRegI=T DoRafI=F ISym2E= 0 JSym2E=0.
          There are   6 degrees of freedom in the 1st order CPHF.
     6 vectors were produced by pass  0.
 AX will form   6 AO Fock derivatives at one time.
     2 vectors were produced by pass  1.
     1 vectors were produced by pass  2.
 Inv2:  IOpt= 1 Iter= 1 AM= 2.11D-16 Conv= 1.00D-12.
 Inverted reduced A of dimension    9 with in-core refinement.
 Isotropic polarizability for W=    0.000000        2.51 Bohr**3.
 End of Minotr Frequency-dependent properties file   721 does not exist.
 Leave Link 1002 at Fri Jul 01 20:29:43 2011, MaxMem=    6291456 cpu:       0.0
 (Enter C:\G03W\l601.exe)
 Copying SCF densities to generalized density rwf, ISCF=0 IROHF=0.

 **********************************************************************

            Population analysis using the SCF density.

 **********************************************************************

 Orbital symmetries:
       Occupied  (SGG)
       Virtual   (SGU) (SGG) (SGU) (PIU) (PIU) (SGG) (PIG) (PIG)
                 (SGU)
 The electronic state is 1-SGG.
 Alpha  occ. eigenvalues --   -0.43158
 Alpha virt. eigenvalues --    0.10097   0.57700   1.03609   1.67471   1.67471
 Alpha virt. eigenvalues --    2.37888   2.61567   2.61567   4.15286
          Condensed to atoms (all electrons):
              1          2
     1  H    0.589017   0.410983
     2  H    0.410983   0.589017
 Mulliken atomic charges:
              1
     1  H    0.000000
     2  H    0.000000
 Sum of Mulliken charges=   0.00000
 Atomic charges with hydrogens summed into heavy atoms:
              1
     1  H    0.000000
     2  H    0.000000
 Sum of Mulliken charges=   0.00000
 APT atomic charges:
              1
     1  H    0.000000
     2  H    0.000000
 Sum of APT charges=   0.00000
 APT Atomic charges with hydrogens summed into heavy atoms:
              1
     1  H    0.000000
     2  H    0.000000
 Sum of APT charges=   0.00000
 Electronic spatial extent (au):  <R**2>=     5.1232
 Charge=     0.0000 electrons
 Dipole moment (field-independent basis, Debye):
    X=     0.0000    Y=     0.0000    Z=     0.0000  Tot=     0.0000
 Quadrupole moment (field-independent basis, Debye-Ang):
   XX=    -2.0291   YY=    -2.0291   ZZ=    -1.5076
   XY=     0.0000   XZ=     0.0000   YZ=     0.0000
 Traceless Quadrupole moment (field-independent basis, Debye-Ang):
   XX=    -0.1738   YY=    -0.1738   ZZ=     0.3477
   XY=     0.0000   XZ=     0.0000   YZ=     0.0000
 Octapole moment (field-independent basis, Debye-Ang**2):
  XXX=     0.0000  YYY=     0.0000  ZZZ=     0.0000  XYY=     0.0000
  XXY=     0.0000  XXZ=     0.0000  XZZ=     0.0000  YZZ=     0.0000
  YYZ=     0.0000  XYZ=     0.0000
 Hexadecapole moment (field-independent basis, Debye-Ang**3):
 XXXX=    -1.8759 YYYY=    -1.8759 ZZZZ=    -2.7679 XXXY=     0.0000
 XXXZ=     0.0000 YYYX=     0.0000 YYYZ=     0.0000 ZZZX=     0.0000
 ZZZY=     0.0000 XXYY=    -0.6253 XXZZ=    -0.7888 YYZZ=    -0.7888
 XXYZ=     0.0000 YYXZ=     0.0000 ZZXY=     0.0000
 N-N= 7.124156503425D-01 E-N=-3.645451328343D+00  KE= 1.142713291756D+00
 Symmetry AG   KE= 1.142713291756D+00
 Symmetry B1G  KE= 0.000000000000D+00
 Symmetry B2G  KE= 1.996925326495D-31
 Symmetry B3G  KE= 6.055305974535D-32
 Symmetry AU   KE= 0.000000000000D+00
 Symmetry B1U  KE= 4.448103587215D-17
 Symmetry B2U  KE= 2.916852433705D-33
 Symmetry B3U  KE= 6.866985826823D-32
  Exact polarizability:   0.582   0.000   0.582   0.000   0.000   6.366
 Approx polarizability:   0.599   0.000   0.599   0.000   0.000   7.764
 No NMR shielding tensors so no spin-rotation constants.
 Leave Link  601 at Fri Jul 01 20:29:44 2011, MaxMem=    6291456 cpu:       0.0
 (Enter C:\G03W\l701.exe)
 Compute integral second derivatives.
 ... and contract with generalized density number  0.
 Leave Link  701 at Fri Jul 01 20:29:44 2011, MaxMem=    6291456 cpu:       0.0
 (Enter C:\G03W\l702.exe)
 L702 exits ... SP integral derivatives will be done elsewhere.
 Leave Link  702 at Fri Jul 01 20:29:44 2011, MaxMem=    6291456 cpu:       0.0
 (Enter C:\G03W\l703.exe)
 Compute integral second derivatives, UseDBF=F.
 Integral derivatives from FoFDir, PRISM(SPDF).
 Petite list used in FoFDir.
 MinBra= 0 MaxBra= 1 Meth= 1.
 IRaf=       0 NMat=   1 IRICut=       1 DoRegI=T DoRafI=F ISym2E= 1 JSym2E=1.
 Leave Link  703 at Fri Jul 01 20:29:45 2011, MaxMem=    6291456 cpu:       0.0
 (Enter C:\G03W\l716.exe)
 Dipole        =-3.69778549D-32-1.54431812D-32 4.92769887D-17
 Polarizability= 5.81927327D-01 1.07884248D-16 5.81927327D-01
                -2.65780655D-13-4.47164693D-13 6.36555820D+00
 Full mass-weighted force constant matrix:
 Low frequencies ---  -11.7185  -11.7185    0.0001    0.0001    0.0001 4465.6593
 Diagonal vibrational polarizability:
        0.0000000       0.0000000       0.0000000
 Harmonic frequencies (cm**-1), IR intensities (KM/Mole), Raman scattering
 activities (A**4/AMU), depolarization ratios for plane and unpolarized
 incident light, reduced masses (AMU), force constants (mDyne/A),
 and normal coordinates:
                     1
                    SGG
 Frequencies --  4465.6593
 Red. masses --     1.0078
 Frc consts  --    11.8415
 IR Inten    --     0.0000
 Atom AN      X      Y      Z
   1   1     0.00   0.00   0.71
   2   1     0.00   0.00  -0.71

 -------------------
 - Thermochemistry -
 -------------------
 Temperature   298.150 Kelvin.  Pressure   1.00000 Atm.
 Atom  1 has atomic number  1 and mass   1.00783
 Atom  2 has atomic number  1 and mass   1.00783
 Molecular mass:     2.01565 amu.
 Principal axes and moments of inertia in atomic units:
                           1         2         3
     EIGENVALUES --     0.00000   0.99286   0.99286
           X            0.00000   1.00000   0.00000
           Y            0.00000   0.00000   1.00000
           Z            1.00000   0.00000   0.00000
 This molecule is a prolate symmetric top.
 Rotational symmetry number  2.
 Rotational temperature (Kelvin)     87.23664
 Rotational constant (GHZ):        1817.718764
 Zero-point vibrational energy      26710.6 (Joules/Mol)
                                    6.38398 (Kcal/Mol)
 Vibrational temperatures:   6425.08
          (Kelvin)
 
 Zero-point correction=                           0.010174 (Hartree/Particle)
 Thermal correction to Energy=                    0.012534
 Thermal correction to Enthalpy=                  0.013478
 Thermal correction to Gibbs Free Energy=        -0.001314
 Sum of electronic and zero-point Energies=             -1.168366
 Sum of electronic and thermal Energies=                -1.166005
 Sum of electronic and thermal Enthalpies=              -1.165061
 Sum of electronic and thermal Free Energies=           -1.179853
 
                     E (Thermal)             CV                S
                      KCal/Mol        Cal/Mol-Kelvin    Cal/Mol-Kelvin
 Total                    7.865              4.968             31.132
 Electronic               0.000              0.000              0.000
 Translational            0.889              2.981             28.080
 Rotational               0.592              1.987              3.052
 Vibrational              6.384              0.000              0.000
                       Q            Log10(Q)             Ln(Q)
 Total Bot       0.402068D+01          0.604299          1.391450
 Total V=0       0.192213D+06          5.283784         12.166362
 Vib (Bot)       0.209178D-04         -4.679485        -10.774912
 Vib (V=0)       0.100000D+01          0.000000          0.000000
 Electronic      0.100000D+01          0.000000          0.000000
 Translational   0.112481D+06          5.051078         11.630537
 Rotational      0.170886D+01          0.232706          0.535825
 ***** Axes restored to original set *****
 -------------------------------------------------------------------
 Center     Atomic                   Forces (Hartrees/Bohr)
 Number     Number              X              Y              Z
 -------------------------------------------------------------------
    1          1           0.000000296    0.000000000    0.000000000
    2          1          -0.000000296    0.000000000    0.000000000
 -------------------------------------------------------------------
 Cartesian Forces:  Max     0.000000296 RMS     0.000000171
 Force constants in Cartesian coordinates: 
                1             2             3             4             5
      1  0.380292D+00
      2  0.000000D+00 -0.261874D-05
      3  0.000000D+00  0.000000D+00 -0.261874D-05
      4 -0.380292D+00  0.000000D+00  0.000000D+00  0.380292D+00
      5  0.000000D+00  0.261874D-05  0.000000D+00  0.000000D+00 -0.261874D-05
      6  0.000000D+00  0.000000D+00  0.261874D-05  0.000000D+00  0.000000D+00
                6
      6 -0.261874D-05
 Force constants in internal coordinates: 
                1
      1  0.380292D+00
 Leave Link  716 at Fri Jul 01 20:29:45 2011, MaxMem=    6291456 cpu:       0.0
 (Enter C:\G03W\l103.exe)

 GradGradGradGradGradGradGradGradGradGradGradGradGradGradGradGradGradGrad
 Berny optimization.
 Internal  Forces:  Max     0.000000296 RMS     0.000000296
 Search for a local minimum.
 Step number   1 out of a maximum of   2
 All quantities printed in internal units (Hartrees-Bohrs-Radians)
 Second derivative matrix not updated -- analytic derivatives used.
 The second derivative matrix:
                          R1
           R1           0.38029
     Eigenvalues ---    0.38029
 Angle between quadratic step and forces=  90.00 degrees.
 Linear search not attempted -- first point.
 Iteration  1 RMS(Cart)=  0.00000055 RMS(Int)=  0.00000000
 Variable       Old X    -DE/DX   Delta X   Delta X   Delta X     New X
                                 (Linear)    (Quad)   (Total)
    R1        1.40367   0.00000   0.00000   0.00000   0.00000   1.40368
         Item               Value     Threshold  Converged?
 Maximum Force            0.000000     0.000450     YES
 RMS     Force            0.000000     0.000300     YES
 Maximum Displacement     0.000000     0.001800     YES
 RMS     Displacement     0.000001     0.001200     YES
 Predicted change in Energy=-1.150392D-13
 Optimization completed.
    -- Stationary point found.
                           ----------------------------
                           !   Optimized Parameters   !
                           ! (Angstroms and Degrees)  !
 --------------------------                            --------------------------
 ! Name  Definition              Value          Derivative Info.                !
 --------------------------------------------------------------------------------
 ! R1    R(1,2)                  0.7428         -DE/DX =    0.0                 !
 --------------------------------------------------------------------------------
 GradGradGradGradGradGradGradGradGradGradGradGradGradGradGradGradGradGrad

 Leave Link  103 at Fri Jul 01 20:29:45 2011, MaxMem=    6291456 cpu:       0.0
 (Enter C:\G03W\l9999.exe)
 1|1|UNPC-UNK|Freq|RB3LYP|6-31G(d,p)|H2|PCUSER|01-Jul-2011|0||#P GEOM=A
 LLCHECK GUESS=READ SCRF=CHECK GENCHK RB3LYP/6-31G(D,P) FREQ||H2||0,1|H
 ,0.3713963948,0.,0.|H,-0.3713963948,0.,0.||Version=x86-Win32-G03RevB.0
 3|State=1-SGG|HF=-1.1785393|RMSD=1.846e-016|RMSF=1.708e-007|Dipole=0.,
 0.,0.|DipoleDeriv=0.,0.,0.,0.,0.,0.,0.,0.,0.,0.,0.,0.,0.,0.,0.,0.,0.,0
 .|Polar=6.3655582,0.,0.5819273,0.,0.,0.5819273|PG=D*H [C*(H1.H1)]|NIma
 g=0||0.38029250,0.,-0.00000262,0.,0.,-0.00000262,-0.38029250,0.,0.,0.3
 8029250,0.,0.00000262,0.,0.,-0.00000262,0.,0.,0.00000262,0.,0.,-0.0000
 0262||-0.00000030,0.,0.,0.00000030,0.,0.|||@


 COMMON SENSE IS NOT SO COMMON.   -- VOLTAIRE
 Job cpu time:  0 days  0 hours  0 minutes  8.0 seconds.
 File lengths (MBytes):  RWF=     11 Int=      0 D2E=      0 Chk=      4 Scr=      1
 Normal termination of Gaussian 03 at Fri Jul 01 20:29:46 2011.
