 Entering Gaussian System, Link 0=g09
 Initial command:
 /global/software/gaussian/g09.e01/l1.exe "/scratch/10462978.yak.local/Gau-23721.inp" -scrdir="/scratch/10462978.yak.local/"
 Entering Link 1 = /global/software/gaussian/g09.e01/l1.exe PID=     23722.
  
 Copyright (c) 1988,1990,1992,1993,1995,1998,2003,2009,2015,
            Gaussian, Inc.  All Rights Reserved.
  
 This is part of the Gaussian(R) 09 program.  It is based on
 the Gaussian(R) 03 system (copyright 2003, Gaussian, Inc.),
 the Gaussian(R) 98 system (copyright 1998, Gaussian, Inc.),
 the Gaussian(R) 94 system (copyright 1995, Gaussian, Inc.),
 the Gaussian 92(TM) system (copyright 1992, Gaussian, Inc.),
 the Gaussian 90(TM) system (copyright 1990, Gaussian, Inc.),
 the Gaussian 88(TM) system (copyright 1988, Gaussian, Inc.),
 the Gaussian 86(TM) system (copyright 1986, Carnegie Mellon
 University), and the Gaussian 82(TM) system (copyright 1983,
 Carnegie Mellon University). Gaussian is a federally registered
 trademark of Gaussian, Inc.
  
 This software contains proprietary and confidential information,
 including trade secrets, belonging to Gaussian, Inc.
  
 This software is provided under written license and may be
 used, copied, transmitted, or stored only in accord with that
 written license.
  
 The following legend is applicable only to US Government
 contracts under FAR:
  
                    RESTRICTED RIGHTS LEGEND
  
 Use, reproduction and disclosure by the US Government is
 subject to restrictions as set forth in subparagraphs (a)
 and (c) of the Commercial Computer Software - Restricted
 Rights clause in FAR 52.227-19.
  
 Gaussian, Inc.
 340 Quinnipiac St., Bldg. 40, Wallingford CT 06492
  
  
 ---------------------------------------------------------------
 Warning -- This program may not be used in any manner that
 competes with the business of Gaussian, Inc. or will provide
 assistance to any competitor of Gaussian, Inc.  The licensee
 of this program is prohibited from giving any competitor of
 Gaussian, Inc. access to this program.  By using this program,
 the user acknowledges that Gaussian, Inc. is engaged in the
 business of creating and licensing software in the field of
 computational chemistry and represents and warrants to the
 licensee that it is not a competitor of Gaussian, Inc. and that
 it will not use this program in any manner prohibited above.
 ---------------------------------------------------------------
  

 Cite this work as:
 Gaussian 09, Revision E.01,
 M. J. Frisch, G. W. Trucks, H. B. Schlegel, G. E. Scuseria, 
 M. A. Robb, J. R. Cheeseman, G. Scalmani, V. Barone, B. Mennucci, 
 G. A. Petersson, H. Nakatsuji, M. Caricato, X. Li, H. P. Hratchian, 
 A. F. Izmaylov, J. Bloino, G. Zheng, J. L. Sonnenberg, M. Hada, 
 M. Ehara, K. Toyota, R. Fukuda, J. Hasegawa, M. Ishida, T. Nakajima, 
 Y. Honda, O. Kitao, H. Nakai, T. Vreven, J. A. Montgomery, Jr., 
 J. E. Peralta, F. Ogliaro, M. Bearpark, J. J. Heyd, E. Brothers, 
 K. N. Kudin, V. N. Staroverov, T. Keith, R. Kobayashi, J. Normand, 
 K. Raghavachari, A. Rendell, J. C. Burant, S. S. Iyengar, J. Tomasi, 
 M. Cossi, N. Rega, J. M. Millam, M. Klene, J. E. Knox, J. B. Cross, 
 V. Bakken, C. Adamo, J. Jaramillo, R. Gomperts, R. E. Stratmann, 
 O. Yazyev, A. J. Austin, R. Cammi, C. Pomelli, J. W. Ochterski, 
 R. L. Martin, K. Morokuma, V. G. Zakrzewski, G. A. Voth, 
 P. Salvador, J. J. Dannenberg, S. Dapprich, A. D. Daniels, 
 O. Farkas, J. B. Foresman, J. V. Ortiz, J. Cioslowski, 
 and D. J. Fox, Gaussian, Inc., Wallingford CT, 2013.
 
 ******************************************
 Gaussian 09:  ES64L-G09RevE.01 30-Nov-2015
                15-Jan-2017 
 ******************************************
 %NPROCS=4
 Will use up to    4 processors via shared memory.
 -----------------------------------------
 # opt=(MaxCycle=1000) freq B3LYP/6-31G(d)
 -----------------------------------------
 1/6=1000,14=-1,18=20,19=15,26=3,38=1/1,3;
 2/9=110,12=2,17=6,18=5,40=1/2;
 3/5=1,6=6,7=1,11=2,16=1,25=1,30=1,71=1,74=-5/1,2,3;
 4//1;
 5/5=2,38=5/2;
 6/7=2,8=2,9=2,10=2,28=1/1;
 7//1,2,3,16;
 1/6=1000,14=-1,18=20,19=15,26=3/3(2);
 2/9=110/2;
 99//99;
 2/9=110/2;
 3/5=1,6=6,7=1,11=2,16=1,25=1,30=1,71=1,74=-5/1,2,3;
 4/5=5,16=3,69=1/1;
 5/5=2,38=5/2;
 7//1,2,3,16;
 1/6=1000,14=-1,18=20,19=15,26=3/3(-5);
 2/9=110/2;
 6/7=2,8=2,9=2,10=2,19=2,28=1/1;
 99/9=1/99;
 ---------------------------------------------------
 ./chairs/2/glo_1w_alpha_ircf_chair2_B3LYP_631Gd.out
 ---------------------------------------------------
 Symbolic Z-matrix:
 Charge =  0 Multiplicity = 1
 C                    -1.42311  -0.05712  -0.89272 
 O                    -1.03954   0.79254   0.34699 
 C                    -0.96996  -1.48468  -0.58391 
 C                     0.5025   -1.53808  -0.12245 
 C                     0.80935  -0.56314   1.03367 
 C                     0.34097   0.87259   0.76248 
 H                    -1.07539  -2.09277  -1.50073 
 H                     1.88803  -0.55666   1.21839 
 H                     0.32094   1.37902   1.73332 
 H                     0.71092  -2.54806   0.2514 
 O                    -1.80211  -2.00243   0.44244 
 O                     1.35718  -1.23964  -1.24483 
 O                     0.20063  -1.07243   2.21083 
 H                     1.23733  -1.93898  -1.9075 
 H                    -2.66071  -1.55521   0.29672 
 H                    -0.71485  -1.30946   1.96779 
 C                     1.19621   1.7361   -0.18602 
 O                     2.46256   1.99849   0.37814 
 H                     0.67773   2.69443  -0.319 
 H                     1.27834   1.26797  -1.17616 
 H                     3.07106   1.2819    0.09245 
 H                    -0.88897   0.38181  -1.74453 
 O                    -2.77945   0.00465  -0.99148 
 H                    -3.02537   0.97897  -0.82754 
 H                    -1.97137   1.94831   0.20695 
 O                    -2.80468   2.30975  -0.21049 
 H                    -3.43583   2.4191    0.5168 
 O                     3.88875  -0.1351   -0.70698 
 H                     4.25836   0.20518  -1.53562 
 H                     3.0979   -0.65023  -0.97059 
 
 Add virtual bond connecting atoms H25        and O2         Dist= 2.82D+00.
 Add virtual bond connecting atoms O26        and H24        Dist= 2.80D+00.
 Add virtual bond connecting atoms O28        and H21        Dist= 3.44D+00.
 Add virtual bond connecting atoms H30        and O12        Dist= 3.51D+00.

 GradGradGradGradGradGradGradGradGradGradGradGradGradGradGradGradGradGrad
 Berny optimization.
 Initialization pass.
                           ----------------------------
                           !    Initial Parameters    !
                           ! (Angstroms and Degrees)  !
 --------------------------                            --------------------------
 ! Name  Definition              Value          Derivative Info.                !
 --------------------------------------------------------------------------------
 ! R1    R(1,2)                  1.5511         estimate D2E/DX2                !
 ! R2    R(1,3)                  1.5293         estimate D2E/DX2                !
 ! R3    R(1,22)                 1.0971         estimate D2E/DX2                !
 ! R4    R(1,23)                 1.3613         estimate D2E/DX2                !
 ! R5    R(2,6)                  1.4439         estimate D2E/DX2                !
 ! R6    R(2,25)                 1.4912         estimate D2E/DX2                !
 ! R7    R(3,4)                  1.544          estimate D2E/DX2                !
 ! R8    R(3,7)                  1.1052         estimate D2E/DX2                !
 ! R9    R(3,11)                 1.4191         estimate D2E/DX2                !
 ! R10   R(4,5)                  1.5431         estimate D2E/DX2                !
 ! R11   R(4,10)                 1.0969         estimate D2E/DX2                !
 ! R12   R(4,12)                 1.442          estimate D2E/DX2                !
 ! R13   R(5,6)                  1.5344         estimate D2E/DX2                !
 ! R14   R(5,8)                  1.0944         estimate D2E/DX2                !
 ! R15   R(5,13)                 1.4197         estimate D2E/DX2                !
 ! R16   R(6,9)                  1.0952         estimate D2E/DX2                !
 ! R17   R(6,17)                 1.5417         estimate D2E/DX2                !
 ! R18   R(11,15)                0.979          estimate D2E/DX2                !
 ! R19   R(12,14)                0.9709         estimate D2E/DX2                !
 ! R20   R(12,30)                1.8581         estimate D2E/DX2                !
 ! R21   R(13,16)                0.9764         estimate D2E/DX2                !
 ! R22   R(17,18)                1.4109         estimate D2E/DX2                !
 ! R23   R(17,19)                1.0977         estimate D2E/DX2                !
 ! R24   R(17,20)                1.0983         estimate D2E/DX2                !
 ! R25   R(18,21)                0.9825         estimate D2E/DX2                !
 ! R26   R(21,28)                1.8209         estimate D2E/DX2                !
 ! R27   R(23,24)                1.0182         estimate D2E/DX2                !
 ! R28   R(24,26)                1.4834         estimate D2E/DX2                !
 ! R29   R(25,26)                0.9997         estimate D2E/DX2                !
 ! R30   R(26,27)                0.9692         estimate D2E/DX2                !
 ! R31   R(28,29)                0.969          estimate D2E/DX2                !
 ! R32   R(28,30)                0.9799         estimate D2E/DX2                !
 ! A1    A(2,1,3)              106.062          estimate D2E/DX2                !
 ! A2    A(2,1,22)             106.3202         estimate D2E/DX2                !
 ! A3    A(2,1,23)             106.2309         estimate D2E/DX2                !
 ! A4    A(3,1,22)             112.7063         estimate D2E/DX2                !
 ! A5    A(3,1,23)             110.6244         estimate D2E/DX2                !
 ! A6    A(22,1,23)            114.2434         estimate D2E/DX2                !
 ! A7    A(1,2,6)              119.7876         estimate D2E/DX2                !
 ! A8    A(1,2,25)             101.2432         estimate D2E/DX2                !
 ! A9    A(6,2,25)             125.5561         estimate D2E/DX2                !
 ! A10   A(1,3,4)              112.0384         estimate D2E/DX2                !
 ! A11   A(1,3,7)              108.5322         estimate D2E/DX2                !
 ! A12   A(1,3,11)             108.2317         estimate D2E/DX2                !
 ! A13   A(4,3,7)              108.6556         estimate D2E/DX2                !
 ! A14   A(4,3,11)             109.2955         estimate D2E/DX2                !
 ! A15   A(7,3,11)             110.0769         estimate D2E/DX2                !
 ! A16   A(3,4,5)              113.0603         estimate D2E/DX2                !
 ! A17   A(3,4,10)             108.355          estimate D2E/DX2                !
 ! A18   A(3,4,12)             108.9936         estimate D2E/DX2                !
 ! A19   A(5,4,10)             106.7735         estimate D2E/DX2                !
 ! A20   A(5,4,12)             109.544          estimate D2E/DX2                !
 ! A21   A(10,4,12)            110.0732         estimate D2E/DX2                !
 ! A22   A(4,5,6)              113.4571         estimate D2E/DX2                !
 ! A23   A(4,5,8)              109.0375         estimate D2E/DX2                !
 ! A24   A(4,5,13)             108.0171         estimate D2E/DX2                !
 ! A25   A(6,5,8)              108.9758         estimate D2E/DX2                !
 ! A26   A(6,5,13)             110.5687         estimate D2E/DX2                !
 ! A27   A(8,5,13)             106.5454         estimate D2E/DX2                !
 ! A28   A(2,6,5)              106.9084         estimate D2E/DX2                !
 ! A29   A(2,6,9)              105.2622         estimate D2E/DX2                !
 ! A30   A(2,6,17)             112.607          estimate D2E/DX2                !
 ! A31   A(5,6,9)              106.3557         estimate D2E/DX2                !
 ! A32   A(5,6,17)             117.6138         estimate D2E/DX2                !
 ! A33   A(9,6,17)             107.2495         estimate D2E/DX2                !
 ! A34   A(3,11,15)            103.8839         estimate D2E/DX2                !
 ! A35   A(4,12,14)            108.0006         estimate D2E/DX2                !
 ! A36   A(4,12,30)            120.3999         estimate D2E/DX2                !
 ! A37   A(14,12,30)           116.4152         estimate D2E/DX2                !
 ! A38   A(5,13,16)            106.4217         estimate D2E/DX2                !
 ! A39   A(6,17,18)            110.8584         estimate D2E/DX2                !
 ! A40   A(6,17,19)            107.5484         estimate D2E/DX2                !
 ! A41   A(6,17,20)            110.9405         estimate D2E/DX2                !
 ! A42   A(18,17,19)           108.0602         estimate D2E/DX2                !
 ! A43   A(18,17,20)           111.8771         estimate D2E/DX2                !
 ! A44   A(19,17,20)           107.3511         estimate D2E/DX2                !
 ! A45   A(17,18,21)           107.6951         estimate D2E/DX2                !
 ! A46   A(1,23,24)            105.8064         estimate D2E/DX2                !
 ! A47   A(23,24,26)           152.8154         estimate D2E/DX2                !
 ! A48   A(2,25,26)            147.177          estimate D2E/DX2                !
 ! A49   A(24,26,25)            88.4731         estimate D2E/DX2                !
 ! A50   A(24,26,27)           108.4513         estimate D2E/DX2                !
 ! A51   A(25,26,27)           105.6819         estimate D2E/DX2                !
 ! A52   A(21,28,29)           105.8691         estimate D2E/DX2                !
 ! A53   A(21,28,30)            99.4838         estimate D2E/DX2                !
 ! A54   A(29,28,30)           105.2112         estimate D2E/DX2                !
 ! A55   A(12,30,28)           164.2551         estimate D2E/DX2                !
 ! A56   L(18,21,28,1,-1)      168.0166         estimate D2E/DX2                !
 ! A57   L(18,21,28,1,-2)      174.1623         estimate D2E/DX2                !
 ! D1    D(3,1,2,6)             59.194          estimate D2E/DX2                !
 ! D2    D(3,1,2,25)          -157.968          estimate D2E/DX2                !
 ! D3    D(22,1,2,6)           -60.9951         estimate D2E/DX2                !
 ! D4    D(22,1,2,25)           81.8429         estimate D2E/DX2                !
 ! D5    D(23,1,2,6)           176.9418         estimate D2E/DX2                !
 ! D6    D(23,1,2,25)          -40.2202         estimate D2E/DX2                !
 ! D7    D(2,1,3,4)            -51.082          estimate D2E/DX2                !
 ! D8    D(2,1,3,7)           -171.0599         estimate D2E/DX2                !
 ! D9    D(2,1,3,11)            69.4934         estimate D2E/DX2                !
 ! D10   D(22,1,3,4)            64.8602         estimate D2E/DX2                !
 ! D11   D(22,1,3,7)           -55.1177         estimate D2E/DX2                !
 ! D12   D(22,1,3,11)         -174.5644         estimate D2E/DX2                !
 ! D13   D(23,1,3,4)          -165.8624         estimate D2E/DX2                !
 ! D14   D(23,1,3,7)            74.1597         estimate D2E/DX2                !
 ! D15   D(23,1,3,11)          -45.287          estimate D2E/DX2                !
 ! D16   D(2,1,23,24)           43.5758         estimate D2E/DX2                !
 ! D17   D(3,1,23,24)          158.25           estimate D2E/DX2                !
 ! D18   D(22,1,23,24)         -73.301          estimate D2E/DX2                !
 ! D19   D(1,2,6,5)            -57.977          estimate D2E/DX2                !
 ! D20   D(1,2,6,9)           -170.8089         estimate D2E/DX2                !
 ! D21   D(1,2,6,17)            72.6668         estimate D2E/DX2                !
 ! D22   D(25,2,6,5)           168.7642         estimate D2E/DX2                !
 ! D23   D(25,2,6,9)            55.9323         estimate D2E/DX2                !
 ! D24   D(25,2,6,17)          -60.592          estimate D2E/DX2                !
 ! D25   D(1,2,25,26)           17.9797         estimate D2E/DX2                !
 ! D26   D(6,2,25,26)          157.8583         estimate D2E/DX2                !
 ! D27   D(1,3,4,5)             51.8751         estimate D2E/DX2                !
 ! D28   D(1,3,4,10)           170.0205         estimate D2E/DX2                !
 ! D29   D(1,3,4,12)           -70.2015         estimate D2E/DX2                !
 ! D30   D(7,3,4,5)            171.781          estimate D2E/DX2                !
 ! D31   D(7,3,4,10)           -70.0736         estimate D2E/DX2                !
 ! D32   D(7,3,4,12)            49.7044         estimate D2E/DX2                !
 ! D33   D(11,3,4,5)           -68.081          estimate D2E/DX2                !
 ! D34   D(11,3,4,10)           50.0644         estimate D2E/DX2                !
 ! D35   D(11,3,4,12)          169.8424         estimate D2E/DX2                !
 ! D36   D(1,3,11,15)           30.8679         estimate D2E/DX2                !
 ! D37   D(4,3,11,15)          153.137          estimate D2E/DX2                !
 ! D38   D(7,3,11,15)          -87.6009         estimate D2E/DX2                !
 ! D39   D(3,4,5,6)            -50.9088         estimate D2E/DX2                !
 ! D40   D(3,4,5,8)           -172.5568         estimate D2E/DX2                !
 ! D41   D(3,4,5,13)            72.0381         estimate D2E/DX2                !
 ! D42   D(10,4,5,6)          -169.9721         estimate D2E/DX2                !
 ! D43   D(10,4,5,8)            68.3798         estimate D2E/DX2                !
 ! D44   D(10,4,5,13)          -47.0253         estimate D2E/DX2                !
 ! D45   D(12,4,5,6)            70.859          estimate D2E/DX2                !
 ! D46   D(12,4,5,8)           -50.789          estimate D2E/DX2                !
 ! D47   D(12,4,5,13)         -166.1942         estimate D2E/DX2                !
 ! D48   D(3,4,12,14)          -63.7748         estimate D2E/DX2                !
 ! D49   D(3,4,12,30)          159.0896         estimate D2E/DX2                !
 ! D50   D(5,4,12,14)          172.0472         estimate D2E/DX2                !
 ! D51   D(5,4,12,30)           34.9115         estimate D2E/DX2                !
 ! D52   D(10,4,12,14)          54.9336         estimate D2E/DX2                !
 ! D53   D(10,4,12,30)         -82.2021         estimate D2E/DX2                !
 ! D54   D(4,5,6,2)             50.6506         estimate D2E/DX2                !
 ! D55   D(4,5,6,9)            162.7335         estimate D2E/DX2                !
 ! D56   D(4,5,6,17)           -77.1154         estimate D2E/DX2                !
 ! D57   D(8,5,6,2)            172.3331         estimate D2E/DX2                !
 ! D58   D(8,5,6,9)            -75.584          estimate D2E/DX2                !
 ! D59   D(8,5,6,17)            44.5671         estimate D2E/DX2                !
 ! D60   D(13,5,6,2)           -70.8797         estimate D2E/DX2                !
 ! D61   D(13,5,6,9)            41.2031         estimate D2E/DX2                !
 ! D62   D(13,5,6,17)          161.3543         estimate D2E/DX2                !
 ! D63   D(4,5,13,16)          -47.7137         estimate D2E/DX2                !
 ! D64   D(6,5,13,16)           76.9765         estimate D2E/DX2                !
 ! D65   D(8,5,13,16)         -164.743          estimate D2E/DX2                !
 ! D66   D(2,6,17,18)          168.9301         estimate D2E/DX2                !
 ! D67   D(2,6,17,19)           50.9968         estimate D2E/DX2                !
 ! D68   D(2,6,17,20)          -66.1269         estimate D2E/DX2                !
 ! D69   D(5,6,17,18)          -66.0844         estimate D2E/DX2                !
 ! D70   D(5,6,17,19)          175.9823         estimate D2E/DX2                !
 ! D71   D(5,6,17,20)           58.8585         estimate D2E/DX2                !
 ! D72   D(9,6,17,18)           53.5977         estimate D2E/DX2                !
 ! D73   D(9,6,17,19)          -64.3356         estimate D2E/DX2                !
 ! D74   D(9,6,17,20)          178.5406         estimate D2E/DX2                !
 ! D75   D(4,12,30,28)         -62.1632         estimate D2E/DX2                !
 ! D76   D(14,12,30,28)        164.089          estimate D2E/DX2                !
 ! D77   D(6,17,18,21)          90.3685         estimate D2E/DX2                !
 ! D78   D(19,17,18,21)       -152.0102         estimate D2E/DX2                !
 ! D79   D(20,17,18,21)        -34.0436         estimate D2E/DX2                !
 ! D80   D(17,18,28,29)         91.4363         estimate D2E/DX2                !
 ! D81   D(17,18,28,30)        -15.9192         estimate D2E/DX2                !
 ! D82   D(1,23,24,26)         -30.1801         estimate D2E/DX2                !
 ! D83   D(23,24,26,25)          2.0688         estimate D2E/DX2                !
 ! D84   D(23,24,26,27)       -103.9619         estimate D2E/DX2                !
 ! D85   D(2,25,26,24)           3.4063         estimate D2E/DX2                !
 ! D86   D(2,25,26,27)         112.1519         estimate D2E/DX2                !
 ! D87   D(21,28,30,12)         -0.6603         estimate D2E/DX2                !
 ! D88   D(29,28,30,12)       -110.0941         estimate D2E/DX2                !
 --------------------------------------------------------------------------------
 Trust Radius=3.00D-01 FncErr=1.00D-07 GrdErr=1.00D-06
 Number of steps in this run=    180 maximum allowed number of steps=    180.
 GradGradGradGradGradGradGradGradGradGradGradGradGradGradGradGradGradGrad

                          Input orientation:                          
 ---------------------------------------------------------------------
 Center     Atomic      Atomic             Coordinates (Angstroms)
 Number     Number       Type             X           Y           Z
 ---------------------------------------------------------------------
      1          6           0       -1.423110   -0.057120   -0.892720
      2          8           0       -1.039540    0.792540    0.346990
      3          6           0       -0.969960   -1.484680   -0.583910
      4          6           0        0.502500   -1.538080   -0.122450
      5          6           0        0.809350   -0.563140    1.033670
      6          6           0        0.340970    0.872590    0.762480
      7          1           0       -1.075390   -2.092770   -1.500730
      8          1           0        1.888030   -0.556660    1.218390
      9          1           0        0.320940    1.379020    1.733320
     10          1           0        0.710920   -2.548060    0.251400
     11          8           0       -1.802110   -2.002430    0.442440
     12          8           0        1.357180   -1.239640   -1.244830
     13          8           0        0.200630   -1.072430    2.210830
     14          1           0        1.237330   -1.938980   -1.907500
     15          1           0       -2.660710   -1.555210    0.296720
     16          1           0       -0.714850   -1.309460    1.967790
     17          6           0        1.196210    1.736100   -0.186020
     18          8           0        2.462560    1.998490    0.378140
     19          1           0        0.677730    2.694430   -0.319000
     20          1           0        1.278340    1.267970   -1.176160
     21          1           0        3.071060    1.281900    0.092450
     22          1           0       -0.888970    0.381810   -1.744530
     23          8           0       -2.779450    0.004650   -0.991480
     24          1           0       -3.025370    0.978970   -0.827540
     25          1           0       -1.971370    1.948310    0.206950
     26          8           0       -2.804680    2.309750   -0.210490
     27          1           0       -3.435830    2.419100    0.516800
     28          8           0        3.888750   -0.135100   -0.706980
     29          1           0        4.258360    0.205180   -1.535620
     30          1           0        3.097900   -0.650230   -0.970590
 ---------------------------------------------------------------------
                    Distance matrix (angstroms):
                    1          2          3          4          5
     1  C    0.000000
     2  O    1.551106   0.000000
     3  C    1.529260   2.461127   0.000000
     4  C    2.548437   2.833734   1.544000   0.000000
     5  C    2.991808   2.393281   2.575217   1.543139   0.000000
     6  C    2.591530   1.443900   3.014635   2.573038   1.534355
     7  H    2.152779   3.426422   1.105191   2.167273   3.509301
     8  H    3.958532   3.339213   3.503943   2.163500   1.094401
     9  H    3.464144   2.028984   3.903429   3.462126   2.121330
    10  H    3.473885   3.772646   2.157285   1.096933   2.135777
    11  O    2.389670   2.898703   1.419131   2.417840   3.039874
    12  O    3.041767   3.522487   2.431551   1.441971   2.439125
    13  O    3.646835   2.913766   3.057908   2.398364   1.419726
    14  H    3.413080   4.210471   2.613505   1.971573   3.275146
    15  H    2.278310   2.853533   1.907648   3.190908   3.683560
    16  H    3.201953   2.674102   2.570400   2.429673   1.937204
    17  C    3.252061   2.484549   3.901799   3.347466   2.631313
    18  O    4.575921   3.704051   4.983995   4.074279   3.118457
    19  H    3.509090   2.647592   4.500002   4.240693   3.529703
    20  H    3.022256   2.813998   3.603151   3.096151   2.907966
    21  H    4.791774   4.147445   4.943811   3.820467   3.066822
    22  H    1.097062   2.136779   2.199405   2.872857   3.390519
    23  O    1.361333   2.332286   2.378754   3.729132   4.159700
    24  H    1.909180   2.314692   3.217707   4.390736   4.532911
    25  H    2.351938   1.491215   3.662472   4.287593   3.837089
    26  O    2.824225   2.393414   4.231234   5.074543   4.781490
    27  H    3.488474   2.901162   4.746744   5.619462   5.213680
    28  O    5.315678   5.124394   5.044162   3.711700   3.563115
    29  H    5.723742   5.653048   5.576442   4.375213   4.368894
    30  H    4.560414   4.575589   4.170529   2.871188   3.043370
                    6          7          8          9         10
     6  C    0.000000
     7  H    3.990182   0.000000
     8  H    2.154995   4.305242   0.000000
     9  H    1.095173   4.945922   2.543183   0.000000
    10  H    3.478349   2.543256   2.507256   4.215463   0.000000
    11  O    3.600133   2.076582   4.038500   4.196179   2.578668
    12  O    3.086016   2.590504   2.610693   4.098848   2.090052
    13  O    2.429098   4.055243   2.024420   2.500419   2.505443
    14  H    3.979595   2.353250   3.479283   5.010436   2.304113
    15  H    3.888602   2.456224   4.747380   4.423094   3.515067
    16  H    2.707189   3.574101   2.811280   2.890633   2.552047
    17  C    1.541667   4.642077   2.776280   2.139502   4.333690
    18  O    2.432388   5.725876   2.750436   2.608983   4.873953
    19  H    2.145252   5.233278   3.794467   2.463660   5.273534
    20  H    2.189364   4.115819   3.071623   3.064967   4.113633
    21  H    2.840751   5.578500   2.459188   3.203911   4.501569
    22  H    2.835263   2.493539   4.167895   3.814938   3.889412
    23  O    3.683302   2.749968   5.194609   4.350385   4.499307
    24  H    3.724477   3.700161   5.539448   4.232710   5.250135
    25  H    2.610116   4.477642   4.710929   2.812220   5.235838
    26  O    3.592661   4.902790   5.681508   3.796598   6.014242
    27  H    4.088554   5.477141   6.139288   4.083504   6.476006
    28  O    3.970075   5.394923   2.808495   4.580054   4.103593
    29  H    4.590495   5.807812   3.712605   5.250442   4.833022
    30  H    3.594882   4.447282   2.502833   4.374985   3.285223
                   11         12         13         14         15
    11  O    0.000000
    12  O    3.661945   0.000000
    13  O    2.828970   3.647897   0.000000
    14  H    3.842452   0.970861   4.334316   0.000000
    15  H    0.978996   4.315020   3.476228   4.494506   0.000000
    16  H    1.997257   3.823495   0.976399   4.384652   2.576672
    17  C    4.833373   3.162597   3.824122   4.058497   5.093289
    18  O    5.847983   3.787002   4.231504   4.714765   6.235648
    19  H    5.365621   4.098258   4.562554   4.930007   5.439093
    20  H    4.775411   2.509789   4.255659   3.289539   5.065159
    21  H    5.887028   3.329244   4.274315   4.211465   6.398758
    22  H    3.361735   2.814958   4.352805   3.151790   3.325329
    23  O    2.653241   4.327141   4.505082   4.555361   2.026505
    24  H    3.463807   4.929818   4.883340   5.277438   2.796249
    25  H    3.961370   4.832177   4.225871   5.466048   3.571820
    26  O    4.475082   5.566786   5.131649   6.104866   3.900757
    27  H    4.714287   6.281932   5.318304   6.834363   4.055168
    28  O    6.098686   2.813919   4.795251   3.424217   6.776397
    29  H    6.746522   3.254060   5.668628   3.723216   7.370887
    30  H    5.275907   1.858149   4.323640   2.449571   5.965455
                   16         17         18         19         20
    16  H    0.000000
    17  C    4.191239   0.000000
    18  O    4.854426   1.410946   0.000000
    19  H    4.816619   1.097680   2.038616   0.000000
    20  H    4.527734   1.098302   2.086117   1.769249   0.000000
    21  H    4.956325   1.949078   0.982544   2.809370   2.196226
    22  H    4.083140   2.934456   4.283939   3.136064   2.409472
    23  O    3.840148   4.410505   5.773208   4.431618   4.253909
    24  H    4.288273   4.336650   5.710557   4.112708   4.327468
    25  H    3.910558   3.198909   4.437517   2.801972   3.596731
    26  O    4.712852   4.041880   5.309161   3.505272   4.323063
    27  H    4.838519   4.734579   5.914993   4.206631   5.139515
    28  O    5.452215   3.320024   2.786343   4.297373   3.000496
    29  H    6.269038   3.679932   3.178574   4.527410   3.184219
    30  H    4.858572   3.150642   3.039481   4.179539   2.651895
                   21         22         23         24         25
    21  H    0.000000
    22  H    4.457185   0.000000
    23  O    6.085617   2.069601   0.000000
    24  H    6.172893   2.400349   1.018161   0.000000
    25  H    5.087565   2.726497   2.422198   1.766552   0.000000
    26  O    5.972652   3.120926   2.433941   1.483385   0.999650
    27  H    6.619132   3.968710   2.921526   2.012387   1.569170
    28  O    1.820877   4.916331   6.675729   7.004337   6.286245
    29  H    2.284649   5.154595   7.061662   7.358862   6.699596
    30  H    2.205425   4.190373   5.913759   6.337917   5.816916
                   26         27         28         29         30
    26  O    0.000000
    27  H    0.969153   0.000000
    28  O    7.143234   7.853092   0.000000
    29  H    7.488105   8.265254   0.969044   0.000000
    30  H    6.646780   7.370396   0.979945   1.548436   0.000000
 Stoichiometry    C6H16O8
 Framework group  C1[X(C6H16O8)]
 Deg. of freedom    84
 Full point group                 C1      NOp   1
 Largest Abelian subgroup         C1      NOp   1
 Largest concise Abelian subgroup C1      NOp   1
                         Standard orientation:                         
 ---------------------------------------------------------------------
 Center     Atomic      Atomic             Coordinates (Angstroms)
 Number     Number       Type             X           Y           Z
 ---------------------------------------------------------------------
      1          6           0       -1.434546   -0.065616   -0.877500
      2          8           0       -1.052764    0.781800    0.364296
      3          6           0       -0.979128   -1.493136   -0.571860
      4          6           0        0.493277   -1.545169   -0.110067
      5          6           0        0.798157   -0.572406    1.048406
      6          6           0        0.327483    0.863171    0.780400
      7          1           0       -1.083269   -2.099272   -1.490120
      8          1           0        1.876768   -0.564570    1.233476
      9          1           0        0.306317    1.367315    1.752405
     10          1           0        0.703254   -2.555667    0.261506
     11          8           0       -1.810735   -2.014642    0.453028
     12          8           0        1.347806   -1.242713   -1.231486
     13          8           0        0.189919   -1.085432    2.224193
     14          1           0        1.229318   -1.940712   -1.895813
     15          1           0       -2.670029   -1.568507    0.308078
     16          1           0       -0.725092   -1.323412    1.980319
     17          6           0        1.181584    1.730293   -0.165829
     18          8           0        2.447324    1.993470    0.399332
     19          1           0        0.661559    2.688069   -0.296748
     20          1           0        1.264793    1.264597   -1.157026
     21          1           0        3.057098    1.278552    0.112170
     22          1           0       -0.900872    0.376172   -1.728124
     23          8           0       -2.790956   -0.005862   -0.976539
     24          1           0       -3.038539    0.967667   -0.810417
     25          1           0       -1.986464    1.936348    0.226646
     26          8           0       -2.820243    2.297375   -0.190214
     27          1           0       -3.451796    2.403994    0.537131
     28          8           0        3.877379   -0.135235   -0.690288
     29          1           0        4.246679    0.207577   -1.518022
     30          1           0        3.087464   -0.651060   -0.955338
 ---------------------------------------------------------------------
 Rotational constants (GHZ):      0.8343801      0.4931349      0.4054431
 Standard basis: 6-31G(d) (6D, 7F)
 There are   242 symmetry adapted cartesian basis functions of A   symmetry.
 There are   242 symmetry adapted basis functions of A   symmetry.
   242 basis functions,   456 primitive gaussians,   242 cartesian basis functions
    58 alpha electrons       58 beta electrons
       nuclear repulsion energy      1129.5842576077 Hartrees.
 NAtoms=   30 NActive=   30 NUniq=   30 SFac= 1.00D+00 NAtFMM=   60 NAOKFM=F Big=F
 Integral buffers will be    131072 words long.
 Raffenetti 2 integral format.
 Two-electron integral symmetry is turned on.
 One-electron integrals computed using PRISM.
 NBasis=   242 RedAO= T EigKep=  1.86D-03  NBF=   242
 NBsUse=   242 1.00D-06 EigRej= -1.00D+00 NBFU=   242
 ExpMin= 1.61D-01 ExpMax= 5.48D+03 ExpMxC= 8.25D+02 IAcc=1 IRadAn=         1 AccDes= 0.00D+00
 Harris functional with IExCor=  402 and IRadAn=       1 diagonalized for initial guess.
 HarFok:  IExCor=  402 AccDes= 0.00D+00 IRadAn=         1 IDoV= 1 UseB2=F ITyADJ=14
 ICtDFT=  3500011 ScaDFX=  1.000000  1.000000  1.000000  1.000000
 FoFCou: FMM=F IPFlag=           0 FMFlag=      100000 FMFlg1=           0
         NFxFlg=           0 DoJE=T BraDBF=F KetDBF=T FulRan=T
         wScrn=  0.000000 ICntrl=     500 IOpCl=  0 I1Cent=   200000004 NGrid=           0
         NMat0=    1 NMatS0=      1 NMatT0=    0 NMatD0=    1 NMtDS0=    0 NMtDT0=    0
 Petite list used in FoFCou.
 Requested convergence on RMS density matrix=1.00D-08 within 128 cycles.
 Requested convergence on MAX density matrix=1.00D-06.
 Requested convergence on             energy=1.00D-06.
 No special actions if energy rises.
 Integral accuracy reduced to 1.0D-05 until final iterations.
 Initial convergence to 1.0D-05 achieved.  Increase integral accuracy.
 SCF Done:  E(RB3LYP) =  -839.985703516     A.U. after   14 cycles
            NFock= 14  Conv=0.41D-08     -V/T= 2.0085

 **********************************************************************

            Population analysis using the SCF density.

 **********************************************************************

 Orbital symmetries:
       Occupied  (A) (A) (A) (A) (A) (A) (A) (A) (A) (A) (A) (A)
                 (A) (A) (A) (A) (A) (A) (A) (A) (A) (A) (A) (A)
                 (A) (A) (A) (A) (A) (A) (A) (A) (A) (A) (A) (A)
                 (A) (A) (A) (A) (A) (A) (A) (A) (A) (A) (A) (A)
                 (A) (A) (A) (A) (A) (A) (A) (A) (A) (A)
       Virtual   (A) (A) (A) (A) (A) (A) (A) (A) (A) (A) (A) (A)
                 (A) (A) (A) (A) (A) (A) (A) (A) (A) (A) (A) (A)
                 (A) (A) (A) (A) (A) (A) (A) (A) (A) (A) (A) (A)
                 (A) (A) (A) (A) (A) (A) (A) (A) (A) (A) (A) (A)
                 (A) (A) (A) (A) (A) (A) (A) (A) (A) (A) (A) (A)
                 (A) (A) (A) (A) (A) (A) (A) (A) (A) (A) (A) (A)
                 (A) (A) (A) (A) (A) (A) (A) (A) (A) (A) (A) (A)
                 (A) (A) (A) (A) (A) (A) (A) (A) (A) (A) (A) (A)
                 (A) (A) (A) (A) (A) (A) (A) (A) (A) (A) (A) (A)
                 (A) (A) (A) (A) (A) (A) (A) (A) (A) (A) (A) (A)
                 (A) (A) (A) (A) (A) (A) (A) (A) (A) (A) (A) (A)
                 (A) (A) (A) (A) (A) (A) (A) (A) (A) (A) (A) (A)
                 (A) (A) (A) (A) (A) (A) (A) (A) (A) (A) (A) (A)
                 (A) (A) (A) (A) (A) (A) (A) (A) (A) (A) (A) (A)
                 (A) (A) (A) (A) (A) (A) (A) (A) (A) (A) (A) (A)
                 (A) (A) (A) (A)
 The electronic state is 1-A.
 Alpha  occ. eigenvalues --  -19.19842 -19.17216 -19.16866 -19.15733 -19.15540
 Alpha  occ. eigenvalues --  -19.15318 -19.13359 -19.11832 -10.30601 -10.26398
 Alpha  occ. eigenvalues --  -10.26189 -10.24087 -10.23625 -10.22323  -1.08564
 Alpha  occ. eigenvalues --   -1.06493  -1.04043  -1.02100  -1.01646  -1.01010
 Alpha  occ. eigenvalues --   -1.00025  -0.99168  -0.78626  -0.76119  -0.69676
 Alpha  occ. eigenvalues --   -0.65597  -0.63495  -0.58157  -0.55493  -0.55088
 Alpha  occ. eigenvalues --   -0.54673  -0.53535  -0.52525  -0.51125  -0.50621
 Alpha  occ. eigenvalues --   -0.48867  -0.46388  -0.46217  -0.44046  -0.42685
 Alpha  occ. eigenvalues --   -0.42052  -0.41898  -0.40305  -0.39698  -0.38437
 Alpha  occ. eigenvalues --   -0.37157  -0.36502  -0.34211  -0.33397  -0.33068
 Alpha  occ. eigenvalues --   -0.32089  -0.31568  -0.29817  -0.29387  -0.28868
 Alpha  occ. eigenvalues --   -0.28612  -0.26589  -0.24071
 Alpha virt. eigenvalues --    0.02134   0.05976   0.06724   0.08347   0.08551
 Alpha virt. eigenvalues --    0.11229   0.11959   0.12116   0.13013   0.14724
 Alpha virt. eigenvalues --    0.15349   0.16055   0.17639   0.17875   0.18926
 Alpha virt. eigenvalues --    0.19439   0.21798   0.22557   0.23759   0.24610
 Alpha virt. eigenvalues --    0.25248   0.25785   0.26653   0.27345   0.28890
 Alpha virt. eigenvalues --    0.30233   0.30874   0.32924   0.49934   0.51566
 Alpha virt. eigenvalues --    0.54259   0.55122   0.56779   0.57675   0.58851
 Alpha virt. eigenvalues --    0.60041   0.60629   0.62982   0.63907   0.65287
 Alpha virt. eigenvalues --    0.66319   0.69112   0.70216   0.71879   0.74148
 Alpha virt. eigenvalues --    0.75636   0.76425   0.77669   0.79156   0.80115
 Alpha virt. eigenvalues --    0.82085   0.82443   0.83362   0.84141   0.85563
 Alpha virt. eigenvalues --    0.86391   0.86690   0.87764   0.88565   0.90090
 Alpha virt. eigenvalues --    0.90591   0.91362   0.93065   0.93146   0.95326
 Alpha virt. eigenvalues --    0.96794   0.99035   1.01037   1.02587   1.04420
 Alpha virt. eigenvalues --    1.05500   1.05836   1.07403   1.09308   1.10638
 Alpha virt. eigenvalues --    1.11641   1.12577   1.12693   1.14037   1.16260
 Alpha virt. eigenvalues --    1.16722   1.20714   1.22557   1.24355   1.25909
 Alpha virt. eigenvalues --    1.28652   1.31500   1.31721   1.35435   1.37917
 Alpha virt. eigenvalues --    1.39607   1.41377   1.43731   1.46889   1.49080
 Alpha virt. eigenvalues --    1.52353   1.55885   1.56348   1.56798   1.59040
 Alpha virt. eigenvalues --    1.61169   1.63044   1.63660   1.67516   1.68435
 Alpha virt. eigenvalues --    1.70475   1.71187   1.71573   1.71886   1.72897
 Alpha virt. eigenvalues --    1.74406   1.75644   1.77012   1.78908   1.79607
 Alpha virt. eigenvalues --    1.80681   1.82366   1.83667   1.85613   1.86939
 Alpha virt. eigenvalues --    1.88748   1.89134   1.91299   1.93217   1.96275
 Alpha virt. eigenvalues --    1.98144   1.99522   2.03342   2.04422   2.07026
 Alpha virt. eigenvalues --    2.08637   2.09729   2.11505   2.12417   2.15728
 Alpha virt. eigenvalues --    2.16330   2.17839   2.21643   2.25861   2.26872
 Alpha virt. eigenvalues --    2.30471   2.32952   2.35970   2.37773   2.37946
 Alpha virt. eigenvalues --    2.40394   2.42454   2.43622   2.46971   2.50184
 Alpha virt. eigenvalues --    2.50608   2.52803   2.56787   2.57255   2.58553
 Alpha virt. eigenvalues --    2.62174   2.64261   2.69324   2.70574   2.73401
 Alpha virt. eigenvalues --    2.74009   2.77390   2.80032   2.86329   2.89981
 Alpha virt. eigenvalues --    2.93571   2.96187   2.97275   3.03036   3.09482
 Alpha virt. eigenvalues --    3.74118   3.74821   3.79371   3.88097   3.91657
 Alpha virt. eigenvalues --    3.97676   4.00919   4.08126   4.30586   4.34678
 Alpha virt. eigenvalues --    4.47081   4.60785   4.72285   4.74971
          Condensed to atoms (all electrons):
               1          2          3          4          5          6
     1  C    4.732906   0.144974   0.281083  -0.024313  -0.022683  -0.009207
     2  O    0.144974   8.523059  -0.022392  -0.011523  -0.035248   0.142814
     3  C    0.281083  -0.022392   5.058942   0.308970  -0.016171  -0.023636
     4  C   -0.024313  -0.011523   0.308970   5.050921   0.308311  -0.023028
     5  C   -0.022683  -0.035248  -0.016171   0.308311   4.898587   0.302855
     6  C   -0.009207   0.142814  -0.023636  -0.023028   0.302855   5.075953
     7  H   -0.046766   0.003091   0.352023  -0.058122   0.004905   0.000078
     8  H    0.000288   0.003706   0.004953  -0.042903   0.365843  -0.055188
     9  H    0.003036  -0.033189  -0.000000   0.005819  -0.046763   0.369635
    10  H    0.005766  -0.000071  -0.059202   0.377115  -0.049509   0.006123
    11  O   -0.017671  -0.003234   0.202023  -0.040256   0.004711  -0.000829
    12  O    0.002284  -0.000327  -0.038656   0.153832  -0.031049   0.002762
    13  O   -0.000961  -0.000294   0.001554  -0.038562   0.263073  -0.044880
    14  H   -0.000958  -0.000005  -0.001792  -0.017063   0.005313  -0.000183
    15  H   -0.012790   0.001689  -0.043802   0.005082   0.000071  -0.000055
    16  H    0.000256   0.005561  -0.003036  -0.013609  -0.027298  -0.005428
    17  C   -0.004585  -0.026888   0.000384  -0.002518  -0.030334   0.284347
    18  O    0.000073   0.001517  -0.000006   0.000032   0.000313  -0.049197
    19  H   -0.000003   0.004962   0.000011  -0.000140   0.005274  -0.046950
    20  H    0.001517   0.001823  -0.000665   0.001643  -0.010289  -0.043394
    21  H   -0.000003  -0.000047   0.000004  -0.000281   0.001901  -0.002349
    22  H    0.361776  -0.049492  -0.066502  -0.006091   0.000560   0.001605
    23  O    0.291770  -0.049719  -0.044096   0.002185   0.000070   0.001901
    24  H   -0.030881   0.006370   0.005039  -0.000054  -0.000043  -0.000099
    25  H   -0.008694   0.070549   0.001187   0.000025   0.001134  -0.004416
    26  O    0.009766  -0.071207  -0.000325   0.000003  -0.000068   0.002506
    27  H   -0.000446   0.003554  -0.000025  -0.000000   0.000005  -0.000059
    28  O   -0.000002   0.000000  -0.000011   0.000124   0.000132  -0.000706
    29  H   -0.000000  -0.000000  -0.000000   0.000024   0.000079  -0.000000
    30  H    0.000002   0.000002   0.000404  -0.001889  -0.000432  -0.000372
               7          8          9         10         11         12
     1  C   -0.046766   0.000288   0.003036   0.005766  -0.017671   0.002284
     2  O    0.003091   0.003706  -0.033189  -0.000071  -0.003234  -0.000327
     3  C    0.352023   0.004953  -0.000000  -0.059202   0.202023  -0.038656
     4  C   -0.058122  -0.042903   0.005819   0.377115  -0.040256   0.153832
     5  C    0.004905   0.365843  -0.046763  -0.049509   0.004711  -0.031049
     6  C    0.000078  -0.055188   0.369635   0.006123  -0.000829   0.002762
     7  H    0.650648  -0.000113   0.000022  -0.005758  -0.035771  -0.000397
     8  H   -0.000113   0.584372  -0.000504  -0.006541  -0.000103   0.000244
     9  H    0.000022  -0.000504   0.574570  -0.000181   0.000018  -0.000088
    10  H   -0.005758  -0.006541  -0.000181   0.591957   0.004116  -0.028679
    11  O   -0.035771  -0.000103   0.000018   0.004116   8.288877   0.001399
    12  O   -0.000397   0.000244  -0.000088  -0.028679   0.001399   8.313763
    13  O   -0.000240  -0.035424   0.002704   0.006883  -0.014740   0.001321
    14  H    0.007380  -0.000189   0.000011  -0.005687  -0.000026   0.227255
    15  H    0.001247   0.000017  -0.000010  -0.000471   0.228027  -0.000092
    16  H    0.000827   0.005739  -0.000251  -0.001097   0.045290   0.000084
    17  C    0.000001   0.000181  -0.044749  -0.000164   0.000007  -0.004470
    18  O   -0.000000   0.008965   0.005826  -0.000001   0.000000  -0.000108
    19  H   -0.000003   0.000096  -0.007305   0.000008   0.000000   0.000155
    20  H    0.000015   0.000636   0.006269   0.000045   0.000001   0.007971
    21  H    0.000000   0.001682  -0.000439   0.000002  -0.000000   0.000166
    22  H    0.003048   0.000021  -0.000201  -0.000129   0.003426   0.006113
    23  O   -0.000366   0.000002  -0.000083  -0.000056  -0.016945   0.000021
    24  H   -0.000207  -0.000000  -0.000017   0.000005   0.000087   0.000003
    25  H   -0.000063  -0.000020  -0.001535   0.000003  -0.000004  -0.000004
    26  O    0.000009   0.000001   0.000212  -0.000000  -0.000013   0.000000
    27  H   -0.000001  -0.000000  -0.000007   0.000000   0.000005   0.000000
    28  O    0.000001   0.003060   0.000003  -0.000004   0.000000  -0.017433
    29  H   -0.000000  -0.000179  -0.000000  -0.000000  -0.000000   0.000633
    30  H   -0.000024   0.000668  -0.000017  -0.000013  -0.000003   0.051531
              13         14         15         16         17         18
     1  C   -0.000961  -0.000958  -0.012790   0.000256  -0.004585   0.000073
     2  O   -0.000294  -0.000005   0.001689   0.005561  -0.026888   0.001517
     3  C    0.001554  -0.001792  -0.043802  -0.003036   0.000384  -0.000006
     4  C   -0.038562  -0.017063   0.005082  -0.013609  -0.002518   0.000032
     5  C    0.263073   0.005313   0.000071  -0.027298  -0.030334   0.000313
     6  C   -0.044880  -0.000183  -0.000055  -0.005428   0.284347  -0.049197
     7  H   -0.000240   0.007380   0.001247   0.000827   0.000001  -0.000000
     8  H   -0.035424  -0.000189   0.000017   0.005739   0.000181   0.008965
     9  H    0.002704   0.000011  -0.000010  -0.000251  -0.044749   0.005826
    10  H    0.006883  -0.005687  -0.000471  -0.001097  -0.000164  -0.000001
    11  O   -0.014740  -0.000026   0.228027   0.045290   0.000007   0.000000
    12  O    0.001321   0.227255  -0.000092   0.000084  -0.004470  -0.000108
    13  O    8.278841  -0.000120   0.000435   0.225983   0.003203   0.000000
    14  H   -0.000120   0.377048  -0.000002   0.000015   0.000149  -0.000001
    15  H    0.000435  -0.000002   0.352986  -0.000487   0.000006  -0.000000
    16  H    0.225983   0.000015  -0.000487   0.349942   0.000098  -0.000004
    17  C    0.003203   0.000149   0.000006   0.000098   4.949709   0.252061
    18  O    0.000000  -0.000001  -0.000000  -0.000004   0.252061   8.307974
    19  H   -0.000067  -0.000010  -0.000000  -0.000001   0.364733  -0.035844
    20  H   -0.000021   0.000246  -0.000001  -0.000001   0.347215  -0.030058
    21  H   -0.000000  -0.000011   0.000000   0.000001  -0.025312   0.215041
    22  H   -0.000026   0.000313   0.002020   0.000097   0.002756  -0.000050
    23  O    0.000009  -0.000011   0.044988  -0.000008  -0.000032   0.000000
    24  H    0.000002  -0.000001  -0.000806  -0.000007   0.000023  -0.000000
    25  H   -0.000031  -0.000000  -0.000121  -0.000032  -0.000108   0.000003
    26  O    0.000000  -0.000000   0.000159   0.000004  -0.000260   0.000000
    27  H   -0.000000   0.000000  -0.000017  -0.000001   0.000000  -0.000000
    28  O    0.000003   0.000852  -0.000000  -0.000000   0.002489  -0.023992
    29  H   -0.000000  -0.000037   0.000000   0.000000   0.000081   0.001599
    30  H    0.000001  -0.002515   0.000000   0.000000   0.000650   0.002272
              19         20         21         22         23         24
     1  C   -0.000003   0.001517  -0.000003   0.361776   0.291770  -0.030881
     2  O    0.004962   0.001823  -0.000047  -0.049492  -0.049719   0.006370
     3  C    0.000011  -0.000665   0.000004  -0.066502  -0.044096   0.005039
     4  C   -0.000140   0.001643  -0.000281  -0.006091   0.002185  -0.000054
     5  C    0.005274  -0.010289   0.001901   0.000560   0.000070  -0.000043
     6  C   -0.046950  -0.043394  -0.002349   0.001605   0.001901  -0.000099
     7  H   -0.000003   0.000015   0.000000   0.003048  -0.000366  -0.000207
     8  H    0.000096   0.000636   0.001682   0.000021   0.000002  -0.000000
     9  H   -0.007305   0.006269  -0.000439  -0.000201  -0.000083  -0.000017
    10  H    0.000008   0.000045   0.000002  -0.000129  -0.000056   0.000005
    11  O    0.000000   0.000001  -0.000000   0.003426  -0.016945   0.000087
    12  O    0.000155   0.007971   0.000166   0.006113   0.000021   0.000003
    13  O   -0.000067  -0.000021  -0.000000  -0.000026   0.000009   0.000002
    14  H   -0.000010   0.000246  -0.000011   0.000313  -0.000011  -0.000001
    15  H   -0.000000  -0.000001   0.000000   0.002020   0.044988  -0.000806
    16  H   -0.000001  -0.000001   0.000001   0.000097  -0.000008  -0.000007
    17  C    0.364733   0.347215  -0.025312   0.002756  -0.000032   0.000023
    18  O   -0.035844  -0.030058   0.215041  -0.000050   0.000000  -0.000000
    19  H    0.607978  -0.042397   0.005276  -0.000085  -0.000005  -0.000006
    20  H   -0.042397   0.640586  -0.006662   0.001688   0.000017   0.000000
    21  H    0.005276  -0.006662   0.320529  -0.000005  -0.000000   0.000000
    22  H   -0.000085   0.001688  -0.000005   0.646142  -0.047746  -0.001340
    23  O   -0.000005   0.000017  -0.000000  -0.047746   8.358833   0.187495
    24  H   -0.000006   0.000000   0.000000  -0.001340   0.187495   0.297566
    25  H    0.002401  -0.000142   0.000001   0.000141   0.010273  -0.017868
    26  O    0.000160   0.000011  -0.000000   0.000049  -0.075083   0.111811
    27  H   -0.000012  -0.000000   0.000000   0.000005   0.004186  -0.005468
    28  O    0.000015   0.003749   0.066251  -0.000001  -0.000000   0.000000
    29  H    0.000005   0.000105  -0.003666  -0.000001  -0.000000  -0.000000
    30  H    0.000033  -0.000726  -0.005739  -0.000029   0.000000  -0.000000
              25         26         27         28         29         30
     1  C   -0.008694   0.009766  -0.000446  -0.000002  -0.000000   0.000002
     2  O    0.070549  -0.071207   0.003554   0.000000  -0.000000   0.000002
     3  C    0.001187  -0.000325  -0.000025  -0.000011  -0.000000   0.000404
     4  C    0.000025   0.000003  -0.000000   0.000124   0.000024  -0.001889
     5  C    0.001134  -0.000068   0.000005   0.000132   0.000079  -0.000432
     6  C   -0.004416   0.002506  -0.000059  -0.000706  -0.000000  -0.000372
     7  H   -0.000063   0.000009  -0.000001   0.000001  -0.000000  -0.000024
     8  H   -0.000020   0.000001  -0.000000   0.003060  -0.000179   0.000668
     9  H   -0.001535   0.000212  -0.000007   0.000003  -0.000000  -0.000017
    10  H    0.000003  -0.000000   0.000000  -0.000004  -0.000000  -0.000013
    11  O   -0.000004  -0.000013   0.000005   0.000000  -0.000000  -0.000003
    12  O   -0.000004   0.000000   0.000000  -0.017433   0.000633   0.051531
    13  O   -0.000031   0.000000  -0.000000   0.000003  -0.000000   0.000001
    14  H   -0.000000  -0.000000   0.000000   0.000852  -0.000037  -0.002515
    15  H   -0.000121   0.000159  -0.000017  -0.000000   0.000000   0.000000
    16  H   -0.000032   0.000004  -0.000001  -0.000000   0.000000   0.000000
    17  C   -0.000108  -0.000260   0.000000   0.002489   0.000081   0.000650
    18  O    0.000003   0.000000  -0.000000  -0.023992   0.001599   0.002272
    19  H    0.002401   0.000160  -0.000012   0.000015   0.000005   0.000033
    20  H   -0.000142   0.000011  -0.000000   0.003749   0.000105  -0.000726
    21  H    0.000001  -0.000000   0.000000   0.066251  -0.003666  -0.005739
    22  H    0.000141   0.000049   0.000005  -0.000001  -0.000001  -0.000029
    23  O    0.010273  -0.075083   0.004186  -0.000000  -0.000000   0.000000
    24  H   -0.017868   0.111811  -0.005468   0.000000  -0.000000  -0.000000
    25  H    0.319525   0.186755  -0.007215  -0.000000  -0.000000   0.000000
    26  O    0.186755   8.415765   0.234552   0.000000   0.000000   0.000000
    27  H   -0.007215   0.234552   0.371630   0.000000  -0.000000   0.000000
    28  O   -0.000000   0.000000   0.000000   8.320560   0.240043   0.212633
    29  H   -0.000000   0.000000  -0.000000   0.240043   0.377936  -0.014116
    30  H    0.000000   0.000000   0.000000   0.212633  -0.014116   0.326623
 Mulliken charges:
               1
     1  C    0.344465
     2  O   -0.610037
     3  C    0.103739
     4  C    0.066269
     5  C    0.106749
     6  C    0.119396
     7  H    0.124535
     8  H    0.160692
     9  H    0.167213
    10  H    0.165540
    11  O   -0.648392
    12  O   -0.648236
    13  O   -0.648646
    14  H    0.410030
    15  H    0.421930
    16  H    0.417365
    17  C   -0.068672
    18  O   -0.656416
    19  H    0.141719
    20  H    0.120819
    21  H    0.433660
    22  H    0.141938
    23  O   -0.667601
    24  H    0.448396
    25  H    0.448255
    26  O   -0.814808
    27  H    0.399313
    28  O   -0.807767
    29  H    0.397495
    30  H    0.431057
 Sum of Mulliken charges =  -0.00000
 Mulliken charges with hydrogens summed into heavy atoms:
               1
     1  C    0.486403
     2  O   -0.610037
     3  C    0.228273
     4  C    0.231808
     5  C    0.267441
     6  C    0.286610
    11  O   -0.226462
    12  O   -0.238206
    13  O   -0.231282
    17  C    0.193867
    18  O   -0.222756
    23  O   -0.219205
    26  O    0.032761
    28  O    0.020785
 Electronic spatial extent (au):  <R**2>=           3014.1571
 Charge=             -0.0000 electrons
 Dipole moment (field-independent basis, Debye):
    X=             -1.1888    Y=             -1.8554    Z=             -3.8700  Tot=              4.4534
 Quadrupole moment (field-independent basis, Debye-Ang):
   XX=            -83.2471   YY=            -87.0911   ZZ=            -82.3378
   XY=             -7.4833   XZ=            -16.3788   YZ=              8.3179
 Traceless Quadrupole moment (field-independent basis, Debye-Ang):
   XX=              0.9782   YY=             -2.8657   ZZ=              1.8875
   XY=             -7.4833   XZ=            -16.3788   YZ=              8.3179
 Octapole moment (field-independent basis, Debye-Ang**2):
  XXX=            -33.0546  YYY=            -19.8703  ZZZ=            -29.7180  XYY=             -7.0110
  XXY=              6.0406  XXZ=             -8.9030  XZZ=             12.3383  YZZ=              0.7459
  YYZ=             -9.3277  XYZ=            -11.3457
 Hexadecapole moment (field-independent basis, Debye-Ang**3):
 XXXX=          -1790.1480 YYYY=          -1096.0530 ZZZZ=           -532.6132 XXXY=            -47.6453
 XXXZ=           -224.3245 YYYX=            -71.6475 YYYZ=             51.3498 ZZZX=            -70.9016
 ZZZY=             36.8159 XXYY=           -514.3328 XXZZ=           -340.1064 YYZZ=           -243.5428
 XXYZ=             12.5307 YYXZ=            -54.2092 ZZXY=            -11.7549
 N-N= 1.129584257608D+03 E-N=-4.231243789056D+03  KE= 8.329323175217D+02
 Calling FoFJK, ICntrl=      2127 FMM=F ISym2X=0 I1Cent= 0 IOpClX= 0 NMat=1 NMatS=1 NMatT=0.
 ***** Axes restored to original set *****
 -------------------------------------------------------------------
 Center     Atomic                   Forces (Hartrees/Bohr)
 Number     Number              X              Y              Z
 -------------------------------------------------------------------
      1        6           0.019647944    0.013659273    0.021141995
      2        8           0.001341022   -0.017213552   -0.013684119
      3        6          -0.001586367    0.001669924   -0.000921153
      4        6          -0.000232085   -0.000908529   -0.000408677
      5        6           0.002533256   -0.001612166    0.000414896
      6        6          -0.001441737   -0.006518698   -0.004915365
      7        1          -0.000474700    0.000548424   -0.000229393
      8        1           0.000188138   -0.000340663    0.000066441
      9        1          -0.001196100   -0.000327859   -0.000591141
     10        1          -0.000155508   -0.000118621   -0.000111709
     11        8           0.000607280   -0.001299847    0.000705837
     12        8          -0.000516738   -0.000316844   -0.000352811
     13        8           0.000727907   -0.000584742    0.000219916
     14        1           0.000210435   -0.000138943    0.000057204
     15        1          -0.000291624   -0.000630255    0.000690951
     16        1          -0.000125151    0.000540649    0.000093949
     17        6          -0.000285437   -0.000993301   -0.000017854
     18        8          -0.000286675    0.000148576    0.000201807
     19        1          -0.000162789   -0.000134709    0.000207598
     20        1           0.000121151    0.000210460   -0.000112007
     21        1          -0.000014957   -0.000035435    0.000105379
     22        1           0.000131331   -0.000126274    0.000219107
     23        8           0.000784288   -0.014509562   -0.001659763
     24        1          -0.002116378   -0.002764138   -0.003065435
     25        1          -0.001416628    0.004058686    0.000624911
     26        8          -0.015461659    0.026134948    0.001138651
     27        1          -0.000782628    0.001739924    0.000227016
     28        8           0.000348032   -0.000260025   -0.000058700
     29        1          -0.000054704    0.000072785    0.000008640
     30        1          -0.000038920    0.000050512    0.000003829
 -------------------------------------------------------------------
 Cartesian Forces:  Max     0.026134948 RMS     0.005558886

 GradGradGradGradGradGradGradGradGradGradGradGradGradGradGradGradGradGrad
 Berny optimization.
 FormGI is forming the generalized inverse of G from B-inverse, IUseBI=4.
 Internal  Forces:  Max     0.022968146 RMS     0.003489646
 Search for a local minimum.
 Step number   1 out of a maximum of  180
 All quantities printed in internal units (Hartrees-Bohrs-Radians)
 Mixed Optimization -- RFO/linear search
 Second derivative matrix not updated -- first step.
 ITU=  0
     Eigenvalues ---    0.00360   0.00470   0.00515   0.00619   0.00632
     Eigenvalues ---    0.00910   0.00943   0.01317   0.01431   0.01439
     Eigenvalues ---    0.01613   0.01635   0.01821   0.02930   0.03299
     Eigenvalues ---    0.03820   0.04031   0.04201   0.04483   0.04601
     Eigenvalues ---    0.04985   0.05050   0.05250   0.05569   0.05902
     Eigenvalues ---    0.05966   0.06008   0.06180   0.06417   0.07007
     Eigenvalues ---    0.07113   0.07347   0.07684   0.08711   0.09041
     Eigenvalues ---    0.09245   0.09269   0.10029   0.10796   0.11436
     Eigenvalues ---    0.11443   0.11634   0.11832   0.13179   0.13909
     Eigenvalues ---    0.14885   0.15732   0.16000   0.16000   0.16400
     Eigenvalues ---    0.17186   0.17929   0.18935   0.19524   0.20013
     Eigenvalues ---    0.20570   0.22912   0.26356   0.27059   0.27720
     Eigenvalues ---    0.27901   0.29096   0.33114   0.33871   0.33940
     Eigenvalues ---    0.34009   0.34024   0.34222   0.34309   0.37316
     Eigenvalues ---    0.38377   0.42445   0.42502   0.42591   0.42945
     Eigenvalues ---    0.45727   0.49318   0.50429   0.50972   0.51580
     Eigenvalues ---    0.52091   0.53201   0.53550   0.53573
 RFO step:  Lambda=-1.20212085D-02 EMin= 3.60191169D-03
 Linear search not attempted -- first point.
 Iteration  1 RMS(Cart)=  0.03751700 RMS(Int)=  0.00061614
 Iteration  2 RMS(Cart)=  0.00081602 RMS(Int)=  0.00024700
 Iteration  3 RMS(Cart)=  0.00000095 RMS(Int)=  0.00024699
 Variable       Old X    -DE/DX   Delta X   Delta X   Delta X     New X
                                 (Linear)    (Quad)   (Total)
    R1        2.93117  -0.01908   0.00000  -0.08283  -0.08368   2.84749
    R2        2.88988   0.00043   0.00000   0.00094   0.00102   2.89091
    R3        2.07315  -0.00016   0.00000  -0.00045  -0.00045   2.07270
    R4        2.57255   0.00401   0.00000   0.00652   0.00607   2.57861
    R5        2.72858   0.00116   0.00000   0.00244   0.00232   2.73090
    R6        2.81799   0.02297   0.00000   0.17793   0.17792   2.99591
    R7        2.91774  -0.00342   0.00000  -0.01111  -0.01098   2.90675
    R8        2.08851  -0.00007   0.00000  -0.00019  -0.00019   2.08832
    R9        2.68177   0.00153   0.00000   0.00349   0.00349   2.68526
   R10        2.91611  -0.00350   0.00000  -0.00625  -0.00616   2.90995
   R11        2.07290   0.00004   0.00000   0.00012   0.00012   2.07302
   R12        2.72493   0.00000   0.00000  -0.00026  -0.00027   2.72466
   R13        2.89951   0.00309   0.00000   0.00985   0.00980   2.90931
   R14        2.06812   0.00020   0.00000   0.00055   0.00055   2.06867
   R15        2.68289   0.00002   0.00000   0.00004   0.00004   2.68293
   R16        2.06958  -0.00065   0.00000  -0.00184  -0.00184   2.06773
   R17        2.91333  -0.00081   0.00000  -0.00298  -0.00297   2.91036
   R18        1.85004  -0.00014   0.00000  -0.00026  -0.00026   1.84978
   R19        1.83466   0.00004   0.00000   0.00006   0.00006   1.83473
   R20        3.51139  -0.00031   0.00000  -0.00125  -0.00124   3.51015
   R21        1.84513  -0.00004   0.00000  -0.00007  -0.00007   1.84506
   R22        2.66630   0.00038   0.00000   0.00029   0.00028   2.66658
   R23        2.07431  -0.00007   0.00000  -0.00019  -0.00019   2.07413
   R24        2.07549   0.00002   0.00000   0.00005   0.00005   2.07554
   R25        1.85674  -0.00005   0.00000   0.00060   0.00058   1.85732
   R26        3.44096  -0.00015   0.00000   0.00405   0.00403   3.44499
   R27        1.92405   0.01221   0.00000   0.02921   0.02956   1.95361
   R28        2.80319   0.01354   0.00000   0.11886   0.11949   2.92268
   R29        1.88907   0.01660   0.00000   0.03591   0.03633   1.92540
   R30        1.83143   0.00088   0.00000   0.00161   0.00161   1.83304
   R31        1.83123   0.00000   0.00000   0.00000   0.00000   1.83123
   R32        1.85183  -0.00041   0.00000  -0.00013  -0.00013   1.85170
    A1        1.85113   0.00542   0.00000   0.03109   0.03149   1.88262
    A2        1.85564   0.00052   0.00000   0.00288   0.00273   1.85836
    A3        1.85408  -0.00030   0.00000   0.00268   0.00221   1.85629
    A4        1.96710  -0.00140   0.00000  -0.00266  -0.00295   1.96415
    A5        1.93076  -0.00479   0.00000  -0.03121  -0.03103   1.89973
    A6        1.99392   0.00132   0.00000   0.00215   0.00199   1.99591
    A7        2.09069  -0.00558   0.00000  -0.04284  -0.04269   2.04800
    A8        1.76703   0.00426   0.00000   0.01324   0.01266   1.77968
    A9        2.19137   0.00177   0.00000   0.02703   0.02769   2.21906
   A10        1.95544  -0.00092   0.00000  -0.00040  -0.00006   1.95538
   A11        1.89424   0.00028   0.00000  -0.00727  -0.00730   1.88694
   A12        1.88900   0.00142   0.00000   0.01736   0.01720   1.90620
   A13        1.89640  -0.00125   0.00000  -0.00192  -0.00193   1.89447
   A14        1.90757   0.00071   0.00000  -0.00698  -0.00724   1.90033
   A15        1.92120  -0.00023   0.00000  -0.00079  -0.00073   1.92048
   A16        1.97327  -0.00167   0.00000  -0.01816  -0.01835   1.95493
   A17        1.89115   0.00096   0.00000   0.00731   0.00728   1.89843
   A18        1.90230  -0.00045   0.00000  -0.00054  -0.00036   1.90194
   A19        1.86355   0.00113   0.00000   0.00729   0.00741   1.87096
   A20        1.91190   0.00077   0.00000   0.00317   0.00310   1.91500
   A21        1.92114  -0.00073   0.00000   0.00137   0.00127   1.92241
   A22        1.98020  -0.00279   0.00000  -0.00899  -0.00928   1.97092
   A23        1.90306   0.00027   0.00000  -0.00049  -0.00032   1.90275
   A24        1.88525   0.00154   0.00000   0.00412   0.00413   1.88939
   A25        1.90199   0.00144   0.00000   0.00646   0.00644   1.90842
   A26        1.92979   0.00042   0.00000   0.00172   0.00193   1.93172
   A27        1.85957  -0.00077   0.00000  -0.00256  -0.00262   1.85695
   A28        1.86590   0.00414   0.00000   0.03393   0.03399   1.89989
   A29        1.83717  -0.00174   0.00000  -0.01553  -0.01546   1.82171
   A30        1.96536  -0.00155   0.00000  -0.00656  -0.00674   1.95863
   A31        1.85626  -0.00096   0.00000  -0.00211  -0.00194   1.85432
   A32        2.05275  -0.00109   0.00000  -0.01004  -0.01014   2.04260
   A33        1.87186   0.00101   0.00000  -0.00136  -0.00153   1.87032
   A34        1.81312   0.00178   0.00000   0.01034   0.01034   1.82346
   A35        1.88497  -0.00025   0.00000   0.00141   0.00141   1.88637
   A36        2.10137   0.00025   0.00000  -0.00256  -0.00260   2.09877
   A37        2.03183  -0.00012   0.00000   0.00109   0.00110   2.03293
   A38        1.85741  -0.00010   0.00000  -0.00059  -0.00059   1.85682
   A39        1.93484  -0.00030   0.00000  -0.00130  -0.00128   1.93357
   A40        1.87707  -0.00057   0.00000  -0.00348  -0.00353   1.87354
   A41        1.93628   0.00068   0.00000   0.00377   0.00381   1.94009
   A42        1.88601  -0.00005   0.00000  -0.00066  -0.00066   1.88535
   A43        1.95262   0.00021   0.00000   0.00122   0.00118   1.95381
   A44        1.87363  -0.00001   0.00000   0.00017   0.00017   1.87380
   A45        1.87963   0.00097   0.00000   0.00215   0.00204   1.88167
   A46        1.84667   0.00393   0.00000   0.02447   0.02381   1.87048
   A47        2.66713   0.00240   0.00000   0.00945   0.00961   2.67674
   A48        2.56872   0.00277   0.00000   0.00801   0.00826   2.57698
   A49        1.54415  -0.01381   0.00000  -0.06390  -0.06237   1.48178
   A50        1.89283   0.00294   0.00000   0.01528   0.01503   1.90786
   A51        1.84450   0.00268   0.00000   0.01150   0.01158   1.85608
   A52        1.84776  -0.00022   0.00000  -0.00070  -0.00073   1.84704
   A53        1.73632  -0.00164   0.00000  -0.00476  -0.00481   1.73151
   A54        1.83628   0.00013   0.00000   0.00017   0.00015   1.83643
   A55        2.86679  -0.00094   0.00000  -0.00323  -0.00323   2.86357
   A56        2.93244   0.00014   0.00000   0.00247   0.00240   2.93485
   A57        3.03971  -0.00086   0.00000  -0.00576  -0.00596   3.03375
    D1        1.03313  -0.00015   0.00000  -0.00203  -0.00191   1.03122
    D2       -2.75706   0.00176   0.00000   0.01030   0.01064  -2.74642
    D3       -1.06456  -0.00153   0.00000  -0.01614  -0.01635  -1.08092
    D4        1.42843   0.00038   0.00000  -0.00380  -0.00380   1.42463
    D5        3.08822  -0.00318   0.00000  -0.02159  -0.02130   3.06692
    D6       -0.70197  -0.00128   0.00000  -0.00925  -0.00875  -0.71072
    D7       -0.89155  -0.00408   0.00000  -0.03237  -0.03256  -0.92411
    D8       -2.98556  -0.00214   0.00000  -0.02493  -0.02534  -3.01090
    D9        1.21289  -0.00283   0.00000  -0.02977  -0.03011   1.18278
   D10        1.13202  -0.00091   0.00000  -0.01147  -0.01140   1.12063
   D11       -0.96199   0.00102   0.00000  -0.00403  -0.00418  -0.96616
   D12       -3.04672   0.00033   0.00000  -0.00888  -0.00894  -3.05567
   D13       -2.89484  -0.00434   0.00000  -0.03722  -0.03647  -2.93132
   D14        1.29433  -0.00240   0.00000  -0.02978  -0.02925   1.26508
   D15       -0.79041  -0.00309   0.00000  -0.03462  -0.03402  -0.82443
   D16        0.76054   0.00237   0.00000   0.01724   0.01659   0.77713
   D17        2.76198   0.00622   0.00000   0.03990   0.03936   2.80134
   D18       -1.27934   0.00120   0.00000   0.01076   0.01067  -1.26867
   D19       -1.01189   0.00040   0.00000   0.00788   0.00772  -1.00417
   D20       -2.98118   0.00051   0.00000   0.00278   0.00265  -2.97852
   D21        1.26827   0.00114   0.00000   0.01711   0.01694   1.28521
   D22        2.94549  -0.00182   0.00000   0.00832   0.00879   2.95428
   D23        0.97620  -0.00172   0.00000   0.00321   0.00372   0.97993
   D24       -1.05753  -0.00109   0.00000   0.01755   0.01800  -1.03953
   D25        0.31380   0.00169   0.00000   0.01064   0.01064   0.32445
   D26        2.75515   0.00005   0.00000  -0.01258  -0.01252   2.74263
   D27        0.90539  -0.00064   0.00000  -0.00572  -0.00584   0.89956
   D28        2.96742   0.00040   0.00000  -0.00280  -0.00299   2.96443
   D29       -1.22525  -0.00018   0.00000   0.00283   0.00264  -1.22261
   D30        2.99814  -0.00169   0.00000  -0.01629  -0.01622   2.98193
   D31       -1.22301  -0.00065   0.00000  -0.01336  -0.01337  -1.23639
   D32        0.86751  -0.00122   0.00000  -0.00774  -0.00774   0.85976
   D33       -1.18824  -0.00230   0.00000  -0.02255  -0.02250  -1.21074
   D34        0.87379  -0.00126   0.00000  -0.01962  -0.01965   0.85413
   D35        2.96431  -0.00184   0.00000  -0.01399  -0.01403   2.95028
   D36        0.53875   0.00037   0.00000   0.00139   0.00132   0.54007
   D37        2.67275   0.00055   0.00000   0.00743   0.00751   2.68025
   D38       -1.52892  -0.00068   0.00000   0.00031   0.00030  -1.52862
   D39       -0.88853   0.00121   0.00000   0.01776   0.01751  -0.87102
   D40       -3.01168   0.00105   0.00000   0.01588   0.01572  -2.99596
   D41        1.25730   0.00100   0.00000   0.01695   0.01676   1.27406
   D42       -2.96657   0.00026   0.00000   0.01453   0.01445  -2.95213
   D43        1.19345   0.00010   0.00000   0.01265   0.01266   1.20611
   D44       -0.82075   0.00005   0.00000   0.01372   0.01370  -0.80705
   D45        1.23672   0.00006   0.00000   0.00698   0.00690   1.24363
   D46       -0.88644  -0.00011   0.00000   0.00511   0.00512  -0.88132
   D47       -2.90064  -0.00016   0.00000   0.00617   0.00616  -2.89448
   D48       -1.11308  -0.00099   0.00000  -0.01770  -0.01775  -1.13083
   D49        2.77664  -0.00077   0.00000  -0.01831  -0.01834   2.75830
   D50        3.00279   0.00088   0.00000   0.00324   0.00330   3.00609
   D51        0.60932   0.00111   0.00000   0.00263   0.00272   0.61204
   D52        0.95877  -0.00053   0.00000  -0.00830  -0.00833   0.95044
   D53       -1.43470  -0.00030   0.00000  -0.00891  -0.00891  -1.44361
   D54        0.88402   0.00082   0.00000   0.00375   0.00354   0.88757
   D55        2.84024   0.00024   0.00000   0.00013   0.00014   2.84037
   D56       -1.34592   0.00011   0.00000  -0.00973  -0.00975  -1.35567
   D57        3.00778   0.00033   0.00000   0.00175   0.00152   3.00931
   D58       -1.31919  -0.00026   0.00000  -0.00187  -0.00188  -1.32107
   D59        0.77784  -0.00039   0.00000  -0.01173  -0.01177   0.76607
   D60       -1.23708   0.00049   0.00000   0.00348   0.00331  -1.23378
   D61        0.71913  -0.00010   0.00000  -0.00014  -0.00010   0.71903
   D62        2.81616  -0.00023   0.00000  -0.01000  -0.00999   2.80617
   D63       -0.83276   0.00062   0.00000  -0.00994  -0.00982  -0.84258
   D64        1.34349  -0.00155   0.00000  -0.01727  -0.01736   1.32613
   D65       -2.87531  -0.00005   0.00000  -0.01011  -0.01015  -2.88546
   D66        2.94839  -0.00253   0.00000  -0.02426  -0.02416   2.92422
   D67        0.89006  -0.00195   0.00000  -0.02065  -0.02056   0.86950
   D68       -1.15413  -0.00198   0.00000  -0.02088  -0.02077  -1.17490
   D69       -1.15339   0.00099   0.00000   0.00930   0.00920  -1.14419
   D70        3.07147   0.00156   0.00000   0.01291   0.01280   3.08427
   D71        1.02728   0.00154   0.00000   0.01268   0.01259   1.03987
   D72        0.93546  -0.00019   0.00000  -0.00109  -0.00105   0.93441
   D73       -1.12287   0.00038   0.00000   0.00252   0.00256  -1.12031
   D74        3.11612   0.00036   0.00000   0.00229   0.00235   3.11847
   D75       -1.08495  -0.00062   0.00000   0.00234   0.00227  -1.08268
   D76        2.86389  -0.00034   0.00000   0.00173   0.00170   2.86560
   D77        1.57723   0.00083   0.00000   0.00355   0.00366   1.58088
   D78       -2.65308  -0.00006   0.00000  -0.00179  -0.00173  -2.65481
   D79       -0.59417   0.00001   0.00000  -0.00130  -0.00124  -0.59541
   D80        1.59586  -0.00019   0.00000  -0.00454  -0.00452   1.59135
   D81       -0.27784   0.00026   0.00000  -0.00303  -0.00296  -0.28081
   D82       -0.52674   0.00182   0.00000   0.00969   0.00968  -0.51707
   D83        0.03611  -0.00099   0.00000  -0.00794  -0.00771   0.02839
   D84       -1.81448   0.00066   0.00000   0.00056   0.00064  -1.81384
   D85        0.05945   0.00040   0.00000  -0.00126  -0.00110   0.05835
   D86        1.95742  -0.00033   0.00000  -0.00295  -0.00271   1.95471
   D87       -0.01152  -0.00083   0.00000  -0.00063  -0.00070  -0.01222
   D88       -1.92150  -0.00007   0.00000   0.00173   0.00171  -1.91980
         Item               Value     Threshold  Converged?
 Maximum Force            0.022968     0.000450     NO 
 RMS     Force            0.003490     0.000300     NO 
 Maximum Displacement     0.192934     0.001800     NO 
 RMS     Displacement     0.037784     0.001200     NO 
 Predicted change in Energy=-6.494923D-03
 GradGradGradGradGradGradGradGradGradGradGradGradGradGradGradGradGradGrad

                          Input orientation:                          
 ---------------------------------------------------------------------
 Center     Atomic      Atomic             Coordinates (Angstroms)
 Number     Number       Type             X           Y           Z
 ---------------------------------------------------------------------
      1          6           0       -1.386870   -0.035452   -0.858820
      2          8           0       -1.051531    0.799548    0.349834
      3          6           0       -0.951266   -1.473471   -0.571347
      4          6           0        0.518768   -1.552978   -0.125588
      5          6           0        0.824153   -0.583867    1.031471
      6          6           0        0.333753    0.849692    0.758330
      7          1           0       -1.069101   -2.060373   -1.500265
      8          1           0        1.904182   -0.569908    1.209503
      9          1           0        0.312872    1.356043    1.728092
     10          1           0        0.722862   -2.567444    0.238556
     11          8           0       -1.772627   -2.014862    0.454049
     12          8           0        1.367037   -1.249394   -1.251263
     13          8           0        0.229906   -1.100486    2.212848
     14          1           0        1.244820   -1.945420   -1.917034
     15          1           0       -2.636110   -1.568943    0.336916
     16          1           0       -0.688431   -1.335668    1.979123
     17          6           0        1.188886    1.713786   -0.187180
     18          8           0        2.453365    1.976868    0.381210
     19          1           0        0.668410    2.671538   -0.315645
     20          1           0        1.273245    1.250927   -1.179640
     21          1           0        3.065908    1.263482    0.095088
     22          1           0       -0.844413    0.407328   -1.703044
     23          8           0       -2.745318   -0.002940   -0.983481
     24          1           0       -3.041249    0.977681   -0.843630
     25          1           0       -2.047582    2.022682    0.191045
     26          8           0       -2.894549    2.392983   -0.237480
     27          1           0       -3.537926    2.502920    0.480077
     28          8           0        3.896576   -0.143275   -0.713855
     29          1           0        4.262288    0.205609   -1.540645
     30          1           0        3.107361   -0.659786   -0.979406
 ---------------------------------------------------------------------
                    Distance matrix (angstroms):
                    1          2          3          4          5
     1  C    0.000000
     2  O    1.506825   0.000000
     3  C    1.529802   2.454637   0.000000
     4  C    2.544007   2.868143   1.538188   0.000000
     5  C    2.960167   2.428303   2.551968   1.539877   0.000000
     6  C    2.521745   1.445128   2.969243   2.566781   1.539542
     7  H    2.147728   3.406218   1.105091   2.160674   3.489150
     8  H    3.923599   3.369077   3.484457   2.160617   1.094692
     9  H    3.393743   2.017641   3.858966   3.455564   2.123662
    10  H    3.473642   3.807556   2.157643   1.096994   2.138587
    11  O    2.406346   2.907188   1.420977   2.408280   3.020668
    12  O    3.035074   3.551218   2.426319   1.441828   2.438960
    13  O    3.630897   2.953478   3.047299   2.399265   1.419745
    14  H    3.419589   4.236362   2.618473   1.972420   3.274823
    15  H    2.311272   2.849702   1.916443   3.188639   3.664178
    16  H    3.198797   2.710271   2.567678   2.436055   1.936792
    17  C    3.185192   2.478645   3.858296   3.335356   2.626281
    18  O    4.509380   3.697481   4.940012   4.057008   3.103954
    19  H    3.441948   2.627814   4.457559   4.231435   3.526562
    20  H    2.972189   2.819152   3.569428   3.089036   2.908121
    21  H    4.735441   4.151317   4.906398   3.803823   3.052045
    22  H    1.096826   2.100248   2.197627   2.861718   3.353231
    23  O    1.364543   2.300137   2.356043   3.713873   4.139883
    24  H    1.940010   2.327030   3.232694   4.426459   4.571189
    25  H    2.403054   1.585367   3.742491   4.412680   3.968283
    26  O    2.925142   2.506131   4.340194   5.218607   4.929566
    27  H    3.586505   3.016720   4.858805   5.768353   5.372153
    28  O    5.286534   5.148214   5.029046   3.707142   3.560908
    29  H    5.695260   5.671274   5.562373   4.371379   4.365756
    30  H    4.538992   4.603576   4.159453   2.868381   3.043424
                    6          7          8          9         10
     6  C    0.000000
     7  H    3.941792   0.000000
     8  H    2.164502   4.290074   0.000000
     9  H    1.094196   4.899391   2.551566   0.000000
    10  H    3.478274   2.547891   2.515632   4.216700   0.000000
    11  O    3.568626   2.077586   4.022130   4.163591   2.565005
    12  O    3.084202   2.579623   2.608754   4.095867   2.090879
    13  O    2.435077   4.049198   2.022724   2.505276   2.508545
    14  H    3.974954   2.353963   3.478796   5.005509   2.303458
    15  H    3.853241   2.464194   4.730087   4.380343   3.505620
    16  H    2.703885   3.574387   2.810755   2.882869   2.557068
    17  C    1.540098   4.589877   2.770854   2.136270   4.327512
    18  O    2.430124   5.678646   2.733814   2.604079   4.864747
    19  H    2.141154   5.178151   3.789483   2.456378   5.268494
    20  H    2.190744   4.068672   3.069451   3.064028   4.110250
    21  H    2.841793   5.539987   2.439846   3.202262   4.492933
    22  H    2.764439   2.486192   4.122220   3.743269   3.882709
    23  O    3.638896   2.703664   5.171893   4.307202   4.483115
    24  H    3.738087   3.681074   5.573838   4.243470   5.282761
    25  H    2.714493   4.526509   4.834792   2.894591   5.361611
    26  O    3.714205   4.975868   5.822397   3.902085   6.157768
    27  H    4.219062   5.553421   6.292128   4.207317   6.627310
    28  O    3.980831   5.380673   2.801956   4.588463   4.105623
    29  H    4.597120   5.793100   3.704781   5.254144   4.835588
    30  H    3.604324   4.435737   2.499408   4.382155   3.287616
                   11         12         13         14         15
    11  O    0.000000
    12  O    3.653974   0.000000
    13  O    2.817729   3.649014   0.000000
[...]
 0060692,0.00034588,-0.00100063,0.00149869,-0.00060792,0.00018129,0.000
 50368,0.00043474,0.00033000,0.00053644,0.00014994,-0.00125469,-0.00035
 866,-0.00069790,-0.00002478,0.00008005,0.00009156,0.00006746,-0.000214
 67,0.00000344,0.00013218,0.00001466,0.00000386,-0.00020372,-0.00013960
 ,-0.00010835,-0.00250686,0.00103830,-0.00080562,-0.00028127,-0.0000567
 6,-0.00016034,-0.00005678,-0.00042234,-0.00020231,0.00009335,-0.000078
 19,0.00000781,0.00020216,-0.00192261,0.00220168,0.00007321,0.00039050,
 0.00030604,-0.00008194,-0.00006433,0.00052689,0.00040951,0.00005233,-0
 .00025258,-0.00003636,-0.00005160,0.00005452,0.00012013,-0.00003143,-0
 .00018588,-0.00009259,0.00010975,0.00012028,0.00010508,-0.00098386,0.0
 0018316,0.00374533,-0.01208591,-0.01490555,0.00324006,0.00782540,0.021
 88937,0.00806349,0.00253540,0.00631014,-0.00254015,-0.00571962,-0.0027
 3817,-0.00054573,-0.00014886,-0.00166169,-0.00013964,0.00046782,0.0002
 5861,0.00087036,0.00101193,-0.00025049,-0.00391001,-0.00046351,-0.0018
 6264,0.00012140,-0.00070516,-0.00000298,0.00014027,-0.00039018,0.00005
 498,0.00005252,0.00012375,-0.00008103,-0.00004548,-0.00012965,-0.00006
 214,-0.00073003,-0.00033305,0.00018997,0.00012300,-0.00019021,-0.00015
 520,-0.00027160,-0.00063358,0.00043869,-0.00005984,0.00001026,0.000050
 66,0.00048427,-0.00030653,0.00020921,0.00021956,0.00035199,-0.00012623
 ,-0.00117342,0.00071001,0.00017286,0.00144022,-0.00008383,-0.00000390,
 -0.00024351,-0.00075478,0.00014624,0.00011038,-0.00008977,-0.00010732,
 -0.00030974,0.00026715,0.00030390,-0.00042361,-0.00033700,-0.00059915,
 -0.00471177,0.00462955,0.00078369,0.00097670,-0.00828262,-0.00454234,0
 .34410507,-0.00083813,-0.00548158,-0.00602637,-0.00472242,-0.00168279,
 -0.00006708,0.00041194,-0.00021836,0.00071896,0.00064185,-0.00030563,-
 0.00047303,-0.00181155,-0.00085249,0.00006877,0.00509511,0.00349353,0.
 00297275,-0.00010311,0.00054633,0.00008621,-0.00029107,0.00065737,-0.0
 0016615,-0.00025810,-0.00008356,-0.00037628,-0.00011850,0.00010473,0.0
 0002854,0.00006569,0.00083117,-0.00018588,-0.00058787,0.00002011,0.000
 31268,0.00001464,0.00027245,-0.00031551,0.00015654,-0.00006895,-0.0000
 7872,-0.00029829,-0.00060024,0.00008449,0.00007823,-0.00035918,0.00030
 473,-0.00041569,0.00179565,-0.00106690,-0.00076129,-0.00080078,0.00025
 012,0.00002700,-0.00049304,0.00015869,0.00006161,-0.00017019,0.0000791
 9,0.00018791,-0.00000791,-0.00002717,-0.00005516,0.00043199,0.00086931
 ,0.00208129,-0.00028306,0.00185344,-0.00708548,-0.00011953,-0.00540560
 ,-0.10370164,0.05261162,0.00354771,-0.00335888,0.00216053,-0.00202529,
 0.00119674,-0.00605061,-0.00016332,-0.00035005,-0.00076994,-0.00000176
 ,0.00006193,0.00010587,-0.00006259,0.00010837,-0.00000005,-0.00040866,
 0.00011900,-0.00010541,0.00006000,-0.00023110,0.00001025,0.00001065,-0
 .00003392,-0.00000749,-0.00031700,0.00011518,-0.00021765,-0.00004295,-
 0.00000052,-0.00003099,-0.00007652,0.00024544,-0.00028812,-0.00002872,
 0.00005433,-0.00012101,0.00010464,-0.00012427,-0.00019156,0.00002341,-
 0.00002792,0.00000582,0.00003228,-0.00015420,0.00032815,-0.00002122,0.
 00015346,0.00014800,0.00035368,-0.00065713,0.00038066,-0.00022117,0.00
 017660,-0.00027342,0.00006678,0.00036497,0.00019338,0.00012350,-0.0000
 6355,-0.00012943,0.00001398,-0.00003612,-0.00004036,0.00015940,-0.0003
 0468,-0.00063663,-0.00046251,0.00183223,-0.00023181,-0.00365380,-0.003
 99170,-0.00192001,0.16072591,-0.05162554,0.15330349,-0.00383467,-0.003
 54745,-0.00375768,-0.00686194,0.00900387,-0.00071647,0.00064791,-0.000
 07962,0.00092490,0.00016258,-0.00042838,-0.00023064,-0.00104909,-0.000
 96670,0.00010327,0.00261901,0.00203761,0.00138931,-0.00006793,0.000460
 70,0.00001828,-0.00014076,0.00041102,-0.00006527,-0.00003012,-0.000081
 23,-0.00002032,0.00002009,0.00011608,0.00004880,0.00043638,0.00057491,
 -0.00026330,-0.00016042,0.00018587,0.00012573,0.00021132,0.00054705,-0
 .00036682,0.00006722,-0.00003228,-0.00004276,-0.00045885,-0.00004590,0
 .00004151,-0.00014372,-0.00031215,0.00011610,0.00081659,-0.00028962,-0
 .00011655,-0.00107357,-0.00000217,-0.00002224,0.00011563,0.00035007,0.
 00000330,-0.00003905,0.00000317,0.00006025,0.00028258,-0.00021758,-0.0
 0021621,0.00047252,0.00013982,0.00022205,0.00673943,0.00299068,-0.0001
 7244,-0.01197876,-0.00033400,0.00216274,-0.31574785,0.10927559,-0.1953
 2469,0.58355117,-0.00980521,-0.00173585,-0.00127299,0.01017813,-0.0006
 9354,0.00397249,0.00119721,0.00064957,0.00060653,-0.00109533,-0.000529
 44,0.00057735,0.00103372,0.00034836,-0.00024236,-0.00333004,-0.0019551
 0,-0.00157728,-0.00001037,0.00002554,-0.00008109,0.00021766,-0.0003479
 5,0.00016939,0.00036460,0.00005387,0.00034836,0.00043497,-0.00007916,0
 .00006120,0.00099020,-0.00101972,0.00044881,0.00096483,0.00008410,-0.0
 0034282,0.00018550,0.00008732,0.00040582,-0.00028632,0.00012985,0.0001
 2412,-0.00017673,0.00173662,-0.00121853,-0.00028595,0.00005725,-0.0005
 5365,0.00023764,-0.00141251,0.00056555,0.00065197,0.00075464,-0.000097
 05,-0.00010529,0.00039016,-0.00012925,-0.00008874,0.00012284,0.0000539
 0,-0.00017087,-0.00007146,0.00000417,0.00119260,0.00011504,-0.00045104
 ,0.01003407,-0.02221516,-0.00594788,-0.00277169,0.00399871,0.00746596,
 0.10277971,-0.04785251,0.06748466,-0.16139205,0.08324742,-0.00464878,-
 0.00056283,-0.00347822,-0.00208296,0.00154281,0.00406986,0.00054993,0.
 00028451,0.00063721,-0.00010747,-0.00028535,-0.00008812,-0.00027365,-0
 .00037272,-0.00013310,0.00062799,0.00093394,0.00050952,-0.00005997,0.0
 0029028,0.00004697,-0.00003836,0.00016109,0.00001108,0.00021010,-0.000
 05898,0.00013674,0.00012208,0.00001917,0.00005429,0.00037104,-0.000216
 73,0.00044341,0.00009124,0.00000878,0.00014553,-0.00002446,0.00025105,
 0.00018784,-0.00005076,0.00004653,-0.00001101,-0.00010285,0.00033750,-
 0.00070737,-0.00001470,-0.00023811,-0.00020252,-0.00004393,0.00026035,
 -0.00033417,-0.00005904,-0.00007641,0.00023126,-0.00000884,-0.00014388
 ,-0.00012479,-0.00009790,0.00006184,0.00013743,0.00004949,-0.00003118,
 -0.00004773,0.00001722,0.00035022,0.00045710,0.00369934,-0.00909446,0.
 00315247,-0.00070614,0.00492387,-0.00487236,-0.13575299,0.05363597,-0.
 16007979,-0.05476580,-0.02362839,0.44512810,-0.00054250,0.00006944,0.0
 0011866,0.00002397,0.00062944,-0.00090647,0.00001527,0.00013190,-0.000
 00394,-0.00006447,-0.00003070,0.00007683,-0.00005569,0.00006409,-0.000
 06955,-0.00020084,0.00016404,-0.00005681,0.00001067,-0.00003577,-0.000
 02046,0.00001573,-0.00000559,0.00000536,-0.00005247,0.00002184,-0.0000
 6031,0.00003046,-0.00002573,-0.00000466,0.00001335,-0.00021338,0.00005
 018,0.00007997,-0.00002816,-0.00004755,0.00003637,-0.00011920,0.000023
 22,-0.00002750,0.00001476,0.00001539,0.00009008,0.00019833,-0.00006997
 ,-0.00000911,0.00008745,-0.00001247,-0.00008069,-0.00004296,0.00004110
 ,0.00017838,0.00000711,-0.00003352,-0.00004726,-0.00002316,0.00004415,
 0.00002575,-0.00001033,-0.00002460,-0.00006984,0.00004640,0.00003616,0
 .00003263,-0.00001346,-0.00005714,0.00042294,-0.00249490,-0.00019584,0
 .00094123,0.00346415,0.00021211,-0.02594578,0.00286806,0.03758809,-0.2
 5449266,0.04923338,0.19314484,0.27966571,0.00069957,0.00046606,-0.0001
 0786,-0.00037278,-0.00052084,0.00046208,0.00001248,-0.00005188,-0.0001
 7069,0.00015549,0.00002575,-0.00006340,0.00001494,0.00001597,-0.000016
 49,0.00043554,-0.00004769,0.00030838,-0.00002258,0.00002075,0.00004435
 ,-0.00003216,0.00001899,-0.00000775,-0.00001064,0.00001202,-0.00003160
 ,-0.00003423,0.00000703,-0.00000468,-0.00017593,0.00009771,0.00013805,
 -0.00018541,-0.00001427,0.00007994,-0.00011503,0.00000123,0.00000841,0
 .00004799,-0.00001811,-0.00002084,0.00013518,-0.00027168,-0.00011561,0
 .00011731,-0.00005165,0.00004573,0.00002259,0.00014345,-0.00006970,-0.
 00018621,-0.00011903,0.00000534,0.00009752,0.00000558,0.00003033,0.000
 00555,-0.00001928,-0.00000394,0.00004087,0.00000427,-0.00001793,-0.000
 21826,0.00000739,0.00010231,-0.00165733,-0.00219927,0.00126674,0.00408
 561,0.00170481,-0.00364336,0.00951408,-0.00143464,-0.01096495,0.041526
 09,-0.01382502,-0.02841086,-0.05392844,0.01602616,0.00020310,0.0001335
 4,-0.00011505,-0.00068370,0.00105525,-0.00058481,-0.00006654,-0.000033
 56,0.00006134,0.00001351,0.00000928,0.00000542,-0.00010853,-0.00000620
 ,0.00003777,0.00016478,0.00010413,0.00014995,0.00000388,0.00000183,-0.
 00002109,-0.00000732,0.00001903,-0.00001079,-0.00005306,-0.00001232,-0
 .00003553,-0.00000852,-0.00000099,-0.00000396,0.00000482,-0.00002044,-
 0.00008312,-0.00000129,-0.00000449,-0.00002488,0.00005404,-0.00003796,
 -0.00008890,0.00000420,-0.00000135,0.00000239,0.00003838,0.00000604,0.
 00008740,-0.00002117,0.00004833,0.00006381,0.00000955,-0.00003239,-0.0
 0000273,-0.00001373,-0.00000485,-0.00002232,0.00001964,0.00002433,-0.0
 0000168,0.00000525,0.00000693,-0.00001358,-0.00001298,0.00000578,0.000
 00681,-0.00008648,-0.00000026,0.00002554,-0.00078778,-0.00003134,0.000
 41037,0.00193062,-0.00001947,-0.00194713,-0.02164917,0.00440611,0.0144
 5178,0.25082694,-0.04677101,-0.28527628,-0.22978310,0.04115970,0.27293
 190,0.00088479,-0.00007205,0.00026862,-0.00099237,-0.00005836,-0.00019
 559,0.00057399,-0.00005764,0.00074480,0.00081867,0.00039468,-0.0043417
 5,0.00059756,0.00017960,-0.00068840,0.00101211,0.00012745,-0.00005865,
 0.00006375,-0.00002558,0.00002731,-0.00049632,0.00011906,-0.00014704,-
 0.00014123,-0.00000556,0.00010224,-0.00039858,-0.00031714,0.00041205,-
 0.00115454,-0.00011685,0.00028207,-0.00848314,-0.00639231,-0.00018970,
 -0.00061093,-0.00036109,0.00105120,-0.00269482,-0.00013340,0.00091992,
 0.00010301,-0.00002854,0.00006257,0.00017912,0.00005843,-0.00012653,0.
 00292485,0.00009921,0.00010020,-0.00281288,0.00806660,0.00449681,-0.00
 037396,0.00033347,0.00025422,0.00052169,-0.00033937,0.00071657,-0.0094
 9754,-0.00305735,-0.00193161,0.00003639,-0.00011949,0.00011375,-0.0009
 4045,0.00030144,-0.00014375,0.00021219,-0.00033744,0.00002033,0.000366
 39,-0.00035377,-0.00003282,-0.00033897,0.00043615,-0.00000681,0.000087
 16,-0.00009182,0.00000774,0.39330385,-0.00045663,-0.00152706,-0.000697
 75,0.00148036,0.00179732,0.00041497,0.00040017,-0.00030150,0.00055656,
 0.00100190,0.00024745,-0.00343329,0.00097987,-0.00122601,0.00002034,-0
 .00094270,-0.00136626,0.00068674,0.00006895,0.00013490,0.00011825,0.00
 003630,-0.00050553,-0.00046690,-0.00005616,0.00018740,0.00007646,-0.00
 005235,0.00015493,0.00022254,-0.00077519,0.00047336,0.00016417,-0.0089
 3124,-0.00044371,0.00088365,-0.00035641,0.00118311,0.00021711,0.000237
 06,0.00016183,0.00062359,-0.00004807,-0.00032766,0.00010400,0.00003314
 ,-0.00027949,-0.00010695,-0.00661780,-0.00241187,-0.00294724,0.0139744
 2,-0.00621021,-0.00760642,0.00125601,0.00009526,0.00021777,-0.00046137
 ,0.00020197,0.00039772,-0.00346249,-0.00371084,0.00799964,-0.00001896,
 0.00003258,-0.00003441,0.00021761,0.00064527,0.00018702,-0.00009632,-0
 .00021519,-0.00012569,-0.00027215,-0.00008604,0.00004397,0.00023472,0.
 00019069,0.00004286,-0.00004929,-0.00002543,-0.00001055,0.27307548,0.2
 4427372,-0.00016186,-0.00052888,-0.00080494,0.00109495,0.00041480,0.00
 055452,0.00008068,-0.00010573,0.00044963,-0.00034960,-0.00040278,-0.00
 242118,-0.00161937,-0.00069099,-0.00066978,-0.00053891,0.00030918,0.00
 044522,0.00012158,0.00007951,0.00013757,0.00081920,-0.00007542,0.00023
 739,-0.00013057,-0.00006525,0.00015322,-0.00021968,-0.00007039,0.00024
 425,-0.00028868,0.00018863,0.00024127,-0.00222815,-0.00049381,0.005530
 85,0.00083758,0.00060653,0.00004190,0.00087574,0.00023707,-0.00004856,
 -0.00006532,-0.00011857,0.00002510,-0.00009183,-0.00015854,-0.00029381
 ,-0.00333888,-0.00174152,-0.00293408,0.00762548,-0.00761185,-0.0006923
 4,0.00076884,0.00012935,0.00055127,0.00068895,0.00046098,0.00087446,-0
 .00007305,0.00336454,-0.00337934,-0.00000531,-0.00001529,0.00009004,0.
 00017851,0.00014908,0.00024726,-0.00006042,-0.00002309,-0.00010367,-0.
 00016556,0.00008443,-0.00002024,0.00013757,-0.00003722,0.00006554,-0.0
 0003246,0.00001073,-0.00001100,-0.03682875,-0.09330591,0.47317662,-0.0
 0031062,-0.00014400,0.00001970,0.00029034,0.00016566,0.00002861,-0.000
 10668,-0.00007690,-0.00002146,-0.00014182,0.00006330,0.00047133,0.0003
 2843,-0.00011426,0.00027621,-0.00026993,-0.00032837,-0.00010984,0.0000
 0046,0.00000858,-0.00000566,-0.00035488,-0.00000176,0.00010227,0.00007
 692,0.00007304,-0.00007035,0.00008562,0.00007191,-0.00010242,0.0001604
 6,0.00010310,-0.00008798,-0.00039279,-0.00009628,-0.00170361,-0.000048
 57,0.00013329,-0.00023101,-0.00033388,-0.00019807,0.00005041,-0.000039
 50,-0.00003887,0.00001278,-0.00004461,-0.00003786,0.00006631,-0.000439
 40,0.00025012,0.00070883,0.00056805,0.00018246,-0.00099077,0.00014721,
 -0.00011910,-0.00019121,-0.00047262,-0.00007446,-0.00029656,-0.0008328
 2,0.00007382,0.00278389,-0.00000486,0.00004466,-0.00006004,0.00027749,
 -0.00000330,0.00000586,-0.00007012,0.00007078,0.00000041,-0.00011751,0
 .00007746,0.00002344,0.00011318,-0.00009615,-0.00000775,-0.00002776,0.
 00002331,-0.00000273,-0.07838801,-0.07422614,0.09927922,0.09096091,0.0
 0005862,0.00020766,0.00004755,-0.00013850,-0.00023569,-0.00004928,-0.0
 0006173,0.00004327,0.00000837,-0.00006742,-0.00002889,0.00025735,-0.00
 016632,0.00023620,-0.00004048,0.00003223,0.00021781,0.00002048,0.00000
 083,-0.00002295,-0.00002150,-0.00005707,-0.00003720,0.00016298,-0.0000
 2332,-0.00004884,0.00001822,0.00003248,-0.00000969,-0.00002321,0.00007
 665,-0.00006853,-0.00002252,-0.00012800,-0.00026722,-0.00105500,0.0001
 1020,-0.00016164,-0.00002974,-0.00053612,-0.00006486,0.00009151,-0.000
 00037,0.00004832,-0.00000810,-0.00000667,0.00004414,-0.00000314,0.0004
 3724,-0.00001104,-0.00017600,-0.00001131,-0.00266183,0.00071521,0.0000
 1508,0.00000065,0.00004606,0.00024762,0.00014674,0.00003096,0.00062002
 ,0.00438837,-0.00279074,0.00000182,-0.00000344,0.00001552,-0.00002002,
 -0.00010430,-0.00001629,0.00000911,0.00005078,0.00001571,0.00002947,0.
 00003577,-0.00001212,-0.00003417,-0.00005732,-0.00000187,0.00000799,0.
 00001056,0.00000204,-0.08393643,-0.09030560,0.13797324,0.08879612,0.09
 814207,0.00003926,0.00007483,0.00010314,-0.00013074,-0.00015818,-0.000
 05006,-0.00000310,0.00002331,0.00006828,0.00016562,-0.00000155,-0.0001
 9712,-0.00031977,0.00002530,-0.00007467,0.00012062,0.00012667,-0.00006
 235,0.00000901,-0.00001522,-0.00000019,0.00005771,0.00001909,0.0000230
 3,-0.00000822,-0.00000859,-0.00001008,-0.00000989,-0.00001242,0.000006
 25,-0.00003590,-0.00001314,-0.00000486,-0.00110676,-0.00028526,-0.0004
 3543,0.00009012,-0.00003422,0.00001012,-0.00021913,-0.00016246,0.00012
 179,0.00000014,0.00001005,0.00000847,0.00000239,0.00000524,-0.00002235
 ,0.00060069,0.00008140,0.00017409,-0.00103016,-0.00046361,0.00083368,-
 0.00006011,0.00002894,0.00005212,0.00012183,-0.00006053,0.00002628,0.0
 0117967,0.00119313,-0.00301043,0.00001056,-0.00000396,0.00000338,-0.00
 004978,-0.00001754,-0.00004215,0.00000978,0.00000274,0.00002002,0.0000
 3073,-0.00000334,0.00000254,-0.00002539,-0.00000163,-0.00001290,0.0000
 0736,0.00000010,0.00000273,0.14849977,0.17091409,-0.38507596,-0.138403
 93,-0.16303075,0.37961373,-0.00058109,0.00121655,0.00038729,-0.0002368
 2,-0.00097166,-0.00031153,-0.00091403,0.00025030,-0.00126244,-0.003528
 89,-0.00069170,0.00858729,0.00011225,0.00108383,0.00158985,-0.00021982
 ,0.00050014,-0.00021682,-0.00016549,-0.00008134,-0.00016683,0.00024279
 ,0.00007643,0.00044539,0.00020868,-0.00019452,-0.00013598,0.00079698,0
 .00043039,-0.00094492,0.00186627,-0.00020669,-0.00053087,-0.00337035,0
 .00029375,-0.00262292,0.00032933,-0.00062658,-0.00143215,0.00411351,0.
 00032718,-0.00185335,-0.00003969,0.00026176,-0.00015048,-0.00017087,0.
 00017268,0.00038182,0.00215362,0.00130644,0.00167090,-0.00478615,0.001
 23932,0.00093377,-0.00035548,-0.00032523,-0.00034946,-0.00015938,0.000
 56193,-0.00069423,0.00605000,-0.00269763,-0.00298368,-0.00002600,0.000
 13784,-0.00014096,0.00080237,-0.00075591,-0.00003214,-0.00013195,0.000
 47027,0.00007503,-0.00015794,0.00035915,0.00000955,0.00016272,-0.00051
 764,-0.00003009,-0.00005309,0.00009671,-0.00000034,-0.29436178,-0.1961
 7271,-0.06630993,-0.01061266,-0.00528800,-0.00954238,0.30303295,0.0002
 1852,0.00119994,0.00041525,-0.00080089,-0.00094069,-0.00038035,-0.0003
 8903,0.00018523,-0.00082637,-0.00181009,-0.00071370,0.00471156,0.00075
 399,0.00120663,0.00041095,0.00111237,0.00067025,-0.00023402,-0.0001224
 5,-0.00008817,-0.00011323,-0.00024845,0.00059448,-0.00015210,-0.000068
 91,-0.00022384,0.00006167,-0.00007345,-0.00009137,-0.00022202,0.000949
 79,-0.00034453,-0.00024619,0.00520411,-0.00306565,-0.00237434,-0.00024
 504,-0.00099520,-0.00047861,-0.00160780,-0.00070496,-0.00125729,0.0000
 3479,0.00026748,-0.00010615,-0.00004619,0.00021631,0.00030798,0.002173
 26,-0.00041668,-0.00084718,-0.00146823,0.00131192,0.00102328,-0.000350
 18,0.00018669,0.00038974,0.00066496,-0.00009183,0.00057363,-0.00178891
 ,-0.00469175,-0.00361044,0.00001855,0.00000841,-0.00000277,0.00005339,
 -0.00055091,-0.00008370,0.00003071,0.00021502,0.00008092,0.00011102,0.
 00009977,-0.00002021,-0.00009397,-0.00019724,-0.00002900,0.00001268,0.
 00003108,0.00000485,-0.18738739,-0.14083740,-0.03856287,-0.01458209,-0
 .00948331,-0.00823247,0.19974493,0.15724403,0.00005911,0.00022694,0.00
 057251,-0.00067920,0.00015465,-0.00049757,0.00000024,0.00017507,-0.000
 78540,0.00220924,0.00089231,0.00314716,0.00249376,0.00072401,0.0004570
 6,0.00035481,-0.00065884,-0.00004158,-0.00014558,-0.00004184,-0.000102
 37,-0.00046162,-0.00032005,-0.00130000,-0.00001393,0.00004083,-0.00003
 239,0.00035965,0.00020992,-0.00033068,0.00034624,-0.00013969,-0.000197
 74,0.00005659,-0.00168524,-0.00906257,-0.00113065,-0.00041560,0.000071
 23,-0.00236400,-0.00032394,0.00010509,0.00007149,0.00008655,-0.0000378
 5,0.00010413,0.00011716,0.00035849,0.00054510,-0.00024992,0.00062886,0
 .00047278,0.00065341,-0.00047569,0.00002703,0.00011851,-0.00005628,-0.
 00003922,-0.00002992,0.00001376,-0.00293685,-0.00198744,-0.00017629,0.
 00001050,0.00001947,-0.00008702,-0.00009599,-0.00003236,-0.00017227,0.
 00003188,-0.00000722,0.00006667,0.00008543,-0.00009682,0.00002404,-0.0
 0007421,0.00006389,-0.00004599,0.00001540,-0.00001253,0.00000567,-0.11
 338875,-0.07515635,-0.08661121,0.03845605,0.02787553,0.00792889,0.0756
 3059,0.04979950,0.08663345\\-0.00003367,0.00001229,0.00000201,0.000011
 77,-0.00001807,0.00002567,0.00000798,-0.00000318,-0.00000931,0.0000017
 5,0.00000508,-0.00000490,0.00000557,-0.00001859,0.00000686,-0.00002336
 ,0.00000902,-0.00001151,-0.00000660,0.00000494,-0.00000034,-0.00000302
 ,-0.00000067,0.00000155,0.00000806,0.00000405,-0.00000297,-0.00000493,
 -0.00000132,-0.00000136,-0.00000812,0.00000704,0.00000344,0.00000087,-
 0.00001213,0.00001346,-0.00000733,0.00000163,-0.00000204,0.00000075,-0
 .00000139,0.00000129,0.00000038,-0.00000387,-0.00000228,-0.00000328,0.
 00000382,0.00000332,0.00000221,-0.00000739,-0.00000785,0.00000613,0.00
 000110,0.00000699,0.00000353,-0.00000014,0.00000131,0.00000841,0.00000
 490,0.00000239,-0.00000025,-0.00000507,0.00000148,0.00000925,-0.000003
 00,-0.00000799,0.00002078,-0.00000208,-0.00000631,0.00000595,0.0000153
 6,0.00000708,-0.00000668,0.00000089,-0.00001184,0.00000193,0.00000615,
 -0.00000430,0.00000158,0.00000287,-0.00000026,0.00000009,-0.00001169,0
 .00002639,0.00000505,-0.00000984,0.00000213,-0.00000478,0.00001927,-0.
 00003214\\\@


 WE HAVE SEEN THAT MAN ON THE AVERAGE DOES NOT LIVE ABOVE
 TWO-AND-TWENTY YEARS.  DURING THESE TWO AND TWENTY
 YEARS HE IS LIABLE TO TWO AND TWENTY THOUSAND EVILS,
 MANY OF WHICH ARE INCURABLE.  YET EVEN IN THIS DREADFUL STATE
 MEN STILL STRUT AND POSE ON THE STAGE OF LIFE.
 THEY MAKE LOVE AT THE RISK OF DESTRUCTION,
 INTRIGUE, CARRY ON WAR, AND FORM PROJECTS, JUST AS IF THEY
 WERE TO LIVE IN LUXURY AND HAPPINESS FOR A THOUSAND
 AGES.

                                              -- VOLTAIRE
 Job cpu time:       0 days  0 hours 36 minutes 51.4 seconds.
 File lengths (MBytes):  RWF=    221 Int=      0 D2E=      0 Chk=      6 Scr=      1
 Normal termination of Gaussian 09 at Sun Jan 15 13:41:23 2017.
