 Entering Gaussian System, Link 0=g09
 Initial command:
 /global/software/gaussian/g09.d01/l1.exe "/home/iawad/Gau-29970.inp" -scrdir="/home/iawad/"
 Entering Link 1 = /global/software/gaussian/g09.d01/l1.exe PID=     29971.
  
 Copyright (c) 1988,1990,1992,1993,1995,1998,2003,2009,2013,
            Gaussian, Inc.  All Rights Reserved.
  
 This is part of the Gaussian(R) 09 program.  It is based on
 the Gaussian(R) 03 system (copyright 2003, Gaussian, Inc.),
 the Gaussian(R) 98 system (copyright 1998, Gaussian, Inc.),
 the Gaussian(R) 94 system (copyright 1995, Gaussian, Inc.),
 the Gaussian 92(TM) system (copyright 1992, Gaussian, Inc.),
 the Gaussian 90(TM) system (copyright 1990, Gaussian, Inc.),
 the Gaussian 88(TM) system (copyright 1988, Gaussian, Inc.),
 the Gaussian 86(TM) system (copyright 1986, Carnegie Mellon
 University), and the Gaussian 82(TM) system (copyright 1983,
 Carnegie Mellon University). Gaussian is a federally registered
 trademark of Gaussian, Inc.
  
 This software contains proprietary and confidential information,
 including trade secrets, belonging to Gaussian, Inc.
  
 This software is provided under written license and may be
 used, copied, transmitted, or stored only in accord with that
 written license.
  
 The following legend is applicable only to US Government
 contracts under FAR:
  
                    RESTRICTED RIGHTS LEGEND
  
 Use, reproduction and disclosure by the US Government is
 subject to restrictions as set forth in subparagraphs (a)
 and (c) of the Commercial Computer Software - Restricted
 Rights clause in FAR 52.227-19.
  
 Gaussian, Inc.
 340 Quinnipiac St., Bldg. 40, Wallingford CT 06492
  
  
 ---------------------------------------------------------------
 Warning -- This program may not be used in any manner that
 competes with the business of Gaussian, Inc. or will provide
 assistance to any competitor of Gaussian, Inc.  The licensee
 of this program is prohibited from giving any competitor of
 Gaussian, Inc. access to this program.  By using this program,
 the user acknowledges that Gaussian, Inc. is engaged in the
 business of creating and licensing software in the field of
 computational chemistry and represents and warrants to the
 licensee that it is not a competitor of Gaussian, Inc. and that
 it will not use this program in any manner prohibited above.
 ---------------------------------------------------------------
  

 Cite this work as:
 Gaussian 09, Revision D.01,
 M. J. Frisch, G. W. Trucks, H. B. Schlegel, G. E. Scuseria, 
 M. A. Robb, J. R. Cheeseman, G. Scalmani, V. Barone, B. Mennucci, 
 G. A. Petersson, H. Nakatsuji, M. Caricato, X. Li, H. P. Hratchian, 
 A. F. Izmaylov, J. Bloino, G. Zheng, J. L. Sonnenberg, M. Hada, 
 M. Ehara, K. Toyota, R. Fukuda, J. Hasegawa, M. Ishida, T. Nakajima, 
 Y. Honda, O. Kitao, H. Nakai, T. Vreven, J. A. Montgomery, Jr., 
 J. E. Peralta, F. Ogliaro, M. Bearpark, J. J. Heyd, E. Brothers, 
 K. N. Kudin, V. N. Staroverov, T. Keith, R. Kobayashi, J. Normand, 
 K. Raghavachari, A. Rendell, J. C. Burant, S. S. Iyengar, J. Tomasi, 
 M. Cossi, N. Rega, J. M. Millam, M. Klene, J. E. Knox, J. B. Cross, 
 V. Bakken, C. Adamo, J. Jaramillo, R. Gomperts, R. E. Stratmann, 
 O. Yazyev, A. J. Austin, R. Cammi, C. Pomelli, J. W. Ochterski, 
 R. L. Martin, K. Morokuma, V. G. Zakrzewski, G. A. Voth, 
 P. Salvador, J. J. Dannenberg, S. Dapprich, A. D. Daniels, 
 O. Farkas, J. B. Foresman, J. V. Ortiz, J. Cioslowski, 
 and D. J. Fox, Gaussian, Inc., Wallingford CT, 2013.
 
 ******************************************
 Gaussian 09:  ES64L-G09RevD.01 24-Apr-2013
                24-Jan-2017 
 ******************************************
 %NPROCS=12
 Will use up to   12 processors via shared memory.
 ------------------------------------------------------
 # opt=(modredundant,MaxCycle=1000) freq B3LYP/6-31G(d)
 ------------------------------------------------------
 1/6=1000,14=-1,18=120,19=15,26=3,38=1/1,3;
 2/9=110,12=2,17=6,18=5,40=1/2;
 3/5=1,6=6,7=1,11=2,16=1,25=1,30=1,71=1,74=-5/1,2,3;
 4//1;
 5/5=2,38=5/2;
 6/7=2,8=2,9=2,10=2,28=1/1;
 7//1,2,3,16;
 1/6=1000,14=-1,18=20,19=15,26=3/3(2);
 2/9=110/2;
 99//99;
 2/9=110/2;
 3/5=1,6=6,7=1,11=2,16=1,25=1,30=1,71=1,74=-5/1,2,3;
 4/5=5,16=3,69=1/1;
 5/5=2,38=5/2;
 7//1,2,3,16;
 1/6=1000,14=-1,18=20,19=15,26=3/3(-5);
 2/9=110/2;
 6/7=2,8=2,9=2,10=2,19=2,28=1/1;
 99/9=1/99;
 -------------------------------------------------------------------
 ./opt_IRC/b3lyp/boats/6/glo_2w_alpha_ircr_boat6_B3LYP_631Gd_opt.out
 -------------------------------------------------------------------
 Symbolic Z-matrix:
 Charge =  0 Multiplicity = 1
 C                    -0.3484    1.04     -0.3102 
 C                    -2.2218   -0.4996    0.5384 
 C                    -1.6842    0.9484    0.4479 
 C                    -1.2948   -1.4994   -0.1493 
 H                    -1.5754   -2.5308    0.0936 
 H                    -3.2072   -0.5515    0.0606 
 H                    -0.485     0.8662   -1.3841 
 H                    -1.537     1.3344    1.4638 
 C                     0.1636   -1.2553    0.2828 
 O                     0.6127    0.0942    0.1798 
 C                     0.2504    2.4529   -0.1677 
 H                    -0.4569    3.216    -0.5071 
 H                     0.5277    2.6521    0.8727 
 O                     1.4426    2.5776   -0.9539 
 H                     1.6754    3.5241   -0.9399 
 O                    -1.4179   -1.3673   -1.5778 
 H                    -0.6046   -1.7944   -1.9271 
 O                    -2.437    -0.8878    1.9045 
 H                    -1.7305   -0.5254    2.4656 
 O                    -2.6543    1.8096   -0.1602 
 H                    -2.9262    1.4009   -1.0041 
 O                     3.4125   -1.9811    0.6471 
 H                     1.8348   -2.151    -0.0985 
 H                     3.6028   -1.0654    0.325 
 H                     4.3136   -2.3066    0.8092 
 O                     0.9795   -2.0435   -0.5772 
 H                     0.3136   -1.5845    1.3169 
 O                     3.2979    0.5476   -0.3272 
 H                     3.2368    1.3824   -0.8321 
 H                     2.3303    0.4074   -0.2016 
 
 Add virtual bond connecting atoms H23        and O22        Dist= 3.31D+00.
 Add virtual bond connecting atoms O28        and H24        Dist= 3.34D+00.
 Add virtual bond connecting atoms H30        and O10        Dist= 3.38D+00.
 The following ModRedundant input section has been read:
 D       4       2       3       1 F                                           
 D       4       9      10       1 F                                           
 

 GradGradGradGradGradGradGradGradGradGradGradGradGradGradGradGradGradGrad
 Berny optimization.
 Initialization pass.
                           ----------------------------
                           !    Initial Parameters    !
                           ! (Angstroms and Degrees)  !
 --------------------------                            --------------------------
 ! Name  Definition              Value          Derivative Info.                !
 --------------------------------------------------------------------------------
 ! R1    R(1,3)                  1.5387         estimate D2E/DX2                !
 ! R2    R(1,7)                  1.0964         estimate D2E/DX2                !
 ! R3    R(1,10)                 1.4347         estimate D2E/DX2                !
 ! R4    R(1,11)                 1.5412         estimate D2E/DX2                !
 ! R5    R(2,3)                  1.5472         estimate D2E/DX2                !
 ! R6    R(2,4)                  1.527          estimate D2E/DX2                !
 ! R7    R(2,6)                  1.0964         estimate D2E/DX2                !
 ! R8    R(2,18)                 1.4364         estimate D2E/DX2                !
 ! R9    R(3,8)                  1.0967         estimate D2E/DX2                !
 ! R10   R(3,20)                 1.4327         estimate D2E/DX2                !
 ! R11   R(4,5)                  1.0961         estimate D2E/DX2                !
 ! R12   R(4,9)                  1.5405         estimate D2E/DX2                !
 ! R13   R(4,16)                 1.4399         estimate D2E/DX2                !
 ! R14   R(9,10)                 1.426          estimate D2E/DX2                !
 ! R15   R(9,26)                 1.4236         estimate D2E/DX2                !
 ! R16   R(9,27)                 1.0956         estimate D2E/DX2                !
 ! R17   R(10,30)                1.7871         estimate D2E/DX2                !
 ! R18   R(11,12)                1.0944         estimate D2E/DX2                !
 ! R19   R(11,13)                1.095          estimate D2E/DX2                !
 ! R20   R(11,14)                1.4335         estimate D2E/DX2                !
 ! R21   R(14,15)                0.9748         estimate D2E/DX2                !
 ! R22   R(16,17)                0.9828         estimate D2E/DX2                !
 ! R23   R(18,19)                0.9723         estimate D2E/DX2                !
 ! R24   R(20,21)                0.9763         estimate D2E/DX2                !
 ! R25   R(22,23)                1.7533         estimate D2E/DX2                !
 ! R26   R(22,24)                0.9892         estimate D2E/DX2                !
 ! R27   R(22,25)                0.9717         estimate D2E/DX2                !
 ! R28   R(23,26)                0.986          estimate D2E/DX2                !
 ! R29   R(24,28)                1.7664         estimate D2E/DX2                !
 ! R30   R(28,29)                0.9775         estimate D2E/DX2                !
 ! R31   R(28,30)                0.9857         estimate D2E/DX2                !
 ! A1    A(3,1,7)              111.4067         estimate D2E/DX2                !
 ! A2    A(3,1,10)             111.9661         estimate D2E/DX2                !
 ! A3    A(3,1,11)             110.2634         estimate D2E/DX2                !
 ! A4    A(7,1,10)             108.2693         estimate D2E/DX2                !
 ! A5    A(7,1,11)             106.5168         estimate D2E/DX2                !
 ! A6    A(10,1,11)            108.2106         estimate D2E/DX2                !
 ! A7    A(3,2,4)              112.0534         estimate D2E/DX2                !
 ! A8    A(3,2,6)              109.336          estimate D2E/DX2                !
 ! A9    A(3,2,18)             111.1378         estimate D2E/DX2                !
 ! A10   A(4,2,6)              108.5638         estimate D2E/DX2                !
 ! A11   A(4,2,18)             110.0176         estimate D2E/DX2                !
 ! A12   A(6,2,18)             105.4875         estimate D2E/DX2                !
 ! A13   A(1,3,2)              112.7173         estimate D2E/DX2                !
 ! A14   A(1,3,8)              108.5981         estimate D2E/DX2                !
 ! A15   A(1,3,20)             110.0561         estimate D2E/DX2                !
 ! A16   A(2,3,8)              108.7749         estimate D2E/DX2                !
 ! A17   A(2,3,20)             110.6168         estimate D2E/DX2                !
 ! A18   A(8,3,20)             105.8129         estimate D2E/DX2                !
 ! A19   A(2,4,5)              111.1533         estimate D2E/DX2                !
 ! A20   A(2,4,9)              110.1593         estimate D2E/DX2                !
 ! A21   A(2,4,16)             109.5619         estimate D2E/DX2                !
 ! A22   A(5,4,9)              109.2251         estimate D2E/DX2                !
 ! A23   A(5,4,16)             106.5162         estimate D2E/DX2                !
 ! A24   A(9,4,16)             110.1618         estimate D2E/DX2                !
 ! A25   A(4,9,10)             115.3307         estimate D2E/DX2                !
 ! A26   A(4,9,26)             106.5829         estimate D2E/DX2                !
 ! A27   A(4,9,27)             110.2893         estimate D2E/DX2                !
 ! A28   A(10,9,26)            107.448          estimate D2E/DX2                !
 ! A29   A(10,9,27)            108.0247         estimate D2E/DX2                !
 ! A30   A(26,9,27)            108.9888         estimate D2E/DX2                !
 ! A31   A(1,10,9)             115.9486         estimate D2E/DX2                !
 ! A32   A(1,10,30)            117.0921         estimate D2E/DX2                !
 ! A33   A(9,10,30)            118.9445         estimate D2E/DX2                !
 ! A34   A(1,11,12)            111.0667         estimate D2E/DX2                !
 ! A35   A(1,11,13)            110.6727         estimate D2E/DX2                !
 ! A36   A(1,11,14)            110.6201         estimate D2E/DX2                !
 ! A37   A(12,11,13)           109.3582         estimate D2E/DX2                !
 ! A38   A(12,11,14)           107.863          estimate D2E/DX2                !
 ! A39   A(13,11,14)           107.137          estimate D2E/DX2                !
 ! A40   A(11,14,15)           105.9738         estimate D2E/DX2                !
 ! A41   A(4,16,17)            104.004          estimate D2E/DX2                !
 ! A42   A(2,18,19)            109.8317         estimate D2E/DX2                !
 ! A43   A(3,20,21)            107.6881         estimate D2E/DX2                !
 ! A44   A(23,22,24)            97.1431         estimate D2E/DX2                !
 ! A45   A(23,22,25)           150.8049         estimate D2E/DX2                !
 ! A46   A(24,22,25)           100.7202         estimate D2E/DX2                !
 ! A47   A(22,24,28)           158.8057         estimate D2E/DX2                !
 ! A48   A(9,26,23)            105.321          estimate D2E/DX2                !
 ! A49   A(24,28,30)            89.571          estimate D2E/DX2                !
 ! A50   A(29,28,30)            97.2339         estimate D2E/DX2                !
 ! A51   L(22,23,26,13,-1)     169.8424         estimate D2E/DX2                !
 ! A52   L(24,28,29,30,-1)     186.8049         estimate D2E/DX2                !
 ! A53   L(10,30,28,14,-1)     183.6428         estimate D2E/DX2                !
 ! A54   L(22,23,26,13,-2)     172.699          estimate D2E/DX2                !
 ! A55   L(24,28,29,30,-2)     188.7758         estimate D2E/DX2                !
 ! A56   L(10,30,28,14,-2)     175.9493         estimate D2E/DX2                !
 ! D1    D(7,1,3,2)             71.3026         estimate D2E/DX2                !
 ! D2    D(7,1,3,8)           -168.0984         estimate D2E/DX2                !
 ! D3    D(7,1,3,20)           -52.6993         estimate D2E/DX2                !
 ! D4    D(10,1,3,2)           -50.1095         estimate D2E/DX2                !
 ! D5    D(10,1,3,8)            70.4895         estimate D2E/DX2                !
 ! D6    D(10,1,3,20)         -174.1113         estimate D2E/DX2                !
 ! D7    D(11,1,3,2)          -170.6475         estimate D2E/DX2                !
 ! D8    D(11,1,3,8)           -50.0486         estimate D2E/DX2                !
 ! D9    D(11,1,3,20)           65.3506         estimate D2E/DX2                !
 ! D10   D(3,1,10,9)            50.6258         estimate D2E/DX2                !
 ! D11   D(3,1,10,30)         -160.7808         estimate D2E/DX2                !
 ! D12   D(7,1,10,9)           -72.5765         estimate D2E/DX2                !
 ! D13   D(7,1,10,30)           76.0168         estimate D2E/DX2                !
 ! D14   D(11,1,10,9)          172.35           estimate D2E/DX2                !
 ! D15   D(11,1,10,30)         -39.0567         estimate D2E/DX2                !
 ! D16   D(3,1,11,12)          -55.8633         estimate D2E/DX2                !
 ! D17   D(3,1,11,13)           65.8053         estimate D2E/DX2                !
 ! D18   D(3,1,11,14)         -175.6091         estimate D2E/DX2                !
 ! D19   D(7,1,11,12)           65.1532         estimate D2E/DX2                !
 ! D20   D(7,1,11,13)         -173.1782         estimate D2E/DX2                !
 ! D21   D(7,1,11,14)          -54.5926         estimate D2E/DX2                !
 ! D22   D(10,1,11,12)        -178.6297         estimate D2E/DX2                !
 ! D23   D(10,1,11,13)         -56.9612         estimate D2E/DX2                !
 ! D24   D(10,1,11,14)          61.6244         estimate D2E/DX2                !
 ! D25   D(4,2,3,1)              0.0038         Frozen                          !
 ! D26   D(4,2,3,8)           -120.4938         estimate D2E/DX2                !
 ! D27   D(4,2,3,20)           123.6958         estimate D2E/DX2                !
 ! D28   D(6,2,3,1)           -120.4058         estimate D2E/DX2                !
 ! D29   D(6,2,3,8)            119.0965         estimate D2E/DX2                !
 ! D30   D(6,2,3,20)             3.2861         estimate D2E/DX2                !
 ! D31   D(18,2,3,1)           123.5495         estimate D2E/DX2                !
 ! D32   D(18,2,3,8)             3.0518         estimate D2E/DX2                !
 ! D33   D(18,2,3,20)         -112.7586         estimate D2E/DX2                !
 ! D34   D(3,2,4,5)            168.4928         estimate D2E/DX2                !
 ! D35   D(3,2,4,9)             47.2834         estimate D2E/DX2                !
 ! D36   D(3,2,4,16)           -74.0561         estimate D2E/DX2                !
 ! D37   D(6,2,4,5)            -70.6498         estimate D2E/DX2                !
 ! D38   D(6,2,4,9)            168.1408         estimate D2E/DX2                !
 ! D39   D(6,2,4,16)            46.8013         estimate D2E/DX2                !
 ! D40   D(18,2,4,5)            44.3203         estimate D2E/DX2                !
 ! D41   D(18,2,4,9)           -76.8891         estimate D2E/DX2                !
 ! D42   D(18,2,4,16)          161.7714         estimate D2E/DX2                !
 ! D43   D(3,2,18,19)          -38.159          estimate D2E/DX2                !
 ! D44   D(4,2,18,19)           86.5421         estimate D2E/DX2                !
 ! D45   D(6,2,18,19)         -156.5508         estimate D2E/DX2                !
 ! D46   D(1,3,20,21)           72.8846         estimate D2E/DX2                !
 ! D47   D(2,3,20,21)          -52.3267         estimate D2E/DX2                !
 ! D48   D(8,3,20,21)         -169.9689         estimate D2E/DX2                !
 ! D49   D(2,4,9,10)           -50.1805         estimate D2E/DX2                !
 ! D50   D(2,4,9,26)          -169.3301         estimate D2E/DX2                !
 ! D51   D(2,4,9,27)            72.5022         estimate D2E/DX2                !
 ! D52   D(5,4,9,10)          -172.5343         estimate D2E/DX2                !
 ! D53   D(5,4,9,26)            68.3161         estimate D2E/DX2                !
 ! D54   D(5,4,9,27)           -49.8516         estimate D2E/DX2                !
 ! D55   D(16,4,9,10)           70.8006         estimate D2E/DX2                !
 ! D56   D(16,4,9,26)          -48.3489         estimate D2E/DX2                !
 ! D57   D(16,4,9,27)         -166.5166         estimate D2E/DX2                !
 ! D58   D(2,4,16,17)          161.2843         estimate D2E/DX2                !
 ! D59   D(5,4,16,17)          -78.3966         estimate D2E/DX2                !
 ! D60   D(9,4,16,17)           39.9462         estimate D2E/DX2                !
 ! D61   D(4,9,10,1)            -0.01           Frozen                          !
 ! D62   D(4,9,10,30)         -147.9942         estimate D2E/DX2                !
 ! D63   D(26,9,10,1)          118.6602         estimate D2E/DX2                !
 ! D64   D(26,9,10,30)         -29.324          estimate D2E/DX2                !
 ! D65   D(27,9,10,1)         -123.8913         estimate D2E/DX2                !
 ! D66   D(27,9,10,30)          88.1245         estimate D2E/DX2                !
 ! D67   D(4,9,26,23)         -159.2982         estimate D2E/DX2                !
 ! D68   D(10,9,26,23)          76.5398         estimate D2E/DX2                !
 ! D69   D(27,9,26,23)         -40.2791         estimate D2E/DX2                !
 ! D70   D(1,10,28,24)        -171.6925         estimate D2E/DX2                !
 ! D71   D(1,10,28,29)          -0.2192         estimate D2E/DX2                !
 ! D72   D(9,10,28,24)         -22.4708         estimate D2E/DX2                !
 ! D73   D(9,10,28,29)         149.0025         estimate D2E/DX2                !
 ! D74   D(1,11,14,15)         170.4616         estimate D2E/DX2                !
 ! D75   D(12,11,14,15)         48.8084         estimate D2E/DX2                !
 ! D76   D(13,11,14,15)        -68.8252         estimate D2E/DX2                !
 ! D77   D(24,22,26,9)         -77.1573         estimate D2E/DX2                !
 ! D78   D(25,22,26,9)         162.025          estimate D2E/DX2                !
 ! D79   D(23,22,24,28)         18.6964         estimate D2E/DX2                !
 ! D80   D(25,22,24,28)        175.4979         estimate D2E/DX2                !
 ! D81   D(22,24,28,30)         10.8872         estimate D2E/DX2                !
 --------------------------------------------------------------------------------
 Trust Radius=3.00D-01 FncErr=1.00D-07 GrdErr=1.00D-06
 Number of steps in this run=    180 maximum allowed number of steps=    180.
 GradGradGradGradGradGradGradGradGradGradGradGradGradGradGradGradGradGrad

                          Input orientation:                          
 ---------------------------------------------------------------------
 Center     Atomic      Atomic             Coordinates (Angstroms)
 Number     Number       Type             X           Y           Z
 ---------------------------------------------------------------------
      1          6           0       -0.348400    1.040000   -0.310200
      2          6           0       -2.221800   -0.499600    0.538400
      3          6           0       -1.684200    0.948400    0.447900
      4          6           0       -1.294800   -1.499400   -0.149300
      5          1           0       -1.575400   -2.530800    0.093600
      6          1           0       -3.207200   -0.551500    0.060600
      7          1           0       -0.485000    0.866200   -1.384100
      8          1           0       -1.537000    1.334400    1.463800
      9          6           0        0.163600   -1.255300    0.282800
     10          8           0        0.612700    0.094200    0.179800
     11          6           0        0.250400    2.452900   -0.167700
     12          1           0       -0.456900    3.216000   -0.507100
     13          1           0        0.527700    2.652100    0.872700
     14          8           0        1.442600    2.577600   -0.953900
     15          1           0        1.675400    3.524100   -0.939900
     16          8           0       -1.417900   -1.367300   -1.577800
     17          1           0       -0.604600   -1.794400   -1.927100
     18          8           0       -2.437000   -0.887800    1.904500
     19          1           0       -1.730500   -0.525400    2.465600
     20          8           0       -2.654300    1.809600   -0.160200
     21          1           0       -2.926200    1.400900   -1.004100
     22          8           0        3.412500   -1.981100    0.647100
     23          1           0        1.834800   -2.151000   -0.098500
     24          1           0        3.602800   -1.065400    0.325000
     25          1           0        4.313600   -2.306600    0.809200
     26          8           0        0.979500   -2.043500   -0.577200
     27          1           0        0.313600   -1.584500    1.316900
     28          8           0        3.297900    0.547600   -0.327200
     29          1           0        3.236800    1.382400   -0.832100
     30          1           0        2.330300    0.407400   -0.201600
 ---------------------------------------------------------------------
                    Distance matrix (angstroms):
                    1          2          3          4          5
     1  C    0.000000
     2  C    2.569069   0.000000
     3  C    1.538658   1.547226   0.000000
     4  C    2.714795   1.527043   2.549511   0.000000
     5  H    3.797262   2.177488   3.498885   1.096140   0.000000
     6  H    3.292887   1.096357   2.172379   2.144725   2.565441
     7  H    1.096416   2.928804   2.191132   2.788650   3.861629
     8  H    2.155578   2.165380   1.096684   3.269736   4.101060
     9  C    2.425324   2.515263   2.880610   1.540528   2.164906
    10  O    1.434695   2.918147   2.465215   2.507274   3.418455
    11  C    1.541153   3.915049   2.526888   4.243661   5.314046
    12  H    2.187583   4.244246   2.749600   4.802613   5.885371
    13  H    2.183041   4.195798   2.824102   4.647681   5.647343
    14  O    2.446680   5.012379   3.794234   4.976210   6.025059
    15  H    3.265431   5.793419   4.455012   5.889201   6.949650
    16  O    2.923309   2.424348   3.088178   1.439867   2.042576
    17  H    3.273198   3.220331   3.785381   1.929760   2.359654
    18  O    3.603271   1.436398   2.461711   2.428327   2.592520
    19  H    3.473578   1.989005   2.499069   2.824219   3.109995
    20  O    2.435561   2.451021   1.432671   3.577407   4.479678
    21  H    2.693845   2.547035   1.963574   3.435679   4.299752
    22  O    4.918113   5.826834   5.882007   4.798433   5.048532
    23  H    3.872165   4.425920   4.721037   3.197117   3.436657
    24  H    4.521965   5.855906   5.658875   4.939616   5.386529
    25  H    5.846968   6.786018   6.833679   5.746690   5.936554
    26  O    3.367875   3.725119   4.134924   2.377306   2.686066
    27  H    3.158116   2.865541   3.340950   2.178058   2.441366
    28  O    3.679436   5.684451   5.057938   5.031377   5.779504
    29  H    3.639131   5.934350   5.103234   5.413537   6.271150
    30  H    2.754525   4.700198   4.102529   4.096336   4.896392
                    6          7          8          9         10
     6  H    0.000000
     7  H    3.392257   0.000000
     8  H    2.883601   3.071880   0.000000
     9  C    3.450652   2.774887   3.315622   0.000000
    10  O    3.875922   2.060755   2.794273   1.425991   0.000000
    11  C    4.586234   2.130272   2.666014   3.736473   2.411531
    12  H    4.698988   2.508282   2.931123   4.582738   3.370684
    13  H    4.987187   3.050925   2.519666   3.968416   2.651450
    14  O    5.695710   2.613351   4.033464   4.225682   2.853294
    15  H    6.438268   3.453849   4.570785   5.159767   3.761286
    16  O    2.559586   2.428239   4.069975   2.444487   3.057528
    17  H    3.502753   2.718078   4.707118   2.400920   3.080204
    18  O    2.026394   4.207340   2.437702   3.086760   3.638624
    19  H    2.822295   4.278786   2.121297   2.980769   3.331572
    20  O    2.435004   2.663418   2.027696   4.186935   3.705602
    21  H    2.241520   2.527798   2.832813   4.272982   3.953846
    22  O    6.797659   5.236735   6.013077   3.348858   3.516265
    23  H    5.292020   4.017180   5.094883   1.934057   2.571362
    24  H    6.834479   4.833447   5.785624   3.444697   3.210367
    25  H    7.759073   6.156605   6.922059   4.313332   4.456080
    26  O    4.490135   3.355920   4.680669   1.423570   2.297249
    27  H    3.878326   3.733510   3.459231   1.095553   2.049510
    28  O    6.608686   3.940669   5.215649   3.666931   2.770004
    29  H    6.786901   3.797757   5.297417   4.200598   3.093429
    30  H    5.626024   3.087834   4.311484   2.773771   1.787095
                   11         12         13         14         15
    11  C    0.000000
    12  H    1.094435   0.000000
    13  H    1.094992   1.786412   0.000000
    14  O    1.433528   2.053116   2.044275   0.000000
    15  H    1.942778   2.197486   2.315841   0.974810   0.000000
    16  O    4.400629   4.803807   5.093710   4.912631   5.822475
    17  H    4.676117   5.209830   5.375160   4.924686   5.870213
    18  O    4.761975   5.155365   4.731274   5.935549   6.668381
    19  H    4.441678   4.945410   4.211093   5.602692   6.292538
    20  O    2.975092   2.631894   3.449900   4.243156   4.721625
    21  H    3.449211   3.104680   4.125204   4.524771   5.068217
    22  O    5.506644   6.581359   5.462555   5.217802   5.986928
    23  H    4.869395   5.850088   5.071638   4.821326   5.739349
    24  H    4.884647   5.958518   4.855515   4.424195   5.135986
    25  H    6.333780   7.415486   6.239053   5.933513   6.634494
    26  O    4.573499   5.452568   4.935078   4.659499   5.622633
    27  H    4.302166   5.192826   4.265200   4.873833   5.748516
    28  O    3.597619   4.609907   3.680039   2.820601   3.444918
    29  H    3.241293   4.136561   3.443502   2.159280   2.652634
    30  H    2.917397   3.968633   3.072811   2.462465   3.269220
                   16         17         18         19         20
    16  O    0.000000
    17  H    0.982793   0.000000
    18  O    3.659904   4.342899   0.000000
    19  H    4.141932   4.708909   0.972270   0.000000
    20  O    3.692014   4.506886   3.403847   3.633243   0.000000
    21  H    3.204221   4.056069   3.733285   4.144774   0.976285
    22  O    5.353475   4.774773   6.082188   5.645924   7.199111
    23  H    3.658220   3.069465   4.884256   4.682793   5.986834
    24  H    5.377659   4.827588   6.245442   5.772162   6.903068
    25  H    6.279343   5.651405   6.984503   6.515173   8.150734
    26  O    2.684394   2.096104   4.378007   4.348259   5.312699
    27  H    3.380023   3.377971   2.897665   2.572848   4.744488
    28  O    5.241146   4.824329   6.319014   5.851142   6.086807
    29  H    5.457394   5.103669   6.695879   6.260080   5.944662
    30  H    4.369495   4.054493   5.370321   4.947137   5.178235
                   21         22         23         24         25
    21  H    0.000000
    22  O    7.371805   0.000000
    23  H    6.008596   1.753261   0.000000
    24  H    7.104716   0.989176   2.117476   0.000000
    25  H    8.333566   0.971704   2.644349   1.510054   0.000000
    26  O    5.225000   2.724389   0.986026   2.941487   3.620435
    27  H    4.979554   3.195169   2.153678   3.474502   4.096241
    28  O    6.318681   2.712327   3.078215   1.766380   3.235662
    29  H    6.165427   3.678591   3.871523   2.732135   4.178766
    30  H    5.409421   2.756153   2.607980   2.016359   3.510127
                   26         27         28         29         30
    26  O    0.000000
    27  H    2.059543   0.000000
    28  O    3.485868   4.019324   0.000000
    29  H    4.110617   4.686768   0.977521   0.000000
    30  H    2.823588   3.215678   0.985739   1.473057   0.000000
 Stoichiometry    C6H16O8
 Framework group  C1[X(C6H16O8)]
 Deg. of freedom    84
 Full point group                 C1      NOp   1
 Largest Abelian subgroup         C1      NOp   1
 Largest concise Abelian subgroup C1      NOp   1
                         Standard orientation:                         
 ---------------------------------------------------------------------
 Center     Atomic      Atomic             Coordinates (Angstroms)
 Number     Number       Type             X           Y           Z
 ---------------------------------------------------------------------
      1          6           0        0.478966    1.022239    0.157969
      2          6           0        2.163530   -0.870064   -0.268119
      3          6           0        1.837811    0.631632   -0.449018
      4          6           0        1.053891   -1.612164    0.473402
      5          1           0        1.197671   -2.697373    0.417093
      6          1           0        3.094155   -0.973530    0.302172
      7          1           0        0.511708    1.009582    1.253823
      8          1           0        1.821420    0.862616   -1.520976
      9          6           0       -0.318683   -1.250573   -0.125361
     10          8           0       -0.572337    0.145126   -0.270735
     11          6           0        0.104380    2.459691   -0.252606
     12          1           0        0.889359    3.167278    0.031854
     13          1           0       -0.065882    2.521320   -1.332523
     14          8           0       -1.109950    2.868191    0.390457
     15          1           0       -1.200602    3.822104    0.211332
     16          8           0        1.092608   -1.266069    1.870518
     17          1           0        0.202862   -1.518642    2.202846
     18          8           0        2.416810   -1.501225   -1.533316
     19          1           0        1.812622   -1.144823   -2.206549
     20          8           0        2.877220    1.444131    0.109569
     21          1           0        3.025629    1.146319    1.027401
     22          8           0       -3.604300   -1.588505   -0.677968
     23          1           0       -2.125575   -1.842190    0.229192
     24          1           0       -3.681511   -0.615453   -0.517725
     25          1           0       -4.529339   -1.813618   -0.872482
     26          8           0       -1.300137   -1.772414    0.764010
     27          1           0       -0.440858   -1.721376   -1.107020
     28          8           0       -3.191962    1.027484   -0.092054
     29          1           0       -3.045966    1.917941    0.283873
     30          1           0       -2.248688    0.741516   -0.103775
 ---------------------------------------------------------------------
 Rotational constants (GHZ):      0.7381134      0.5026207      0.3587270
 Standard basis: 6-31G(d) (6D, 7F)
 There are   242 symmetry adapted cartesian basis functions of A   symmetry.
 There are   242 symmetry adapted basis functions of A   symmetry.
   242 basis functions,   456 primitive gaussians,   242 cartesian basis functions
    58 alpha electrons       58 beta electrons
       nuclear repulsion energy      1102.5714793895 Hartrees.
 NAtoms=   30 NActive=   30 NUniq=   30 SFac= 1.00D+00 NAtFMM=   60 NAOKFM=F Big=F
 Integral buffers will be    131072 words long.
 Raffenetti 2 integral format.
 Two-electron integral symmetry is turned on.
 One-electron integrals computed using PRISM.
 NBasis=   242 RedAO= T EigKep=  1.36D-03  NBF=   242
 NBsUse=   242 1.00D-06 EigRej= -1.00D+00 NBFU=   242
 ExpMin= 1.61D-01 ExpMax= 5.48D+03 ExpMxC= 8.25D+02 IAcc=1 IRadAn=         1 AccDes= 0.00D+00
 Harris functional with IExCor=  402 and IRadAn=       1 diagonalized for initial guess.
 HarFok:  IExCor=  402 AccDes= 0.00D+00 IRadAn=         1 IDoV= 1 UseB2=F ITyADJ=14
 ICtDFT=  3500011 ScaDFX=  1.000000  1.000000  1.000000  1.000000
 FoFCou: FMM=F IPFlag=           0 FMFlag=      100000 FMFlg1=           0
         NFxFlg=           0 DoJE=T BraDBF=F KetDBF=T FulRan=T
         wScrn=  0.000000 ICntrl=     500 IOpCl=  0 I1Cent=   200000004 NGrid=           0
         NMat0=    1 NMatS0=      1 NMatT0=    0 NMatD0=    1 NMtDS0=    0 NMtDT0=    0
 Petite list used in FoFCou.
 Requested convergence on RMS density matrix=1.00D-08 within 128 cycles.
 Requested convergence on MAX density matrix=1.00D-06.
 Requested convergence on             energy=1.00D-06.
 No special actions if energy rises.
 Integral accuracy reduced to 1.0D-05 until final iterations.
 Initial convergence to 1.0D-05 achieved.  Increase integral accuracy.
 SCF Done:  E(RB3LYP) =  -839.979790003     A.U. after   13 cycles
            NFock= 13  Conv=0.97D-08     -V/T= 2.0086

 **********************************************************************

            Population analysis using the SCF density.

 **********************************************************************

 Orbital symmetries:
       Occupied  (A) (A) (A) (A) (A) (A) (A) (A) (A) (A) (A) (A)
                 (A) (A) (A) (A) (A) (A) (A) (A) (A) (A) (A) (A)
                 (A) (A) (A) (A) (A) (A) (A) (A) (A) (A) (A) (A)
                 (A) (A) (A) (A) (A) (A) (A) (A) (A) (A) (A) (A)
                 (A) (A) (A) (A) (A) (A) (A) (A) (A) (A)
       Virtual   (A) (A) (A) (A) (A) (A) (A) (A) (A) (A) (A) (A)
                 (A) (A) (A) (A) (A) (A) (A) (A) (A) (A) (A) (A)
                 (A) (A) (A) (A) (A) (A) (A) (A) (A) (A) (A) (A)
                 (A) (A) (A) (A) (A) (A) (A) (A) (A) (A) (A) (A)
                 (A) (A) (A) (A) (A) (A) (A) (A) (A) (A) (A) (A)
                 (A) (A) (A) (A) (A) (A) (A) (A) (A) (A) (A) (A)
                 (A) (A) (A) (A) (A) (A) (A) (A) (A) (A) (A) (A)
                 (A) (A) (A) (A) (A) (A) (A) (A) (A) (A) (A) (A)
                 (A) (A) (A) (A) (A) (A) (A) (A) (A) (A) (A) (A)
                 (A) (A) (A) (A) (A) (A) (A) (A) (A) (A) (A) (A)
                 (A) (A) (A) (A) (A) (A) (A) (A) (A) (A) (A) (A)
                 (A) (A) (A) (A) (A) (A) (A) (A) (A) (A) (A) (A)
                 (A) (A) (A) (A) (A) (A) (A) (A) (A) (A) (A) (A)
                 (A) (A) (A) (A) (A) (A) (A) (A) (A) (A) (A) (A)
                 (A) (A) (A) (A) (A) (A) (A) (A) (A) (A) (A) (A)
                 (A) (A) (A) (A)
 The electronic state is 1-A.
 Alpha  occ. eigenvalues --  -19.17471 -19.16603 -19.16174 -19.15735 -19.14878
 Alpha  occ. eigenvalues --  -19.14005 -19.13964 -19.11583 -10.29087 -10.25622
 Alpha  occ. eigenvalues --  -10.25222 -10.24950 -10.24745 -10.24200  -1.07688
 Alpha  occ. eigenvalues --   -1.03747  -1.03575  -1.02376  -1.01529  -1.00188
 Alpha  occ. eigenvalues --   -0.99116  -0.97231  -0.78771  -0.77154  -0.69557
 Alpha  occ. eigenvalues --   -0.66160  -0.63164  -0.57505  -0.55291  -0.53591
 Alpha  occ. eigenvalues --   -0.53310  -0.53009  -0.51825  -0.49485  -0.47946
 Alpha  occ. eigenvalues --   -0.47536  -0.45958  -0.45619  -0.44280  -0.43397
 Alpha  occ. eigenvalues --   -0.42204  -0.41307  -0.40277  -0.37542  -0.37012
 Alpha  occ. eigenvalues --   -0.36848  -0.36070  -0.34288  -0.34096  -0.33302
 Alpha  occ. eigenvalues --   -0.30156  -0.29808  -0.29057  -0.28632  -0.28416
 Alpha  occ. eigenvalues --   -0.27282  -0.26424  -0.26346
 Alpha virt. eigenvalues --    0.03979   0.04947   0.06726   0.07549   0.08932
 Alpha virt. eigenvalues --    0.09351   0.12466   0.13036   0.13720   0.13992
 Alpha virt. eigenvalues --    0.14813   0.15586   0.16231   0.17301   0.18809
 Alpha virt. eigenvalues --    0.19426   0.20607   0.21329   0.22438   0.23165
 Alpha virt. eigenvalues --    0.25523   0.25736   0.26052   0.26993   0.29115
 Alpha virt. eigenvalues --    0.31630   0.32469   0.34777   0.51233   0.52524
 Alpha virt. eigenvalues --    0.53964   0.54707   0.56175   0.58847   0.59147
 Alpha virt. eigenvalues --    0.60832   0.61524   0.63246   0.64929   0.68247
 Alpha virt. eigenvalues --    0.69680   0.70760   0.72139   0.74105   0.75324
 Alpha virt. eigenvalues --    0.77375   0.77684   0.79187   0.80886   0.81586
 Alpha virt. eigenvalues --    0.82073   0.82275   0.83376   0.84615   0.86262
 Alpha virt. eigenvalues --    0.86997   0.87359   0.87860   0.89356   0.90251
 Alpha virt. eigenvalues --    0.91108   0.92040   0.93139   0.93827   0.95746
 Alpha virt. eigenvalues --    0.96888   0.97335   0.98811   1.00206   1.00875
 Alpha virt. eigenvalues --    1.02582   1.04120   1.06565   1.07689   1.08908
 Alpha virt. eigenvalues --    1.10213   1.11656   1.13994   1.15611   1.17260
 Alpha virt. eigenvalues --    1.18277   1.21587   1.22521   1.24537   1.25300
 Alpha virt. eigenvalues --    1.27096   1.29371   1.32570   1.34253   1.37027
 Alpha virt. eigenvalues --    1.39430   1.42552   1.43527   1.45931   1.48657
 Alpha virt. eigenvalues --    1.50438   1.54446   1.56125   1.58438   1.60075
 Alpha virt. eigenvalues --    1.61766   1.62553   1.65429   1.66907   1.69818
 Alpha virt. eigenvalues --    1.71872   1.72225   1.73369   1.74047   1.75364
 Alpha virt. eigenvalues --    1.75526   1.77354   1.77998   1.78616   1.79075
 Alpha virt. eigenvalues --    1.80936   1.81251   1.84068   1.85439   1.86445
 Alpha virt. eigenvalues --    1.87923   1.88558   1.90043   1.93922   1.95523
 Alpha virt. eigenvalues --    1.96900   1.99125   2.00398   2.03312   2.05411
 Alpha virt. eigenvalues --    2.05872   2.08884   2.10901   2.13061   2.16349
 Alpha virt. eigenvalues --    2.18591   2.20387   2.24611   2.27009   2.28746
 Alpha virt. eigenvalues --    2.30573   2.32334   2.35068   2.37257   2.38767
 Alpha virt. eigenvalues --    2.41139   2.42611   2.44806   2.45330   2.46685
 Alpha virt. eigenvalues --    2.49201   2.51696   2.54532   2.56402   2.59774
 Alpha virt. eigenvalues --    2.61279   2.62658   2.64289   2.65147   2.68345
 Alpha virt. eigenvalues --    2.69702   2.75719   2.80501   2.86673   2.90769
 Alpha virt. eigenvalues --    2.93419   2.94368   2.97805   3.01797   3.04346
 Alpha virt. eigenvalues --    3.65763   3.72115   3.79416   3.83245   3.86482
 Alpha virt. eigenvalues --    3.94107   4.00848   4.17960   4.32242   4.34718
 Alpha virt. eigenvalues --    4.40551   4.54155   4.64977   4.80669
          Condensed to atoms (all electrons):
               1          2          3          4          5          6
     1  C    4.999481  -0.047012   0.278408   0.003837   0.000458   0.003794
     2  C   -0.047012   4.954289   0.317072   0.273930  -0.041137   0.373378
     3  C    0.278408   0.317072   5.007040  -0.031286   0.005337  -0.052221
     4  C    0.003837   0.273930  -0.031286   5.105298   0.362577  -0.048848
     5  H    0.000458  -0.041137   0.005337   0.362577   0.596311  -0.005448
     6  H    0.003794   0.373378  -0.052221  -0.048848  -0.005448   0.577439
     7  H    0.346213  -0.007775  -0.042078  -0.000466   0.000166   0.000126
     8  H   -0.048489  -0.055523   0.361898   0.003845  -0.000244   0.001955
     9  C   -0.028930  -0.022790  -0.029657   0.271486  -0.039847   0.006424
    10  O    0.164548  -0.002505  -0.020607  -0.023705   0.002668  -0.000147
    11  C    0.334818   0.004132  -0.024211  -0.000176   0.000025  -0.000173
    12  H   -0.030420   0.000187  -0.002589  -0.000011   0.000000  -0.000004
    13  H   -0.034329  -0.000228  -0.005158   0.000028  -0.000001   0.000002
    14  O   -0.038427  -0.000034   0.001803   0.000006   0.000000   0.000000
    15  H    0.005479   0.000003  -0.000198   0.000000   0.000000   0.000000
    16  O   -0.004061  -0.032561   0.002319   0.167373  -0.038590   0.004075
    17  H    0.000642   0.004920  -0.000050  -0.030307  -0.000184  -0.000332
    18  O    0.002258   0.233180  -0.028108  -0.045891   0.002934  -0.033008
    19  H    0.000064  -0.031192  -0.007805  -0.004039  -0.000654   0.006273
    20  O   -0.033564  -0.026953   0.215152   0.001454  -0.000082   0.001540
    21  H   -0.003701  -0.005894  -0.031272  -0.000823  -0.000010   0.004492
    22  O    0.000002   0.000000   0.000000   0.000021   0.000000   0.000000
    23  H   -0.000130  -0.000058  -0.000011   0.004056  -0.000138   0.000004
    24  H   -0.000005   0.000000   0.000000   0.000006   0.000000   0.000000
    25  H    0.000000   0.000000   0.000000   0.000001   0.000000   0.000000
    26  O    0.000853   0.002492   0.000182  -0.039733   0.000823  -0.000062
    27  H    0.005440  -0.002746   0.001043  -0.056395   0.000486  -0.000047
    28  O    0.000518   0.000000  -0.000012  -0.000015   0.000000   0.000000
    29  H   -0.000295   0.000000   0.000010   0.000000   0.000000   0.000000
    30  H   -0.002623  -0.000023   0.000398   0.000407  -0.000015   0.000001
               7          8          9         10         11         12
     1  C    0.346213  -0.048489  -0.028930   0.164548   0.334818  -0.030420
     2  C   -0.007775  -0.055523  -0.022790  -0.002505   0.004132   0.000187
     3  C   -0.042078   0.361898  -0.029657  -0.020607  -0.024211  -0.002589
     4  C   -0.000466   0.003845   0.271486  -0.023705  -0.000176  -0.000011
     5  H    0.000166  -0.000244  -0.039847   0.002668   0.000025   0.000000
     6  H    0.000126   0.001955   0.006424  -0.000147  -0.000173  -0.000004
     7  H    0.597077   0.005961  -0.000238  -0.041281  -0.047912  -0.001397
     8  H    0.005961   0.608858   0.001333   0.003243  -0.011208  -0.000251
     9  C   -0.000238   0.001333   4.763938   0.177930   0.002787  -0.000057
    10  O   -0.041281   0.003243   0.177930   8.403336  -0.038383   0.003139
    11  C   -0.047912  -0.011208   0.002787  -0.038383   4.932553   0.357739
    12  H   -0.001397  -0.000251  -0.000057   0.003139   0.357739   0.589200
    13  H    0.006674   0.007398   0.000056  -0.000323   0.347492  -0.043633
    14  O    0.003483  -0.000005  -0.000113   0.001396   0.222751  -0.035018
    15  H   -0.000163  -0.000006   0.000008  -0.000046  -0.020776  -0.006294
    16  O    0.013867  -0.000055  -0.018188  -0.002620   0.000513   0.000000
    17  H   -0.000559   0.000011  -0.013951   0.000613  -0.000039  -0.000001
    18  O   -0.000007  -0.000467   0.002867  -0.000309  -0.000033  -0.000002
    19  H    0.000039   0.007571   0.003146   0.000168  -0.000073   0.000002
    20  O    0.001246  -0.033776   0.000317   0.001372  -0.004555   0.011611
    21  H    0.004955   0.007040   0.000168  -0.000018  -0.000434   0.000096
    22  O    0.000001   0.000000   0.001910  -0.000377   0.000000   0.000000
    23  H   -0.000070  -0.000001  -0.017555   0.004084   0.000005   0.000000
    24  H    0.000000   0.000000  -0.000038   0.000468  -0.000005   0.000000
    25  H    0.000000   0.000000  -0.000019   0.000008   0.000000   0.000000
    26  O    0.001462   0.000007   0.265352  -0.072898  -0.000141   0.000002
    27  H   -0.000389  -0.000384   0.366428  -0.055483  -0.000194   0.000002
    28  O    0.000024   0.000000   0.000680  -0.019642   0.001967  -0.000018
    29  H    0.000013   0.000000  -0.000038   0.000893  -0.001252   0.000138
    30  H    0.000195  -0.000010  -0.001599   0.045792  -0.003408   0.000126
              13         14         15         16         17         18
     1  C   -0.034329  -0.038427   0.005479  -0.004061   0.000642   0.002258
     2  C   -0.000228  -0.000034   0.000003  -0.032561   0.004920   0.233180
     3  C   -0.005158   0.001803  -0.000198   0.002319  -0.000050  -0.028108
     4  C    0.000028   0.000006   0.000000   0.167373  -0.030307  -0.045891
     5  H   -0.000001   0.000000   0.000000  -0.038590  -0.000184   0.002934
     6  H    0.000002   0.000000   0.000000   0.004075  -0.000332  -0.033008
     7  H    0.006674   0.003483  -0.000163   0.013867  -0.000559  -0.000007
     8  H    0.007398  -0.000005  -0.000006  -0.000055   0.000011  -0.000467
     9  C    0.000056  -0.000113   0.000008  -0.018188  -0.013951   0.002867
    10  O   -0.000323   0.001396  -0.000046  -0.002620   0.000613  -0.000309
    11  C    0.347492   0.222751  -0.020776   0.000513  -0.000039  -0.000033
    12  H   -0.043633  -0.035018  -0.006294   0.000000  -0.000001  -0.000002
    13  H    0.633709  -0.044462  -0.001996  -0.000009   0.000000  -0.000007
    14  O   -0.044462   8.274214   0.233342  -0.000001   0.000000   0.000000
    15  H   -0.001996   0.233342   0.389479   0.000000   0.000000   0.000000
    16  O   -0.000009  -0.000001   0.000000   8.342983   0.231876   0.001451
    17  H    0.000000   0.000000   0.000000   0.231876   0.351492  -0.000111
    18  O   -0.000007   0.000000   0.000000   0.001451  -0.000111   8.259828
    19  H   -0.000002   0.000000   0.000000  -0.000012   0.000008   0.235737
    20  O    0.000385   0.000034   0.000009  -0.000308   0.000009   0.001683
    21  H    0.000010  -0.000010   0.000000   0.001691  -0.000042  -0.000038
    22  O    0.000000   0.000000   0.000000   0.000000   0.000005   0.000000
    23  H   -0.000001  -0.000001   0.000000   0.000200  -0.000471   0.000005
    24  H   -0.000002   0.000026  -0.000002   0.000000  -0.000002   0.000000
    25  H    0.000000   0.000000   0.000000   0.000000   0.000000   0.000000
    26  O    0.000005   0.000000   0.000000  -0.011202   0.030070   0.000022
    27  H   -0.000057   0.000002   0.000000   0.003657   0.001094   0.005125
    28  O    0.000161  -0.010266   0.000703   0.000000  -0.000001   0.000000
    29  H   -0.000016   0.026202  -0.001132   0.000000   0.000000   0.000000
    30  H    0.000174   0.004928  -0.000247  -0.000044   0.000007   0.000000
              19         20         21         22         23         24
     1  C    0.000064  -0.033564  -0.003701   0.000002  -0.000130  -0.000005
     2  C   -0.031192  -0.026953  -0.005894   0.000000  -0.000058   0.000000
     3  C   -0.007805   0.215152  -0.031272   0.000000  -0.000011   0.000000
     4  C   -0.004039   0.001454  -0.000823   0.000021   0.004056   0.000006
     5  H   -0.000654  -0.000082  -0.000010   0.000000  -0.000138   0.000000
     6  H    0.006273   0.001540   0.004492   0.000000   0.000004   0.000000
     7  H    0.000039   0.001246   0.004955   0.000001  -0.000070   0.000000
     8  H    0.007571  -0.033776   0.007040   0.000000  -0.000001   0.000000
     9  C    0.003146   0.000317   0.000168   0.001910  -0.017555  -0.000038
    10  O    0.000168   0.001372  -0.000018  -0.000377   0.004084   0.000468
    11  C   -0.000073  -0.004555  -0.000434   0.000000   0.000005  -0.000005
    12  H    0.000002   0.011611   0.000096   0.000000   0.000000   0.000000
    13  H   -0.000002   0.000385   0.000010   0.000000  -0.000001  -0.000002
    14  O    0.000000   0.000034  -0.000010   0.000000  -0.000001   0.000026
    15  H    0.000000   0.000009   0.000000   0.000000   0.000000  -0.000002
    16  O   -0.000012  -0.000308   0.001691   0.000000   0.000200   0.000000
    17  H    0.000008   0.000009  -0.000042   0.000005  -0.000471  -0.000002
    18  O    0.235737   0.001683  -0.000038   0.000000   0.000005   0.000000
    19  H    0.393433   0.000012   0.000064   0.000000   0.000000   0.000000
    20  O    0.000012   8.258019   0.236151   0.000000   0.000000   0.000000
    21  H    0.000064   0.236151   0.386242   0.000000   0.000000   0.000000
    22  O    0.000000   0.000000   0.000000   8.356469   0.066838   0.205660
    23  H    0.000000   0.000000   0.000000   0.066838   0.289644  -0.006604
    24  H    0.000000   0.000000   0.000000   0.205660  -0.006604   0.319350
    25  H    0.000000   0.000000   0.000000   0.242111  -0.002274  -0.012308
    26  O   -0.000017   0.000000   0.000000  -0.021920   0.208053   0.002779
    27  H    0.002209  -0.000009  -0.000003   0.001300  -0.005110  -0.000058
    28  O    0.000000   0.000000   0.000000  -0.021517   0.001270   0.057936
    29  H    0.000000   0.000000   0.000000   0.000682  -0.000049  -0.001513
    30  H    0.000001  -0.000003   0.000000   0.002909   0.000464  -0.007193
              25         26         27         28         29         30
     1  C    0.000000   0.000853   0.005440   0.000518  -0.000295  -0.002623
     2  C    0.000000   0.002492  -0.002746   0.000000   0.000000  -0.000023
     3  C    0.000000   0.000182   0.001043  -0.000012   0.000010   0.000398
     4  C    0.000001  -0.039733  -0.056395  -0.000015   0.000000   0.000407
     5  H    0.000000   0.000823   0.000486   0.000000   0.000000  -0.000015
     6  H    0.000000  -0.000062  -0.000047   0.000000   0.000000   0.000001
     7  H    0.000000   0.001462  -0.000389   0.000024   0.000013   0.000195
     8  H    0.000000   0.000007  -0.000384   0.000000   0.000000  -0.000010
     9  C   -0.000019   0.265352   0.366428   0.000680  -0.000038  -0.001599
    10  O    0.000008  -0.072898  -0.055483  -0.019642   0.000893   0.045792
    11  C    0.000000  -0.000141  -0.000194   0.001967  -0.001252  -0.003408
    12  H    0.000000   0.000002   0.000002  -0.000018   0.000138   0.000126
    13  H    0.000000   0.000005  -0.000057   0.000161  -0.000016   0.000174
    14  O    0.000000   0.000000   0.000002  -0.010266   0.026202   0.004928
    15  H    0.000000   0.000000   0.000000   0.000703  -0.001132  -0.000247
    16  O    0.000000  -0.011202   0.003657   0.000000   0.000000  -0.000044
    17  H    0.000000   0.030070   0.001094  -0.000001   0.000000   0.000007
    18  O    0.000000   0.000022   0.005125   0.000000   0.000000   0.000000
    19  H    0.000000  -0.000017   0.002209   0.000000   0.000000   0.000001
    20  O    0.000000   0.000000  -0.000009   0.000000   0.000000  -0.000003
    21  H    0.000000   0.000000  -0.000003   0.000000   0.000000   0.000000
    22  O    0.242111  -0.021920   0.001300  -0.021517   0.000682   0.002909
    23  H   -0.002274   0.208053  -0.005110   0.001270  -0.000049   0.000464
    24  H   -0.012308   0.002779  -0.000058   0.057936  -0.001513  -0.007193
    25  H    0.373970   0.000923  -0.000053   0.000526  -0.000040  -0.000013
    26  O    0.000923   8.351072  -0.045072  -0.000638   0.000016   0.004240
    27  H   -0.000053  -0.045072   0.643395  -0.000060   0.000001   0.000302
    28  O    0.000526  -0.000638  -0.000060   8.400065   0.242687   0.211557
    29  H   -0.000040   0.000016   0.000001   0.242687   0.353037  -0.022940
    30  H   -0.000013   0.004240   0.000302   0.211557  -0.022940   0.324239
 Mulliken charges:
               1
     1  C    0.125176
     2  C    0.112847
     3  C    0.084601
     4  C    0.087370
     5  H    0.154566
     6  H    0.160787
     7  H    0.160833
     8  H    0.141300
     9  C    0.308190
    10  O   -0.531314
    11  C   -0.051808
    12  H    0.157454
    13  H    0.134129
    14  O   -0.639852
    15  H    0.401836
    16  O   -0.662353
    17  H    0.425302
    18  O   -0.637107
    19  H    0.395069
    20  O   -0.629742
    21  H    0.401337
    22  O   -0.834095
    23  H    0.457851
    24  H    0.441503
    25  H    0.397169
    26  O   -0.676670
    27  H    0.135576
    28  O   -0.865925
    29  H    0.403595
    30  H    0.442374
 Sum of Mulliken charges =   0.00000
 Mulliken charges with hydrogens summed into heavy atoms:
               1
     1  C    0.286009
     2  C    0.273634
     3  C    0.225902
     4  C    0.241935
     9  C    0.443765
    10  O   -0.531314
    11  C    0.239775
    14  O   -0.238016
    16  O   -0.237051
    18  O   -0.242038
    20  O   -0.228405
    22  O    0.004577
    26  O   -0.218818
    28  O   -0.019956
 Electronic spatial extent (au):  <R**2>=           3234.4066
 Charge=              0.0000 electrons
 Dipole moment (field-independent basis, Debye):
    X=             -0.9023    Y=              2.7215    Z=             -0.9520  Tot=              3.0211
 Quadrupole moment (field-independent basis, Debye-Ang):
   XX=            -86.4000   YY=            -74.0659   ZZ=            -82.0373
   XY=              1.4557   XZ=              4.7909   YZ=              1.1825
 Traceless Quadrupole moment (field-independent basis, Debye-Ang):
   XX=             -5.5656   YY=              6.7685   ZZ=             -1.2029
   XY=              1.4557   XZ=              4.7909   YZ=              1.1825
 Octapole moment (field-independent basis, Debye-Ang**2):
  XXX=            -93.6538  YYY=             62.5584  ZZZ=             -6.5073  XYY=            -38.5824
  XXY=            -17.0638  XXZ=             10.4335  XZZ=             -4.8009  YZZ=              2.7558
  YYZ=              1.5130  XYZ=             -6.4559
 Hexadecapole moment (field-independent basis, Debye-Ang**3):
 XXXX=          -1746.4523 YYYY=          -1092.0974 ZZZZ=           -353.4350 XXXY=            133.2404
 XXXZ=            146.9022 YYYX=            -70.4383 YYYZ=             -2.1399 ZZZX=            -19.0651
 ZZZY=              8.1956 XXYY=           -542.2573 XXZZ=           -405.4562 YYZZ=           -296.5592
 XXYZ=             35.3494 YYXZ=             23.5162 ZZXY=             28.4544
 N-N= 1.102571479389D+03 E-N=-4.177687809935D+03  KE= 8.327889564078D+02
 Calling FoFJK, ICntrl=      2127 FMM=F ISym2X=0 I1Cent= 0 IOpClX= 0 NMat=1 NMatS=1 NMatT=0.
 ***** Axes restored to original set *****
 -------------------------------------------------------------------
 Center     Atomic                   Forces (Hartrees/Bohr)
 Number     Number              X              Y              Z
 -------------------------------------------------------------------
      1        6           0.010440561    0.018924029   -0.009239379
      2        6           0.001480041   -0.003746227    0.011433639
      3        6          -0.008570917    0.001064132   -0.014354328
      4        6           0.006948035    0.000653201   -0.012503094
      5        1           0.001486143    0.001791205    0.009520687
      6        1           0.001227206    0.001149434    0.000971021
      7        1          -0.005240237   -0.001720177    0.001241174
      8        1          -0.001581895    0.000993570   -0.000551124
      9        6           0.014178663   -0.025380874   -0.018622620
     10        8          -0.017362407    0.007981113    0.012568632
     11        6           0.008995445   -0.001336946    0.000968395
     12        1          -0.007609907   -0.005044254    0.002975629
     13        1          -0.005714874   -0.001819874    0.006078984
     14        8           0.000889851    0.003280127   -0.006425082
     15        1           0.000080417   -0.006023592   -0.001071733
     16        8           0.006428625    0.002454105    0.006209574
     17        1          -0.005578131    0.003302317    0.001522154
     18        8          -0.001362142   -0.001672340   -0.002129100
     19        1          -0.000793166   -0.001233514   -0.004276064
     20        8           0.002829506    0.000968458    0.000378896
     21        1           0.003257280    0.001274720    0.004182771
     22        8           0.011806021    0.011992720    0.000891319
     23        1           0.003515763   -0.005393430   -0.007940514
     24        1          -0.004644269   -0.002660778   -0.000944510
     25        1          -0.005873424   -0.007782673    0.000342596
     26        8          -0.011461628    0.005955173    0.014893441
     27        1          -0.000772310    0.003126058    0.002346007
     28        8          -0.011665261    0.008771903   -0.003581473
     29        1           0.007324273   -0.006127038    0.002997636
     30        1           0.007342737   -0.003740549    0.002116469
 -------------------------------------------------------------------
 Cartesian Forces:  Max     0.025380874 RMS     0.007370916

 GradGradGradGradGradGradGradGradGradGradGradGradGradGradGradGradGradGrad
 Berny optimization.
 FormGI is forming the generalized inverse of G from B-inverse, IUseBI=4.
 Internal  Forces:  Max     0.012323996 RMS     0.003558117
 Search for a local minimum.
 Step number   1 out of a maximum of  180
 All quantities printed in internal units (Hartrees-Bohrs-Radians)
 Mixed Optimization -- RFO/linear search
 Second derivative matrix not updated -- first step.
 ITU=  0
     Eigenvalues ---    0.00230   0.00396   0.00681   0.00777   0.00804
     Eigenvalues ---    0.01091   0.01164   0.01210   0.01248   0.01260
     Eigenvalues ---    0.01294   0.01361   0.01693   0.01915   0.02076
     Eigenvalues ---    0.02752   0.03777   0.04383   0.04558   0.04620
     Eigenvalues ---    0.04750   0.04966   0.05064   0.05391   0.05533
     Eigenvalues ---    0.05586   0.05974   0.06232   0.06458   0.06581
     Eigenvalues ---    0.06782   0.07115   0.07180   0.07381   0.08276
     Eigenvalues ---    0.09596   0.10456   0.11560   0.11706   0.12381
     Eigenvalues ---    0.13367   0.13801   0.14057   0.15942   0.16000
     Eigenvalues ---    0.16000   0.16000   0.16000   0.16469   0.17068
     Eigenvalues ---    0.17993   0.18668   0.20052   0.22058   0.25759
     Eigenvalues ---    0.26522   0.27467   0.28416   0.29043   0.34051
     Eigenvalues ---    0.34082   0.34088   0.34113   0.34179   0.34241
     Eigenvalues ---    0.34305   0.36826   0.38912   0.39604   0.40084
     Eigenvalues ---    0.40484   0.40608   0.40882   0.46909   0.48475
     Eigenvalues ---    0.50067   0.50846   0.51869   0.52113   0.52406
     Eigenvalues ---    0.52916   0.530301000.000001000.000001000.00000
     Eigenvalues --- 1000.000001000.000001000.000001000.000001000.00000
     Eigenvalues --- 1000.000001000.000001000.000001000.000001000.00000
     Eigenvalues --- 1000.000001000.000001000.000001000.000001000.00000
     Eigenvalues --- 1000.000001000.000001000.000001000.000001000.00000
     Eigenvalues --- 1000.000001000.000001000.000001000.000001000.00000
     Eigenvalues --- 1000.000001000.000001000.000001000.000001000.00000
     Eigenvalues --- 1000.000001000.000001000.000001000.000001000.00000
     Eigenvalues --- 1000.000001000.000001000.000001000.000001000.00000
     Eigenvalues --- 1000.000001000.000001000.000001000.000001000.00000
     Eigenvalues --- 1000.000001000.000001000.000001000.000001000.00000
     Eigenvalues --- 1000.000001000.000001000.000001000.000001000.00000
     Eigenvalues --- 1000.000001000.000001000.000001000.000001000.00000
     Eigenvalues --- 1000.000001000.000001000.000001000.000001000.00000
     Eigenvalues --- 1000.000001000.000001000.000001000.000001000.00000
     Eigenvalues --- 1000.000001000.000001000.000001000.000001000.00000
     Eigenvalues --- 1000.000001000.000001000.000001000.000001000.00000
     Eigenvalues --- 1000.000001000.000001000.00000
 RFO step:  Lambda=-1.43459827D-02 EMin= 2.30050268D-03
 Linear search not attempted -- first point.
 Iteration  1 RMS(Cart)=  0.06114122 RMS(Int)=  0.00205437
 Iteration  2 RMS(Cart)=  0.00278801 RMS(Int)=  0.00046942
 Iteration  3 RMS(Cart)=  0.00000593 RMS(Int)=  0.00046941
 Iteration  4 RMS(Cart)=  0.00000000 RMS(Int)=  0.00046941
 Iteration  1 RMS(Cart)=  0.00001126 RMS(Int)=  0.00001182
 Iteration  2 RMS(Cart)=  0.00000830 RMS(Int)=  0.00001282
 Iteration  3 RMS(Cart)=  0.00000613 RMS(Int)=  0.00001471
 Iteration  4 RMS(Cart)=  0.00000454 RMS(Int)=  0.00001660
 Iteration  5 RMS(Cart)=  0.00000338 RMS(Int)=  0.00001824
 Iteration  6 RMS(Cart)=  0.00000253 RMS(Int)=  0.00001960
 Iteration  7 RMS(Cart)=  0.00000190 RMS(Int)=  0.00002069
 Iteration  8 RMS(Cart)=  0.00000143 RMS(Int)=  0.00002156
 Iteration  9 RMS(Cart)=  0.00000109 RMS(Int)=  0.00002225
 Iteration 10 RMS(Cart)=  0.00000084 RMS(Int)=  0.00002280
 Variable       Old X    -DE/DX   Delta X   Delta X   Delta X     New X
                                 (Linear)    (Quad)   (Total)
    R1        2.90764  -0.00147   0.00000  -0.00444  -0.00441   2.90323
    R2        2.07193  -0.00029   0.00000  -0.00081  -0.00081   2.07111
    R3        2.71118   0.00495   0.00000   0.01443   0.01436   2.72554
    R4        2.91236  -0.01115   0.00000  -0.03727  -0.03727   2.87509
    R5        2.92383   0.00414   0.00000   0.01196   0.01195   2.93578
    R6        2.88569   0.00158   0.00000   0.00308   0.00304   2.88873
    R7        2.07182  -0.00158   0.00000  -0.00445  -0.00445   2.06737
    R8        2.71440  -0.00498   0.00000  -0.01201  -0.01201   2.70239
    R9        2.07243  -0.00037   0.00000  -0.00105  -0.00105   2.07138
   R10        2.70736  -0.00471   0.00000  -0.01119  -0.01119   2.69616
   R11        2.07140   0.00004   0.00000   0.00012   0.00012   2.07153
   R12        2.91118  -0.00767   0.00000  -0.02728  -0.02720   2.88398
   R13        2.72095  -0.00722   0.00000  -0.01760  -0.01760   2.70336
   R14        2.69473   0.00602   0.00000   0.01700   0.01692   2.71166
   R15        2.69016  -0.01232   0.00000  -0.02644  -0.02649   2.66367
   R16        2.07029   0.00117   0.00000   0.00329   0.00329   2.07358
   R17        3.37712   0.00426   0.00000   0.05305   0.05315   3.43027
   R18        2.06818   0.00048   0.00000   0.00134   0.00134   2.06952
   R19        2.06924   0.00407   0.00000   0.01129   0.01129   2.08052
   R20        2.70897   0.00468   0.00000   0.01118   0.01118   2.72016
   R21        1.84212  -0.00585   0.00000  -0.01086  -0.01086   1.83126
   R22        1.85721  -0.00659   0.00000  -0.01261  -0.01261   1.84460
   R23        1.83732  -0.00350   0.00000  -0.00644  -0.00644   1.83088
   R24        1.84491  -0.00505   0.00000  -0.00944  -0.00944   1.83547
   R25        3.31318   0.00048   0.00000   0.00403   0.00382   3.31700
   R26        1.86927  -0.00237   0.00000  -0.00548  -0.00534   1.86393
   R27        1.83625  -0.00278   0.00000  -0.00511  -0.00511   1.83114
   R28        1.86332  -0.00004   0.00000  -0.00041  -0.00067   1.86265
   R29        3.33797   0.00129   0.00000   0.01056   0.01077   3.34874
   R30        1.84725  -0.00724   0.00000  -0.01359  -0.01359   1.83366
   R31        1.86278  -0.00196   0.00000  -0.00409  -0.00395   1.85882
    A1        1.94441  -0.00277   0.00000  -0.03892  -0.03858   1.90584
    A2        1.95418  -0.00143   0.00000  -0.01245  -0.01244   1.94174
    A3        1.92446  -0.00068   0.00000  -0.00855  -0.00858   1.91588
    A4        1.88966   0.00124   0.00000   0.02552   0.02472   1.91438
    A5        1.85907   0.00202   0.00000   0.02648   0.02592   1.88499
    A6        1.88863   0.00194   0.00000   0.01163   0.01151   1.90014
    A7        1.95570   0.00047   0.00000   0.00042   0.00053   1.95623
    A8        1.90827  -0.00218   0.00000  -0.01398  -0.01391   1.89437
    A9        1.93972   0.00419   0.00000   0.02766   0.02764   1.96736
   A10        1.89480   0.00151   0.00000   0.00584   0.00580   1.90059
   A11        1.92017  -0.00353   0.00000  -0.01225  -0.01246   1.90771
   A12        1.84110  -0.00057   0.00000  -0.00873  -0.00863   1.83247
   A13        1.96729  -0.00161   0.00000  -0.00209  -0.00203   1.96525
   A14        1.89539   0.00198   0.00000   0.00362   0.00350   1.89890
   A15        1.92084  -0.00320   0.00000  -0.01026  -0.01065   1.91019
   A16        1.89848  -0.00186   0.00000  -0.00910  -0.00910   1.88938
   A17        1.93063   0.00657   0.00000   0.03902   0.03917   1.96980
   A18        1.84678  -0.00195   0.00000  -0.02321  -0.02312   1.82366
   A19        1.93999  -0.00311   0.00000  -0.03253  -0.03252   1.90747
   A20        1.92264   0.00571   0.00000   0.01842   0.01841   1.94106
   A21        1.91222  -0.00436   0.00000  -0.02350  -0.02338   1.88884
   A22        1.90634  -0.00365   0.00000  -0.02916  -0.02939   1.87695
   A23        1.85906   0.00600   0.00000   0.06816   0.06829   1.92735
   A24        1.92269  -0.00065   0.00000  -0.00025  -0.00023   1.92246
   A25        2.01290  -0.00706   0.00000  -0.03608  -0.03580   1.97710
   A26        1.86022  -0.00035   0.00000  -0.02200  -0.02141   1.83881
   A27        1.92491   0.00158   0.00000   0.00801   0.00755   1.93246
   A28        1.87532   0.00675   0.00000   0.04490   0.04408   1.91940
   A29        1.88539  -0.00052   0.00000  -0.01469  -0.01540   1.86999
   A30        1.90221   0.00003   0.00000   0.02449   0.02461   1.92682
   A31        2.02368   0.00598   0.00000   0.03623   0.03614   2.05982
   A32        2.04364   0.00146   0.00000   0.01941   0.02006   2.06370
   A33        2.07597  -0.00794   0.00000  -0.04346  -0.04428   2.03170
   A34        1.93848  -0.00716   0.00000  -0.07039  -0.07119   1.86729
   A35        1.93160  -0.00257   0.00000  -0.02035  -0.02099   1.91062
   A36        1.93069  -0.00585   0.00000  -0.01867  -0.01857   1.91212
   A37        1.90866   0.00117   0.00000  -0.00515  -0.00876   1.89990
   A38        1.88256   0.00687   0.00000   0.04089   0.03935   1.92191
   A39        1.86989   0.00837   0.00000   0.08059   0.08020   1.95010
   A40        1.84959   0.00335   0.00000   0.01920   0.01920   1.86879
   A41        1.81521   0.00165   0.00000   0.00946   0.00946   1.82467
   A42        1.91692  -0.00474   0.00000  -0.02720  -0.02720   1.88973
   A43        1.87951  -0.00325   0.00000  -0.01864  -0.01864   1.86088
   A44        1.69547  -0.00148   0.00000   0.00225   0.00239   1.69786
   A45        2.63204  -0.00631   0.00000  -0.04016  -0.04053   2.59151
   A46        1.75790   0.00638   0.00000   0.05425   0.05502   1.81291
   A47        2.77168   0.00265   0.00000   0.00714   0.00694   2.77862
   A48        1.83820   0.00607   0.00000   0.06705   0.06687   1.90507
   A49        1.56331   0.00170   0.00000   0.02833   0.02840   1.59171
   A50        1.69705   0.00551   0.00000   0.05923   0.05920   1.75625
   A51        2.96431  -0.00443   0.00000  -0.04754  -0.04822   2.91609
   A52        3.26036   0.00721   0.00000   0.08756   0.08760   3.34796
   A53        3.20517  -0.00041   0.00000   0.01544   0.01576   3.22094
   A54        3.01417   0.00359   0.00000   0.07963   0.07942   3.09359
   A55        3.29476   0.00172   0.00000   0.03376   0.03345   3.32821
   A56        3.07089   0.00206   0.00000   0.00469   0.00447   3.07536
    D1        1.24447   0.00238   0.00000   0.01975   0.01990   1.26437
    D2       -2.93387   0.00036   0.00000   0.00945   0.00955  -2.92432
    D3       -0.91978  -0.00261   0.00000  -0.02187  -0.02174  -0.94151
    D4       -0.87458   0.00376   0.00000   0.02337   0.02346  -0.85111
    D5        1.23027   0.00174   0.00000   0.01307   0.01312   1.24339
    D6       -3.03882  -0.00123   0.00000  -0.01825  -0.01817  -3.05699
    D7       -2.97836   0.00272   0.00000   0.02280   0.02292  -2.95544
    D8       -0.87351   0.00070   0.00000   0.01249   0.01258  -0.86094
    D9        1.14058  -0.00227   0.00000  -0.01883  -0.01872   1.12187
   D10        0.88359   0.00079   0.00000  -0.00809  -0.00821   0.87537
   D11       -2.80616  -0.00265   0.00000  -0.00042  -0.00007  -2.80622
   D12       -1.26670   0.00436   0.00000   0.03147   0.03160  -1.23510
   D13        1.32674   0.00093   0.00000   0.03914   0.03975   1.36649
   D14        3.00807   0.00034   0.00000  -0.01884  -0.01913   2.98895
   D15       -0.68167  -0.00309   0.00000  -0.01118  -0.01098  -0.69265
   D16       -0.97500   0.00338   0.00000   0.09514   0.09486  -0.88014
   D17        1.14852  -0.00177   0.00000   0.02672   0.02741   1.17593
   D18       -3.06496   0.00329   0.00000   0.10212   0.10173  -2.96323
   D19        1.13714   0.00088   0.00000   0.05940   0.05897   1.19611
   D20       -3.02253  -0.00428   0.00000  -0.00902  -0.00848  -3.03101
   D21       -0.95282   0.00078   0.00000   0.06637   0.06584  -0.88698
   D22       -3.11768   0.00431   0.00000   0.10836   0.10820  -3.00947
   D23       -0.99416  -0.00084   0.00000   0.03994   0.04075  -0.95341
   D24        1.07555   0.00422   0.00000   0.11534   0.11508   1.19062
   D25        0.00007   0.00106   0.00000   0.00000  -0.00001   0.00006
   D26       -2.10301   0.00088   0.00000   0.00302   0.00308  -2.09993
   D27        2.15890   0.00065   0.00000   0.01447   0.01465   2.17355
   D28       -2.10148   0.00033   0.00000   0.00184   0.00173  -2.09975
   D29        2.07863   0.00015   0.00000   0.00486   0.00481   2.08344
   D30        0.05735  -0.00008   0.00000   0.01631   0.01638   0.07374
   D31        2.15634  -0.00009   0.00000   0.00486   0.00487   2.16121
   D32        0.05326  -0.00026   0.00000   0.00788   0.00796   0.06122
   D33       -1.96801  -0.00050   0.00000   0.01934   0.01952  -1.94848
   D34        2.94075  -0.00040   0.00000  -0.02686  -0.02700   2.91375
   D35        0.82525   0.00242   0.00000   0.01908   0.01888   0.84413
   D36       -1.29252   0.00240   0.00000   0.02279   0.02275  -1.26977
   D37       -1.23307  -0.00181   0.00000  -0.04015  -0.04017  -1.27325
   D38        2.93461   0.00101   0.00000   0.00578   0.00571   2.94032
   D39        0.81684   0.00099   0.00000   0.00949   0.00958   0.82642
   D40        0.77354  -0.00356   0.00000  -0.05394  -0.05395   0.71959
   D41       -1.34197  -0.00073   0.00000  -0.00800  -0.00806  -1.35003
   D42        2.82344  -0.00075   0.00000  -0.00429  -0.00419   2.81925
   D43       -0.66600  -0.00129   0.00000  -0.03283  -0.03283  -0.69883
   D44        1.51045  -0.00026   0.00000  -0.02148  -0.02153   1.48891
   D45       -2.73233  -0.00055   0.00000  -0.02550  -0.02546  -2.75778
   D46        1.27208  -0.00038   0.00000  -0.01194  -0.01198   1.26010
   D47       -0.91327  -0.00069   0.00000  -0.02969  -0.02991  -0.94319
   D48       -2.96652  -0.00075   0.00000  -0.02575  -0.02550  -2.99201
   D49       -0.87581   0.00233   0.00000  -0.00411  -0.00408  -0.87990
   D50       -2.95537  -0.00167   0.00000  -0.02332  -0.02330  -2.97866
   D51        1.26540  -0.00235   0.00000  -0.04409  -0.04417   1.22123
   D52       -3.01129   0.00492   0.00000   0.04364   0.04352  -2.96777
   D53        1.19234   0.00092   0.00000   0.02443   0.02431   1.21665
   D54       -0.87007   0.00024   0.00000   0.00365   0.00344  -0.86664
   D55        1.23570   0.00017   0.00000  -0.02162  -0.02152   1.21418
   D56       -0.84385  -0.00383   0.00000  -0.04083  -0.04074  -0.88459
   D57       -2.90626  -0.00451   0.00000  -0.06161  -0.06161  -2.96787
   D58        2.81494   0.00198   0.00000  -0.00017   0.00012   2.81506
   D59       -1.36828  -0.00063   0.00000  -0.01215  -0.01265  -1.38092
   D60        0.69719  -0.00187   0.00000  -0.00771  -0.00751   0.68968
   D61       -0.00017  -0.00287   0.00000   0.00000   0.00001  -0.00016
   D62       -2.58299  -0.00257   0.00000  -0.02909  -0.02857  -2.61156
   D63        2.07101  -0.00286   0.00000  -0.01819  -0.01887   2.05214
   D64       -0.51180  -0.00256   0.00000  -0.04728  -0.04746  -0.55926
   D65       -2.16231   0.00047   0.00000   0.02667   0.02589  -2.13642
   D66        1.53806   0.00078   0.00000  -0.00241  -0.00269   1.53537
   D67       -2.78028  -0.00254   0.00000  -0.02579  -0.02617  -2.80645
   D68        1.33587   0.00223   0.00000   0.00439   0.00451   1.34038
   D69       -0.70300  -0.00085   0.00000  -0.01559  -0.01642  -0.71942
   D70       -2.99660   0.00209   0.00000   0.02259   0.02261  -2.97399
   D71       -0.00383   0.00052   0.00000  -0.00815  -0.00799  -0.01181
   D72       -0.39219   0.00210   0.00000   0.05469   0.05408  -0.33811
   D73        2.60058   0.00052   0.00000   0.02395   0.02348   2.62406
   D74        2.97512  -0.00218   0.00000  -0.02741  -0.02790   2.94722
   D75        0.85187   0.00580   0.00000   0.04442   0.04620   0.89807
   D76       -1.20123  -0.00352   0.00000  -0.01301  -0.01431  -1.21553
   D77       -1.34665   0.00347   0.00000   0.04899   0.04884  -1.29781
   D78        2.82787  -0.00337   0.00000  -0.09540  -0.09483   2.73304
   D79        0.32631   0.00196   0.00000   0.01216   0.01108   0.33739
   D80        3.06302  -0.00235   0.00000   0.00411   0.00512   3.06813
   D81        0.19002  -0.00057   0.00000  -0.00287  -0.00313   0.18688
         Item               Value     Threshold  Converged?
 Maximum Force            0.012279     0.000450     NO 
 RMS     Force            0.003541     0.000300     NO 
 Maximum Displacement     0.245323     0.001800     NO 
 RMS     Displacement     0.062039     0.001200     NO 
 Predicted change in Energy=-8.489673D-03
 GradGradGradGradGradGradGradGradGradGradGradGradGradGradGradGradGradGrad

                          Input orientation:                          
 ---------------------------------------------------------------------
 Center     Atomic      Atomic             Coordinates (Angstroms)
 Number     Number       Type             X           Y           Z
 ---------------------------------------------------------------------
      1          6           0       -0.357552    1.071635   -0.322870
      2          6           0       -2.204654   -0.497301    0.534422
      3          6           0       -1.692202    0.965618    0.430629
      4          6           0       -1.255769   -1.487870   -0.140239
      5          1           0       -1.527886   -2.508063    0.154422
      6          1           0       -3.183558   -0.558174    0.049771
      7          1           0       -0.531881    0.897892   -1.390862
      8          1           0       -1.556267    1.354662    1.446336
      9          6           0        0.188134   -1.253151    0.294658
     10          8           0        0.601123    0.115837    0.174724
     11          6           0        0.214694    2.472089   -0.161581
     12          1           0       -0.584271    3.175727   -0.418259
     13          1           0        0.505184    2.631136    0.888392
     14          8           0        1.330422    2.642528   -1.054948
     15          1           0        1.552626    3.585770   -1.055914
     16          8           0       -1.375857   -1.328448   -1.556801
     17          1           0       -0.566453   -1.736541   -1.918926
     18          8           0       -2.434328   -0.907603    1.884952
     19          1           0       -1.720280   -0.553325    2.435692
     20          8           0       -2.644694    1.845700   -0.164199
     21          1           0       -2.892363    1.451793   -1.016784
     22          8           0        3.422761   -2.047793    0.634247
     23          1           0        1.854530   -2.204780   -0.138423
     24          1           0        3.617016   -1.127588    0.336968
     25          1           0        4.297875   -2.424401    0.811168
     26          8           0        0.969423   -2.067515   -0.549875
     27          1           0        0.329721   -1.542986    1.343468
     28          8           0        3.331569    0.509909   -0.277345
     29          1           0        3.366619    1.334440   -0.787702
     30          1           0        2.359319    0.401001   -0.175218
 ---------------------------------------------------------------------
                    Distance matrix (angstroms):
                    1          2          3          4          5
     1  C    0.000000
     2  C    2.570661   0.000000
     3  C    1.536324   1.553548   0.000000
     4  C    2.718679   1.528652   2.556554   0.000000
     5  H    3.796278   2.155360   3.488516   1.096205   0.000000
     6  H    3.283512   1.094003   2.165903   2.148676   2.560130
     7  H    1.095986   2.907139   2.160732   2.789253   3.870459
     8  H    2.155716   2.163738   1.096127   3.269175   4.073142
     9  C    2.466525   2.520760   2.911544   1.526134   2.130539
    10  O    1.442292   2.894427   2.459056   2.473687   3.379045
    11  C    1.521430   3.892935   2.501284   4.224215   5.285674
    12  H    2.118420   4.126061   2.613945   4.719888   5.789978
    13  H    2.154881   4.153991   2.794996   4.596221   5.575253
    14  O    2.419276   4.988125   3.762343   4.958353   6.013408
    15  H    3.241451   5.772157   4.427631   5.870892   6.934642
    16  O    2.884429   2.398109   3.051670   1.430555   2.083960
    17  H    3.236802   3.199739   3.753583   1.923726   2.412130
    18  O    3.620064   1.430045   2.484907   2.413940   2.525439
    19  H    3.479538   1.962800   2.515601   2.779309   3.010350
    20  O    2.419788   2.484222   1.426747   3.611423   4.505999
    21  H    2.655430   2.584212   1.942102   3.476837   4.349021
    22  O    4.993763   5.837961   5.940113   4.775142   4.995096
    23  H    3.957553   4.454793   4.791091   3.191852   3.408588
    24  H    4.590115   5.859018   5.707721   4.909334   5.330014
    25  H    5.931384   6.787724   6.893335   5.711850   5.863259
    26  O    3.415649   3.703517   4.152773   2.335652   2.631856
    27  H    3.175731   2.858508   3.348812   2.172142   2.407469
    28  O    3.731919   5.685350   5.093837   5.005356   5.736626
    29  H    3.762258   6.011853   5.216516   5.454458   6.293537
    30  H    2.802309   4.705357   4.135295   4.078960   4.866382
                    6          7          8          9         10
     6  H    0.000000
     7  H    3.350663   0.000000
     8  H    2.873571   3.050852   0.000000
     9  C    3.451270   2.826020   3.342152   0.000000
    10  O    3.846259   2.084794   2.793925   1.434947   0.000000
    11  C    4.557990   2.132276   2.640141   3.753168   2.411297
    12  H    4.573551   2.477345   2.781685   4.551903   3.334624
    13  H    4.947909   3.045429   2.488025   3.942173   2.616344
    14  O    5.642775   2.573862   4.030880   4.278150   2.903125
    15  H    6.389542   3.417901   4.572124   5.205866   3.802665
    16  O    2.538145   2.386717   4.031186   2.424797   2.998764
    17  H    3.480453   2.687058   4.675495   2.388100   3.029506
    18  O    2.012792   4.196436   2.466012   3.086381   3.631291
    19  H    2.798896   4.261554   2.155490   2.952258   3.308877
    20  O    2.472806   2.620501   2.004898   4.223546   3.693592
    21  H    2.293972   2.453287   2.803846   4.304192   3.925419
    22  O    6.797354   5.330790   6.084973   3.348072   3.585261
    23  H    5.303683   4.109761   5.178284   1.967240   2.656004
[...]
 .00014508,-0.00029983,0.00057335,0.00042486,-0.00056658,-0.00009990,-0
 .00060502,0.00031978,-0.00034279,0.00001291,-0.00044452,0.00003573,-0.
 00003437,0.00026095,0.00001932,-0.00045205,-0.00027709,0.00010667,0.00
 015737,0.00010974,-0.00002560,-0.01956246,-0.39254436,-0.06673740,-0.0
 1233350,-0.00138698,-0.00004525,0.02760122,0.39186535,-0.00010299,0.00
 005686,-0.00000581,0.00000472,0.00008951,0.00016099,0.00002792,0.00002
 009,-0.00000444,0.00008990,-0.00016018,0.00003572,-0.00003929,-0.00001
 195,-0.00002569,0.00001462,-0.00003137,-0.00001985,-0.00008700,0.00004
 317,-0.00005838,0.00002136,-0.00001911,-0.00003473,-0.00074216,0.00151
 822,0.00144488,-0.00022741,-0.00080817,-0.00066279,0.00031109,0.000085
 83,0.00010901,-0.00003682,-0.00001612,-0.00000722,0.00007006,-0.000086
 04,-0.00008421,-0.00092117,0.00025579,-0.00081187,0.00005777,-0.000076
 02,0.00016675,0.00015118,-0.00009392,-0.00021981,-0.00026273,0.0000096
 0,-0.00005455,0.00003848,-0.00006164,-0.00011619,0.00000259,0.00004115
 ,0.00005110,-0.00003003,-0.00005614,-0.00000383,-0.00000112,0.00002020
 ,0.00000084,0.02081738,-0.01645245,-0.05116863,-0.00397262,-0.00086777
 ,0.00029270,-0.01894783,0.05970152,0.07030817,-0.00019313,0.00018831,-
 0.00004064,-0.00003959,0.00004706,0.00013243,-0.00007874,0.00005564,-0
 .00001050,-0.00001179,-0.00016214,0.00002880,0.00000719,0.00001512,-0.
 00001970,0.00002136,-0.00001631,-0.00000563,-0.00003325,0.00001568,-0.
 00001415,0.00001014,-0.00001185,-0.00001711,-0.00010464,0.00076150,0.0
 0071700,0.00020762,-0.00035178,-0.00030028,-0.00001733,0.00002461,0.00
 008092,0.00000982,-0.00002454,0.00000184,-0.00000645,-0.00000043,-0.00
 002920,-0.00001117,-0.00011283,-0.00003252,0.00006144,-0.00000961,-0.0
 0001754,0.00011905,0.00002562,-0.00013813,-0.00026304,-0.00004040,0.00
 004527,0.00007297,-0.00002247,-0.00013656,-0.00002940,0.00001776,0.000
 06050,0.00010797,-0.00007825,0.00002451,-0.00004169,0.00002367,-0.0000
 1142,-0.10297564,0.03389020,0.19356964,-0.00096755,0.00159222,0.007737
 10,0.00140494,-0.00199204,-0.00248230,0.10346121,0.00011883,-0.0001441
 5,0.00005120,0.00000767,0.00003340,-0.00007280,0.00009613,-0.00002120,
 -0.00001698,0.00004889,0.00007848,0.00000974,-0.00002981,-0.00002440,0
 .00001029,-0.00002206,0.00000869,0.00000502,0.00001740,0.00002164,-0.0
 0000477,-0.00000472,0.00000187,0.00000388,0.00032242,0.00005011,-0.000
 21425,-0.00030822,-0.00007727,0.00012292,0.00020022,0.00003867,-0.0001
 5460,-0.00003754,0.00001840,0.00001865,-0.00001247,-0.00001553,0.00003
 270,-0.00023764,0.00006067,0.00012221,0.00001979,-0.00002344,0.0000112
 6,-0.00016005,-0.00009636,-0.00005545,0.00009475,0.00013369,0.00011525
 ,-0.00003794,-0.00004674,0.00006800,0.00002121,0.00001479,-0.00003347,
 -0.00012500,0.00001293,-0.00000160,0.00004527,0.00000446,0.00000481,0.
 00900365,-0.05716594,-0.04173728,0.00237623,0.00139443,0.00215199,0.02
 245622,-0.00264595,-0.04535616,-0.03193795,0.06203376,0.00003078,-0.00
 004330,0.00010281,-0.00002081,-0.00000622,-0.00000947,-0.00000380,-0.0
 0000062,-0.00000875,0.00001286,0.00001326,0.00011682,0.00000420,0.0000
 0960,-0.00001232,-0.00001072,0.00000981,0.00000385,-0.00003101,0.00001
 007,-0.00002161,0.00000612,-0.00000078,-0.00000724,0.00015622,-0.00019
 382,-0.00014152,-0.00011558,0.00014586,-0.00010084,-0.00002251,-0.0000
 0130,0.00005180,0.00000466,0.00000426,-0.00000657,0.00001371,-0.000012
 91,-0.00002448,-0.00002058,0.00000922,-0.00011179,0.00001076,-0.000003
 99,0.00003143,-0.00003779,0.00002987,-0.00012105,-0.00001542,-0.000031
 12,0.00013159,0.00000623,0.00000577,-0.00002485,0.00000283,-0.00000657
 ,0.00000322,-0.00000971,0.00001366,-0.00001341,-0.00000638,-0.00000256
 ,0.00000952,0.19093612,-0.09146589,-0.39567151,0.00236330,0.00130217,0
 .00121272,0.00474855,0.00588870,-0.00847605,-0.19571138,0.08419970,0.4
 0330322,0.00135527,-0.00003142,0.00079054,-0.00653812,-0.00459861,-0.0
 0854260,0.00019123,-0.00212666,0.00080712,-0.04389531,0.03560223,0.022
 61420,0.00160769,0.00061006,0.00041293,-0.00205528,0.00262147,0.001463
 79,-0.00040190,0.00006516,-0.00001816,0.00008734,0.00029191,0.00006865
 ,-0.15686901,0.05262290,0.05852980,0.01529572,0.01001211,-0.00385244,-
 0.00202393,-0.00037272,0.00046211,0.00024212,0.00021003,-0.00016905,0.
 00007797,0.00005520,-0.00002423,0.00210045,0.00002885,-0.00043936,-0.0
 0014172,0.00002007,-0.00005217,-0.00620929,0.00431465,0.00231887,-0.00
 011506,-0.00050233,0.00389498,-0.00015475,0.00071851,0.00196879,0.0005
 4589,-0.00068720,-0.00075837,0.00008328,0.00169916,-0.00092109,-0.0000
 7829,-0.00059030,0.00048759,-0.03053733,-0.00957095,-0.00302569,-0.350
 89339,-0.07132628,-0.08372634,-0.00267751,0.00844463,0.00253895,-0.000
 84427,-0.00163984,-0.00195269,0.58057190,-0.00728795,0.00180530,-0.011
 43600,-0.00030900,-0.00038893,0.00019742,-0.00158043,-0.00098457,0.001
 25469,0.00934017,-0.00074196,0.00022396,0.00123114,0.00123747,0.000059
 35,0.00010882,-0.00002520,-0.00011254,0.00027406,-0.00014513,0.0011160
 4,-0.00001844,0.00008796,0.00005006,0.03664060,-0.11530185,-0.06686052
 ,0.02064635,-0.06519455,-0.01482980,0.00324529,-0.00142050,0.00082219,
 -0.00057063,-0.00115387,0.00043954,0.00004404,0.00035236,0.00010542,-0
 .00103131,-0.00015880,0.00048342,0.00019947,0.00006942,-0.00013866,0.0
 0081843,0.00358945,-0.00169953,0.00069706,-0.00325099,0.00100511,0.000
 22630,0.00095825,-0.00071102,-0.00018781,-0.00040915,0.00032638,0.0022
 6962,-0.00023797,0.00005280,-0.00044345,-0.00016263,-0.00009964,-0.001
 32470,0.00729958,0.00159810,-0.04202319,-0.04340361,-0.03115745,0.0023
 4974,-0.00208436,-0.00021167,-0.00109314,-0.00070119,-0.00041999,-0.02
 964799,0.22019224,-0.00276277,0.00023376,-0.00328672,-0.00122058,0.000
 36896,-0.00140383,-0.00043268,-0.00022246,-0.00017149,0.00026542,-0.00
 024602,-0.00102853,-0.00031812,-0.00022989,0.00044375,0.00016922,-0.00
 008042,0.00019005,0.00056291,-0.00076198,0.00057527,0.00001183,0.00016
 606,0.00017179,0.04005367,-0.05753219,-0.14524567,-0.00224760,-0.01538
 967,0.01765763,0.00130703,-0.00043955,0.00012740,-0.00020953,-0.000353
 02,0.00009677,0.00004473,0.00019853,0.00011512,-0.00044398,0.00004422,
 0.00046520,0.00001192,0.00004467,-0.00006067,-0.00772523,0.00277850,0.
 00432589,0.00217055,0.00160486,0.00051040,0.00056959,-0.00039072,0.001
 14362,-0.00104082,0.00087586,0.00082518,0.00052909,-0.00029768,0.00031
 636,0.00000235,-0.00012438,-0.00007877,0.00089596,0.00206831,0.0070848
 7,-0.05634846,-0.03119530,-0.04999571,0.00006686,-0.00085341,-0.000754
 91,-0.00302833,-0.00072595,-0.00072626,-0.00079461,0.13034275,0.193173
 11,-0.00227703,0.00002582,0.00082997,0.00116054,-0.00003702,-0.0007549
 6,-0.00032432,0.00016808,0.00006626,0.00379775,0.00536706,-0.02825303,
 0.00089471,-0.00064251,0.00086179,0.00006024,-0.00000405,-0.00006186,0
 .00022382,-0.00061523,0.00030716,0.00001042,0.00020023,0.00001123,-0.0
 6712679,0.00827428,-0.03896373,0.00694397,-0.01240729,0.01098762,0.000
 48518,-0.00024307,0.00032346,-0.00010704,-0.00018137,-0.00001465,-0.00
 000319,0.00004991,-0.00003051,-0.00008388,0.00000843,-0.00000544,0.000
 02445,0.00000101,-0.00000726,-0.00687536,-0.00107079,-0.00512539,-0.00
 104579,0.00088565,0.00070238,-0.00010236,-0.00033511,0.00123812,-0.001
 12799,0.00086239,0.00071064,0.00017496,0.00010206,0.00000055,-0.000026
 61,-0.00012005,-0.00001751,-0.00044073,-0.00012041,-0.00043120,0.00230
 617,-0.00064519,0.00067433,-0.00002668,0.00008115,0.00014502,0.0001590
 2,0.00004338,0.00001112,0.00218039,0.00649887,0.02964344,0.06114536,-0
 .00576365,0.00125294,0.00247477,-0.00023546,-0.00040071,0.00031794,-0.
 00069291,-0.00007737,0.00020863,-0.00090997,0.00304575,-0.00418099,0.0
 0065508,0.00025753,-0.00034696,-0.00004801,0.00011621,-0.00005575,0.00
 089217,-0.00108930,0.00069140,0.00018234,-0.00011842,-0.00013376,0.004
 95471,-0.04720979,0.03994561,-0.00023655,-0.02963932,0.03137831,0.0011
 3208,-0.00027185,0.00059164,-0.00024927,-0.00039163,-0.00003295,-0.000
 07337,0.00005453,-0.00009363,-0.00027992,-0.00000172,0.00001700,0.0000
 7823,0.00000223,-0.00002881,-0.00131858,0.00141996,-0.00015654,0.00123
 325,-0.00037951,0.00052589,0.00002572,0.00038213,-0.00000466,0.0006061
 4,-0.00025947,-0.00039494,0.00054933,0.00006483,-0.00018445,-0.0002175
 4,-0.00009305,0.00001654,0.00070260,0.00038139,0.00021757,-0.00199081,
 -0.00035322,-0.00007618,0.00007619,-0.00048059,-0.00007181,-0.00011204
 ,-0.00002521,0.00000211,0.00675021,-0.00103502,-0.03028854,-0.00599192
 ,0.07474637,0.00252484,-0.00088462,0.00020004,-0.00005008,0.00004942,-
 0.00238963,0.00016415,0.00008100,-0.00057593,-0.00054763,0.00289407,-0
 .00830970,-0.00051199,-0.00056367,0.00031374,-0.00011327,0.00008631,0.
 00022638,-0.00012527,0.00008903,0.00001712,0.00008107,0.00015050,0.000
 21362,-0.03308392,0.03915115,-0.27789629,-0.00159526,0.01136348,-0.000
 47990,-0.00053280,0.00015603,-0.00033270,0.00010489,0.00020123,-0.0000
 0548,0.00003605,0.00000048,0.00006741,0.00008448,0.00002431,0.00006454
 ,-0.00003688,-0.00000564,0.00000301,-0.00235377,-0.00066998,0.00060845
 ,0.00166392,0.00005766,0.00083813,0.00113738,-0.00094780,0.00114444,-0
 .00047273,0.00090959,0.00076313,-0.00033590,0.00000956,0.00020433,0.00
 011956,-0.00002421,0.00001495,0.00121061,0.00038528,0.00067899,-0.0030
 6464,-0.00078351,0.00002780,0.00006897,-0.00020673,-0.00035610,-0.0002
 6590,0.00000736,-0.00000134,0.00909116,-0.01104408,-0.02450355,0.02704
 165,-0.04067597,0.30961057,0.00096162,-0.00297916,0.00123513,0.0004218
 4,0.00033225,-0.00038939,0.00067697,0.00002924,-0.00062678,0.00018146,
 -0.00112249,0.00070696,-0.00049952,-0.00020526,-0.00016488,-0.00008509
 ,-0.00003298,0.00000392,-0.00044721,0.00041746,-0.00032209,0.00003970,
 0.00002155,0.00001450,-0.00203564,0.00705500,-0.00138467,-0.01193353,-
 0.00686010,-0.00123207,0.00188179,0.00006085,-0.00000260,-0.00015169,0
 .00009488,-0.00017900,0.00022772,-0.00041552,-0.00034956,-0.00267749,0
 .00537569,-0.00565471,-0.00195012,0.00045432,-0.00018330,-0.00015528,-
 0.00041453,-0.00036880,-0.00003537,0.00031163,0.00020058,-0.00025436,-
 0.00028516,0.00048695,0.00008632,0.00010580,-0.00024304,-0.00119178,0.
 00027055,-0.00000105,0.00030137,0.00000430,0.00009214,0.00579855,0.007
 29903,0.00116468,-0.00360586,0.00058928,-0.00034821,-0.00718705,-0.004
 53897,0.00178915,-0.00022336,-0.00054152,-0.00053423,0.00298843,-0.002
 21080,-0.00050799,-0.00010103,-0.00057616,0.00029677,0.49328726,0.0005
 4730,-0.00386662,0.00126892,0.00022191,-0.00059565,-0.00023057,-0.0002
 0708,0.00034894,-0.00028590,0.00021297,0.00010303,0.00014141,-0.000048
 08,0.00007273,-0.00002214,-0.00006459,0.00017661,0.00001979,-0.0002793
 9,0.00036676,-0.00023826,-0.00007328,-0.00001321,0.00012572,0.00182155
 ,-0.00248532,-0.00123662,-0.00482696,0.00527525,-0.00119770,-0.0040126
 9,-0.00183292,0.00123161,0.00075303,0.00023248,-0.00015890,-0.00055416
 ,0.00052689,0.00057912,0.00997130,-0.00220469,0.00538326,-0.00044250,0
 .00101593,-0.00140191,-0.00054441,0.00047614,-0.00014727,0.00059726,-0
 .00012807,0.00040359,-0.00010942,0.00049739,0.00005800,0.00011934,-0.0
 0029637,-0.00010709,-0.00011614,0.00072713,-0.00018768,-0.00009173,-0.
 00015197,0.00009369,0.00251332,-0.02600244,-0.00706271,0.00662947,0.00
 148007,0.00044668,-0.00644903,0.00720491,0.00202333,-0.00110029,-0.002
 33845,0.00060439,-0.00494023,0.00088202,0.00049793,0.00001174,0.000265
 64,0.00011525,0.04462959,0.19921290,-0.00006576,0.00064192,0.00030417,
 0.00000093,0.00011698,-0.00028559,0.00008520,-0.00020958,-0.00022050,-
 0.00012287,-0.00003557,-0.00005892,-0.00003511,-0.00004860,0.00001002,
 -0.00001327,-0.00001990,0.00003393,0.00031136,0.00002983,0.00018555,-0
 .00005498,0.00005217,0.00009472,0.00023817,-0.00009515,-0.00120518,-0.
 00152110,-0.00103428,0.00293994,0.00257735,0.00083874,-0.00450419,-0.0
 0072758,0.00004084,0.00088386,-0.00073481,0.00031017,0.00112152,-0.007
 09735,0.00508733,-0.00100506,-0.00125468,0.00012396,-0.00054106,-0.000
 09847,-0.00007236,0.00030535,0.00015544,0.00009650,-0.00004010,-0.0000
 9476,-0.00008751,0.00032802,-0.00004476,-0.00002136,-0.00011696,-0.000
 19657,-0.00009351,0.00014098,0.00010205,0.00002423,-0.00001277,0.00014
 748,-0.00570817,0.00620295,0.00114920,0.00062203,-0.00070607,0.0000693
 5,0.00018739,-0.01428328,-0.00048167,0.00197357,0.00054878,-0.00092025
 ,-0.00016333,0.00075608,-0.00021737,-0.00018360,0.00038184,-0.02027052
 ,-0.23583603,0.41085794,-0.00094442,-0.00107127,-0.00027323,-0.0000072
 9,-0.00039355,0.00019834,-0.00044545,0.00042343,0.00017136,0.00000564,
 0.00016028,-0.00011931,0.00010274,0.00010171,0.00002618,0.00003895,0.0
 0007708,-0.00000936,-0.00013049,-0.00002589,-0.00006775,-0.00001527,-0
 .00003399,0.00000011,0.00053837,-0.00238706,0.00027720,-0.00005448,0.0
 0266550,-0.00167407,-0.00605519,-0.00028038,0.00309671,0.00093540,-0.0
 0017160,-0.00048011,0.00056097,0.00027467,-0.00065070,-0.00019250,-0.0
 0224161,0.00152760,0.00304175,-0.00050314,0.00001465,0.00005635,0.0003
 5097,0.00004287,0.00005700,-0.00017289,-0.00003422,0.00013170,0.000308
 21,-0.00032964,0.00000256,-0.00010769,0.00011665,0.00053107,0.00018225
 ,-0.00009054,-0.00021213,-0.00005089,-0.00000852,-0.00063696,-0.001151
 50,0.00026385,0.00132461,0.00002076,0.00024581,-0.00085763,0.00169739,
 -0.00153544,0.00017326,0.00048380,0.00008065,-0.00115441,0.00083170,0.
 00011502,0.00010780,0.00033199,-0.00018888,-0.08976764,0.07602665,-0.1
 2634764,0.08471358,-0.00162415,0.00287152,-0.00075561,-0.00022325,0.00
 035562,0.00006999,0.00006756,-0.00036824,0.00004136,-0.00014787,0.0002
 3783,-0.00013717,0.00012808,-0.00001481,0.00003880,0.00002653,-0.00009
 593,0.00000102,0.00017738,-0.00015664,0.00020158,0.00004648,0.00002606
 ,-0.00005295,-0.00032379,-0.00048619,0.00065461,0.00273075,-0.00057278
 ,0.00003068,0.00451848,0.00169402,-0.00398027,-0.00109686,-0.00000151,
 0.00076074,-0.00030310,0.00001926,0.00060394,-0.00736798,-0.00391172,0
 .00008548,0.00211421,-0.00247340,0.00222287,0.00024720,-0.00020377,0.0
 0009977,-0.00026505,-0.00002197,-0.00014424,0.00004558,-0.00027643,0.0
 0002495,-0.00007464,0.00013047,0.00004619,0.00006293,-0.00049345,0.000
 17796,0.00007059,0.00009442,-0.00005268,-0.00020440,0.00130614,-0.0020
 9343,-0.00104012,-0.00075440,0.00017157,0.00170054,-0.00302730,0.00502
 048,0.00039779,-0.00112324,-0.00011616,0.00105761,0.00013413,-0.000262
 30,0.00000218,-0.00001954,-0.00009065,0.04515339,-0.11856190,0.1714670
 9,-0.04961368,0.13201324,0.00060671,-0.00141779,0.00049056,0.00010401,
 -0.00019529,0.00002666,-0.00006634,0.00022654,0.00000325,0.00008248,-0
 .00018520,0.00023108,-0.00007815,0.00001607,-0.00004583,-0.00001761,0.
 00005198,-0.00000693,-0.00033269,-0.00004909,-0.00020088,0.00003535,-0
 .00001834,-0.00003463,-0.00020658,0.00025159,-0.00008919,-0.00199371,-
 0.00025474,-0.00085788,-0.00145327,-0.00243528,0.00510596,0.00125811,0
 .00003030,-0.00124704,0.00099386,-0.00033252,-0.00133051,0.00207895,0.
 00168155,-0.00679401,0.00083144,0.00009807,0.00031426,-0.00005675,0.00
 013904,-0.00023981,0.00004657,-0.00008087,0.00015064,0.00000947,0.0001
 4384,-0.00011547,0.00004349,-0.00004751,0.00000978,0.00000151,0.000281
 52,-0.00013636,-0.00007337,-0.00005042,0.00003861,-0.00032698,-0.00398
 405,-0.00209293,0.00085451,0.00012371,0.00030379,-0.00070960,0.0054903
 6,0.00431433,0.00013463,-0.00056902,0.00006929,-0.00051836,0.00005220,
 -0.00027185,0.00004498,0.00005201,-0.00006154,-0.07664924,0.17837296,-
 0.31325471,0.08383757,-0.19098321,0.33542821,-0.00210923,0.00498236,-0
 .00186775,-0.00053705,-0.00015842,0.00035119,-0.00061909,-0.00018591,0
 .00059032,-0.00033662,0.00120250,-0.00075741,0.00053766,0.00018721,0.0
 0017268,0.00009124,-0.00001471,0.00000245,0.00085413,-0.00079414,0.000
 70360,-0.00002244,0.00003615,-0.00002167,0.00157426,-0.00849255,0.0015
 5986,-0.00121037,0.00132560,0.00052835,0.00134618,0.00119093,-0.001873
 68,-0.00035815,-0.00025817,0.00046393,-0.00013643,0.00048511,0.0002430
 4,-0.00338251,0.00052505,-0.00014346,0.00037086,-0.00019441,0.00022887
 ,0.00020029,0.00027846,0.00046174,0.00002110,-0.00027334,-0.00024168,0
 .00024949,0.00013531,-0.00040859,-0.00013474,-0.00004908,0.00026424,0.
 00111695,-0.00049034,0.00010852,-0.00023040,0.00003491,-0.00010909,-0.
 00056779,-0.00337984,-0.00161105,0.00335712,0.00005979,0.00036450,-0.0
 0407295,0.00640963,0.00330871,0.00002506,-0.00026111,0.00010447,-0.002
 73811,0.00230720,0.00066112,-0.00000598,0.00052612,-0.00034658,-0.3845
 5101,-0.12019542,0.15546301,0.00815212,0.00373761,-0.00848098,0.383116
 42,0.00059074,0.00378707,-0.00073280,-0.00022285,0.00024124,0.00014757
 ,0.00001451,-0.00030466,0.00053359,-0.00033911,-0.00000276,-0.00001852
 ,0.00008487,0.00000174,0.00002110,0.00004217,-0.00009075,-0.00000523,0
 .00039380,-0.00055516,0.00029230,0.00005193,0.00000462,-0.00011074,-0.
 00207567,-0.00090616,-0.00047822,0.00008403,-0.00688575,0.00127173,0.0
 0208980,0.00066133,0.00189218,-0.00021693,-0.00022107,-0.00047630,0.00
 044458,-0.00081532,-0.00089686,-0.00103319,0.00032292,-0.00136164,-0.0
 0014083,-0.00013605,0.00040009,0.00037285,-0.00013813,0.00026731,-0.00
 024265,-0.00001858,-0.00026180,0.00010865,-0.00021870,-0.00010719,-0.0
 0009634,0.00016350,0.00010840,0.00038758,-0.00049033,0.00004764,-0.000
 02434,0.00007331,-0.00007888,-0.00196113,-0.00100465,0.00152788,-0.000
 66821,-0.00138422,-0.00081420,0.00803320,0.00066110,-0.00450522,0.0000
 1088,0.00054309,0.00005681,0.00090977,0.00019209,0.00016909,-0.0001682
 2,-0.00014377,0.00016518,-0.09202216,-0.06038720,0.06199621,-0.0257312
 5,-0.00631948,0.01359158,0.11132350,0.07337073,-0.00079624,0.00142113,
 -0.00143276,-0.00022550,-0.00006712,0.00040218,-0.00017166,-0.00001128
 ,0.00058514,0.00002253,0.00066737,-0.00034392,0.00028360,0.00010247,0.
 00008095,0.00004272,-0.00001063,-0.00003663,-0.00004572,-0.00008958,0.
 00002123,0.00004821,-0.00006493,-0.00012277,0.00061935,-0.00241249,0.0
 0202965,0.00142866,0.00155343,-0.00297647,-0.00135623,0.00080284,0.001
 22427,-0.00001851,-0.00018487,-0.00004302,0.00019965,-0.00013834,-0.00
 015365,0.00008564,-0.00121912,0.00033219,0.00057400,-0.00027306,0.0001
 8900,0.00015419,0.00006400,-0.00004963,-0.00015074,-0.00013177,-0.0001
 0486,0.00015114,0.00005418,-0.00040436,0.00003440,0.00005718,0.0001714
 2,0.00056438,-0.00022604,-0.00007674,-0.00012762,0.00001195,-0.0000488
 8,-0.00108908,0.00152473,-0.00037933,-0.00027273,-0.00098985,0.0004309
 3,0.00378850,-0.00275459,0.00026385,0.00021033,0.00003376,-0.00010601,
 0.00026592,0.00075480,-0.00045050,0.00028319,0.00047011,-0.00046633,0.
 10342136,0.05674713,-0.08886127,0.04179486,0.01694960,-0.01970686,-0.1
 4971862,-0.07264104,0.11003319\\-0.00234337,0.00156450,0.00419404,-0.0
 0083304,0.00010036,-0.00165400,0.00085237,-0.00012616,0.00163897,0.002
 08652,-0.00135318,-0.00361806,0.00000051,-0.00000088,-0.00000012,0.000
 00107,0.00000609,0.00000393,0.00000245,-0.00000519,0.00000465,-0.00000
 137,0.00000355,-0.00000447,-0.00317428,0.00257602,0.00890509,0.0034098
 7,-0.00274874,-0.00946076,0.00000177,-0.00001675,-0.00000470,-0.000001
 86,0.00000435,0.00000005,-0.00000119,-0.00000161,-0.00000398,0.0000000
 4,0.00000751,0.00000031,0.00000516,0.00000009,-0.00000142,0.00000031,0
 .00000296,0.00000355,0.00000013,-0.00000179,0.00000064,-0.00000212,-0.
 00000170,0.00001150,0.00000183,0.00000069,-0.00000038,-0.00001958,0.00
 000364,0.00000410,0.00000903,0.00000219,-0.00000731,0.00000686,0.00000
 515,-0.00003761,-0.00000201,-0.00000323,-0.00000032,0.00000319,0.00000
 110,0.00005119,-0.00000617,0.00000161,0.00000379,0.00001200,-0.0000118
 5,-0.00000417,0.00000260,-0.00000329,0.00000113,-0.00000699,-0.0000054
 8,-0.00003673,0.00000594,-0.00000263,0.00000959,-0.00000966,0.00000266
 ,0.00000150\\\@


 IT IS UNWORTHY OF EXCELLENT MEN TO LOSE HOURS LIKE SLAVES IN THE LABOR
 OF CALCULATION WHICH COULD BE SAFELY RELEGATED TO ANYONE ELSE
 IF A MACHINE WERE USED.
    -- G.W. VON LEIBNIZ
 Job cpu time:       0 days  0 hours 40 minutes 24.0 seconds.
 File lengths (MBytes):  RWF=    334 Int=      0 D2E=      0 Chk=      7 Scr=      2
 Normal termination of Gaussian 09 at Tue Jan 24 19:16:35 2017.
