 Entering Gaussian System, Link 0=g09
 Initial command:
 /global/software/gaussian/g09.e01/l1.exe "/scratch/10450697.yak.local/Gau-29731.inp" -scrdir="/scratch/10450697.yak.local/"
 Entering Link 1 = /global/software/gaussian/g09.e01/l1.exe PID=     29732.
  
 Copyright (c) 1988,1990,1992,1993,1995,1998,2003,2009,2015,
            Gaussian, Inc.  All Rights Reserved.
  
 This is part of the Gaussian(R) 09 program.  It is based on
 the Gaussian(R) 03 system (copyright 2003, Gaussian, Inc.),
 the Gaussian(R) 98 system (copyright 1998, Gaussian, Inc.),
 the Gaussian(R) 94 system (copyright 1995, Gaussian, Inc.),
 the Gaussian 92(TM) system (copyright 1992, Gaussian, Inc.),
 the Gaussian 90(TM) system (copyright 1990, Gaussian, Inc.),
 the Gaussian 88(TM) system (copyright 1988, Gaussian, Inc.),
 the Gaussian 86(TM) system (copyright 1986, Carnegie Mellon
 University), and the Gaussian 82(TM) system (copyright 1983,
 Carnegie Mellon University). Gaussian is a federally registered
 trademark of Gaussian, Inc.
  
 This software contains proprietary and confidential information,
 including trade secrets, belonging to Gaussian, Inc.
  
 This software is provided under written license and may be
 used, copied, transmitted, or stored only in accord with that
 written license.
  
 The following legend is applicable only to US Government
 contracts under FAR:
  
                    RESTRICTED RIGHTS LEGEND
  
 Use, reproduction and disclosure by the US Government is
 subject to restrictions as set forth in subparagraphs (a)
 and (c) of the Commercial Computer Software - Restricted
 Rights clause in FAR 52.227-19.
  
 Gaussian, Inc.
 340 Quinnipiac St., Bldg. 40, Wallingford CT 06492
  
  
 ---------------------------------------------------------------
 Warning -- This program may not be used in any manner that
 competes with the business of Gaussian, Inc. or will provide
 assistance to any competitor of Gaussian, Inc.  The licensee
 of this program is prohibited from giving any competitor of
 Gaussian, Inc. access to this program.  By using this program,
 the user acknowledges that Gaussian, Inc. is engaged in the
 business of creating and licensing software in the field of
 computational chemistry and represents and warrants to the
 licensee that it is not a competitor of Gaussian, Inc. and that
 it will not use this program in any manner prohibited above.
 ---------------------------------------------------------------
  

 Cite this work as:
 Gaussian 09, Revision E.01,
 M. J. Frisch, G. W. Trucks, H. B. Schlegel, G. E. Scuseria, 
 M. A. Robb, J. R. Cheeseman, G. Scalmani, V. Barone, B. Mennucci, 
 G. A. Petersson, H. Nakatsuji, M. Caricato, X. Li, H. P. Hratchian, 
 A. F. Izmaylov, J. Bloino, G. Zheng, J. L. Sonnenberg, M. Hada, 
 M. Ehara, K. Toyota, R. Fukuda, J. Hasegawa, M. Ishida, T. Nakajima, 
 Y. Honda, O. Kitao, H. Nakai, T. Vreven, J. A. Montgomery, Jr., 
 J. E. Peralta, F. Ogliaro, M. Bearpark, J. J. Heyd, E. Brothers, 
 K. N. Kudin, V. N. Staroverov, T. Keith, R. Kobayashi, J. Normand, 
 K. Raghavachari, A. Rendell, J. C. Burant, S. S. Iyengar, J. Tomasi, 
 M. Cossi, N. Rega, J. M. Millam, M. Klene, J. E. Knox, J. B. Cross, 
 V. Bakken, C. Adamo, J. Jaramillo, R. Gomperts, R. E. Stratmann, 
 O. Yazyev, A. J. Austin, R. Cammi, C. Pomelli, J. W. Ochterski, 
 R. L. Martin, K. Morokuma, V. G. Zakrzewski, G. A. Voth, 
 P. Salvador, J. J. Dannenberg, S. Dapprich, A. D. Daniels, 
 O. Farkas, J. B. Foresman, J. V. Ortiz, J. Cioslowski, 
 and D. J. Fox, Gaussian, Inc., Wallingford CT, 2013.
 
 ******************************************
 Gaussian 09:  ES64L-G09RevE.01 30-Nov-2015
                10-Jan-2017 
 ******************************************
 %NPROCS=4
 Will use up to    4 processors via shared memory.
 ---------------------------------------
 # opt=maxcycle=1000 freq b3lyp/6-31g(d)
 ---------------------------------------
 1/6=1000,14=-1,18=20,19=15,26=3,38=1/1,3;
 2/9=110,12=2,17=6,18=5,40=1/2;
 3/5=1,6=6,7=1,11=2,16=1,25=1,30=1,71=1,74=-5/1,2,3;
 4//1;
 5/5=2,38=5/2;
 6/7=2,8=2,9=2,10=2,28=1/1;
 7//1,2,3,16;
 1/6=1000,14=-1,18=20,19=15,26=3/3(2);
 2/9=110/2;
 99//99;
 2/9=110/2;
 3/5=1,6=6,7=1,11=2,16=1,25=1,30=1,71=1,74=-5/1,2,3;
 4/5=5,16=3,69=1/1;
 5/5=2,38=5/2;
 7//1,2,3,16;
 1/6=1000,14=-1,18=20,19=15,26=3/3(-5);
 2/9=110/2;
 6/7=2,8=2,9=2,10=2,19=2,28=1/1;
 99/9=1/99;
 ------------------------
 boat3_Beta_B3LYP_6-31G_d
 ------------------------
 Symbolic Z-matrix:
 Charge =  0 Multiplicity = 1
 C                    -0.95663   0.86158   0.49844 
 C                     1.33684   0.09905  -0.44916 
 O                    -0.10574  -1.42771   1.08354 
 C                     1.51018  -0.97976   0.48643 
 C                    -1.10509  -0.60103   0.41639 
 C                     0.43874   1.24845  -0.01725 
 H                     2.08349  -0.73825   1.3882 
 H                     0.97132   1.81404   0.75953 
 H                     1.07513  -0.25646  -1.44856 
 H                    -1.99293  -0.82186   1.02734 
 H                    -1.74097   1.38704  -0.05684 
 C                    -1.4877   -1.17371  -0.96338 
 H                    -1.51271  -2.26909  -0.93613 
 H                    -0.79096  -0.89729  -1.75303 
 O                     2.03268  -2.02578  -0.03437 
 O                    -2.76983  -0.69176  -1.36185 
 H                    -3.42994  -1.32875  -1.03356 
 O                     2.694     0.56316  -0.59946 
 H                     2.62795   1.3551   -1.17024 
 O                     0.34031   2.16724  -1.12171 
 H                    -0.14257   2.94878  -0.7925 
 O                    -1.04651   1.32556   1.856 
 H                    -1.8625    0.96479   2.24623 
 O                    -0.95921  -3.34993  -0.03347 
 H                     0.04494  -4.00219   0.04548 
 H                    -0.53648  -2.46238   0.65467 
 H                    -1.59677  -3.7998    0.52577 
 O                     1.21045  -4.20368  -0.1605 
 H                     1.67255  -4.96169   0.20486 
 H                     1.83693  -3.20548   0.0656 
 
 Add virtual bond connecting atoms H30        and O28        Dist= 2.27D+00.
 Add virtual bond connecting atoms H26        and O3         Dist= 2.27D+00.
 Add virtual bond connecting atoms H25        and O24        Dist= 2.27D+00.
 Add virtual bond connecting atoms H30        and O15        Dist= 2.27D+00.
 Add virtual bond connecting atoms H26        and O24        Dist= 2.27D+00.
 Add virtual bond connecting atoms O28        and H25        Dist= 2.27D+00.

 GradGradGradGradGradGradGradGradGradGradGradGradGradGradGradGradGradGrad
 Berny optimization.
 Initialization pass.
                           ----------------------------
                           !    Initial Parameters    !
                           ! (Angstroms and Degrees)  !
 --------------------------                            --------------------------
 ! Name  Definition              Value          Derivative Info.                !
 --------------------------------------------------------------------------------
 ! R1    R(1,5)                  1.4724         estimate D2E/DX2                !
 ! R2    R(1,6)                  1.5371         estimate D2E/DX2                !
 ! R3    R(1,11)                 1.0953         estimate D2E/DX2                !
 ! R4    R(1,22)                 1.4375         estimate D2E/DX2                !
 ! R5    R(2,4)                  1.4385         estimate D2E/DX2                !
 ! R6    R(2,6)                  1.5213         estimate D2E/DX2                !
 ! R7    R(2,9)                  1.0926         estimate D2E/DX2                !
 ! R8    R(2,18)                 1.4422         estimate D2E/DX2                !
 ! R9    R(3,5)                  1.4585         estimate D2E/DX2                !
 ! R10   R(3,26)                 1.2            estimate D2E/DX2                !
 ! R11   R(4,7)                  1.0955         estimate D2E/DX2                !
 ! R12   R(4,15)                 1.28           estimate D2E/DX2                !
 ! R13   R(5,10)                 1.1001         estimate D2E/DX2                !
 ! R14   R(5,12)                 1.5421         estimate D2E/DX2                !
 ! R15   R(6,8)                  1.0986         estimate D2E/DX2                !
 ! R16   R(6,20)                 1.44           estimate D2E/DX2                !
 ! R17   R(12,13)                1.096          estimate D2E/DX2                !
 ! R18   R(12,14)                1.0888         estimate D2E/DX2                !
 ! R19   R(12,16)                1.4265         estimate D2E/DX2                !
 ! R20   R(15,30)                1.2            estimate D2E/DX2                !
 ! R21   R(16,17)                0.9743         estimate D2E/DX2                !
 ! R22   R(18,19)                0.9784         estimate D2E/DX2                !
 ! R23   R(20,21)                0.9759         estimate D2E/DX2                !
 ! R24   R(22,23)                0.9738         estimate D2E/DX2                !
 ! R25   R(24,25)                1.2            estimate D2E/DX2                !
 ! R26   R(24,26)                1.2            estimate D2E/DX2                !
 ! R27   R(24,27)                0.96           estimate D2E/DX2                !
 ! R28   R(25,28)                1.2006         estimate D2E/DX2                !
 ! R29   R(28,29)                0.96           estimate D2E/DX2                !
 ! R30   R(28,30)                1.2            estimate D2E/DX2                !
 ! A1    A(5,1,6)              108.8357         estimate D2E/DX2                !
 ! A2    A(5,1,11)             112.0924         estimate D2E/DX2                !
 ! A3    A(5,1,22)             111.5276         estimate D2E/DX2                !
 ! A4    A(6,1,11)             111.0538         estimate D2E/DX2                !
 ! A5    A(6,1,22)             106.9995         estimate D2E/DX2                !
 ! A6    A(11,1,22)            106.2103         estimate D2E/DX2                !
 ! A7    A(4,2,6)              116.9446         estimate D2E/DX2                !
 ! A8    A(4,2,9)              112.3198         estimate D2E/DX2                !
 ! A9    A(4,2,18)             101.2875         estimate D2E/DX2                !
 ! A10   A(6,2,9)              111.3551         estimate D2E/DX2                !
 ! A11   A(6,2,18)             109.9992         estimate D2E/DX2                !
 ! A12   A(9,2,18)             103.5793         estimate D2E/DX2                !
 ! A13   A(5,3,26)              94.5476         estimate D2E/DX2                !
 ! A14   A(2,4,7)              115.6646         estimate D2E/DX2                !
 ! A15   A(2,4,15)             113.4181         estimate D2E/DX2                !
 ! A16   A(7,4,15)             107.5438         estimate D2E/DX2                !
 ! A17   A(1,5,3)              117.9342         estimate D2E/DX2                !
 ! A18   A(1,5,10)             104.4671         estimate D2E/DX2                !
 ! A19   A(1,5,12)             116.3444         estimate D2E/DX2                !
 ! A20   A(3,5,10)             100.6709         estimate D2E/DX2                !
 ! A21   A(3,5,12)             111.6401         estimate D2E/DX2                !
 ! A22   A(10,5,12)            102.8329         estimate D2E/DX2                !
 ! A23   A(1,6,2)              116.1686         estimate D2E/DX2                !
 ! A24   A(1,6,8)              109.4174         estimate D2E/DX2                !
 ! A25   A(1,6,20)             110.8461         estimate D2E/DX2                !
 ! A26   A(2,6,8)              107.6695         estimate D2E/DX2                !
 ! A27   A(2,6,20)             107.7381         estimate D2E/DX2                !
 ! A28   A(8,6,20)             104.2971         estimate D2E/DX2                !
 ! A29   A(5,12,13)            110.7668         estimate D2E/DX2                !
 ! A30   A(5,12,14)            113.3195         estimate D2E/DX2                !
 ! A31   A(5,12,16)            110.3314         estimate D2E/DX2                !
 ! A32   A(13,12,14)           106.6414         estimate D2E/DX2                !
 ! A33   A(13,12,16)           108.911          estimate D2E/DX2                !
 ! A34   A(14,12,16)           106.6671         estimate D2E/DX2                !
 ! A35   A(4,15,30)            134.6594         estimate D2E/DX2                !
 ! A36   A(12,16,17)           107.0942         estimate D2E/DX2                !
 ! A37   A(2,18,19)            104.9367         estimate D2E/DX2                !
 ! A38   A(6,20,21)            106.6214         estimate D2E/DX2                !
 ! A39   A(1,22,23)            108.1351         estimate D2E/DX2                !
 ! A40   A(25,24,26)            93.9855         estimate D2E/DX2                !
 ! A41   A(25,24,27)           105.2296         estimate D2E/DX2                !
 ! A42   A(26,24,27)           104.27           estimate D2E/DX2                !
 ! A43   A(24,25,28)           153.16           estimate D2E/DX2                !
 ! A44   A(25,28,29)           122.3099         estimate D2E/DX2                !
 ! A45   A(25,28,30)           109.5655         estimate D2E/DX2                !
 ! A46   A(29,28,30)           109.5            estimate D2E/DX2                !
 ! A47   A(15,30,28)           152.5266         estimate D2E/DX2                !
 ! A48   L(3,26,24,12,-1)      167.3558         estimate D2E/DX2                !
 ! A49   L(3,26,24,12,-2)      173.3569         estimate D2E/DX2                !
 ! D1    D(6,1,5,3)             55.2067         estimate D2E/DX2                !
 ! D2    D(6,1,5,10)           165.8932         estimate D2E/DX2                !
 ! D3    D(6,1,5,12)           -81.542          estimate D2E/DX2                !
 ! D4    D(11,1,5,3)           178.4442         estimate D2E/DX2                !
 ! D5    D(11,1,5,10)          -70.8693         estimate D2E/DX2                !
 ! D6    D(11,1,5,12)           41.6956         estimate D2E/DX2                !
 ! D7    D(22,1,5,3)           -62.6093         estimate D2E/DX2                !
 ! D8    D(22,1,5,10)           48.0772         estimate D2E/DX2                !
 ! D9    D(22,1,5,12)          160.6421         estimate D2E/DX2                !
 ! D10   D(5,1,6,2)             -1.3486         estimate D2E/DX2                !
 ! D11   D(5,1,6,8)           -123.4755         estimate D2E/DX2                !
 ! D12   D(5,1,6,20)           122.0423         estimate D2E/DX2                !
 ! D13   D(11,1,6,2)          -125.2054         estimate D2E/DX2                !
 ! D14   D(11,1,6,8)           112.6676         estimate D2E/DX2                !
 ! D15   D(11,1,6,20)           -1.8145         estimate D2E/DX2                !
 ! D16   D(22,1,6,2)           119.2963         estimate D2E/DX2                !
 ! D17   D(22,1,6,8)            -2.8307         estimate D2E/DX2                !
 ! D18   D(22,1,6,20)         -117.3128         estimate D2E/DX2                !
 ! D19   D(5,1,22,23)          -51.9895         estimate D2E/DX2                !
 ! D20   D(6,1,22,23)         -170.9051         estimate D2E/DX2                !
 ! D21   D(11,1,22,23)          70.4035         estimate D2E/DX2                !
 ! D22   D(6,2,4,7)            -69.0298         estimate D2E/DX2                !
 ! D23   D(6,2,4,15)           166.0411         estimate D2E/DX2                !
 ! D24   D(9,2,4,7)            160.4096         estimate D2E/DX2                !
 ! D25   D(9,2,4,15)            35.4805         estimate D2E/DX2                !
 ! D26   D(18,2,4,7)            50.4869         estimate D2E/DX2                !
 ! D27   D(18,2,4,15)          -74.4422         estimate D2E/DX2                !
 ! D28   D(4,2,6,1)            -51.5589         estimate D2E/DX2                !
 ! D29   D(4,2,6,8)             71.4853         estimate D2E/DX2                !
 ! D30   D(4,2,6,20)          -176.5515         estimate D2E/DX2                !
 ! D31   D(9,2,6,1)             79.4497         estimate D2E/DX2                !
 ! D32   D(9,2,6,8)           -157.5061         estimate D2E/DX2                !
 ! D33   D(9,2,6,20)           -45.5429         estimate D2E/DX2                !
 ! D34   D(18,2,6,1)          -166.309          estimate D2E/DX2                !
 ! D35   D(18,2,6,8)           -43.2647         estimate D2E/DX2                !
 ! D36   D(18,2,6,20)           68.6985         estimate D2E/DX2                !
 ! D37   D(4,2,18,19)         -175.1515         estimate D2E/DX2                !
 ! D38   D(6,2,18,19)          -50.7935         estimate D2E/DX2                !
 ! D39   D(9,2,18,19)           68.3219         estimate D2E/DX2                !
 ! D40   D(26,3,5,1)          -173.7365         estimate D2E/DX2                !
 ! D41   D(26,3,5,10)           73.4547         estimate D2E/DX2                !
 ! D42   D(26,3,5,12)          -35.082          estimate D2E/DX2                !
 ! D43   D(5,3,24,25)          156.52           estimate D2E/DX2                !
 ! D44   D(5,3,24,27)          -94.7588         estimate D2E/DX2                !
 ! D45   D(2,4,15,30)         -138.98           estimate D2E/DX2                !
 ! D46   D(7,4,15,30)           91.8275         estimate D2E/DX2                !
 ! D47   D(1,5,12,13)          176.4871         estimate D2E/DX2                !
 ! D48   D(1,5,12,14)           56.6862         estimate D2E/DX2                !
 ! D49   D(1,5,12,16)          -62.8387         estimate D2E/DX2                !
 ! D50   D(3,5,12,13)           37.1243         estimate D2E/DX2                !
 ! D51   D(3,5,12,14)          -82.6766         estimate D2E/DX2                !
 ! D52   D(3,5,12,16)          157.7985         estimate D2E/DX2                !
 ! D53   D(10,5,12,13)         -70.0145         estimate D2E/DX2                !
 ! D54   D(10,5,12,14)         170.1845         estimate D2E/DX2                !
 ! D55   D(10,5,12,16)          50.6597         estimate D2E/DX2                !
 ! D56   D(1,6,20,21)           58.8967         estimate D2E/DX2                !
 ! D57   D(2,6,20,21)         -172.9868         estimate D2E/DX2                !
 ! D58   D(8,6,20,21)          -58.7582         estimate D2E/DX2                !
 ! D59   D(5,12,16,17)         -90.4656         estimate D2E/DX2                !
 ! D60   D(13,12,16,17)         31.3131         estimate D2E/DX2                !
 ! D61   D(14,12,16,17)        146.0571         estimate D2E/DX2                !
 ! D62   D(4,15,30,28)          75.8361         estimate D2E/DX2                !
 ! D63   D(26,24,25,28)        -66.2378         estimate D2E/DX2                !
 ! D64   D(27,24,25,28)       -172.2028         estimate D2E/DX2                !
 ! D65   D(24,25,28,29)        174.9211         estimate D2E/DX2                !
 ! D66   D(24,25,28,30)         44.836          estimate D2E/DX2                !
 ! D67   D(25,28,30,15)        -48.2518         estimate D2E/DX2                !
 ! D68   D(29,28,30,15)        175.0607         estimate D2E/DX2                !
 --------------------------------------------------------------------------------
 Trust Radius=3.00D-01 FncErr=1.00D-07 GrdErr=1.00D-06
 Number of steps in this run=    180 maximum allowed number of steps=    180.
 GradGradGradGradGradGradGradGradGradGradGradGradGradGradGradGradGradGrad

                          Input orientation:                          
 ---------------------------------------------------------------------
 Center     Atomic      Atomic             Coordinates (Angstroms)
 Number     Number       Type             X           Y           Z
 ---------------------------------------------------------------------
      1          6           0       -0.956629    0.861575    0.498439
      2          6           0        1.336836    0.099053   -0.449157
      3          8           0       -0.105740   -1.427713    1.083539
      4          6           0        1.510178   -0.979759    0.486426
      5          6           0       -1.105093   -0.601026    0.416391
      6          6           0        0.438737    1.248451   -0.017250
      7          1           0        2.083493   -0.738255    1.388200
      8          1           0        0.971321    1.814042    0.759528
      9          1           0        1.075132   -0.256459   -1.448564
     10          1           0       -1.992926   -0.821857    1.027341
     11          1           0       -1.740969    1.387036   -0.056838
     12          6           0       -1.487702   -1.173715   -0.963385
     13          1           0       -1.512710   -2.269094   -0.936131
     14          1           0       -0.790958   -0.897290   -1.753031
     15          8           0        2.032684   -2.025778   -0.034374
     16          8           0       -2.769834   -0.691765   -1.361846
     17          1           0       -3.429940   -1.328753   -1.033557
     18          8           0        2.694000    0.563160   -0.599464
     19          1           0        2.627955    1.355104   -1.170240
     20          8           0        0.340315    2.167243   -1.121714
     21          1           0       -0.142568    2.948778   -0.792496
     22          8           0       -1.046505    1.325558    1.855999
     23          1           0       -1.862499    0.964785    2.246226
     24          8           0       -0.959215   -3.349934   -0.033473
     25          1           0        0.044941   -4.002189    0.045483
     26          1           0       -0.536481   -2.462381    0.654674
     27          1           0       -1.596766   -3.799802    0.525766
     28          8           0        1.210452   -4.203675   -0.160499
     29          1           0        1.672548   -4.961686    0.204859
     30          1           0        1.836932   -3.205476    0.065599
 ---------------------------------------------------------------------
                    Distance matrix (angstroms):
                    1          2          3          4          5
     1  C    0.000000
     2  C    2.596028   0.000000
     3  O    2.511413   2.600230   0.000000
     4  C    3.078278   1.438471   1.780000   0.000000
     5  C    1.472405   2.683710   1.458494   2.643480   0.000000
     6  C    1.537093   1.521263   2.944494   2.523211   2.447860
     7  H    3.548729   2.152780   2.315365   1.095541   3.336215
     8  H    2.166184   2.129720   3.431329   2.858369   3.203403
     9  H    3.028015   1.092562   3.029495   2.111069   2.889665
    10  H    2.046361   3.757052   1.982849   3.548135   1.100124
    11  H    1.095277   3.359419   3.449238   4.057932   2.140251
    12  C    2.561518   3.140443   2.482787   3.335694   1.542123
    13  H    3.488310   3.737001   2.601260   3.581048   2.185845
    14  H    2.861847   2.687060   2.965974   3.212039   2.211978
    15  O    4.190070   2.274018   2.486015   1.280000   3.475450
    16  O    3.026754   4.280553   3.690383   4.670927   2.437565
    17  H    3.641678   5.010220   3.942359   5.180436   2.834934
    18  O    3.823812   1.442179   3.825522   2.227372   4.101268
    19  H    3.984633   1.940261   4.505184   3.073361   4.503275
    20  O    2.451883   2.392237   4.240969   3.722676   3.481133
    21  H    2.585658   3.229156   4.761779   4.449788   3.871559
    22  O    1.437472   3.535304   3.010355   3.704976   2.405749
    23  H    1.971297   4.272040   3.187803   4.272365   2.524624
    24  O    4.244967   4.164151   2.381400   3.462069   2.789292
    25  H    4.986433   4.328261   2.779962   3.387688   3.609440
    26  H    3.354045   3.359866   1.200000   2.532842   1.960801
    27  H    4.705205   4.975697   2.856759   4.196104   3.238190
    28  O    5.548622   4.314252   3.314508   3.301815   4.321300
    29  H    6.396025   5.113856   4.052574   3.995171   5.174495
    30  H    4.953003   3.381565   2.823229   2.288598   3.944836
                    6          7          8          9         10
     6  C    0.000000
     7  H    2.937263   0.000000
     8  H    1.098600   2.854186   0.000000
     9  H    2.172191   3.048958   3.028766   0.000000
    10  H    3.360109   4.093214   3.975732   3.982808   0.000000
    11  H    2.184466   4.607766   2.864490   3.545194   2.473486
    12  C    3.236237   4.298024   4.235790   2.764937   2.083758
    13  H    4.126210   4.547380   5.071259   3.318164   2.486026
    14  H    3.021471   4.260879   4.095107   1.996411   3.029998
    15  O    3.641639   1.919378   4.062141   2.459132   4.333844
    16  O    3.983379   5.578503   4.977503   3.870501   2.515696
    17  H    4.758311   6.050747   5.697667   4.649486   2.563055
    18  O    2.427923   2.452999   2.525705   2.003367   5.150926
    19  H    2.476578   3.350254   2.584389   2.255185   5.560671
    20  O    1.440037   4.216664   2.015438   2.553648   4.358574
    21  H    1.957047   4.827525   2.221971   3.490954   4.577480
    22  O    2.391851   3.778234   2.347869   4.233705   2.488730
    23  H    3.240290   4.382626   3.310898   4.875714   2.166744
    24  O    4.806212   4.254420   5.569781   3.963664   2.930027
    25  H    5.265760   4.075763   5.932670   4.162206   3.902750
    26  H    3.895228   3.221014   4.535664   3.447752   2.225182
    27  H    5.470191   4.864275   6.177779   4.857190   3.045764
    28  O    5.508334   3.894844   6.092336   4.154268   4.807213
    29  H    6.335411   4.405286   6.834462   5.022935   5.590203
    30  H    4.668970   2.810204   5.140660   3.401430   4.612418
                   11         12         13         14         15
    11  H    0.000000
    12  C    2.728263   0.000000
    13  H    3.767299   1.096003   0.000000
    14  H    2.999623   1.088763   1.752169   0.000000
    15  O    5.088051   3.739277   3.666359   3.492882   0.000000
    16  O    2.661395   1.426503   2.061446   2.027613   5.158096
    17  H    3.343967   1.949679   2.137640   2.769121   5.596827
    18  O    4.543365   4.542665   5.082462   3.950767   2.731166
    19  H    4.508678   4.834909   5.507697   4.135443   3.615923
    20  O    2.464635   3.811655   4.811365   3.327116   4.650575
    21  H    2.352683   4.339762   5.396676   4.016874   5.482032
    22  O    2.035929   3.793408   4.575463   4.246346   4.928120
    23  H    2.344604   3.874953   4.550574   4.539778   5.414523
    24  O    4.801101   2.424864   1.513064   3.000109   3.271826
    25  H    5.678353   3.371509   2.528529   3.684260   2.804228
    26  H    4.095736   2.276752   1.876445   2.882935   2.695555
    27  H    5.221447   3.020893   2.118319   3.777144   4.078458
    28  O    6.322791   4.135858   3.429260   4.180190   2.331354
    29  H    7.212965   5.069586   4.324093   5.140186   2.967573
    30  H    5.823018   4.029895   3.619445   3.942200   1.200000
                   16         17         18         19         20
    16  O    0.000000
    17  H    0.974304   0.000000
    18  O    5.657698   6.424205   0.000000
    19  H    5.776029   6.627206   0.978429   0.000000
    20  O    4.231385   5.142430   2.895800   2.428008   0.000000
    21  H    4.525510   5.400203   3.711408   3.218429   0.975888
    22  O    4.170609   4.590824   4.538935   4.760321   3.390941
    23  H    4.072542   4.298158   5.387108   5.655861   4.200156
    24  O    3.479767   3.345119   5.383180   6.024733   5.771679
    25  H    4.567542   4.515129   5.317506   6.070463   6.285816
    26  H    3.491318   3.536573   4.600300   5.283669   5.035647
    27  H    3.820872   3.449362   6.221917   6.877336   6.486301
    28  O    5.442373   5.528169   5.011619   5.824853   6.501513
    29  H    6.357795   6.384925   5.675758   6.534947   7.372671
    30  H    5.438625   5.698261   3.921669   4.790814   5.702252
                   21         22         23         24         25
    21  H    0.000000
    22  O    3.235193   0.000000
    23  H    4.015996   0.973797   0.000000
    24  O    6.396624   5.043604   4.962836   0.000000
    25  H    7.003806   5.731850   5.757815   1.200000   0.000000
    26  H    5.615168   4.006468   4.004601   1.200000   1.755042
    27  H    7.028217   5.323685   5.072661   0.960000   1.722450
    28  O    7.306687   6.303376   6.476754   2.335051   1.200600
    29  H    8.177091   7.046202   7.196305   3.095275   1.896086
    30  H    6.521471   5.661273   5.985984   2.801628   1.961221
                   26         27         28         29         30
    26  H    0.000000
    27  H    1.711583   0.000000
    28  O    2.597766   2.917969   0.000000
    29  H    3.365809   3.484447   0.960000   0.000000
    30  H    2.555834   3.515005   1.200000   1.769376   0.000000
 Stoichiometry    C6H16O8
 Framework group  C1[X(C6H16O8)]
 Deg. of freedom    84
 Full point group                 C1      NOp   1
 Largest Abelian subgroup         C1      NOp   1
 Largest concise Abelian subgroup C1      NOp   1
                         Standard orientation:                         
 ---------------------------------------------------------------------
 Center     Atomic      Atomic             Coordinates (Angstroms)
 Number     Number       Type             X           Y           Z
 ---------------------------------------------------------------------
      1          6           0        1.650652    0.854319    0.520435
      2          6           0        0.662132   -1.359295   -0.408059
      3          8           0       -0.712307    0.242102    1.111034
      4          6           0       -0.428536   -1.415640    0.528140
      5          6           0        0.210274    1.147838    0.435986
      6          6           0        1.895754   -0.577169    0.017024
      7          1           0       -0.245599   -2.002482    1.434981
      8          1           0        2.405217   -1.157027    0.798776
      9          1           0        0.334536   -1.071904   -1.409947
     10          1           0        0.079547    2.058551    1.039133
     11          1           0        2.251993    1.577269   -0.041137
     12          6           0       -0.321328    1.574003   -0.947462
     13          1           0       -1.408689    1.708846   -0.921271
     14          1           0       -0.116160    0.846304   -1.730893
     15          8           0       -1.521681   -1.835196    0.011028
     16          8           0        0.286601    2.797931   -1.356524
     17          1           0       -0.281027    3.521326   -1.034398
     18          8           0        0.987935   -2.757366   -0.546369
     19          1           0        1.782461   -2.775899   -1.117077
     20          8           0        2.819686   -0.580788   -1.087531
     21          1           0        3.645692   -0.175808   -0.761859
     22          8           0        2.121425    0.908943    1.877534
     23          1           0        1.844244    1.760300    2.260473
     24          8           0       -2.539459    1.274194   -0.014739
     25          1           0       -3.289019    0.341144    0.072315
     26          1           0       -1.698658    0.770615    0.677693
     27          1           0       -2.923148    1.958392    0.538666
     28          8           0       -3.606266   -0.800050   -0.123826
     29          1           0       -4.406723   -1.180728    0.244892
     30          1           0       -2.675827   -1.521402    0.108406
 ---------------------------------------------------------------------
 Rotational constants (GHZ):      0.7439987      0.5556052      0.4044945
 Standard basis: 6-31G(d) (6D, 7F)
 There are   242 symmetry adapted cartesian basis functions of A   symmetry.
 There are   242 symmetry adapted basis functions of A   symmetry.
   242 basis functions,   456 primitive gaussians,   242 cartesian basis functions
    58 alpha electrons       58 beta electrons
       nuclear repulsion energy      1129.5653725898 Hartrees.
 NAtoms=   30 NActive=   30 NUniq=   30 SFac= 1.00D+00 NAtFMM=   60 NAOKFM=F Big=F
 Integral buffers will be    131072 words long.
 Raffenetti 2 integral format.
 Two-electron integral symmetry is turned on.
 One-electron integrals computed using PRISM.
 NBasis=   242 RedAO= T EigKep=  1.27D-03  NBF=   242
 NBsUse=   242 1.00D-06 EigRej= -1.00D+00 NBFU=   242
 ExpMin= 1.61D-01 ExpMax= 5.48D+03 ExpMxC= 8.25D+02 IAcc=1 IRadAn=         1 AccDes= 0.00D+00
 Harris functional with IExCor=  402 and IRadAn=       1 diagonalized for initial guess.
 HarFok:  IExCor=  402 AccDes= 0.00D+00 IRadAn=         1 IDoV= 1 UseB2=F ITyADJ=14
 ICtDFT=  3500011 ScaDFX=  1.000000  1.000000  1.000000  1.000000
 FoFCou: FMM=F IPFlag=           0 FMFlag=      100000 FMFlg1=           0
         NFxFlg=           0 DoJE=T BraDBF=F KetDBF=T FulRan=T
         wScrn=  0.000000 ICntrl=     500 IOpCl=  0 I1Cent=   200000004 NGrid=           0
         NMat0=    1 NMatS0=      1 NMatT0=    0 NMatD0=    1 NMtDS0=    0 NMtDT0=    0
 Petite list used in FoFCou.
 Requested convergence on RMS density matrix=1.00D-08 within 128 cycles.
 Requested convergence on MAX density matrix=1.00D-06.
 Requested convergence on             energy=1.00D-06.
 No special actions if energy rises.
 Integral accuracy reduced to 1.0D-05 until final iterations.
 Initial convergence to 1.0D-05 achieved.  Increase integral accuracy.
 SCF Done:  E(RB3LYP) =  -839.850160684     A.U. after   14 cycles
            NFock= 14  Conv=0.86D-08     -V/T= 2.0076

 **********************************************************************

            Population analysis using the SCF density.

 **********************************************************************

 Orbital symmetries:
       Occupied  (A) (A) (A) (A) (A) (A) (A) (A) (A) (A) (A) (A)
                 (A) (A) (A) (A) (A) (A) (A) (A) (A) (A) (A) (A)
                 (A) (A) (A) (A) (A) (A) (A) (A) (A) (A) (A) (A)
                 (A) (A) (A) (A) (A) (A) (A) (A) (A) (A) (A) (A)
                 (A) (A) (A) (A) (A) (A) (A) (A) (A) (A)
       Virtual   (A) (A) (A) (A) (A) (A) (A) (A) (A) (A) (A) (A)
                 (A) (A) (A) (A) (A) (A) (A) (A) (A) (A) (A) (A)
                 (A) (A) (A) (A) (A) (A) (A) (A) (A) (A) (A) (A)
                 (A) (A) (A) (A) (A) (A) (A) (A) (A) (A) (A) (A)
                 (A) (A) (A) (A) (A) (A) (A) (A) (A) (A) (A) (A)
                 (A) (A) (A) (A) (A) (A) (A) (A) (A) (A) (A) (A)
                 (A) (A) (A) (A) (A) (A) (A) (A) (A) (A) (A) (A)
                 (A) (A) (A) (A) (A) (A) (A) (A) (A) (A) (A) (A)
                 (A) (A) (A) (A) (A) (A) (A) (A) (A) (A) (A) (A)
                 (A) (A) (A) (A) (A) (A) (A) (A) (A) (A) (A) (A)
                 (A) (A) (A) (A) (A) (A) (A) (A) (A) (A) (A) (A)
                 (A) (A) (A) (A) (A) (A) (A) (A) (A) (A) (A) (A)
                 (A) (A) (A) (A) (A) (A) (A) (A) (A) (A) (A) (A)
                 (A) (A) (A) (A) (A) (A) (A) (A) (A) (A) (A) (A)
                 (A) (A) (A) (A) (A) (A) (A) (A) (A) (A) (A) (A)
                 (A) (A) (A) (A)
 The electronic state is 1-A.
 Alpha  occ. eigenvalues --  -19.17006 -19.16960 -19.15066 -19.14731 -19.13942
 Alpha  occ. eigenvalues --  -19.13927 -19.13546 -19.09595 -10.27650 -10.24004
 Alpha  occ. eigenvalues --  -10.23964 -10.23696 -10.22726 -10.20048  -1.06303
 Alpha  occ. eigenvalues --   -1.03649  -1.02244  -1.01835  -1.00941  -1.00105
 Alpha  occ. eigenvalues --   -0.99648  -0.96984  -0.78977  -0.74792  -0.69068
 Alpha  occ. eigenvalues --   -0.64894  -0.61062  -0.57546  -0.56137  -0.55815
 Alpha  occ. eigenvalues --   -0.54206  -0.52157  -0.51895  -0.49274  -0.48194
 Alpha  occ. eigenvalues --   -0.47262  -0.45843  -0.44622  -0.43473  -0.42819
 Alpha  occ. eigenvalues --   -0.42447  -0.41487  -0.39904  -0.37581  -0.36455
 Alpha  occ. eigenvalues --   -0.35259  -0.34481  -0.33748  -0.33070  -0.31786
 Alpha  occ. eigenvalues --   -0.31217  -0.28491  -0.27772  -0.27303  -0.26125
 Alpha  occ. eigenvalues --   -0.25380  -0.24871  -0.23453
 Alpha virt. eigenvalues --    0.02815   0.04461   0.06265   0.07106   0.07333
 Alpha virt. eigenvalues --    0.09587   0.09982   0.12046   0.12450   0.13452
 Alpha virt. eigenvalues --    0.15071   0.17336   0.18425   0.19122   0.20243
 Alpha virt. eigenvalues --    0.21547   0.23340   0.23481   0.24473   0.27034
 Alpha virt. eigenvalues --    0.27518   0.28873   0.30233   0.30453   0.32247
 Alpha virt. eigenvalues --    0.33163   0.37737   0.37850   0.51722   0.53356
 Alpha virt. eigenvalues --    0.54884   0.57797   0.59183   0.60464   0.60924
 Alpha virt. eigenvalues --    0.62612   0.64783   0.65677   0.66162   0.67521
 Alpha virt. eigenvalues --    0.68847   0.70789   0.71321   0.72672   0.73932
 Alpha virt. eigenvalues --    0.76000   0.76675   0.78699   0.79765   0.80785
 Alpha virt. eigenvalues --    0.81181   0.81914   0.83779   0.84257   0.84653
 Alpha virt. eigenvalues --    0.86125   0.87129   0.88018   0.88215   0.90894
 Alpha virt. eigenvalues --    0.91036   0.92944   0.93281   0.96276   0.97204
 Alpha virt. eigenvalues --    0.99070   1.00005   1.00281   1.02022   1.02591
 Alpha virt. eigenvalues --    1.04131   1.05391   1.05917   1.07919   1.09011
 Alpha virt. eigenvalues --    1.09498   1.11265   1.12254   1.17369   1.18770
 Alpha virt. eigenvalues --    1.20817   1.22976   1.24765   1.26858   1.27076
 Alpha virt. eigenvalues --    1.30721   1.32074   1.35219   1.36492   1.38124
 Alpha virt. eigenvalues --    1.40428   1.42557   1.45015   1.49216   1.51018
 Alpha virt. eigenvalues --    1.51660   1.54786   1.57963   1.58404   1.62423
 Alpha virt. eigenvalues --    1.64520   1.67134   1.68820   1.70235   1.71258
 Alpha virt. eigenvalues --    1.73458   1.74439   1.75120   1.75365   1.78132
 Alpha virt. eigenvalues --    1.78283   1.79729   1.80186   1.82627   1.83135
 Alpha virt. eigenvalues --    1.83869   1.85587   1.87237   1.88674   1.89539
 Alpha virt. eigenvalues --    1.90979   1.92123   1.93722   1.94961   1.95734
 Alpha virt. eigenvalues --    1.99362   2.01991   2.03605   2.05415   2.07553
 Alpha virt. eigenvalues --    2.09131   2.10427   2.12174   2.14308   2.17426
 Alpha virt. eigenvalues --    2.22673   2.23769   2.25139   2.28144   2.31693
 Alpha virt. eigenvalues --    2.32946   2.36256   2.38689   2.41802   2.42923
 Alpha virt. eigenvalues --    2.43653   2.44791   2.47305   2.49372   2.50902
 Alpha virt. eigenvalues --    2.52854   2.53025   2.54449   2.58589   2.58960
 Alpha virt. eigenvalues --    2.62517   2.68405   2.69086   2.70292   2.75318
 Alpha virt. eigenvalues --    2.77648   2.80012   2.85077   2.88920   2.92938
 Alpha virt. eigenvalues --    2.96223   3.00427   3.02405   3.03797   3.10728
 Alpha virt. eigenvalues --    3.73881   3.76707   3.80141   3.81902   3.87385
 Alpha virt. eigenvalues --    3.96365   4.04333   4.14617   4.36648   4.38662
 Alpha virt. eigenvalues --    4.45123   4.58797   4.61586   4.80661
          Condensed to atoms (all electrons):
               1          2          3          4          5          6
     1  C    5.003639  -0.035100  -0.022258  -0.007035   0.313157   0.235550
     2  C   -0.035100   5.069841  -0.025401   0.288376   0.006752   0.276889
     3  O   -0.022258  -0.025401   8.593455   0.093312   0.127513  -0.004630
     4  C   -0.007035   0.288376   0.093312   4.636429  -0.015971  -0.023196
     5  C    0.313157   0.006752   0.127513  -0.015971   5.155076  -0.027773
     6  C    0.235550   0.276889  -0.004630  -0.023196  -0.027773   5.084932
     7  H    0.001226  -0.073761  -0.023332   0.366857  -0.000133  -0.000430
     8  H   -0.047998  -0.035413   0.000279  -0.004337   0.003161   0.345886
     9  H    0.000829   0.341906   0.000908  -0.033663  -0.003103  -0.043587
    10  H   -0.046355   0.000213  -0.043855   0.002605   0.331495   0.007430
    11  H    0.371631   0.001629   0.002562   0.000359  -0.048901  -0.046177
    12  C   -0.029756  -0.006005  -0.029164  -0.001975   0.257657  -0.007092
    13  H    0.003352   0.000149   0.004050  -0.000454  -0.034156  -0.000120
    14  H   -0.006915  -0.001653   0.002522   0.000992  -0.053124   0.001273
    15  O    0.000046  -0.058970  -0.047511   0.373709   0.001735   0.004530
    16  O   -0.003513  -0.000009   0.001552   0.000040  -0.047624   0.000178
    17  H   -0.000412  -0.000003  -0.000025   0.000000  -0.002443  -0.000009
    18  O    0.004307   0.215938   0.000685  -0.043976  -0.000197  -0.032457
    19  H    0.000689  -0.029409  -0.000050   0.007176  -0.000029  -0.007343
    20  O   -0.037145  -0.032198   0.000022   0.002042   0.002679   0.194651
    21  H   -0.002219   0.005266   0.000003  -0.000193   0.000281  -0.022649
    22  O    0.188481   0.000333   0.000327   0.001564  -0.024418  -0.033250
    23  H   -0.023066  -0.000271  -0.000207   0.000006  -0.007903   0.006526
    24  O   -0.000134  -0.000416  -0.112047   0.002415   0.016333   0.000005
    25  H    0.000012   0.000104   0.004051  -0.000630  -0.000466  -0.000002
    26  H    0.002541   0.001029   0.106996  -0.002940  -0.024331   0.000098
    27  H    0.000062   0.000009   0.004715  -0.000033  -0.001043  -0.000001
    28  O   -0.000002  -0.000440  -0.000421   0.004675  -0.000019   0.000005
    29  H    0.000000   0.000009  -0.000034  -0.000243   0.000001  -0.000000
    30  H   -0.000005   0.003973   0.002564  -0.014722  -0.000179  -0.000149
               7          8          9         10         11         12
     1  C    0.001226  -0.047998   0.000829  -0.046355   0.371631  -0.029756
     2  C   -0.073761  -0.035413   0.341906   0.000213   0.001629  -0.006005
     3  O   -0.023332   0.000279   0.000908  -0.043855   0.002562  -0.029164
     4  C    0.366857  -0.004337  -0.033663   0.002605   0.000359  -0.001975
     5  C   -0.000133   0.003161  -0.003103   0.331495  -0.048901   0.257657
     6  C   -0.000430   0.345886  -0.043587   0.007430  -0.046177  -0.007092
     7  H    0.644166   0.003664   0.007347  -0.000207   0.000006   0.000093
     8  H    0.003664   0.611444   0.007018  -0.000487   0.003948   0.000125
     9  H    0.007347   0.007018   0.589104  -0.000048   0.000046  -0.001448
    10  H   -0.000207  -0.000487  -0.000048   0.707173  -0.002518  -0.060886
    11  H    0.000006   0.003948   0.000046  -0.002518   0.586301  -0.002141
    12  C    0.000093   0.000125  -0.001448  -0.060886  -0.002141   5.237771
    13  H    0.000028   0.000010   0.000431  -0.006215   0.000244   0.375089
    14  H    0.000005  -0.000002   0.009886   0.007194   0.000151   0.358334
    15  O   -0.064499  -0.000078   0.003218  -0.000159   0.000001   0.001408
    16  O    0.000001  -0.000004   0.000095   0.006051   0.013102   0.191945
    17  H   -0.000000   0.000000   0.000002   0.004937  -0.000327  -0.038218
    18  O    0.002712   0.001827  -0.038505   0.000003  -0.000049   0.000096
    19  H   -0.000494  -0.000950  -0.002718   0.000000  -0.000009  -0.000014
    20  O   -0.000101  -0.042986  -0.001324  -0.000140   0.002119   0.001082
    21  H    0.000010  -0.004551  -0.000103   0.000007   0.003070  -0.000044
    22  O    0.000059   0.003400  -0.000074  -0.008245  -0.040757   0.003910
    23  H   -0.000001  -0.000033   0.000011   0.011259  -0.002435  -0.000122
    24  O   -0.000061  -0.000000   0.000000   0.002814   0.000001  -0.118422
    25  H    0.000068   0.000000   0.000018  -0.000110   0.000000   0.004149
    26  H    0.000484   0.000006  -0.000021  -0.003350  -0.000121  -0.002076
    27  H    0.000004  -0.000000   0.000001   0.000283   0.000001   0.007262
    28  O    0.000039  -0.000000  -0.000006   0.000010  -0.000000  -0.000651
    29  H    0.000043   0.000000   0.000002  -0.000001   0.000000   0.000017
    30  H   -0.002496   0.000001  -0.000136   0.000008  -0.000000  -0.000001
              13         14         15         16         17         18
     1  C    0.003352  -0.006915   0.000046  -0.003513  -0.000412   0.004307
     2  C    0.000149  -0.001653  -0.058970  -0.000009  -0.000003   0.215938
     3  O    0.004050   0.002522  -0.047511   0.001552  -0.000025   0.000685
     4  C   -0.000454   0.000992   0.373709   0.000040   0.000000  -0.043976
     5  C   -0.034156  -0.053124   0.001735  -0.047624  -0.002443  -0.000197
     6  C   -0.000120   0.001273   0.004530   0.000178  -0.000009  -0.032457
     7  H    0.000028   0.000005  -0.064499   0.000001  -0.000000   0.002712
     8  H    0.000010  -0.000002  -0.000078  -0.000004   0.000000   0.001827
     9  H    0.000431   0.009886   0.003218   0.000095   0.000002  -0.038505
    10  H   -0.006215   0.007194  -0.000159   0.006051   0.004937   0.000003
    11  H    0.000244   0.000151   0.000001   0.013102  -0.000327  -0.000049
    12  C    0.375089   0.358334   0.001408   0.191945  -0.038218   0.000096
    13  H    0.461629  -0.026850   0.000182  -0.012122  -0.007914  -0.000005
    14  H   -0.026850   0.572829  -0.000165  -0.032748   0.007465  -0.000003
    15  O    0.000182  -0.000165   8.390159   0.000001  -0.000000  -0.002500
    16  O   -0.012122  -0.032748   0.000001   8.278317   0.234053  -0.000000
    17  H   -0.007914   0.007465  -0.000000   0.234053   0.418869   0.000000
    18  O   -0.000005  -0.000003  -0.002500  -0.000000   0.000000   8.310726
    19  H   -0.000000  -0.000007   0.000158  -0.000000  -0.000000   0.232195
    20  O    0.000012   0.000426  -0.000015  -0.000028  -0.000000  -0.002777
    21  H   -0.000001  -0.000012   0.000001  -0.000007   0.000000  -0.000026
    22  O   -0.000059  -0.000022   0.000002  -0.000028  -0.000007  -0.000015
    23  H   -0.000011   0.000019  -0.000000  -0.000011  -0.000004   0.000002
    24  O   -0.006814   0.003463  -0.001765   0.000858   0.001143   0.000000
    25  H    0.003998  -0.000334   0.005430  -0.000027  -0.000024  -0.000000
    26  H   -0.008271   0.000248   0.006661  -0.000132  -0.000034  -0.000012
    27  H    0.003519  -0.000073   0.000047  -0.000235  -0.000092  -0.000000
    28  O   -0.000168   0.000075  -0.104354   0.000000   0.000001  -0.000000
    29  H    0.000009  -0.000002   0.004651   0.000000  -0.000000   0.000000
    30  H    0.000045  -0.000017   0.110496  -0.000000  -0.000000  -0.000038
              19         20         21         22         23         24
     1  C    0.000689  -0.037145  -0.002219   0.188481  -0.023066  -0.000134
     2  C   -0.029409  -0.032198   0.005266   0.000333  -0.000271  -0.000416
     3  O   -0.000050   0.000022   0.000003   0.000327  -0.000207  -0.112047
     4  C    0.007176   0.002042  -0.000193   0.001564   0.000006   0.002415
     5  C   -0.000029   0.002679   0.000281  -0.024418  -0.007903   0.016333
     6  C   -0.007343   0.194651  -0.022649  -0.033250   0.006526   0.000005
     7  H   -0.000494  -0.000101   0.000010   0.000059  -0.000001  -0.000061
     8  H   -0.000950  -0.042986  -0.004551   0.003400  -0.000033  -0.000000
     9  H   -0.002718  -0.001324  -0.000103  -0.000074   0.000011   0.000000
    10  H    0.000000  -0.000140   0.000007  -0.008245   0.011259   0.002814
    11  H   -0.000009   0.002119   0.003070  -0.040757  -0.002435   0.000001
    12  C   -0.000014   0.001082  -0.000044   0.003910  -0.000122  -0.118422
    13  H   -0.000000   0.000012  -0.000001  -0.000059  -0.000011  -0.006814
    14  H   -0.000007   0.000426  -0.000012  -0.000022   0.000019   0.003463
    15  O    0.000158  -0.000015   0.000001   0.000002  -0.000000  -0.001765
    16  O   -0.000000  -0.000028  -0.000007  -0.000028  -0.000011   0.000858
    17  H   -0.000000  -0.000000   0.000000  -0.000007  -0.000004   0.001143
    18  O    0.232195  -0.002777  -0.000026  -0.000015   0.000002   0.000000
    19  H    0.383640   0.015833  -0.000684  -0.000007   0.000001  -0.000000
    20  O    0.015833   8.316048   0.233865   0.001195  -0.000151   0.000000
    21  H   -0.000684   0.233865   0.387539   0.000297  -0.000070   0.000000
    22  O   -0.000007   0.001195   0.000297   8.327265   0.227704   0.000000
    23  H    0.000001  -0.000151  -0.000070   0.227704   0.400979   0.000002
    24  O   -0.000000   0.000000   0.000000   0.000000   0.000002   8.693368
    25  H   -0.000000   0.000000  -0.000000  -0.000000  -0.000000   0.104055
    26  H    0.000000   0.000000   0.000000  -0.000055  -0.000060   0.121864
    27  H    0.000000  -0.000000  -0.000000  -0.000001  -0.000001   0.203239
    28  O    0.000000  -0.000000   0.000000   0.000000  -0.000000  -0.116602
    29  H   -0.000000   0.000000  -0.000000  -0.000000   0.000000   0.003865
    30  H    0.000013   0.000000  -0.000000   0.000000   0.000000   0.003415
              25         26         27         28         29         30
     1  C    0.000012   0.002541   0.000062  -0.000002   0.000000  -0.000005
     2  C    0.000104   0.001029   0.000009  -0.000440   0.000009   0.003973
     3  O    0.004051   0.106996   0.004715  -0.000421  -0.000034   0.002564
     4  C   -0.000630  -0.002940  -0.000033   0.004675  -0.000243  -0.014722
     5  C   -0.000466  -0.024331  -0.001043  -0.000019   0.000001  -0.000179
     6  C   -0.000002   0.000098  -0.000001   0.000005  -0.000000  -0.000149
     7  H    0.000068   0.000484   0.000004   0.000039   0.000043  -0.002496
     8  H    0.000000   0.000006  -0.000000  -0.000000   0.000000   0.000001
     9  H    0.000018  -0.000021   0.000001  -0.000006   0.000002  -0.000136
    10  H   -0.000110  -0.003350   0.000283   0.000010  -0.000001   0.000008
    11  H    0.000000  -0.000121   0.000001  -0.000000   0.000000  -0.000000
    12  C    0.004149  -0.002076   0.007262  -0.000651   0.000017  -0.000001
    13  H    0.003998  -0.008271   0.003519  -0.000168   0.000009   0.000045
    14  H   -0.000334   0.000248  -0.000073   0.000075  -0.000002  -0.000017
    15  O    0.005430   0.006661   0.000047  -0.104354   0.004651   0.110496
    16  O   -0.000027  -0.000132  -0.000235   0.000000   0.000000  -0.000000
    17  H   -0.000024  -0.000034  -0.000092   0.000001  -0.000000  -0.000000
    18  O   -0.000000  -0.000012  -0.000000  -0.000000   0.000000  -0.000038
    19  H   -0.000000   0.000000   0.000000   0.000000  -0.000000   0.000013
    20  O    0.000000   0.000000  -0.000000  -0.000000   0.000000   0.000000
    21  H   -0.000000   0.000000  -0.000000   0.000000  -0.000000  -0.000000
    22  O   -0.000000  -0.000055  -0.000001   0.000000  -0.000000   0.000000
    23  H   -0.000000  -0.000060  -0.000001  -0.000000   0.000000   0.000000
    24  O    0.104055   0.121864   0.203239  -0.116602   0.003865   0.003415
    25  H    0.312501  -0.004019   0.004016   0.125003  -0.000466  -0.008525
    26  H   -0.004019   0.339532  -0.001239   0.006120  -0.000038  -0.000352
    27  H    0.004016  -0.001239   0.383471   0.003492  -0.000322  -0.000153
    28  O    0.125003   0.006120   0.003492   8.556546   0.224690   0.136510
    29  H   -0.000466  -0.000038  -0.000322   0.224690   0.378152  -0.005286
    30  H   -0.008525  -0.000352  -0.000153   0.136510  -0.005286   0.309727
 Mulliken charges:
               1
     1  C    0.136390
     2  C    0.086632
     3  O   -0.636579
     4  C    0.368811
     5  C    0.075972
     6  C    0.090915
     7  H    0.138702
     8  H    0.156071
     9  H    0.163914
    10  H    0.091095
    11  H    0.158266
    12  C   -0.140924
    13  H    0.250414
    14  H    0.157048
    15  O   -0.622419
    16  O   -0.629705
    17  H    0.383043
    18  O   -0.647926
    19  H    0.402010
    20  O   -0.653107
    21  H    0.400219
    22  O   -0.647601
    23  H    0.387837
    24  O   -0.800577
    25  H    0.451197
    26  H    0.461471
    27  H    0.393069
    28  O   -0.834502
    29  H    0.394954
    30  H    0.465308
 Sum of Mulliken charges =  -0.00000
 Mulliken charges with hydrogens summed into heavy atoms:
               1
     1  C    0.294656
     2  C    0.250546
     3  O   -0.175108
     4  C    0.507513
     5  C    0.167067
     6  C    0.246987
    12  C    0.266538
    15  O   -0.622419
    16  O   -0.246662
    18  O   -0.245916
    20  O   -0.252888
    22  O   -0.259764
    24  O    0.043689
    28  O    0.025760
 Electronic spatial extent (au):  <R**2>=           2972.3313
 Charge=              0.0000 electrons
 Dipole moment (field-independent basis, Debye):
    X=             -1.8835    Y=              4.3309    Z=              2.8633  Tot=              5.5229
 Quadrupole moment (field-independent basis, Debye-Ang):
   XX=            -64.8499   YY=            -80.4949   ZZ=            -88.9472
   XY=             -6.1326   XZ=             -7.3436   YZ=              5.9498
 Traceless Quadrupole moment (field-independent basis, Debye-Ang):
   XX=             13.2474   YY=             -2.3975   ZZ=            -10.8499
   XY=             -6.1326   XZ=             -7.3436   YZ=              5.9498
 Octapole moment (field-independent basis, Debye-Ang**2):
  XXX=            -52.5458  YYY=             53.2567  ZZZ=              4.3460  XYY=            -19.2733
  XXY=             -0.8779  XXZ=             20.3385  XZZ=            -12.4697  YZZ=             -3.6189
  YYZ=             20.4906  XYZ=             10.4951
 Hexadecapole moment (field-independent basis, Debye-Ang**3):
 XXXX=          -1240.2938 YYYY=          -1168.4472 ZZZZ=           -468.1162 XXXY=             38.7273
 XXXZ=           -136.9299 YYYX=            -67.0134 YYYZ=             42.2478 ZZZX=             -1.0791
 ZZZY=             42.3987 XXYY=           -408.8792 XXZZ=           -393.1750 YYZZ=           -266.5615
 XXYZ=              6.2525 YYXZ=             -3.9162 ZZXY=             -4.1660
 N-N= 1.129565372590D+03 E-N=-4.232958425230D+03  KE= 8.334926691354D+02
 Calling FoFJK, ICntrl=      2127 FMM=F ISym2X=0 I1Cent= 0 IOpClX= 0 NMat=1 NMatS=1 NMatT=0.
 ***** Axes restored to original set *****
 -------------------------------------------------------------------
 Center     Atomic                   Forces (Hartrees/Bohr)
 Number     Number              X              Y              Z
 -------------------------------------------------------------------
      1        6           0.020962519    0.019113072    0.015184318
      2        6           0.009578970    0.048428850   -0.039493890
      3        8           0.008772471    0.034237132   -0.012049817
      4        6           0.019765925   -0.063081404    0.036290281
      5        6          -0.042655078   -0.042507712    0.012491418
      6        6           0.000577942    0.031420565    0.002491087
      7        1          -0.020555136    0.015703300    0.013907754
      8        1          -0.001684255   -0.009396488    0.008567188
      9        1          -0.010744163   -0.006435337    0.003795767
     10        1          -0.007360183   -0.000635231    0.000368589
     11        1           0.001153546   -0.008802379   -0.010406892
     12        6          -0.010361621    0.012156867   -0.025224649
     13        1          -0.004503384    0.032114434   -0.013929732
     14        1           0.001810050    0.006014090   -0.001259454
     15        8           0.011400459   -0.013484140   -0.021594349
     16        8          -0.010756844    0.008450337    0.000831992
     17        1           0.003771819    0.004422449   -0.002107146
     18        8          -0.000803736    0.015085894   -0.001077392
     19        1           0.000576419   -0.004072914    0.003263343
     20        8           0.000143977   -0.002977463   -0.006778660
     21        1           0.004507700   -0.004431848   -0.002362765
     22        8           0.003501968   -0.000182256    0.003427181
     23        1           0.002521695    0.000925945   -0.002431282
     24        8           0.012204192   -0.056572064    0.041803419
     25        1           0.017825338    0.000972835   -0.012671522
     26        1           0.013956824    0.003086327   -0.001222683
     27        1          -0.012724010   -0.009188427    0.006494977
     28        8           0.013048566   -0.004245288    0.003060203
     29        1          -0.002150781   -0.009501209    0.004974219
     30        1          -0.021781190    0.003382064   -0.004341504
 -------------------------------------------------------------------
 Cartesian Forces:  Max     0.063081404 RMS     0.017888238

 GradGradGradGradGradGradGradGradGradGradGradGradGradGradGradGradGradGrad
 Berny optimization.
 FormGI is forming the generalized inverse of G from B-inverse, IUseBI=4.
 Internal  Forces:  Max     0.202939857 RMS     0.030264743
 Search for a local minimum.
 Step number   1 out of a maximum of  180
 All quantities printed in internal units (Hartrees-Bohrs-Radians)
 Mixed Optimization -- RFO/linear search
 Second derivative matrix not updated -- first step.
 ITU=  0
     Eigenvalues ---    0.00230   0.00230   0.00248   0.00257   0.00431
     Eigenvalues ---    0.00504   0.00999   0.01134   0.01141   0.01162
     Eigenvalues ---    0.01196   0.01341   0.01712   0.02326   0.02651
     Eigenvalues ---    0.03075   0.03605   0.04028   0.04246   0.04577
     Eigenvalues ---    0.04665   0.04864   0.04918   0.05246   0.05417
     Eigenvalues ---    0.05657   0.06860   0.07107   0.07427   0.07953
     Eigenvalues ---    0.08001   0.09402   0.09732   0.11212   0.11653
     Eigenvalues ---    0.13191   0.13803   0.13839   0.15529   0.16000
     Eigenvalues ---    0.16000   0.16000   0.16000   0.16248   0.17121
     Eigenvalues ---    0.17740   0.17866   0.18775   0.18886   0.20017
     Eigenvalues ---    0.20540   0.21805   0.21928   0.22904   0.24475
     Eigenvalues ---    0.24505   0.24629   0.24661   0.24665   0.24665
     Eigenvalues ---    0.28331   0.28656   0.29964   0.33668   0.33837
     Eigenvalues ---    0.34128   0.34180   0.34210   0.34518   0.34891
     Eigenvalues ---    0.34956   0.36640   0.39285   0.39288   0.39580
     Eigenvalues ---    0.39934   0.41496   0.51691   0.52192   0.52507
     Eigenvalues ---    0.52609   0.55473   0.55473   0.71787
 RFO step:  Lambda=-2.99216454D-01 EMin= 2.30000000D-03
 Linear search not attempted -- first point.
 Maximum step size (   0.300) exceeded in Quadratic search.
    -- Step size scaled by   0.422
 Iteration  1 RMS(Cart)=  0.18584609 RMS(Int)=  0.00766338
 Iteration  2 RMS(Cart)=  0.01827365 RMS(Int)=  0.00103228
 Iteration  3 RMS(Cart)=  0.00037369 RMS(Int)=  0.00102633
 Iteration  4 RMS(Cart)=  0.00000090 RMS(Int)=  0.00102633
 Variable       Old X    -DE/DX   Delta X   Delta X   Delta X     New X
                                 (Linear)    (Quad)   (Total)
    R1        2.78244   0.01463   0.00000   0.00873   0.01044   2.79289
    R2        2.90468   0.01004   0.00000   0.00644   0.00691   2.91159
    R3        2.06977   0.00023   0.00000   0.00015   0.00015   2.06992
    R4        2.71643   0.00080   0.00000   0.00048   0.00048   2.71691
    R5        2.71832   0.07811   0.00000   0.04701   0.04550   2.76381
    R6        2.87477   0.01677   0.00000   0.01191   0.01065   2.88542
    R7        2.06464   0.00119   0.00000   0.00078   0.00078   2.06542
    R8        2.72532   0.00311   0.00000   0.00190   0.00190   2.72722
    R9        2.75615   0.04313   0.00000   0.02792   0.02914   2.78529
   R10        2.26767   0.03820   0.00000   0.02816   0.02972   2.29739
   R11        2.07027   0.00416   0.00000   0.00274   0.00274   2.07301
   R12        2.41885   0.02753   0.00000   0.01159   0.01022   2.42907
   R13        2.07893   0.00627   0.00000   0.00417   0.00417   2.08310
   R14        2.91419   0.01910   0.00000   0.01388   0.01386   2.92805
   R15        2.07605   0.00041   0.00000   0.00027   0.00027   2.07632
   R16        2.72128   0.00196   0.00000   0.00119   0.00119   2.72247
   R17        2.07115  -0.03234   0.00000  -0.02133  -0.02133   2.04982
   R18        2.05746   0.00361   0.00000   0.00235   0.00235   2.05981
   R19        2.69570   0.01099   0.00000   0.00650   0.00650   2.70220
   R20        2.26767   0.00854   0.00000   0.00738   0.00560   2.27327
   R21        1.84117  -0.00617   0.00000  -0.00316  -0.00316   1.83801
   R22        1.84896  -0.00525   0.00000  -0.00272  -0.00272   1.84625
   R23        1.84416  -0.00658   0.00000  -0.00338  -0.00338   1.84078
   R24        1.84021  -0.00343   0.00000  -0.00175  -0.00175   1.83846
   R25        2.26767   0.00430   0.00000   0.00402   0.00486   2.27253
   R26        2.26767   0.03092   0.00000   0.02230   0.02377   2.29144
   R27        1.81414   0.01654   0.00000   0.00818   0.00818   1.82232
   R28        2.26881  -0.01029   0.00000  -0.00714  -0.00698   2.26183
   R29        1.81414   0.00836   0.00000   0.00413   0.00413   1.81827
   R30        2.26767  -0.00515   0.00000  -0.00257  -0.00411   2.26356
    A1        1.89954   0.02527   0.00000   0.01875   0.02168   1.92123
    A2        1.95638  -0.03231   0.00000  -0.03018  -0.03071   1.92567
    A3        1.94652   0.01820   0.00000   0.01769   0.01662   1.96314
    A4        1.93825   0.00404   0.00000   0.00354   0.00229   1.94054
    A5        1.86749  -0.02568   0.00000  -0.01854  -0.01921   1.84828
    A6        1.85372   0.01024   0.00000   0.00895   0.00961   1.86333
    A7        2.04107  -0.00669   0.00000  -0.00530  -0.00582   2.03525
    A8        1.96035   0.00537   0.00000   0.00649   0.00667   1.96702
    A9        1.76780   0.00290   0.00000  -0.00069  -0.00087   1.76693
   A10        1.94351   0.01328   0.00000   0.01338   0.01313   1.95664
   A11        1.91985  -0.02177   0.00000  -0.02188  -0.02133   1.89852
   A12        1.80780   0.00545   0.00000   0.00606   0.00609   1.81389
   A13        1.65017   0.20294   0.00000   0.18813   0.18871   1.83888
   A14        2.01873  -0.04296   0.00000  -0.03925  -0.03852   1.98021
   A15        1.97952   0.04998   0.00000   0.03806   0.03697   2.01648
   A16        1.87699  -0.00384   0.00000  -0.00031   0.00089   1.87788
   A17        2.05834  -0.03450   0.00000  -0.03488  -0.03177   2.02657
   A18        1.82329   0.02568   0.00000   0.01841   0.01809   1.84139
   A19        2.03059  -0.09852   0.00000  -0.08167  -0.08161   1.94899
   A20        1.75704  -0.00342   0.00000   0.00458   0.00252   1.75956
   A21        1.94849   0.11317   0.00000   0.09559   0.09357   2.04206
   A22        1.79477   0.01102   0.00000   0.01133   0.01069   1.80546
   A23        2.02752   0.03675   0.00000   0.02956   0.03003   2.05756
   A24        1.90969  -0.00643   0.00000  -0.00582  -0.00566   1.90403
   A25        1.93463  -0.01372   0.00000  -0.00848  -0.00876   1.92587
   A26        1.87919  -0.02674   0.00000  -0.02508  -0.02488   1.85431
   A27        1.88038  -0.00512   0.00000  -0.00331  -0.00379   1.87660
   A28        1.82033   0.01266   0.00000   0.01097   0.01095   1.83128
   A29        1.93324   0.02099   0.00000   0.02080   0.02082   1.95407
   A30        1.97780  -0.00416   0.00000  -0.00507  -0.00513   1.97266
   A31        1.92565  -0.01595   0.00000  -0.01331  -0.01333   1.91232
   A32        1.86124  -0.00394   0.00000  -0.00269  -0.00270   1.85855
   A33        1.90086  -0.00027   0.00000  -0.00042  -0.00036   1.90050
   A34        1.86169   0.00318   0.00000   0.00042   0.00033   1.86202
   A35        2.35025  -0.01336   0.00000  -0.00958  -0.01325   2.33699
   A36        1.86915   0.00098   0.00000   0.00090   0.00090   1.87005
   A37        1.83149   0.00048   0.00000   0.00044   0.00044   1.83193
   A38        1.86089   0.00107   0.00000   0.00098   0.00098   1.86188
   A39        1.88731  -0.00211   0.00000  -0.00195  -0.00195   1.88537
   A40        1.64036   0.05550   0.00000   0.05463   0.05763   1.69799
   A41        1.83660   0.01117   0.00000   0.01268   0.01090   1.84750
   A42        1.81985   0.01023   0.00000   0.01546   0.01472   1.83457
   A43        2.67315   0.00942   0.00000   0.01211   0.01446   2.68760
   A44        2.13471  -0.00434   0.00000  -0.00728  -0.00693   2.12778
   A45        1.91228  -0.00603   0.00000  -0.00236  -0.00496   1.90732
   A46        1.91114  -0.00429   0.00000  -0.00950  -0.00892   1.90222
   A47        2.66209   0.09051   0.00000   0.07588   0.07237   2.73447
   A48        2.92091   0.08367   0.00000   0.11151   0.11103   3.03194
   A49        3.02565   0.02752   0.00000   0.03133   0.03332   3.05897
    D1        0.96354  -0.00320   0.00000  -0.00703  -0.00478   0.95875
    D2        2.89538  -0.00677   0.00000  -0.00578  -0.00523   2.89016
    D3       -1.42318  -0.02464   0.00000  -0.01977  -0.02020  -1.44338
    D4        3.11444  -0.00191   0.00000  -0.00957  -0.00757   3.10686
    D5       -1.23690  -0.00548   0.00000  -0.00832  -0.00802  -1.24492
    D6        0.72773  -0.02335   0.00000  -0.02231  -0.02299   0.70473
    D7       -1.09274   0.00172   0.00000  -0.00650  -0.00509  -1.09782
    D8        0.83911  -0.00185   0.00000  -0.00525  -0.00553   0.83358
    D9        2.80373  -0.01972   0.00000  -0.01924  -0.02050   2.78323
   D10       -0.02354  -0.03783   0.00000  -0.04429  -0.04355  -0.06709
   D11       -2.15505  -0.02376   0.00000  -0.02772  -0.02747  -2.18252
   D12        2.13004  -0.02764   0.00000  -0.03285  -0.03253   2.09751
   D13       -2.18525  -0.01722   0.00000  -0.02151  -0.02121  -2.20646
   D14        1.96642  -0.00316   0.00000  -0.00495  -0.00513   1.96129
   D15       -0.03167  -0.00703   0.00000  -0.01008  -0.01020  -0.04187
   D16        2.08211  -0.01684   0.00000  -0.02342  -0.02286   2.05925
   D17       -0.04940  -0.00277   0.00000  -0.00685  -0.00678  -0.05618
   D18       -2.04749  -0.00665   0.00000  -0.01198  -0.01185  -2.05934
   D19       -0.90739   0.01564   0.00000   0.01384   0.01494  -0.89245
   D20       -2.98286  -0.00949   0.00000  -0.00749  -0.00882  -2.99167
   D21        1.22877  -0.00656   0.00000  -0.00689  -0.00667   1.22211
   D22       -1.20480   0.02828   0.00000   0.03240   0.03174  -1.17306
   D23        2.89796   0.02638   0.00000   0.03292   0.03181   2.92977
   D24        2.79968   0.00958   0.00000   0.01105   0.01097   2.81065
   D25        0.61925   0.00768   0.00000   0.01157   0.01104   0.63030
   D26        0.88116  -0.00005   0.00000   0.00215   0.00203   0.88319
   D27       -1.29926  -0.00195   0.00000   0.00267   0.00210  -1.29716
   D28       -0.89987  -0.01601   0.00000  -0.01876  -0.01874  -0.91861
   D29        1.24765  -0.01998   0.00000  -0.02562  -0.02541   1.22224
   D30       -3.08141  -0.02048   0.00000  -0.02643  -0.02619  -3.10760
   D31        1.38666  -0.00104   0.00000  -0.00070  -0.00102   1.38564
   D32       -2.74900  -0.00500   0.00000  -0.00756  -0.00769  -2.75669
   D33       -0.79487  -0.00551   0.00000  -0.00837  -0.00847  -0.80335
   D34       -2.90264   0.00034   0.00000   0.00142   0.00111  -2.90153
   D35       -0.75511  -0.00363   0.00000  -0.00545  -0.00557  -0.76068
   D36        1.19901  -0.00413   0.00000  -0.00625  -0.00635   1.19267
   D37       -3.05697   0.00869   0.00000   0.00894   0.00901  -3.04796
   D38       -0.88651  -0.00816   0.00000  -0.00840  -0.00838  -0.89490
   D39        1.19244  -0.00009   0.00000   0.00007  -0.00002   1.19242
   D40       -3.03227  -0.00541   0.00000  -0.01754  -0.01812  -3.05039
   D41        1.28203  -0.01950   0.00000  -0.02791  -0.02797   1.25406
   D42       -0.61230  -0.06780   0.00000  -0.07458  -0.07596  -0.68825
   D43        2.73179  -0.02993   0.00000  -0.03174  -0.02896   2.70283
   D44       -1.65385  -0.00774   0.00000  -0.01309  -0.01150  -1.66535
   D45       -2.42566  -0.05183   0.00000  -0.06402  -0.06310  -2.48876
   D46        1.60269  -0.02963   0.00000  -0.04057  -0.04059   1.56210
   D47        3.08028  -0.00588   0.00000  -0.00582  -0.00586   3.07442
   D48        0.98936  -0.01296   0.00000  -0.01374  -0.01379   0.97557
   D49       -1.09674  -0.00299   0.00000  -0.00150  -0.00161  -1.09835
   D50        0.64794   0.02880   0.00000   0.03098   0.03146   0.67940
   D51       -1.44298   0.02172   0.00000   0.02305   0.02354  -1.41944
   D52        2.75410   0.03169   0.00000   0.03530   0.03571   2.78982
   D53       -1.22198  -0.01349   0.00000  -0.01420  -0.01458  -1.23656
   D54        2.97028  -0.02056   0.00000  -0.02212  -0.02250   2.94778
   D55        0.88418  -0.01059   0.00000  -0.00988  -0.01032   0.87385
   D56        1.02794  -0.01277   0.00000  -0.01030  -0.01032   1.01762
   D57       -3.01919   0.02090   0.00000   0.01918   0.01920  -2.99999
   D58       -1.02552  -0.00565   0.00000  -0.00551  -0.00551  -1.03103
   D59       -1.57892  -0.00937   0.00000  -0.01020  -0.01020  -1.58912
   D60        0.54652   0.00640   0.00000   0.00690   0.00691   0.55342
   D61        2.54918   0.00332   0.00000   0.00378   0.00376   2.55294
   D62        1.32359  -0.00086   0.00000   0.00140  -0.00065   1.32293
   D63       -1.15607   0.03066   0.00000   0.04496   0.04610  -1.10997
   D64       -3.00551   0.00144   0.00000   0.01030   0.01001  -2.99550
   D65        3.05295   0.01293   0.00000   0.02390   0.02350   3.07645
   D66        0.78254   0.03068   0.00000   0.04850   0.04931   0.83185
   D67       -0.84215  -0.00178   0.00000  -0.00129  -0.00219  -0.84434
   D68        3.05539   0.01346   0.00000   0.01940   0.01938   3.07477
         Item               Value     Threshold  Converged?
 Maximum Force            0.202940     0.000450     NO 
 RMS     Force            0.030265     0.000300     NO 
 Maximum Displacement     0.728113     0.001800     NO 
 RMS     Displacement     0.198560     0.001200     NO 
 Predicted change in Energy=-1.181389D-01
 GradGradGradGradGradGradGradGradGradGradGradGradGradGradGradGradGradGrad

                          Input orientation:                          
 ---------------------------------------------------------------------
 Center     Atomic      Atomic             Coordinates (Angstroms)
 Number     Number       Type             X           Y           Z
 ---------------------------------------------------------------------
      1          6           0       -0.971065    0.852136    0.489228
      2          6           0        1.342430    0.079608   -0.489115
      3          8           0       -0.212976   -1.488693    0.958422
      4          6           0        1.535307   -1.030592    0.443244
      5          6           0       -1.207791   -0.598410    0.333793
      6          6           0        0.436345    1.216083   -0.021305
      7          1           0        2.093653   -0.751331    1.345270
      8          1           0        0.984053    1.737615    0.775726
      9          1           0        1.093176   -0.256075   -1.498958
     10          1           0       -2.096851   -0.819233    0.946931
     11          1           0       -1.743240    1.422473   -0.038282
     12          6           0       -1.664514   -0.952748   -1.103800
     13          1           0       -1.775110   -2.022912   -1.242091
     14          1           0       -0.966700   -0.612450   -1.868890
     15          8           0        2.093235   -2.078147   -0.050334
     16          8           0       -2.916353   -0.318612   -1.378576
     17          1           0       -3.616518   -0.943452   -1.122927
     18          8           0        2.690184    0.580752   -0.612375
     19          1           0        2.610931    1.385368   -1.160848
     20          8           0        0.347725    2.170773   -1.096588
     21          1           0       -0.121632    2.947556   -0.742785
     22          8           0       -1.012097    1.271647    1.863778
     23          1           0       -1.835738    0.934668    2.256888
     24          8           0       -0.838887   -3.680739    0.138270
     25          1           0        0.237139   -4.208185    0.238993
     26          1           0       -0.533115   -2.613227    0.625369
     27          1           0       -1.402721   -4.104804    0.795681
     28          8           0        1.404125   -4.325541    0.000327
     29          1           0        1.946095   -4.995230    0.428802
     30          1           0        1.939896   -3.260119    0.112605
 ---------------------------------------------------------------------
                    Distance matrix (angstroms):
                    1          2          3          4          5
     1  C    0.000000
     2  C    2.627968   0.000000
     3  O    2.504860   2.640875   0.000000
     4  C    3.135073   1.462546   1.879297   0.000000
     5  C    1.477932   2.764148   1.473914   2.779092   0.000000
     6  C    1.540748   1.526897   2.949118   2.543831   2.474200
     7  H    3.563202   2.149364   2.452323   1.096990   3.456299
     8  H    2.165327   2.115950   3.446058   2.842076   3.233651
     9  H    3.072801   1.092975   3.043698   2.137173   2.961524
    10  H    2.066485   3.833902   1.999323   3.673003   1.102329
    11  H    1.095356   3.395276   3.436570   4.122896   2.123467
    12  C    2.505237   3.238103   2.578169   3.555033   1.549459
    13  H    3.451065   3.834921   2.750983   3.844985   2.198742
    14  H    2.775923   2.777554   3.054438   3.432323   2.215882
    15  O    4.274064   2.326401   2.585277   1.285408   3.637850
    16  O    2.939980   4.368862   3.760172   4.862430   2.435093
    17  H    3.580726   5.102895   4.026586   5.385330   2.836027
    18  O    3.833004   1.443183   3.895939   2.245997   4.180893
    19  H    3.979671   1.940445   4.552580   3.093048   4.555433
    20  O    2.448024   2.394041   4.234281   3.745687   3.483388
    21  H    2.574913   3.230008   4.752131   4.469651   3.861688
    22  O    1.437728   3.535656   3.012929   3.715843   2.424100
    23  H    1.969541   4.286305   3.192499   4.302964   2.538294
    24  O    4.548362   4.392262   2.422701   3.571146   3.110478
    25  H    5.208573   4.487425   2.848828   3.438613   3.889382
    26  H    3.495579   3.465704   1.215726   2.610799   2.144689
    27  H    4.985128   5.166804   2.878544   4.266966   3.542053
    28  O    5.717420   4.432685   3.403038   3.327171   4.563421
    29  H    6.534919   5.192395   4.151853   3.985888   5.411844
    30  H    5.052344   3.445694   2.913454   2.289935   4.128142
                    6          7          8          9         10
     6  C    0.000000
     7  H    2.912887   0.000000
     8  H    1.098743   2.783962   0.000000
     9  H    2.186810   3.055465   3.026697   0.000000
    10  H    3.390734   4.209942   4.007337   4.059039   0.000000
    11  H    2.189401   4.621838   2.863573   3.605046   2.474052
    12  C    3.207683   4.490248   4.217295   2.871647   2.100057
    13  H    4.107547   4.824798   5.081941   3.378573   2.518765
    14  H    2.953920   4.440256   4.040079   2.122956   3.041192
    15  O    3.687558   1.925656   4.058657   2.533491   4.487341
    16  O    3.929130   5.718981   4.907367   4.011823   2.515986
    17  H    4.722591   6.223741   5.653163   4.774422   2.570823
    18  O    2.415119   2.441857   2.485164   2.009165   5.225619
    19  H    2.460902   3.333720   2.553651   2.261025   5.609475
    20  O    1.440667   4.189227   2.024377   2.570445   4.369446
    21  H    1.957005   4.790535   2.234362   3.508676   4.576607
    22  O    2.377942   3.742589   2.320689   4.251365   2.527663
    23  H    3.229817   4.371927   3.284780   4.909459   2.204617
    24  O    5.062662   4.317183   5.752218   4.259308   3.228719
    25  H    5.434163   4.076804   6.016519   4.401415   4.175367
    26  H    4.002706   3.299215   4.610231   3.565635   2.401476
    27  H    5.688715   4.875701   6.311176   5.129093   3.361499
    28  O    5.625537   3.880631   6.126953   4.347999   5.044511
    29  H    6.407991   4.344233   6.810072   5.186841   5.835479
    30  H    4.723874   2.799486   5.131346   3.512600   4.790549
                   11         12         13         14         15
    11  H    0.000000
    12  C    2.604458   0.000000
    13  H    3.649775   1.084716   0.000000
    14  H    2.845181   1.090005   1.742357   0.000000
    15  O    5.193557   4.061649   4.048139   3.849496   0.000000
    16  O    2.490775   1.429941   2.055652   2.031723   5.473223
    17  H    3.206747   1.952120   2.137807   2.772644   5.919398
    18  O    4.548992   4.642899   5.207154   4.046648   2.782441
    19  H    4.496703   4.873342   5.555207   4.158370   3.673852
    20  O    2.460102   3.715580   4.702616   3.173404   4.711133
    21  H    2.334912   4.209891   5.262020   3.828302   5.535596
    22  O    2.043319   3.765647   4.591594   4.181470   4.952579
    23  H    2.348257   3.858222   4.581900   4.491196   5.462340
    24  O    5.185731   3.109073   2.351658   3.668709   3.346821
    25  H    5.975207   4.002156   3.319363   4.338400   2.840047
    26  H    4.265174   2.650901   2.319143   3.226830   2.764164
    27  H    5.600201   3.689448   2.936914   4.414362   4.128534
    28  O    6.553401   4.691628   4.117430   4.785585   2.351216
    29  H    7.417296   5.632675   5.047169   5.742170   2.959830
    30  H    5.959441   4.449200   4.143326   4.402815   1.202963
                   16         17         18         19         20
    16  O    0.000000
    17  H    0.972631   0.000000
    18  O    5.729675   6.508329   0.000000
    19  H    5.788076   6.648756   0.976991   0.000000
    20  O    4.114701   5.041261   2.872236   2.396474   0.000000
    21  H    4.345405   5.243918   3.677646   3.175234   0.974098
    22  O    4.082643   4.539833   4.507278   4.720978   3.379543
    23  H    3.994376   4.256955   5.370465   5.626448   4.188230
    24  O    4.233271   4.098608   5.583736   6.265332   6.096975
    25  H    5.262112   5.231059   5.447585   6.235566   6.518214
    26  H    3.867929   3.918170   4.703527   5.391137   5.160200
    27  H    4.621009   4.310000   6.378787   7.076680   6.784365
    28  O    6.051725   6.156872   5.108919   5.951402   6.672428
    29  H    6.984323   7.054603   5.720952   6.609162   7.498880
    30  H    5.870200   6.145504   3.980053   4.863386   5.787205
                   21         22         23         24         25
    21  H    0.000000
    22  O    3.224247   0.000000
    23  H    3.998488   0.972869   0.000000
    24  O    6.724954   5.247238   5.175349   0.000000
    25  H    7.231683   5.850562   5.900649   1.202571   0.000000
    26  H    5.741382   4.105524   4.116581   1.212577   1.812863
    27  H    7.331020   5.495420   5.264875   0.964329   1.734857
    28  O    7.468473   6.374880   6.577125   2.337926   1.196908
    29  H    8.290715   7.076991   7.266901   3.093286   1.891030
    30  H    6.596728   5.684872   6.037350   2.810554   1.952994
                   26         27         28         29         30
    26  H    0.000000
    27  H    1.734942   0.000000
    28  O    2.659999   2.925696   0.000000
    29  H    3.443698   3.484541   0.962188   0.000000
    30  H    2.607140   3.514708   1.197823   1.763697   0.000000
 Stoichiometry    C6H16O8
 Framework group  C1[X(C6H16O8)]
 Deg. of freedom    84
 Full point group                 C1      NOp   1
 Largest Abelian subgroup         C1      NOp   1
 Largest concise Abelian subgroup C1      NOp   1
                         Standard orientation:                         
 ---------------------------------------------------------------------
 Center     Atomic      Atomic             Coordinates (Angstroms)
 Number     Number       Type             X           Y           Z
 ---------------------------------------------------------------------
      1          6           0        1.724482    0.628138    0.610772
      2          6           0        0.481024   -1.438780   -0.432243
      3          8           0       -0.750153    0.443388    0.951906
      4          6           0       -0.690306   -1.363956    0.440355
      5          6           0        0.380516    1.199948    0.384783
      6          6           0        1.772948   -0.825742    0.103044
      7          1           0       -0.597600   -1.971786    1.348835
      8          1           0        2.108741   -1.480401    0.919072
      9          1           0        0.266410   -1.118110   -1.454840
     10          1           0        0.343605    2.116416    0.996217
     11          1           0        2.487184    1.243797    0.121840
     12          6           0        0.218868    1.726353   -1.063523
[...]
 57,-0.00033077,0.00004616,-0.00003044,-0.00013208,0.00011434,-0.001131
 93,0.00284734,0.00330758,0.00142438,-0.00015743,0.00071168,-0.00036096
 ,-0.00010063,-0.00004635,-0.00080375,-0.00036913,-0.00027841,0.0001603
 7,0.00002884,0.00000243,-0.00022112,-0.00091372,0.00015256,0.00006518,
 0.00024187,0.00001251,0.00058545,-0.00157946,0.00047731,-0.00024865,0.
 00020714,-0.00021584,0.00686761,0.52128236,0.00010079,-0.00007357,0.00
 003434,-0.00025733,-0.00015998,-0.00022020,0.00024190,0.00623134,0.002
 98841,-0.00026169,-0.00118382,-0.00177072,0.00104055,-0.00071155,-0.00
 027646,0.00011141,-0.00017614,-0.00020559,0.00005901,-0.00010298,-0.00
 009004,-0.00002265,0.00003428,0.00007736,0.00001808,-0.00000727,0.0000
 7345,-0.00024192,0.00035436,0.00012947,0.00001125,-0.00006479,0.000102
 10,-0.00008918,-0.00070298,0.00014406,0.00033179,0.00021438,-0.0005837
 7,0.00007031,-0.00016272,0.00027018,0.00031209,0.00280894,0.00112837,-
 0.00058393,0.00063807,-0.00005003,0.00004491,0.00006319,-0.00012752,0.
 00018650,0.00022966,0.00039405,0.00001256,-0.00001678,-0.00005846,-0.0
 0002015,0.00026197,0.00008962,-0.00001009,-0.00004770,-0.00004530,-0.0
 0022379,0.00031759,0.00008373,0.00004519,-0.00010422,-0.00003408,0.184
 21778,-0.12158472,0.46096143,0.00013124,0.00007193,-0.00027906,-0.0002
 9586,-0.00011979,0.00022313,-0.00214111,-0.00155241,0.00147744,0.00253
 842,-0.00130206,-0.00288789,0.00010525,-0.00000905,0.00025975,0.000310
 69,0.00000220,-0.00001965,-0.00034207,-0.00005472,-0.00020791,-0.00003
 444,0.00003282,0.00004932,-0.00005965,-0.00010708,0.00007903,-0.000129
 22,0.00005403,-0.00001769,0.00002724,-0.00005370,0.00009020,-0.0000214
 1,0.00096291,-0.00051112,-0.00045502,-0.00012070,0.00026707,0.00012862
 ,0.00008189,-0.00004023,-0.00095536,0.00403866,0.00155056,0.00014250,-
 0.00064711,0.00011433,-0.00002826,0.00014912,0.00002066,-0.00011790,0.
 00019953,0.00015730,0.00006374,-0.00001206,-0.00004059,-0.00023276,0.0
 0000974,0.00001454,0.00004783,0.00006525,0.00000549,-0.00022115,-0.000
 16268,0.00009239,0.00006073,0.00017364,-0.00003794,-0.00984297,0.00253
 598,-0.00183958,0.15663401,-0.00002017,-0.00020899,0.00014524,-0.00036
 587,-0.00007241,-0.00025762,-0.00008888,0.00176178,0.00005481,-0.00100
 594,-0.00190967,0.00117287,0.00101591,-0.00066165,0.00002585,0.0000442
 7,-0.00020755,-0.00002211,-0.00042416,0.00002069,-0.00026467,-0.000003
 23,0.00000095,-0.00001564,0.00003872,0.00010703,-0.00001539,-0.0001240
 0,0.00007072,0.00003183,0.00001820,0.00001445,-0.00001854,0.00038120,-
 0.00027383,0.00010670,0.00015031,0.00010612,-0.00007814,0.00004647,-0.
 00005201,0.00016059,0.00139461,-0.00211309,-0.00204715,-0.00055192,0.0
 0024735,-0.00016152,0.00009621,0.00004337,0.00000785,0.00021279,0.0000
 8261,0.00006934,-0.00006433,-0.00000464,-0.00001413,0.00002324,0.00033
 229,-0.00005385,-0.00001279,-0.00006168,0.00000528,-0.00015762,0.00035
 748,-0.00009507,0.00004942,-0.00009648,0.00005762,0.00065609,-0.010284
 26,0.00383179,-0.00038459,0.04117580,-0.00032680,-0.00012807,0.0002914
 7,0.00018893,0.00000661,-0.00031959,0.00181051,0.00312961,-0.00313646,
 -0.00237999,0.00108561,0.00547466,0.00108077,-0.00008846,0.00019613,-0
 .00017912,-0.00012405,0.00010060,-0.00016247,0.00013727,-0.00007362,0.
 00002880,-0.00005369,-0.00009085,0.00009628,0.00023282,-0.00013728,0.0
 0001467,-0.00015888,-0.00009065,0.00000186,0.00011359,-0.00016266,-0.0
 0024761,-0.00047407,0.00078387,0.00036517,0.00012208,0.00031711,-0.000
 06782,0.00027828,-0.00031649,0.00027886,-0.00565960,-0.00273943,-0.000
 11867,0.00015565,-0.00038037,0.00010822,-0.00012219,0.00004537,0.00007
 688,-0.00016871,-0.00029373,-0.00008613,0.00001360,0.00004639,0.000132
 40,0.00009766,-0.00010810,-0.00002309,-0.00004818,0.00002827,0.0000672
 1,0.00028188,-0.00023148,0.00000109,-0.00007269,0.00009454,-0.00259727
 ,0.00481762,0.00040271,-0.16137200,-0.03941918,0.32125494,-0.00106689,
 -0.00004026,-0.00011457,-0.00062966,-0.00002807,0.00038149,-0.01111275
 ,0.00076429,0.00036300,0.00023716,-0.00419634,0.00180584,0.00405886,0.
 00320965,-0.00117031,0.00023644,-0.00017915,0.00009554,-0.00106470,-0.
 00007361,-0.00009638,-0.00000603,-0.00000951,-0.00000541,-0.00003352,-
 0.00003763,-0.00001692,-0.00041173,0.00034118,0.00020172,0.00008149,0.
 00000838,-0.00003216,0.00047813,0.00276370,-0.00109464,-0.00173029,-0.
 00095304,-0.00042659,0.00003159,-0.00030738,0.00020069,-0.00052501,0.0
 0036554,-0.00074522,0.00009052,-0.00143340,0.00033834,-0.00010658,0.00
 032601,0.00000054,-0.00004479,0.00013421,-0.00005420,-0.00000291,0.000
 00450,-0.00004231,-0.00022312,0.00013044,-0.00007873,0.00003804,0.0000
 4460,0.00001406,-0.00043086,0.00046625,-0.00018559,0.00017318,0.000257
 77,0.00002822,-0.02621511,-0.06357631,-0.01020505,0.00105556,0.0041396
 2,0.00070325,0.03670723,-0.00156379,-0.00094200,0.00041572,0.00087681,
 -0.00070420,-0.00198242,0.00307064,-0.00139248,-0.00550503,-0.01226181
 ,0.00482140,0.00828118,0.01033030,-0.00249735,0.00048480,-0.00021230,-
 0.00149601,0.00009134,0.00100306,0.00004171,0.00000826,-0.00000091,-0.
 00005421,-0.00010199,0.00041753,0.00079897,-0.00014368,-0.00072355,0.0
 0013916,0.00015331,0.00016201,0.00026712,-0.00027656,0.00130194,0.0021
 4857,0.00062034,-0.00053996,-0.00014816,0.00018668,-0.00001197,0.00004
 095,-0.00015050,0.00171872,-0.00372297,-0.00483481,-0.00182036,-0.0007
 5380,-0.00087620,0.00040566,0.00031969,0.00004454,0.00103428,0.0004948
 4,0.00046847,-0.00017131,-0.00004377,-0.00001039,0.00023395,0.00112183
 ,-0.00017304,-0.00006415,-0.00028699,-0.00002063,-0.00088207,0.0020502
 6,-0.00064195,0.00037078,-0.00011687,0.00027958,-0.03622270,-0.4205373
 4,0.04458236,0.00370926,-0.00315709,-0.00893967,0.03670143,0.42686104,
 0.00012681,0.00029720,-0.00023208,0.00017335,0.00015713,0.00076265,-0.
 00034364,-0.00468552,-0.00372859,0.00385492,0.00182462,-0.00205320,-0.
 00322566,0.00214789,-0.00026284,-0.00000642,0.00043158,0.00021619,-0.0
 0025816,0.00002320,0.00015993,0.00001290,-0.00000330,-0.00002525,-0.00
 013264,-0.00020807,-0.00000476,0.00045118,-0.00045346,-0.00008268,-0.0
 0003477,-0.00002462,-0.00001420,-0.00062871,0.00077693,-0.00058731,-0.
 00053807,-0.00021410,0.00033239,-0.00009327,0.00012916,-0.00029535,-0.
 00104058,-0.00007231,0.00063647,0.00103663,-0.00062749,0.00031650,-0.0
 0012395,-0.00008997,0.00010033,-0.00037899,-0.00017779,-0.00040444,0.0
 0005403,0.00001519,0.00003999,-0.00007951,-0.00046858,-0.00004341,0.00
 003304,0.00010917,0.00004024,0.00032212,-0.00071905,0.00008849,-0.0000
 8366,0.00016509,-0.00004241,-0.01646627,-0.00754070,-0.05255384,-0.001
 26589,-0.00674458,0.00310356,0.01303852,-0.03149939,0.06185506,0.00006
 033,-0.00000028,0.00005759,-0.00007108,-0.00001605,0.00003283,-0.00053
 044,-0.00065472,0.00012366,0.00081129,-0.00015075,0.00031433,0.0001493
 5,-0.00012372,-0.00021735,0.00007215,-0.00002961,-0.00003440,-0.000256
 62,0.00000950,-0.00001956,0.00000087,0.00000532,0.00001172,-0.00000979
 ,0.00001393,-0.00000748,-0.00006893,0.00009431,0.00004994,-0.00000522,
 -0.00002160,0.00001891,-0.00018562,-0.00022592,0.00016618,0.00037415,0
 .00001768,-0.00003762,0.00002667,0.00000721,0.00002155,-0.00025432,-0.
 00001283,-0.00018767,-0.00018380,0.00014336,-0.00006220,0.00002791,0.0
 0002949,-0.00004795,-0.00005679,0.00006116,-0.00002847,0.00000677,-0.0
 0000555,-0.00001766,-0.00005611,0.00007102,-0.00000632,0.00001208,0.00
 000129,-0.00000007,-0.00009744,0.00004303,0.00001466,0.00001915,-0.000
 00464,-0.00001134,-0.08781800,0.05587874,-0.18522879,0.00324356,-0.002
 18858,-0.00150017,0.00090998,-0.00447647,0.00399688,0.08637849,0.00005
 920,-0.00011632,0.00000242,-0.00016190,-0.00004082,0.00009878,-0.00120
 994,-0.00220988,-0.00058979,0.00022271,-0.00030637,0.00033009,0.000105
 44,0.00008206,0.00001416,0.00000908,-0.00009755,0.00007689,-0.00024467
 ,0.00002659,0.00002213,0.00000427,-0.00000857,-0.00002835,-0.00000059,
 0.00000668,-0.00001480,0.00003669,-0.00006329,-0.00000571,0.00000217,0
 .00001924,-0.00001474,0.00015440,0.00015131,0.00002427,0.00013898,-0.0
 0020174,0.00007200,-0.00000027,-0.00001035,-0.00000194,-0.00004674,0.0
 0003510,-0.00029574,-0.00015248,-0.00004556,-0.00005937,0.00005374,0.0
 0001368,0.00003149,0.00008174,0.00005278,-0.00005631,-0.00003981,-0.00
 000236,-0.00000420,0.00000518,0.00015761,-0.00006418,0.00000149,-0.000
 03019,0.00001244,-0.00007856,0.00009876,-0.00004090,0.00002682,-0.0000
 2542,0.00002949,0.02951714,-0.07467461,0.07088946,-0.00386254,0.001449
 06,0.00215779,0.02259296,-0.00624055,0.04547567,-0.04926978,0.08244752
 ,0.00001233,0.00004938,-0.00000973,0.00011831,0.00004690,0.00008977,0.
 00009696,-0.00098564,0.00047267,-0.00012048,0.00017688,-0.00034718,-0.
 00040973,0.00026084,0.00000767,-0.00005342,0.00005570,0.00004563,0.000
 21799,0.00003479,0.00003962,0.00000730,-0.00000549,-0.00001383,-0.0000
 1135,-0.00003104,-0.00000435,0.00006470,-0.00002614,-0.00001663,-0.000
 00902,0.00000020,-0.00000806,0.00004018,-0.00005886,0.00000446,-0.0002
 8178,0.00011731,-0.00023804,-0.00001865,-0.00002427,0.00000769,0.00009
 996,-0.00007470,0.00017756,0.00010559,0.00000665,0.00005438,-0.0000273
 2,-0.00000596,0.00000927,-0.00003897,-0.00005827,-0.00007013,0.0000053
 5,0.00000275,0.00002487,0.00002264,-0.00009423,-0.00000874,-0.00000068
 ,0.00001089,0.00000735,0.00007401,-0.00009760,0.00000587,-0.00001963,0
 .00001261,-0.00000218,-0.17517858,0.12098777,-0.39309119,-0.00325192,0
 .00146489,-0.00154607,-0.00329314,-0.00497895,-0.00455929,0.18003871,-
 0.11616387,0.39931510,-0.00011023,-0.00011093,0.00023669,0.00013918,0.
 00019960,-0.00003139,0.00190490,0.00130070,-0.00080038,-0.00273932,0.0
 0073885,0.00191600,-0.00018864,-0.00009299,-0.00026656,-0.00030924,0.0
 0000967,0.00001678,0.00035891,0.00037251,0.00075817,0.00003711,-0.0000
 2422,-0.00003970,0.00003765,0.00008384,-0.00004782,0.00013842,0.000000
 83,0.00006112,-0.00003499,0.00002656,-0.00006988,0.00027015,-0.0007919
 4,-0.00003837,0.00030133,0.00014772,-0.00023436,-0.00003594,-0.0003084
 1,0.00022534,0.00655048,-0.00079066,-0.00181304,-0.00019705,0.00063429
 ,0.00004663,-0.00000118,-0.00009769,-0.00002320,0.00024579,-0.00016311
 ,-0.00010579,-0.00006448,0.00002569,0.00006009,0.00025121,0.00001700,-
 0.00000281,-0.00005529,-0.00007281,-0.00001503,0.00023184,0.00018083,-
 0.00005961,-0.00006230,-0.00019655,0.00002389,0.00024117,0.00168292,0.
 01209154,-0.12973292,-0.01004908,0.17802109,-0.00073078,-0.00241526,0.
 00060910,-0.00237096,0.00177376,0.00156326,0.55653571,-0.00043266,0.00
 042160,0.00035613,0.00064348,0.00048352,-0.00078916,0.00370425,-0.0005
 0963,-0.00306542,-0.00184185,0.00259031,0.01191914,-0.00176202,0.00110
 910,-0.00009763,-0.00051286,0.00070058,0.00009765,0.00023921,0.0006280
 9,-0.00047252,0.00007340,-0.00010083,-0.00009019,0.00010658,0.00027308
 ,-0.00030606,0.00038559,-0.00015432,-0.00004294,-0.00011242,0.00012936
 ,-0.00028383,-0.00063930,-0.00038581,0.00021644,0.00013513,0.00004834,
 -0.00009675,-0.00030776,-0.00010638,-0.00025707,0.00073734,-0.02641307
 ,-0.00192541,0.00098391,0.00016677,0.00022097,-0.00018839,-0.00018845,
 -0.00004849,-0.00073909,-0.00106078,-0.00081458,-0.00000988,0.00003560
 ,0.00000848,0.00022855,-0.00091042,0.00007749,-0.00002401,0.00010063,-
 0.00000487,0.00080149,-0.00065542,-0.00008124,-0.00022246,0.00001996,-
 0.00007722,0.00032373,0.00715297,-0.00224598,0.00787886,-0.03082708,0.
 03400317,-0.00154302,-0.00163500,0.00255850,0.00054374,-0.00071986,-0.
 00065771,-0.17007255,0.13259728,0.00022892,0.00016112,-0.00035760,0.00
 024808,0.00000452,0.00063201,-0.00105299,-0.00266042,0.00235265,0.0008
 8749,0.00129910,-0.00567303,-0.00103696,0.00032488,-0.00017270,0.00005
 714,0.00014246,-0.00003388,0.00081942,-0.00000379,0.00089948,-0.000018
 12,0.00004185,0.00008340,-0.00008674,-0.00032140,0.00011168,0.00005048
 ,0.00006479,0.00005928,-0.00000688,-0.00008606,0.00014615,-0.00000271,
 0.00042400,-0.00060355,-0.00028084,-0.00011758,-0.00008083,0.00004882,
 -0.00010118,0.00009793,-0.00089723,0.00706233,0.00708796,0.00030478,-0
 .00024146,0.00032690,-0.00010342,0.00007745,-0.00002975,-0.00006512,0.
 00018704,0.00026061,0.00011533,-0.00001521,-0.00001939,-0.00007845,-0.
 00023503,0.00012780,0.00001899,0.00004864,-0.00003932,-0.00000793,-0.0
 0032789,0.00023979,-0.00000691,0.00010090,-0.00010586,0.01167503,-0.00
 557479,-0.01638488,0.12719116,0.05317597,-0.33112824,-0.00070758,0.005
 09726,-0.00187006,0.00165617,-0.00163907,0.00069260,-0.10118807,-0.087
 27590,0.40919707,0.00001081,0.00004217,0.00000152,0.00012199,0.0000252
 3,-0.00001620,-0.00006298,-0.00021883,-0.00002556,0.00034070,0.0001644
 1,0.00040987,-0.00013514,0.00006627,0.00000923,-0.00000526,0.00003297,
 0.00000668,0.00006750,0.00001498,-0.00009330,-0.00000230,-0.00000004,0
 .00000167,-0.00000279,-0.00001486,-0.00000552,0.00000973,-0.00000109,-
 0.00000199,-0.00000449,0.00000335,-0.00000727,-0.00003085,0.00004901,0
 .00000527,-0.00001460,-0.00000943,-0.00001722,-0.00002029,-0.00000105,
 -0.00000889,-0.00068740,-0.00244125,0.00007306,0.00003694,-0.00003392,
 0.00001103,-0.00000588,0.00000999,-0.00000104,-0.00013713,-0.00002380,
 -0.00002905,0.00002052,-0.00000979,-0.00001529,-0.00002139,-0.00005568
 ,0.00000512,0.00000770,0.00001168,0.00000201,0.00000531,-0.00005973,0.
 00000342,-0.00000386,0.00002043,-0.00000743,0.00122094,-0.00101423,0.0
 0031378,-0.02125805,0.01112811,-0.01350336,-0.00007938,0.00037348,-0.0
 0009196,-0.00030069,0.00027086,0.00038775,-0.41728722,0.16480737,-0.04
 124155,0.43703326,0.00007726,-0.00005269,0.00000267,-0.00026053,-0.000
 10543,-0.00017397,-0.00072352,0.00011474,0.00000338,0.00133762,-0.0007
 5843,0.00025343,0.00030020,-0.00013087,0.00010716,0.00014427,-0.000098
 95,-0.00001716,-0.00031428,-0.00018096,-0.00061759,-0.00001955,0.00001
 209,0.00000912,0.00001162,0.00002212,0.00000251,-0.00008163,0.00001770
 ,-0.00001044,0.00001699,-0.00000284,0.00001241,0.00003984,0.00009212,0
 .00008786,-0.00001114,-0.00001974,0.00002318,0.00002500,0.00002990,-0.
 00001941,-0.00240851,-0.00179356,0.00014036,-0.00013806,-0.00006170,-0
 .00008823,0.00004672,0.00001868,0.00001133,-0.00003095,0.00008896,0.00
 007480,-0.00001691,-0.00001590,-0.00004613,-0.00008160,0.00017498,-0.0
 0002727,0.00001300,-0.00000891,0.00000939,-0.00015123,0.00009345,-0.00
 002288,0.00003818,0.00000669,0.00001837,-0.00094311,-0.00038931,0.0008
 1055,-0.00470832,0.00117059,0.00043579,0.00045556,0.00000856,-0.000074
 81,0.00018104,0.00035903,-0.00004004,0.17708053,-0.08262714,0.03612138
 ,-0.17641337,0.08246857,0.00002311,-0.00006939,0.00004667,-0.00019112,
 -0.00001889,0.00007940,-0.00018087,0.00025723,-0.00018856,0.00045073,-
 0.00016959,0.00029304,0.00019387,-0.00013059,0.00002616,0.00005218,-0.
 00007768,-0.00000585,-0.00019088,-0.00006789,-0.00015143,0.00000116,0.
 00000070,-0.00001042,0.00000490,0.00004457,-0.00001365,-0.00003041,0.0
 0001736,0.00000689,0.00000365,-0.00000316,-0.00000218,0.00012672,-0.00
 002885,-0.00001300,0.00001994,0.00000608,-0.00000575,0.00003185,-0.000
 05658,0.00004155,0.00053960,0.00070412,-0.00014388,-0.00016033,0.00005
 749,-0.00004131,0.00002712,0.00000709,0.00000806,0.00008176,0.00007664
 ,-0.00002036,-0.00002736,0.00000560,0.00001499,-0.00001011,0.00014955,
 -0.00004411,-0.00000248,-0.00001796,0.00001143,-0.00006005,0.00011440,
 -0.00003756,0.00001467,-0.00003461,0.00002686,-0.00152124,0.00072848,-
 0.00210676,0.03945900,-0.01708887,0.00987879,0.00026163,-0.00024801,0.
 00027933,0.00086115,-0.00037079,-0.00093333,-0.09271243,0.05546237,-0.
 05738580,0.05478220,-0.03736620,0.05040863,-0.00019374,0.00026141,-0.0
 0079597,0.00227169,-0.00236232,-0.00241341,-0.00050839,-0.00065324,-0.
 00041765,-0.00047455,-0.00655130,-0.00057458,-0.00004199,0.00112567,0.
 00011535,-0.00021040,-0.00062316,-0.00026221,-0.00004056,-0.00128215,0
 .00138504,0.00005222,0.00000473,-0.00000465,0.00000742,0.00008912,-0.0
 0042823,-0.00007989,-0.00017920,-0.00014782,0.00004197,0.00000596,0.00
 040631,-0.00109825,0.00064624,0.00117878,-0.00013289,-0.00011504,0.000
 05492,-0.00062666,0.00055361,-0.00081778,-0.01871390,-0.00750769,-0.00
 449015,0.00072584,-0.00063175,-0.00032189,0.00003362,-0.00009249,0.000
 02026,-0.00053791,-0.00002803,-0.00024900,-0.00003636,-0.00009489,-0.0
 0010177,-0.00004111,-0.00028855,0.00003267,0.00001565,0.00001127,0.000
 01135,-0.00027796,-0.00010328,0.00029973,0.00010335,0.00025201,-0.0000
 2598,-0.00075859,0.00066796,-0.00022529,0.00137881,-0.00395402,-0.0004
 1150,0.00031596,-0.00034325,0.00108266,0.00017303,0.00001065,-0.000140
 35,-0.01332330,-0.00318437,0.00347970,0.00118432,0.00653489,-0.0018479
 4,0.03079258,0.00071355,-0.00067182,-0.00058206,-0.00147889,0.00067145
 ,0.00038533,-0.00612386,-0.00021019,0.00735216,0.00189905,-0.01497365,
 -0.01860041,0.00223194,-0.00171243,-0.00004060,0.00064825,-0.00091412,
 -0.00015886,0.00102059,0.00146613,0.00462115,-0.00006096,0.00010101,0.
 00011940,-0.00012013,-0.00036954,0.00017163,-0.00054752,0.00022456,0.0
 0002048,0.00026508,-0.00028691,0.00039284,0.00069648,0.00090647,-0.000
 62661,-0.00039830,-0.00016838,0.00031926,0.00077616,0.00044857,0.00045
 449,-0.01635664,-0.39249988,0.00306552,-0.00117382,-0.00049152,-0.0001
 5139,0.00018257,0.00027604,0.00005932,0.00123524,0.00102327,0.00106623
 ,0.00002691,0.00002108,-0.00012890,-0.00030287,0.00112774,-0.00008840,
 0.00002696,-0.00009518,-0.00000937,-0.00102307,0.00075272,0.00018025,0
 .00029032,0.00001768,0.00007758,0.00267171,-0.00361122,-0.00392274,-0.
 00686900,0.00299013,0.00838841,-0.00032835,0.00461467,-0.00050761,0.00
 007967,-0.00010597,0.00007519,0.00091091,-0.00016299,-0.00573391,0.003
 27680,0.00156825,-0.00188262,0.01783123,0.40006401,-0.00024882,-0.0002
 1137,-0.00016189,-0.00005775,0.00038709,-0.00559995,-0.00011085,0.0028
 3469,0.00021364,-0.00423901,-0.05056630,-0.00595660,0.00117154,-0.0006
 1658,0.00003379,-0.00050758,-0.00031779,0.00018783,-0.00040487,0.00046
 885,0.00028889,-0.00000935,0.00006469,-0.00001412,-0.00032701,0.000022
 81,0.00031373,-0.00018302,0.00001909,-0.00001678,0.00020041,-0.0001153
 8,0.00014057,0.00009951,-0.00007520,0.00040021,0.00012170,0.00003992,-
 0.00007457,-0.00014590,0.00016800,0.00012303,-0.00190667,0.04384230,-0
 .05285367,-0.00024455,0.00007358,-0.00021419,0.00006226,-0.00001407,0.
 00000087,-0.00043605,-0.00136235,0.00010052,-0.00037664,-0.00005362,-0
 .00023830,0.00025164,0.00001732,-0.00002776,-0.00004441,-0.00009771,0.
 00003210,-0.00008242,0.00034423,0.00000932,0.00005825,-0.00004361,0.00
 005869,-0.00072046,-0.00035376,0.00071958,0.00072012,0.00598584,-0.001
 26338,0.00083594,-0.00033063,-0.00117139,0.00004280,0.00011265,-0.0001
 0574,0.00181873,-0.00628736,-0.00843044,-0.00094693,0.00038043,-0.0000
 1786,0.00560937,0.00568423,0.07352389\\0.00002575,0.00002917,-0.000009
 86,-0.00002798,-0.00001281,-0.00002351,-0.00001461,0.00000641,0.000002
 56,0.00000451,0.,0.00001896,0.00000684,-0.00002634,0.00001388,0.000006
 58,-0.00001742,0.00000030,0.00000180,-0.00000103,0.00000083,0.00000028
 ,-0.00000046,-0.00001030,0.00000380,-0.00000489,-0.00000401,0.00000040
 ,0.00001034,0.00000023,-0.00000386,-0.00000281,-0.00000290,-0.00002962
 ,0.00001958,0.00000006,0.00000067,-0.00000402,0.00000968,0.00000263,0.
 00000516,0.00000064,0.00001804,0.00001149,-0.00003962,0.00001940,-0.00
 002065,-0.00000149,0.00000375,0.00001782,0.00000857,0.00001207,0.00000
 400,0.00001703,0.00000787,-0.00000747,-0.00001577,0.00000482,0.0000072
 5,-0.00001335,0.00001120,0.00000564,-0.00000723,-0.00000243,-0.0000061
 8,-0.00000425,0.00000649,0.00000947,-0.00000205,-0.00001680,0.00002859
 ,0.00001348,-0.00001832,-0.00003816,-0.00000286,0.,-0.00000496,0.00000
 147,0.00000799,-0.00000261,0.00000453,0.00000372,-0.00000682,0.0000124
 6,-0.00000153,0.00000373,0.00000844,-0.00003347,-0.00000203,0.00002409
 \\\@


 STEINBACH'S GUIDELINES FOR SYSTEMS PROGRAMMING:
 NEVER TEST FOR AN ERROR CONDITION YOU DON'T KNOW HOW
 TO HANDLE.
 Job cpu time:       0 days  0 hours 37 minutes 35.4 seconds.
 File lengths (MBytes):  RWF=    220 Int=      0 D2E=      0 Chk=      6 Scr=      1
 Normal termination of Gaussian 09 at Wed Jan 11 00:45:35 2017.
