 Entering Gaussian System, Link 0=g09
 Initial command:
 /global/software/gaussian/g09.e01/l1.exe "/scratch/10450569.yak.local/Gau-15613.inp" -scrdir="/scratch/10450569.yak.local/"
 Entering Link 1 = /global/software/gaussian/g09.e01/l1.exe PID=     15614.
  
 Copyright (c) 1988,1990,1992,1993,1995,1998,2003,2009,2015,
            Gaussian, Inc.  All Rights Reserved.
  
 This is part of the Gaussian(R) 09 program.  It is based on
 the Gaussian(R) 03 system (copyright 2003, Gaussian, Inc.),
 the Gaussian(R) 98 system (copyright 1998, Gaussian, Inc.),
 the Gaussian(R) 94 system (copyright 1995, Gaussian, Inc.),
 the Gaussian 92(TM) system (copyright 1992, Gaussian, Inc.),
 the Gaussian 90(TM) system (copyright 1990, Gaussian, Inc.),
 the Gaussian 88(TM) system (copyright 1988, Gaussian, Inc.),
 the Gaussian 86(TM) system (copyright 1986, Carnegie Mellon
 University), and the Gaussian 82(TM) system (copyright 1983,
 Carnegie Mellon University). Gaussian is a federally registered
 trademark of Gaussian, Inc.
  
 This software contains proprietary and confidential information,
 including trade secrets, belonging to Gaussian, Inc.
  
 This software is provided under written license and may be
 used, copied, transmitted, or stored only in accord with that
 written license.
  
 The following legend is applicable only to US Government
 contracts under FAR:
  
                    RESTRICTED RIGHTS LEGEND
  
 Use, reproduction and disclosure by the US Government is
 subject to restrictions as set forth in subparagraphs (a)
 and (c) of the Commercial Computer Software - Restricted
 Rights clause in FAR 52.227-19.
  
 Gaussian, Inc.
 340 Quinnipiac St., Bldg. 40, Wallingford CT 06492
  
  
 ---------------------------------------------------------------
 Warning -- This program may not be used in any manner that
 competes with the business of Gaussian, Inc. or will provide
 assistance to any competitor of Gaussian, Inc.  The licensee
 of this program is prohibited from giving any competitor of
 Gaussian, Inc. access to this program.  By using this program,
 the user acknowledges that Gaussian, Inc. is engaged in the
 business of creating and licensing software in the field of
 computational chemistry and represents and warrants to the
 licensee that it is not a competitor of Gaussian, Inc. and that
 it will not use this program in any manner prohibited above.
 ---------------------------------------------------------------
  

 Cite this work as:
 Gaussian 09, Revision E.01,
 M. J. Frisch, G. W. Trucks, H. B. Schlegel, G. E. Scuseria, 
 M. A. Robb, J. R. Cheeseman, G. Scalmani, V. Barone, B. Mennucci, 
 G. A. Petersson, H. Nakatsuji, M. Caricato, X. Li, H. P. Hratchian, 
 A. F. Izmaylov, J. Bloino, G. Zheng, J. L. Sonnenberg, M. Hada, 
 M. Ehara, K. Toyota, R. Fukuda, J. Hasegawa, M. Ishida, T. Nakajima, 
 Y. Honda, O. Kitao, H. Nakai, T. Vreven, J. A. Montgomery, Jr., 
 J. E. Peralta, F. Ogliaro, M. Bearpark, J. J. Heyd, E. Brothers, 
 K. N. Kudin, V. N. Staroverov, T. Keith, R. Kobayashi, J. Normand, 
 K. Raghavachari, A. Rendell, J. C. Burant, S. S. Iyengar, J. Tomasi, 
 M. Cossi, N. Rega, J. M. Millam, M. Klene, J. E. Knox, J. B. Cross, 
 V. Bakken, C. Adamo, J. Jaramillo, R. Gomperts, R. E. Stratmann, 
 O. Yazyev, A. J. Austin, R. Cammi, C. Pomelli, J. W. Ochterski, 
 R. L. Martin, K. Morokuma, V. G. Zakrzewski, G. A. Voth, 
 P. Salvador, J. J. Dannenberg, S. Dapprich, A. D. Daniels, 
 O. Farkas, J. B. Foresman, J. V. Ortiz, J. Cioslowski, 
 and D. J. Fox, Gaussian, Inc., Wallingford CT, 2013.
 
 ******************************************
 Gaussian 09:  ES64L-G09RevE.01 30-Nov-2015
                10-Jan-2017 
 ******************************************
 %NPROCS=12
 Will use up to   12 processors via shared memory.
 ----------------------------------------------------------------------
 # opt=(TS,CalcFC,NoEigenTest,MaxCycle=500,cartesian) Freq B3LYP 6-31G(
 d)
 ----------------------------------------------------------------------
 1/5=1,6=500,10=4,11=1,14=-1,18=10,26=3,38=1/1,3;
 2/12=2,17=6,18=5,29=2,40=1/2;
 3/5=1,6=6,7=1,11=2,16=1,25=1,30=1,71=2,74=-5,140=1/1,2,3;
 4//1;
 5/5=2,38=5/2;
 8/6=4,10=90,11=11/1;
 11/6=1,8=1,9=11,15=111,16=1/1,2,10;
 10/6=1,13=1/2;
 6/7=2,8=2,9=2,10=2,28=1/1;
 7/7=1,10=1,18=20,25=1/1,2,3,16;
 1/5=1,6=500,10=4,11=1,14=-1,18=10,26=3/3(2);
 2/29=1/2;
 99/12=1/99;
 2/29=1/2;
 3/5=1,6=6,7=1,11=2,16=1,25=1,30=1,71=1,74=-5/1,2,3;
 4/5=5,16=3,69=1/1;
 5/5=2,38=5/2;
 7/7=1/1,2,3,16;
 1/5=1,6=500,11=1,14=-1,18=10,26=3/3(-5);
 2/29=1/2;
 6/7=2,8=2,9=2,10=2,19=2,28=1/1;
 99/9=1,12=1/99;
 -------------------------
 boat3_Alpha_B3LYP_6-31G_d
 -------------------------
 Symbolic Z-matrix:
 Charge =  0 Multiplicity = 1
 6                    0    -1.01798  -0.21771   1.10875 
 6                    0    -0.4936    1.50669  -0.74582 
 8                    0     0.52828  -0.69654  -0.77833 
 6                    0     0.89979   0.89198  -0.64058 
 6                    0    -0.53044  -1.23707   0.0665 
 6                    0    -1.34988   1.16552   0.48358 
 1                    0    -1.1433    1.91344   1.26064 
 1                    0    -0.98048   1.06249  -1.62592 
 1                    0    -0.09191  -2.07841   0.62073 
 1                    0    -1.93596  -0.63383   1.54012 
 6                    0    -1.64611  -1.76532  -0.85044 
 1                    0    -1.19327  -2.37012  -1.65144 
 1                    0    -2.18463  -0.93514  -1.3141 
 8                    0    -2.62342  -2.49751  -0.12055 
 1                    0    -2.20265  -3.30696   0.21324 
 8                    0    -0.34595   2.90608  -0.92473 
 1                    0    -1.24569   3.25758  -1.02746 
 8                    0    -2.70251   1.27588   0.0233 
 1                    0    -3.28926   1.17805   0.79024 
 8                    0    -0.09616  -0.0869    2.17371 
 1                    0     0.6587    0.42305   1.79375 
 1                    0     1.45308   0.98043  -1.58861 
 8                    0     1.58117   1.14799   0.44726 
 8                    0     2.62939  -1.86449  -0.50799 
 1                    0     1.58387  -1.33766  -0.67043 
 1                    0     2.99153  -2.1261   -1.37111 
 8                    0     3.7935    0.09468   0.31032 
 1                    0     2.85789   0.67781   0.39284 
 1                    0     3.28119  -1.01957  -0.08784 
 1                    0     4.15596   0.01693   1.20946 
 

 GradGradGradGradGradGradGradGradGradGradGradGradGradGradGradGradGradGrad
 Berny optimization.
 Initialization pass.
 No Z-matrix variables, so optimization will use Cartesian coordinates.
 Trust Radius=3.00D-01 FncErr=1.00D-07 GrdErr=1.00D-06
 Number of steps in this run=    180 maximum allowed number of steps=    180.
 Search for a saddle point of order  1.
 GradGradGradGradGradGradGradGradGradGradGradGradGradGradGradGradGradGrad

 ---------------------------------------------------------------------------------------------------
                            Z-MATRIX (ANGSTROMS AND DEGREES)
   CD    Cent   Atom    N1       Length/X        N2       Alpha/Y        N3        Beta/Z          J
 ---------------------------------------------------------------------------------------------------
      1      1  C        0  -1.017980         -0.217709          1.108745
      2      2  C        0  -0.493599          1.506688         -0.745816
      3      3  O        0   0.528275         -0.696542         -0.778329
      4      4  C        0   0.899789          0.891975         -0.640577
      5      5  C        0  -0.530439         -1.237072          0.066504
      6      6  C        0  -1.349881          1.165522          0.483577
      7      7  H        0  -1.143295          1.913443          1.260639
      8      8  H        0  -0.980481          1.062485         -1.625922
      9      9  H        0  -0.091910         -2.078406          0.620728
     10     10  H        0  -1.935962         -0.633833          1.540123
     11     11  C        0  -1.646108         -1.765315         -0.850435
     12     12  H        0  -1.193265         -2.370123         -1.651440
     13     13  H        0  -2.184627         -0.935143         -1.314095
     14     14  O        0  -2.623423         -2.497513         -0.120546
     15     15  H        0  -2.202647         -3.306957          0.213241
     16     16  O        0  -0.345954          2.906081         -0.924727
     17     17  H        0  -1.245689          3.257577         -1.027464
     18     18  O        0  -2.702508          1.275879          0.023296
     19     19  H        0  -3.289262          1.178048          0.790241
     20     20  O        0  -0.096162         -0.086899          2.173710
     21     21  H        0   0.658695          0.423051          1.793749
     22     22  H        0   1.453080          0.980425         -1.588614
     23     23  O        0   1.581165          1.147986          0.447260
     24     24  O        0   2.629388         -1.864486         -0.507993
     25     25  H        0   1.583870         -1.337664         -0.670434
     26     26  H        0   2.991531         -2.126103         -1.371110
     27     27  O        0   3.793496          0.094682          0.310320
     28     28  H        0   2.857891          0.677808          0.392837
     29     29  H        0   3.281186         -1.019573         -0.087841
     30     30  H        0   4.155959          0.016927          1.209457
 ---------------------------------------------------------------------------------------------------
                         Z-Matrix orientation:                         
 ---------------------------------------------------------------------
 Center     Atomic      Atomic             Coordinates (Angstroms)
 Number     Number       Type             X           Y           Z
 ---------------------------------------------------------------------
      1          6           0       -1.017980   -0.217709    1.108745
      2          6           0       -0.493599    1.506688   -0.745816
      3          8           0        0.528275   -0.696542   -0.778329
      4          6           0        0.899789    0.891975   -0.640577
      5          6           0       -0.530439   -1.237072    0.066504
      6          6           0       -1.349881    1.165522    0.483577
      7          1           0       -1.143295    1.913443    1.260639
      8          1           0       -0.980481    1.062485   -1.625922
      9          1           0       -0.091910   -2.078406    0.620728
     10          1           0       -1.935962   -0.633833    1.540123
     11          6           0       -1.646108   -1.765315   -0.850435
     12          1           0       -1.193265   -2.370123   -1.651440
     13          1           0       -2.184627   -0.935143   -1.314095
     14          8           0       -2.623423   -2.497513   -0.120546
     15          1           0       -2.202647   -3.306957    0.213241
     16          8           0       -0.345954    2.906081   -0.924727
     17          1           0       -1.245689    3.257577   -1.027464
     18          8           0       -2.702508    1.275879    0.023296
     19          1           0       -3.289262    1.178048    0.790241
     20          8           0       -0.096162   -0.086899    2.173710
     21          1           0        0.658695    0.423051    1.793749
     22          1           0        1.453080    0.980425   -1.588614
     23          8           0        1.581165    1.147986    0.447260
     24          8           0        2.629388   -1.864486   -0.507993
     25          1           0        1.583870   -1.337664   -0.670434
     26          1           0        2.991531   -2.126103   -1.371110
     27          8           0        3.793496    0.094682    0.310320
     28          1           0        2.857891    0.677808    0.392837
     29          1           0        3.281186   -1.019573   -0.087841
     30          1           0        4.155959    0.016927    1.209457
 ---------------------------------------------------------------------
                    Distance matrix (angstroms):
                    1          2          3          4          5
     1  C    0.000000
     2  C    2.586101   0.000000
     3  O    2.486209   2.428890   0.000000
     4  C    2.823006   1.526590   1.637188   0.000000
     5  C    1.537226   2.861720   1.458352   2.660518   0.000000
     6  C    1.553809   1.536561   2.930385   2.529736   2.572527
     7  H    2.140230   2.147886   3.709927   2.971904   3.424514
     8  H    3.019720   1.099526   2.467577   2.129646   2.890468
     9  H    2.134938   3.857680   2.061926   3.376021   1.098779
    10  H    1.096329   3.447863   3.384024   3.889091   2.123899
    11  C    2.574493   3.470623   2.423926   3.686031   1.537704
    12  H    3.504602   4.042196   2.554779   4.005497   2.162053
    13  H    2.783151   3.024079   2.775574   3.647685   2.175673
    14  O    3.047312   4.578290   3.689089   4.916511   2.450363
    15  H    3.427655   5.197289   3.905818   5.290099   2.665002
    16  O    3.787439   1.418488   3.710068   2.385213   4.264070
    17  H    4.085689   1.926286   4.340976   3.216960   4.680835
    18  O    2.499328   2.350337   3.869238   3.683022   3.321848
    19  H    2.684829   3.206744   4.533000   4.435902   3.737339
    20  O    1.414571   3.349792   3.078331   3.141707   2.439633
    21  H    1.921209   2.991896   2.808217   2.490775   2.674588
    22  H    3.849339   2.185594   2.079434   1.101240   3.404564
    23  O    3.009691   2.420071   2.452128   1.308894   3.208169
    24  O    4.316134   4.601567   2.419060   3.256865   3.272339
    25  H    3.345056   3.523052   1.239742   2.332413   2.241316
    26  H    5.086042   5.072898   2.909066   3.744043   3.906582
    27  O    4.887266   4.635555   3.531694   3.148559   4.530941
    28  H    4.041887   3.635390   2.947470   2.224405   3.905642
    29  H    4.534053   4.589545   2.856509   3.103318   3.820944
    30  H    5.180236   5.259360   4.197669   3.845904   4.984093
                    6          7          8          9         10
     6  C    0.000000
     7  H    1.098130   0.000000
     8  H    2.144075   3.013780   0.000000
     9  H    3.482007   4.177290   3.962599   0.000000
    10  H    2.167362   2.682359   3.716757   2.516467   0.000000
    11  C    3.233751   4.271149   3.006808   2.162840   2.660645
    12  H    4.133233   5.179927   3.439291   2.541816   3.708420
    13  H    2.888117   3.978451   2.353236   3.070839   2.880830
    14  O    3.924882   4.853348   4.199881   2.670898   2.589156
    15  H    4.561070   5.428798   4.895736   2.476004   2.996219
    16  O    2.453719   2.529211   2.071991   5.224756   4.597239
    17  H    2.582788   2.655672   2.290615   5.702671   4.712966
    18  O    1.433052   2.090132   2.393916   4.292246   2.556434
    19  H    1.963517   2.316734   3.343900   4.566868   2.382574
    20  O    2.448861   2.435478   4.066978   2.525445   2.021245
    21  H    2.510417   2.398467   3.845767   2.862983   2.813108
    22  H    3.490677   3.966097   2.435230   4.077332   4.886761
    23  O    2.931323   2.944519   3.296578   3.638527   4.091383
    24  O    5.098896   5.624406   4.779966   2.953851   5.152835
    25  H    4.025491   4.662206   3.639996   2.241436   4.215585
    26  H    5.755217   6.351442   5.099892   3.671145   5.914587
    27  O    5.256524   5.346298   5.241806   4.462628   5.905069
    28  H    4.236914   4.276607   4.353902   4.043510   5.100754
    29  H    5.152469   5.476953   4.986227   3.605686   5.478841
    30  H    5.671018   5.628631   5.959495   4.772988   6.135498
                   11         12         13         14         15
    11  C    0.000000
    12  H    1.101121   0.000000
    13  H    1.092780   1.776448   0.000000
    14  O    1.422672   2.098861   2.014473   0.000000
    15  H    1.953920   2.318091   2.821096   0.971425   0.000000
    16  O    4.849522   5.392993   4.276369   5.918817   6.583625
    17  H    5.041936   5.662429   4.306119   5.986795   6.748942
    18  O    3.335903   4.286710   2.635419   3.776961   4.613927
    19  H    3.749021   4.790045   3.180255   3.844818   4.650691
    20  O    3.790101   4.587867   4.152829   4.178722   4.318506
    21  H    4.134341   4.806340   4.425818   4.792340   4.959662
    22  H    4.205825   4.270042   4.120397   5.556002   5.915460
    23  O    4.537249   4.947635   4.650052   5.593803   5.849659
    24  O    4.290334   4.021917   4.968724   5.304985   5.094062
    25  H    3.263134   3.121029   3.844202   4.398743   4.358521
    26  H    4.680701   4.201267   5.311709   5.764509   5.557344
    27  O    5.864830   5.898436   6.279906   6.934116   6.894513
    28  H    5.272626   5.466335   5.562573   6.355394   6.443574
    29  H    5.041419   4.928442   5.602316   6.086853   5.949387
    30  H    6.409643   6.518967   6.890412   7.351961   7.243792
                   16         17         18         19         20
    16  O    0.000000
    17  H    0.971405   0.000000
    18  O    3.018220   2.674611   0.000000
    19  H    3.819722   3.435794   0.970596   0.000000
    20  O    4.315164   4.770162   3.643416   3.702697   0.000000
    21  H    3.816395   4.429499   3.893521   4.142875   0.987030
    22  H    2.717613   3.575425   4.467041   5.309220   4.206473
    23  O    2.947377   3.823126   4.306502   4.882581   2.705364
    24  O    5.637787   6.443726   6.210739   6.780328   4.216630
    25  H    4.668860   5.408337   5.068028   5.675367   3.532149
    26  H    6.054828   6.859748   6.777900   7.418707   5.124251
    27  O    5.154062   6.098111   6.608758   7.181188   4.316785
    28  H    4.118956   5.050924   5.604666   6.180264   3.533089
    29  H    5.409924   6.298373   6.409840   6.983649   4.170249
    30  H    5.759268   6.684566   7.073225   7.546871   4.361318
                   21         22         23         24         25
    21  H    0.000000
    22  H    3.518820   0.000000
    23  O    1.785921   2.046770   0.000000
    24  O    3.796640   3.262662   3.329605   0.000000
    25  H    3.166743   2.496737   2.725381   1.181963   0.000000
    26  H    4.685792   3.473421   4.001907   0.971886   1.759003
    27  O    3.483585   3.141343   2.454101   2.421389   2.809972
    28  H    2.619908   2.447697   1.361638   2.706837   2.610709
    29  H    3.535393   3.097464   2.806193   1.146842   1.822492
    30  H    3.568920   4.007878   2.913727   2.969809   3.461871
                   26         27         28         29         30
    26  H    0.000000
    27  O    2.898662   0.000000
    28  H    3.315311   1.105532   0.000000
    29  H    1.719037   1.289402   1.814203   0.000000
    30  H    3.550746   0.972560   1.669914   1.876844   0.000000
 Stoichiometry    C6H16O8
 Framework group  C1[X(C6H16O8)]
 Deg. of freedom    84
 Full point group                 C1      NOp   1
 Largest Abelian subgroup         C1      NOp   1
 Largest concise Abelian subgroup C1      NOp   1
                         Standard orientation:                         
 ---------------------------------------------------------------------
 Center     Atomic      Atomic             Coordinates (Angstroms)
 Number     Number       Type             X           Y           Z
 ---------------------------------------------------------------------
      1          6           0       -1.017980   -0.217709    1.108745
      2          6           0       -0.493599    1.506688   -0.745816
      3          8           0        0.528275   -0.696542   -0.778329
      4          6           0        0.899789    0.891975   -0.640577
      5          6           0       -0.530439   -1.237072    0.066504
      6          6           0       -1.349881    1.165522    0.483577
      7          1           0       -1.143295    1.913443    1.260639
      8          1           0       -0.980481    1.062485   -1.625922
      9          1           0       -0.091910   -2.078406    0.620728
     10          1           0       -1.935962   -0.633833    1.540123
     11          6           0       -1.646108   -1.765315   -0.850435
     12          1           0       -1.193265   -2.370123   -1.651440
     13          1           0       -2.184627   -0.935143   -1.314095
     14          8           0       -2.623423   -2.497513   -0.120546
     15          1           0       -2.202646   -3.306957    0.213241
     16          8           0       -0.345954    2.906081   -0.924727
     17          1           0       -1.245689    3.257577   -1.027464
     18          8           0       -2.702508    1.275879    0.023296
     19          1           0       -3.289262    1.178048    0.790241
     20          8           0       -0.096162   -0.086899    2.173710
     21          1           0        0.658695    0.423051    1.793749
     22          1           0        1.453080    0.980425   -1.588614
     23          8           0        1.581165    1.147986    0.447260
     24          8           0        2.629388   -1.864486   -0.507993
     25          1           0        1.583870   -1.337664   -0.670434
     26          1           0        2.991531   -2.126103   -1.371110
     27          8           0        3.793496    0.094683    0.310320
     28          1           0        2.857891    0.677808    0.392837
     29          1           0        3.281186   -1.019573   -0.087841
     30          1           0        4.155959    0.016928    1.209457
 ---------------------------------------------------------------------
 Rotational constants (GHZ):      0.7519968      0.5340565      0.3946761
 Standard basis: 6-31G(d) (6D, 7F)
 There are   242 symmetry adapted cartesian basis functions of A   symmetry.
 There are   242 symmetry adapted basis functions of A   symmetry.
   242 basis functions,   456 primitive gaussians,   242 cartesian basis functions
    58 alpha electrons       58 beta electrons
       nuclear repulsion energy      1123.7896200206 Hartrees.
 NAtoms=   30 NActive=   30 NUniq=   30 SFac= 1.00D+00 NAtFMM=   60 NAOKFM=F Big=F
 Integral buffers will be    131072 words long.
 Raffenetti 2 integral format.
 Two-electron integral symmetry is turned on.
 One-electron integrals computed using PRISM.
 NBasis=   242 RedAO= T EigKep=  1.13D-03  NBF=   242
 NBsUse=   242 1.00D-06 EigRej= -1.00D+00 NBFU=   242
 ExpMin= 1.61D-01 ExpMax= 5.48D+03 ExpMxC= 8.25D+02 IAcc=1 IRadAn=         1 AccDes= 0.00D+00
 Harris functional with IExCor=  402 and IRadAn=       1 diagonalized for initial guess.
 HarFok:  IExCor=  402 AccDes= 0.00D+00 IRadAn=         1 IDoV= 1 UseB2=F ITyADJ=14
 ICtDFT=  3500011 ScaDFX=  1.000000  1.000000  1.000000  1.000000
 FoFCou: FMM=F IPFlag=           0 FMFlag=      100000 FMFlg1=           0
         NFxFlg=           0 DoJE=T BraDBF=F KetDBF=T FulRan=T
         wScrn=  0.000000 ICntrl=     500 IOpCl=  0 I1Cent=   200000004 NGrid=           0
         NMat0=    1 NMatS0=      1 NMatT0=    0 NMatD0=    1 NMtDS0=    0 NMtDT0=    0
 Petite list used in FoFCou.
 Requested convergence on RMS density matrix=1.00D-08 within 128 cycles.
 Requested convergence on MAX density matrix=1.00D-06.
 Requested convergence on             energy=1.00D-06.
 No special actions if energy rises.
 Integral accuracy reduced to 1.0D-05 until final iterations.
 Initial convergence to 1.0D-05 achieved.  Increase integral accuracy.
 SCF Done:  E(RB3LYP) =  -839.961284255     A.U. after   13 cycles
            NFock= 13  Conv=0.91D-08     -V/T= 2.0086
 DoSCS=F DFT=T ScalE2(SS,OS)=  1.000000  1.000000
 Range of M.O.s used for correlation:     1   242
 NBasis=   242 NAE=    58 NBE=    58 NFC=     0 NFV=     0
 NROrb=    242 NOA=    58 NOB=    58 NVA=   184 NVB=   184
 Symmetrizing basis deriv contribution to polar:
 IMax=3 JMax=2 DiffMx= 0.00D+00
 G2DrvN: will do    31 centers at a time, making    1 passes.
 Calling FoFCou, ICntrl=  3107 FMM=F I1Cent=   0 AccDes= 0.00D+00.
 End of G2Drv F.D. properties file   721 does not exist.
 End of G2Drv F.D. properties file   722 does not exist.
 End of G2Drv F.D. properties file   788 does not exist.
          IDoAtm=111111111111111111111111111111
          Differentiating once with respect to nuclear coordinates.
          There are    93 degrees of freedom in the 1st order CPHF.  IDoFFX=6 NUNeed=     0.
     87 vectors produced by pass  0 Test12= 1.15D-14 1.08D-09 XBig12= 1.21D-01 8.50D-02.
 AX will form    87 AO Fock derivatives at one time.
     87 vectors produced by pass  1 Test12= 1.15D-14 1.08D-09 XBig12= 1.19D-02 1.21D-02.
     87 vectors produced by pass  2 Test12= 1.15D-14 1.08D-09 XBig12= 1.39D-04 2.44D-03.
     87 vectors produced by pass  3 Test12= 1.15D-14 1.08D-09 XBig12= 3.05D-07 7.01D-05.
     87 vectors produced by pass  4 Test12= 1.15D-14 1.08D-09 XBig12= 5.06D-10 2.17D-06.
     68 vectors produced by pass  5 Test12= 1.15D-14 1.08D-09 XBig12= 4.20D-13 4.90D-08.
      2 vectors produced by pass  6 Test12= 1.15D-14 1.08D-09 XBig12= 3.24D-16 1.75D-09.
 InvSVY:  IOpt=1 It=  1 EMax= 5.00D-16
 Solved reduced A of dimension   505 with    93 vectors.
 End of Minotr F.D. properties file   721 does not exist.
 End of Minotr F.D. properties file   722 does not exist.
 End of Minotr F.D. properties file   788 does not exist.

 **********************************************************************

            Population analysis using the SCF density.

 **********************************************************************

 Orbital symmetries:
       Occupied  (A) (A) (A) (A) (A) (A) (A) (A) (A) (A) (A) (A)
                 (A) (A) (A) (A) (A) (A) (A) (A) (A) (A) (A) (A)
                 (A) (A) (A) (A) (A) (A) (A) (A) (A) (A) (A) (A)
                 (A) (A) (A) (A) (A) (A) (A) (A) (A) (A) (A) (A)
                 (A) (A) (A) (A) (A) (A) (A) (A) (A) (A)
       Virtual   (A) (A) (A) (A) (A) (A) (A) (A) (A) (A) (A) (A)
                 (A) (A) (A) (A) (A) (A) (A) (A) (A) (A) (A) (A)
                 (A) (A) (A) (A) (A) (A) (A) (A) (A) (A) (A) (A)
                 (A) (A) (A) (A) (A) (A) (A) (A) (A) (A) (A) (A)
                 (A) (A) (A) (A) (A) (A) (A) (A) (A) (A) (A) (A)
                 (A) (A) (A) (A) (A) (A) (A) (A) (A) (A) (A) (A)
                 (A) (A) (A) (A) (A) (A) (A) (A) (A) (A) (A) (A)
                 (A) (A) (A) (A) (A) (A) (A) (A) (A) (A) (A) (A)
                 (A) (A) (A) (A) (A) (A) (A) (A) (A) (A) (A) (A)
                 (A) (A) (A) (A) (A) (A) (A) (A) (A) (A) (A) (A)
                 (A) (A) (A) (A) (A) (A) (A) (A) (A) (A) (A) (A)
                 (A) (A) (A) (A) (A) (A) (A) (A) (A) (A) (A) (A)
                 (A) (A) (A) (A) (A) (A) (A) (A) (A) (A) (A) (A)
                 (A) (A) (A) (A) (A) (A) (A) (A) (A) (A) (A) (A)
                 (A) (A) (A) (A) (A) (A) (A) (A) (A) (A) (A) (A)
                 (A) (A) (A) (A)
 The electronic state is 1-A.
 Alpha  occ. eigenvalues --  -19.18474 -19.17948 -19.15981 -19.15393 -19.15359
 Alpha  occ. eigenvalues --  -19.14135 -19.11662 -19.11091 -10.28616 -10.24429
 Alpha  occ. eigenvalues --  -10.23430 -10.23277 -10.23226 -10.23042  -1.06453
 Alpha  occ. eigenvalues --   -1.03853  -1.02679  -1.02264  -1.01373  -1.00928
 Alpha  occ. eigenvalues --   -0.99352  -0.97545  -0.77150  -0.75295  -0.68132
 Alpha  occ. eigenvalues --   -0.64443  -0.61969  -0.57343  -0.55839  -0.54864
 Alpha  occ. eigenvalues --   -0.54174  -0.53119  -0.51082  -0.50362  -0.48454
 Alpha  occ. eigenvalues --   -0.46400  -0.46271  -0.44835  -0.44344  -0.43337
 Alpha  occ. eigenvalues --   -0.41099  -0.40785  -0.39556  -0.38559  -0.37315
 Alpha  occ. eigenvalues --   -0.36295  -0.35229  -0.34807  -0.34338  -0.32488
 Alpha  occ. eigenvalues --   -0.31753  -0.30681  -0.28694  -0.27752  -0.27131
 Alpha  occ. eigenvalues --   -0.25774  -0.25075  -0.23790
 Alpha virt. eigenvalues --    0.04352   0.05417   0.06712   0.07093   0.08491
 Alpha virt. eigenvalues --    0.10402   0.11823   0.12216   0.12705   0.15097
 Alpha virt. eigenvalues --    0.15219   0.16674   0.17434   0.18882   0.20311
 Alpha virt. eigenvalues --    0.20589   0.22411   0.23914   0.24605   0.25149
 Alpha virt. eigenvalues --    0.26699   0.27560   0.28914   0.30694   0.32010
 Alpha virt. eigenvalues --    0.32471   0.33610   0.37820   0.52744   0.54305
 Alpha virt. eigenvalues --    0.54720   0.56600   0.57341   0.58529   0.59709
 Alpha virt. eigenvalues --    0.59993   0.61363   0.63093   0.64245   0.65365
 Alpha virt. eigenvalues --    0.67588   0.69096   0.69259   0.69673   0.74326
 Alpha virt. eigenvalues --    0.74950   0.76586   0.78796   0.79753   0.81356
 Alpha virt. eigenvalues --    0.81925   0.82178   0.82994   0.83875   0.85290
 Alpha virt. eigenvalues --    0.85690   0.87825   0.88141   0.88455   0.89877
 Alpha virt. eigenvalues --    0.90667   0.91367   0.92144   0.95227   0.96767
 Alpha virt. eigenvalues --    0.97669   0.99346   1.00145   1.01716   1.02945
 Alpha virt. eigenvalues --    1.03840   1.05040   1.05368   1.06706   1.07610
 Alpha virt. eigenvalues --    1.08624   1.12280   1.13175   1.15453   1.17572
 Alpha virt. eigenvalues --    1.18578   1.19353   1.23105   1.27040   1.28154
 Alpha virt. eigenvalues --    1.29120   1.32381   1.34648   1.35188   1.40355
 Alpha virt. eigenvalues --    1.42355   1.45375   1.47487   1.50896   1.52046
 Alpha virt. eigenvalues --    1.53745   1.55393   1.57606   1.58308   1.60607
 Alpha virt. eigenvalues --    1.62738   1.64803   1.66702   1.67025   1.68076
 Alpha virt. eigenvalues --    1.68979   1.71136   1.72461   1.73462   1.75082
 Alpha virt. eigenvalues --    1.76354   1.77511   1.78661   1.79622   1.80511
 Alpha virt. eigenvalues --    1.81317   1.83955   1.84985   1.85120   1.86312
 Alpha virt. eigenvalues --    1.88366   1.90055   1.90692   1.93399   1.96153
 Alpha virt. eigenvalues --    1.97721   1.98558   2.01129   2.05457   2.06976
 Alpha virt. eigenvalues --    2.08142   2.10115   2.10382   2.15666   2.17212
 Alpha virt. eigenvalues --    2.19613   2.24114   2.25788   2.27614   2.31871
 Alpha virt. eigenvalues --    2.33794   2.35938   2.36813   2.39284   2.40771
 Alpha virt. eigenvalues --    2.43133   2.44802   2.48785   2.50109   2.52831
 Alpha virt. eigenvalues --    2.53773   2.55138   2.58634   2.59715   2.60983
 Alpha virt. eigenvalues --    2.64737   2.66651   2.67925   2.70819   2.75821
 Alpha virt. eigenvalues --    2.80840   2.82917   2.84887   2.91035   2.91256
 Alpha virt. eigenvalues --    2.93728   2.98678   3.03835   3.08285   3.12850
 Alpha virt. eigenvalues --    3.70223   3.75924   3.81297   3.87936   3.90369
 Alpha virt. eigenvalues --    3.98501   4.05775   4.15935   4.25940   4.37649
 Alpha virt. eigenvalues --    4.55551   4.59408   4.64174   4.92923
          Condensed to atoms (all electrons):
               1          2          3          4          5          6
     1  C    4.975274  -0.025672  -0.027377   0.005975   0.304233   0.253723
     2  C   -0.025672   4.949266  -0.023917   0.303896  -0.018995   0.292916
     3  O   -0.027377  -0.023917   8.642174   0.066820   0.116598  -0.011095
     4  C    0.005975   0.303896   0.066820   4.778482  -0.009968  -0.021567
     5  C    0.304233  -0.018995   0.116598  -0.009968   5.109512  -0.018452
     6  C    0.253723   0.292916  -0.011095  -0.021567  -0.018452   5.097627
     7  H   -0.056612  -0.036555   0.000268  -0.006141   0.006314   0.349537
     8  H    0.000198   0.345727   0.005208  -0.049622  -0.000181  -0.054174
     9  H   -0.040841   0.000113  -0.032879   0.001050   0.357837   0.005046
    10  H    0.363266   0.004218   0.003232  -0.000073  -0.053023  -0.042032
    11  C   -0.034815  -0.001304  -0.032762   0.000610   0.285765  -0.002210
    12  H    0.005154   0.000032   0.006220  -0.000022  -0.047879  -0.000307
    13  H   -0.009642  -0.002257   0.001710   0.000181  -0.036392   0.001589
    14  O   -0.004147   0.000061   0.001459  -0.000009  -0.039701  -0.000255
    15  H   -0.000842   0.000001   0.000001  -0.000001  -0.002787   0.000022
    16  O    0.003722   0.245715   0.000876  -0.040920  -0.000027  -0.039847
    17  H    0.000376  -0.027738  -0.000089   0.007622  -0.000031  -0.005101
    18  O   -0.032477  -0.040617   0.000008   0.002531  -0.000071   0.186170
    19  H   -0.003387   0.007039   0.000007  -0.000284  -0.000136  -0.023656
    20  O    0.243470   0.001566   0.001240   0.005122  -0.043482  -0.037145
    21  H   -0.040068  -0.003851  -0.000564  -0.005704  -0.000322  -0.000888
    22  H   -0.000509  -0.062712  -0.042738   0.369785   0.004263   0.006872
    23  O    0.004348  -0.049089  -0.053753   0.275223  -0.000163  -0.001902
    24  O   -0.000300   0.000047  -0.098585   0.006338   0.004130   0.000000
    25  H    0.002546   0.001832   0.114249  -0.003630  -0.007429  -0.000179
    26  H    0.000008   0.000007   0.004127  -0.000057  -0.000099  -0.000000
    27  O   -0.000009  -0.000177  -0.000870   0.007855  -0.000031   0.000008
    28  H   -0.000105   0.002420   0.002607  -0.012973  -0.000067  -0.000126
    29  H    0.000013   0.000082   0.004512  -0.000244  -0.000034  -0.000003
    30  H   -0.000002   0.000005  -0.000009  -0.000253   0.000005  -0.000000
               7          8          9         10         11         12
     1  C   -0.056612   0.000198  -0.040841   0.363266  -0.034815   0.005154
     2  C   -0.036555   0.345727   0.000113   0.004218  -0.001304   0.000032
     3  O    0.000268   0.005208  -0.032879   0.003232  -0.032762   0.006220
     4  C   -0.006141  -0.049622   0.001050  -0.000073   0.000610  -0.000022
     5  C    0.006314  -0.000181   0.357837  -0.053023   0.285765  -0.047879
     6  C    0.349537  -0.054174   0.005046  -0.042032  -0.002210  -0.000307
     7  H    0.608511   0.007030  -0.000248  -0.001384  -0.000044   0.000010
     8  H    0.007030   0.651621   0.000081  -0.000329  -0.000330   0.000182
     9  H   -0.000248   0.000081   0.615202  -0.001446  -0.051442  -0.005507
    10  H   -0.001384  -0.000329  -0.001446   0.598027  -0.003047   0.000498
    11  C   -0.000044  -0.000330  -0.051442  -0.003047   4.965109   0.346524
    12  H    0.000010   0.000182  -0.005507   0.000498   0.346524   0.642692
    13  H    0.000152   0.005206   0.004898  -0.000075   0.373646  -0.037234
    14  O   -0.000007   0.000014   0.001373   0.015631   0.237097  -0.030033
    15  H   -0.000001   0.000002   0.006084  -0.000120  -0.032270  -0.007207
    16  O    0.001859  -0.038653   0.000003  -0.000055   0.000013  -0.000001
    17  H   -0.000543  -0.004676  -0.000000  -0.000005   0.000003  -0.000000
    18  O   -0.033281  -0.001933  -0.000139   0.000468  -0.001181   0.000151
    19  H   -0.004588  -0.000008   0.000003   0.005808   0.000126  -0.000009
    20  O    0.007459  -0.000073   0.003743  -0.036746   0.003779  -0.000073
    21  H    0.000955   0.000068  -0.000662   0.005824  -0.000042   0.000004
    22  H   -0.000147  -0.001783  -0.000131   0.000001  -0.000134  -0.000002
    23  O    0.003056   0.004050  -0.000232  -0.000020   0.000005   0.000006
    24  O    0.000000  -0.000001   0.003898   0.000003  -0.000175  -0.000011
    25  H    0.000007   0.000119  -0.004204  -0.000063  -0.000175   0.000839
    26  H    0.000000  -0.000001  -0.000193  -0.000000   0.000002   0.000007
    27  O    0.000001   0.000005   0.000016  -0.000000  -0.000000   0.000000
    28  H   -0.000019  -0.000093  -0.000009   0.000001   0.000004  -0.000001
    29  H   -0.000000  -0.000004  -0.000092  -0.000000   0.000011  -0.000001
    30  H   -0.000000  -0.000000  -0.000004   0.000000   0.000000  -0.000000
              13         14         15         16         17         18
     1  C   -0.009642  -0.004147  -0.000842   0.003722   0.000376  -0.032477
     2  C   -0.002257   0.000061   0.000001   0.245715  -0.027738  -0.040617
     3  O    0.001710   0.001459   0.000001   0.000876  -0.000089   0.000008
     4  C    0.000181  -0.000009  -0.000001  -0.040920   0.007622   0.002531
     5  C   -0.036392  -0.039701  -0.002787  -0.000027  -0.000031  -0.000071
     6  C    0.001589  -0.000255   0.000022  -0.039847  -0.005101   0.186170
     7  H    0.000152  -0.000007  -0.000001   0.001859  -0.000543  -0.033281
     8  H    0.005206   0.000014   0.000002  -0.038653  -0.004676  -0.001933
     9  H    0.004898   0.001373   0.006084   0.000003  -0.000000  -0.000139
    10  H   -0.000075   0.015631  -0.000120  -0.000055  -0.000005   0.000468
    11  C    0.373646   0.237097  -0.032270   0.000013   0.000003  -0.001181
    12  H   -0.037234  -0.030033  -0.007207  -0.000001  -0.000000   0.000151
    13  H    0.537132  -0.034273   0.006979   0.000004  -0.000007   0.010640
    14  O   -0.034273   8.228856   0.233869  -0.000000  -0.000000  -0.000110
    15  H    0.006979   0.233869   0.405044   0.000000   0.000000  -0.000012
    16  O    0.000004  -0.000000   0.000000   8.262257   0.235491  -0.000553
    17  H   -0.000007  -0.000000   0.000000   0.235491   0.385968   0.008195
    18  O    0.010640  -0.000110  -0.000012  -0.000553   0.008195   8.312193
    19  H   -0.000391  -0.000008   0.000003  -0.000153  -0.000432   0.232089
    20  O    0.000025   0.000000  -0.000031  -0.000011  -0.000004   0.001612
    21  H    0.000005  -0.000001   0.000001  -0.000066  -0.000014  -0.000023
    22  H   -0.000023   0.000001  -0.000000   0.002660  -0.000491  -0.000061
    23  O    0.000007   0.000000  -0.000000   0.001684  -0.000082   0.000029
    24  O    0.000002   0.000000  -0.000000   0.000000  -0.000000   0.000000
    25  H   -0.000059   0.000009  -0.000004  -0.000014   0.000001  -0.000001
    26  H    0.000000  -0.000000   0.000000  -0.000000   0.000000  -0.000000
    27  O    0.000000   0.000000  -0.000000   0.000000  -0.000000   0.000000
    28  H    0.000000  -0.000000   0.000000  -0.000057   0.000007   0.000000
    29  H   -0.000000  -0.000000  -0.000000  -0.000000   0.000000  -0.000000
    30  H   -0.000000   0.000000   0.000000  -0.000000   0.000000  -0.000000
              19         20         21         22         23         24
     1  C   -0.003387   0.243470  -0.040068  -0.000509   0.004348  -0.000300
     2  C    0.007039   0.001566  -0.003851  -0.062712  -0.049089   0.000047
     3  O    0.000007   0.001240  -0.000564  -0.042738  -0.053753  -0.098585
     4  C   -0.000284   0.005122  -0.005704   0.369785   0.275223   0.006338
     5  C   -0.000136  -0.043482  -0.000322   0.004263  -0.000163   0.004130
     6  C   -0.023656  -0.037145  -0.000888   0.006872  -0.001902   0.000000
     7  H   -0.004588   0.007459   0.000955  -0.000147   0.003056   0.000000
     8  H   -0.000008  -0.000073   0.000068  -0.001783   0.004050  -0.000001
     9  H    0.000003   0.003743  -0.000662  -0.000131  -0.000232   0.003898
    10  H    0.005808  -0.036746   0.005824   0.000001  -0.000020   0.000003
    11  C    0.000126   0.003779  -0.000042  -0.000134   0.000005  -0.000175
    12  H   -0.000009  -0.000073   0.000004  -0.000002   0.000006  -0.000011
    13  H   -0.000391   0.000025   0.000005  -0.000023   0.000007   0.000002
    14  O   -0.000008   0.000000  -0.000001   0.000001   0.000000   0.000000
    15  H    0.000003  -0.000031   0.000001  -0.000000  -0.000000  -0.000000
    16  O   -0.000153  -0.000011  -0.000066   0.002660   0.001684   0.000000
    17  H   -0.000432  -0.000004  -0.000014  -0.000491  -0.000082  -0.000000
    18  O    0.232089   0.001612  -0.000023  -0.000061   0.000029   0.000000
    19  H    0.388417  -0.000008   0.000042   0.000006   0.000005   0.000000
    20  O   -0.000008   8.342176   0.212676  -0.000157  -0.031283   0.000006
    21  H    0.000042   0.212676   0.339890   0.001441   0.071456   0.000007
    22  H    0.000006  -0.000157   0.001441   0.647141  -0.049160   0.000676
    23  O    0.000005  -0.031283   0.071456  -0.049160   8.426297  -0.002243
    24  O    0.000000   0.000006   0.000007   0.000676  -0.002243   8.504043
    25  H   -0.000000  -0.000288   0.000121  -0.000935   0.006400   0.134668
    26  H   -0.000000  -0.000000  -0.000000   0.000139   0.000034   0.234262
    27  O    0.000000  -0.000047   0.000787   0.002395  -0.087492  -0.098849
    28  H   -0.000000   0.000648  -0.000985  -0.005855   0.122865   0.006285
    29  H   -0.000000   0.000034   0.000018  -0.000421   0.005383   0.131010
    30  H   -0.000000   0.000009  -0.000007  -0.000074   0.004257   0.003886
              25         26         27         28         29         30
     1  C    0.002546   0.000008  -0.000009  -0.000105   0.000013  -0.000002
     2  C    0.001832   0.000007  -0.000177   0.002420   0.000082   0.000005
     3  O    0.114249   0.004127  -0.000870   0.002607   0.004512  -0.000009
     4  C   -0.003630  -0.000057   0.007855  -0.012973  -0.000244  -0.000253
     5  C   -0.007429  -0.000099  -0.000031  -0.000067  -0.000034   0.000005
     6  C   -0.000179  -0.000000   0.000008  -0.000126  -0.000003  -0.000000
     7  H    0.000007   0.000000   0.000001  -0.000019  -0.000000  -0.000000
     8  H    0.000119  -0.000001   0.000005  -0.000093  -0.000004  -0.000000
     9  H   -0.004204  -0.000193   0.000016  -0.000009  -0.000092  -0.000004
    10  H   -0.000063  -0.000000  -0.000000   0.000001  -0.000000   0.000000
    11  C   -0.000175   0.000002  -0.000000   0.000004   0.000011   0.000000
    12  H    0.000839   0.000007   0.000000  -0.000001  -0.000001  -0.000000
    13  H   -0.000059   0.000000   0.000000   0.000000  -0.000000  -0.000000
    14  O    0.000009  -0.000000   0.000000  -0.000000  -0.000000   0.000000
    15  H   -0.000004   0.000000  -0.000000   0.000000  -0.000000   0.000000
    16  O   -0.000014  -0.000000   0.000000  -0.000057  -0.000000  -0.000000
    17  H    0.000001   0.000000  -0.000000   0.000007   0.000000   0.000000
    18  O   -0.000001  -0.000000   0.000000   0.000000  -0.000000  -0.000000
    19  H   -0.000000  -0.000000   0.000000  -0.000000  -0.000000  -0.000000
    20  O   -0.000288  -0.000000  -0.000047   0.000648   0.000034   0.000009
    21  H    0.000121  -0.000000   0.000787  -0.000985   0.000018  -0.000007
    22  H   -0.000935   0.000139   0.002395  -0.005855  -0.000421  -0.000074
    23  O    0.006400   0.000034  -0.087492   0.122865   0.005383   0.004257
    24  O    0.134668   0.234262  -0.098849   0.006285   0.131010   0.003886
    25  H    0.278584  -0.004751   0.004776  -0.000631  -0.006301  -0.000034
    26  H   -0.004751   0.353699   0.004199  -0.000237  -0.006149  -0.000133
    27  O    0.004776   0.004199   8.500096   0.136835   0.136562   0.232407
    28  H   -0.000631  -0.000237   0.136835   0.301025  -0.011481  -0.005231
    29  H   -0.006301  -0.006149   0.136562  -0.011481   0.289174  -0.005729
    30  H   -0.000034  -0.000133   0.232407  -0.005231  -0.005729   0.362826
 Mulliken charges:
               1
     1  C    0.114499
     2  C    0.137943
     3  O   -0.646676
     4  C    0.319976
     5  C    0.090613
     6  C    0.065429
     7  H    0.154412
     8  H    0.132349
     9  H    0.138682
    10  H    0.141442
    11  C   -0.052762
    12  H    0.125965
    13  H    0.178178
    14  O   -0.609828
    15  H    0.391271
    16  O   -0.633927
    17  H    0.401549
    18  O   -0.643627
    19  H    0.399517
    20  O   -0.674215
    21  H    0.419904
    22  H    0.129954
    23  O   -0.649685
    24  O   -0.829097
    25  H    0.484547
    26  H    0.415134
    27  O   -0.838466
    28  H    0.465174
    29  H    0.463661
    30  H    0.408083
 Sum of Mulliken charges =  -0.00000
 Mulliken charges with hydrogens summed into heavy atoms:
               1
     1  C    0.255941
     2  C    0.270292
     3  O   -0.646676
     4  C    0.449929
     5  C    0.229296
     6  C    0.219841
    11  C    0.251381
    14  O   -0.218557
    16  O   -0.232378
    18  O   -0.244109
    20  O   -0.254311
    23  O   -0.649685
    24  O    0.534246
    27  O    0.034791
 APT charges:
               1
     1  C   -0.369303
     2  C   -0.158220
     3  O   -0.390137
     4  C   -0.292097
     5  C   -0.265724
     6  C   -0.247060
     7  H    0.419960
     8  H    0.330721
     9  H    0.397881
    10  H    0.478010
    11  C   -0.589892
    12  H    0.421274
    13  H    0.329432
    14  O   -0.771812
    15  H    0.689007
    16  O   -0.881375
    17  H    0.760208
    18  O   -0.925907
    19  H    0.770179
    20  O   -0.535128
    21  H    0.390801
    22  H    0.455539
    23  O   -0.492247
    24  O   -1.170989
    25  H    0.400064
    26  H    0.850895
    27  O   -1.118901
    28  H    0.304138
    29  H    0.396887
    30  H    0.813798
 Sum of APT charges =  -0.00000
 APT charges with hydrogens summed into heavy atoms:
               1
     1  C    0.108708
     2  C    0.172501
     3  O   -0.390137
     4  C    0.163442
     5  C    0.132157
     6  C    0.172900
    11  C    0.160814
    14  O   -0.082805
    16  O   -0.121167
    18  O   -0.155728
    20  O   -0.144328
    23  O   -0.492247
    24  O    0.476857
    27  O   -0.000966
 Electronic spatial extent (au):  <R**2>=           3034.6652
 Charge=             -0.0000 electrons
 Dipole moment (field-independent basis, Debye):
    X=              1.0914    Y=             -3.0016    Z=             -1.2728  Tot=              3.4382
 Quadrupole moment (field-independent basis, Debye-Ang):
   XX=            -77.5367   YY=            -80.5533   ZZ=            -83.1913
   XY=            -11.1945   XZ=             -2.9326   YZ=              3.8327
 Traceless Quadrupole moment (field-independent basis, Debye-Ang):
   XX=              2.8904   YY=             -0.1262   ZZ=             -2.7642
   XY=            -11.1945   XZ=             -2.9326   YZ=              3.8327
 Octapole moment (field-independent basis, Debye-Ang**2):
  XXX=             51.7053  YYY=            -36.3380  ZZZ=            -17.3948  XYY=            -12.9827
  XXY=              2.7686  XXZ=             28.6855  XZZ=             19.4844  YZZ=             -2.5880
  YYZ=             -1.6932  XYZ=             12.2742
 Hexadecapole moment (field-independent basis, Debye-Ang**3):
 XXXX=          -1727.9083 YYYY=          -1104.0300 ZZZZ=           -517.1045 XXXY=           -159.0881
 XXXZ=             14.7197 YYYX=            -38.0445 YYYZ=             -2.8784 ZZZX=              5.7351
 ZZZY=             17.9636 XXYY=           -491.9235 XXZZ=           -283.2026 YYZZ=           -264.1926
 XXYZ=             35.2583 YYXZ=            -28.5513 ZZXY=            -30.0607
 N-N= 1.123789620021D+03 E-N=-4.220581354289D+03  KE= 8.328101745676D+02
  Exact polarizability:   0.000   0.000   0.000   0.000   0.000   0.000
 Approx polarizability: 140.799   3.114 132.064   3.202   1.333 127.977
 Calling FoFJK, ICntrl=    100147 FMM=F ISym2X=0 I1Cent= 0 IOpClX= 0 NMat=1 NMatS=1 NMatT=0.
 ***** Axes restored to original set *****
 -------------------------------------------------------------------
 Center     Atomic                   Forces (Hartrees/Bohr)
 Number     Number              X              Y              Z
 -------------------------------------------------------------------
      1        6          -0.000209162   -0.000143293   -0.000175504
      2        6           0.000002947    0.000069351    0.000298175
      3        8          -0.000294534    0.000075712   -0.000097730
      4        6          -0.000083602   -0.000096100    0.000044081
      5        6          -0.000043925   -0.000016945   -0.000141910
      6        6          -0.000177107    0.000371305    0.000011276
      7        1          -0.000105307   -0.000182233   -0.000186677
      8        1           0.000027243    0.000049164   -0.000038838
      9        1          -0.000014166    0.000092019   -0.000053918
     10        1          -0.000133122   -0.000135589   -0.000068009
     11        6          -0.000014885    0.000043993   -0.000293334
     12        1          -0.000149784    0.000222311    0.000266064
     13        1           0.000183175   -0.000454918    0.000264102
     14        8           0.000618280   -0.000889196    0.000311444
     15        1          -0.000368934    0.000953525   -0.000293632
     16        8          -0.000471605    0.000131156   -0.000034359
     17        1           0.000481972    0.000004174    0.000133269
     18        8           0.000070556    0.000067544    0.000243709
     19        1           0.000156763    0.000049339   -0.000291800
     20        8           0.000606929    0.000502865   -0.000194726
     21        1          -0.000413765   -0.000392758    0.000353237
     22        1          -0.000003570    0.000007441    0.000156267
     23        8          -0.000040990   -0.000284552   -0.000334382
     24        8           0.000330064   -0.000876731   -0.000712259
     25        1           0.000344239   -0.000069882    0.000204868
     26        1          -0.000481935    0.000564304    0.000836335
     27        8           0.001005740    0.000630353    0.001701896
     28        1           0.000328291   -0.000071598   -0.000088426
     29        1           0.000097043   -0.000022036    0.000140047
     30        1          -0.001246851   -0.000198726   -0.001959264
 -------------------------------------------------------------------
 Cartesian Forces:  Max     0.001959264 RMS     0.000450537

 GradGradGradGradGradGradGradGradGradGradGradGradGradGradGradGradGradGrad
 Berny optimization.
 Search for a saddle point.
 Step number   1 out of a maximum of  180
 All quantities printed in internal units (Hartrees-Bohrs-Radians)
 Swapping is turned off.
 Second derivative matrix not updated -- analytic derivatives used.
 ITU=  0
     Eigenvalues ---   -0.07759   0.00049   0.00077   0.00121   0.00137
     Eigenvalues ---    0.00235   0.00325   0.00433   0.00549   0.00718
     Eigenvalues ---    0.00804   0.00940   0.01048   0.01275   0.01585
     Eigenvalues ---    0.01660   0.01702   0.02056   0.02179   0.02438
     Eigenvalues ---    0.02563   0.02794   0.03281   0.03688   0.04189
     Eigenvalues ---    0.04515   0.04693   0.04904   0.05112   0.05318
     Eigenvalues ---    0.05700   0.06171   0.06357   0.07085   0.07227
     Eigenvalues ---    0.07262   0.07851   0.08743   0.09110   0.09766
     Eigenvalues ---    0.10482   0.10832   0.11452   0.12506   0.12882
     Eigenvalues ---    0.14055   0.15204   0.15808   0.17194   0.18060
     Eigenvalues ---    0.18403   0.19953   0.21250   0.21779   0.22357
     Eigenvalues ---    0.25287   0.25797   0.28726   0.30659   0.30858
     Eigenvalues ---    0.36558   0.38470   0.44138   0.48376   0.53559
     Eigenvalues ---    0.57266   0.62747   0.63640   0.65535   0.66137
     Eigenvalues ---    0.73927   0.76618   0.81019   0.82153   0.86885
     Eigenvalues ---    0.88659   0.91654   0.93625   0.96222   1.01891
     Eigenvalues ---    1.04302   1.04667   1.05266   1.06221
 Eigenvectors required to have negative eigenvalues:
                          X25       Y29       X28       Y25       Z29
   1                    0.50327   0.43508  -0.42139  -0.25135   0.23383
                          Y4        Y3        X29       Y27       X23
   1                   -0.22464   0.21300   0.20900  -0.15441   0.13533
 RFO step:  Lambda0=3.075136450D-08 Lambda=-1.17767273D-04.
 Linear search not attempted -- option 19 set.
 B after Tr=     0.000599   -0.000471    0.000150
         Rot=    1.000000    0.000032    0.000069   -0.000006 Ang=   0.01 deg.
 Variable       Old X    -DE/DX   Delta X   Delta X   Delta X     New X
                                 (Linear)    (Quad)   (Total)
    X1       -1.92370  -0.00021   0.00000  -0.01712  -0.01680  -1.94050
    Y1       -0.41141  -0.00014   0.00000   0.01069   0.01033  -0.40108
    Z1        2.09522  -0.00018   0.00000  -0.00902  -0.00911   2.08611
    X2       -0.93277   0.00000   0.00000   0.00914   0.00990  -0.92287
    Y2        2.84723   0.00007   0.00000   0.02090   0.02033   2.86756
    Z2       -1.40939   0.00030   0.00000   0.00663   0.00647  -1.40291
    X3        0.99830  -0.00029   0.00000  -0.01303  -0.01221   0.98608
    Y3       -1.31627   0.00008   0.00000   0.00763   0.00707  -1.30920
    Z3       -1.47083  -0.00010   0.00000  -0.01023  -0.00986  -1.48069
    X4        1.70035  -0.00008   0.00000   0.00096   0.00171   1.70206
    Y4        1.68559  -0.00010   0.00000   0.00117   0.00064   1.68623
    Z4       -1.21052   0.00004   0.00000   0.00614   0.00642  -1.20410
    X5       -1.00238  -0.00004   0.00000  -0.00086  -0.00025  -1.00264
    Y5       -2.33773  -0.00002   0.00000   0.00624   0.00577  -2.33196
    Z5        0.12567  -0.00014   0.00000   0.00277   0.00293   0.12861
    X6       -2.55091  -0.00018   0.00000  -0.01397  -0.01352  -2.56442
    Y6        2.20252   0.00037   0.00000   0.00992   0.00947   2.21199
    Z6        0.91383   0.00001   0.00000  -0.01285  -0.01320   0.90063
    X7       -2.16051  -0.00011   0.00000  -0.03509  -0.03485  -2.19537
    Y7        3.61588  -0.00018   0.00000   0.00626   0.00592   3.62180
    Z7        2.38226  -0.00019   0.00000  -0.00482  -0.00521   2.37706
    X8       -1.85284   0.00003   0.00000   0.01272   0.01372  -1.83912
    Y8        2.00781   0.00005   0.00000   0.04445   0.04377   2.05157
    Z8       -3.07255  -0.00004   0.00000  -0.00763  -0.00786  -3.08041
    X9       -0.17368  -0.00001   0.00000   0.01248   0.01296  -0.16073
    Y9       -3.92762   0.00009   0.00000   0.02170   0.02130  -3.90632
    Z9        1.17301  -0.00005   0.00000   0.01557   0.01595   1.18896
   X10       -3.65844  -0.00013   0.00000  -0.02059  -0.02037  -3.67881
   Y10       -1.19777  -0.00014   0.00000   0.00652   0.00619  -1.19158
   Z10        2.91041  -0.00007   0.00000  -0.01943  -0.01971   2.89070
   X11       -3.11069  -0.00001   0.00000   0.00473   0.00559  -3.10511
   Y11       -3.33596   0.00004   0.00000  -0.02774  -0.02835  -3.36431
   Z11       -1.60709  -0.00029   0.00000   0.01747   0.01740  -1.58969
   X12       -2.25494  -0.00015   0.00000   0.01120   0.01227  -2.24267
   Y12       -4.47888   0.00022   0.00000  -0.02074  -0.02143  -4.50032
   Z12       -3.12077   0.00027   0.00000   0.01732   0.01745  -3.10332
   X13       -4.12835   0.00018   0.00000  -0.02206  -0.02110  -4.14944
   Y13       -1.76716  -0.00045   0.00000  -0.04572  -0.04639  -1.81356
   Z13       -2.48328   0.00026   0.00000   0.01926   0.01896  -2.46432
   X14       -4.95755   0.00062   0.00000   0.03361   0.03429  -4.92326
   Y14       -4.71962  -0.00089   0.00000  -0.04851  -0.04905  -4.76866
   Z14       -0.22780   0.00031   0.00000   0.03453   0.03430  -0.19350
   X15       -4.16240  -0.00037   0.00000   0.06642   0.06703  -4.09537
   Y15       -6.24924   0.00095   0.00000  -0.01956  -0.02005  -6.26929
   Z15        0.40297  -0.00029   0.00000   0.05738   0.05737   0.46034
   X16       -0.65376  -0.00047   0.00000   0.03425   0.03503  -0.61873
   Y16        5.49170   0.00013   0.00000   0.02233   0.02174   5.51344
   Z16       -1.74748  -0.00003   0.00000   0.03578   0.03549  -1.71199
   X17       -2.35401   0.00048   0.00000   0.04344   0.04424  -2.30978
   Y17        6.15593   0.00000   0.00000   0.04305   0.04243   6.19836
   Z17       -1.94163   0.00013   0.00000   0.03569   0.03512  -1.90650
   X18       -5.10700   0.00007   0.00000  -0.00463  -0.00406  -5.11106
   Y18        2.41106   0.00007   0.00000   0.00453   0.00400   2.41507
   Z18        0.04402   0.00024   0.00000  -0.04006  -0.04077   0.00325
   X19       -6.21580   0.00016   0.00000  -0.01984  -0.01946  -6.23526
   Y19        2.22619   0.00005   0.00000   0.00305   0.00260   2.22879
   Z19        1.49334  -0.00029   0.00000  -0.05261  -0.05346   1.43988
   X20       -0.18172   0.00061   0.00000  -0.03113  -0.03110  -0.21282
   Y20       -0.16422   0.00050   0.00000   0.01943   0.01922  -0.14500
   Z20        4.10772  -0.00019   0.00000   0.00331   0.00344   4.11116
   X21        1.24475  -0.00041   0.00000  -0.02116  -0.02104   1.22371
   Y21        0.79945  -0.00039   0.00000   0.00580   0.00556   0.80501
   Z21        3.38969   0.00035   0.00000   0.00846   0.00873   3.39842
   X22        2.74592  -0.00000   0.00000   0.00266   0.00365   2.74957
   Y22        1.85273   0.00001   0.00000   0.00573   0.00510   1.85784
   Z22       -3.00205   0.00016   0.00000   0.00752   0.00793  -2.99411
   X23        2.98797  -0.00004   0.00000   0.00385   0.00430   2.99227
   Y23        2.16938  -0.00028   0.00000  -0.01884  -0.01922   2.15016
   Z23        0.84520  -0.00033   0.00000   0.00764   0.00807   0.85327
   X24        4.96882   0.00033   0.00000  -0.00849  -0.00771   4.96111
   Y24       -3.52337  -0.00088   0.00000   0.00190   0.00142  -3.52195
   Z24       -0.95997  -0.00071   0.00000  -0.03330  -0.03224  -0.99221
   X25        2.99308   0.00034   0.00000  -0.00833  -0.00753   2.98555
   Y25       -2.52782  -0.00007   0.00000   0.00575   0.00523  -2.52259
   Z25       -1.26694   0.00020   0.00000  -0.01319  -0.01247  -1.27941
   X26        5.65317  -0.00048   0.00000  -0.02320  -0.02219   5.63098
   Y26       -4.01775   0.00056   0.00000   0.03531   0.03473  -3.98302
   Z26       -2.59102   0.00084   0.00000  -0.04765  -0.04647  -2.63749
   X27        7.16867   0.00101   0.00000   0.00922   0.00973   7.17840
   Y27        0.17892   0.00063   0.00000  -0.01306  -0.01342   0.16551
   Z27        0.58642   0.00170   0.00000  -0.00360  -0.00248   0.58394
   X28        5.40063   0.00033   0.00000   0.01494   0.01542   5.41606
   Y28        1.28087  -0.00007   0.00000  -0.01383  -0.01420   1.26667
   Z28        0.74235  -0.00009   0.00000  -0.00537  -0.00456   0.73780
   X29        6.20054   0.00010   0.00000  -0.00470  -0.00405   6.19649
   Y29       -1.92671  -0.00002   0.00000  -0.00564  -0.00606  -1.93277
   Z29       -0.16600   0.00014   0.00000  -0.02691  -0.02578  -0.19178
   X30        7.85362  -0.00125   0.00000  -0.03387  -0.03359   7.82004
   Y30        0.03199  -0.00020   0.00000  -0.05443  -0.05467  -0.02268
   Z30        2.28554  -0.00196   0.00000   0.00591   0.00714   2.29268
         Item               Value     Threshold  Converged?
 Maximum Force            0.001959     0.000450     NO 
 RMS     Force            0.000451     0.000300     NO 
 Maximum Displacement     0.067029     0.001800     NO 
 RMS     Displacement     0.023836     0.001200     NO 
 Predicted change in Energy=-6.193357D-05
 GradGradGradGradGradGradGradGradGradGradGradGradGradGradGradGradGradGrad

                          Input orientation:                          
 ---------------------------------------------------------------------
 Center     Atomic      Atomic             Coordinates (Angstroms)
 Number     Number       Type             X           Y           Z
 ---------------------------------------------------------------------
      1          6           0       -1.026870   -0.212242    1.103924
      2          6           0       -0.488362    1.517448   -0.742390
      3          8           0        0.521814   -0.692800   -0.783546
      4          6           0        0.900694    0.892313   -0.637181
      5          6           0       -0.530573   -1.234020    0.068056
      6          6           0       -1.357035    1.170536    0.476594
      7          1           0       -1.161739    1.916574    1.257883
      8          1           0       -0.973220    1.085646   -1.630084
      9          1           0       -0.085054   -2.067135    0.629169
     10          1           0       -1.946742   -0.630557    1.529695
     11          6           0       -1.643152   -1.780318   -0.841225
     12          1           0       -1.186771   -2.381466   -1.642207
     13          1           0       -2.195791   -0.959694   -1.304064
     14          8           0       -2.605277   -2.523467   -0.102394
     15          1           0       -2.167177   -3.317566    0.243600
     16          8           0       -0.327418    2.917587   -0.905946
     17          1           0       -1.222281    3.280029   -1.008877
     18          8           0       -2.704657    1.277998    0.001721
     19          1           0       -3.299559    1.179424    0.761950
     20          8           0       -0.112618   -0.076730    2.175530
     21          1           0        0.647561    0.425991    1.798369
     22          1           0        1.455012    0.983126   -1.584417
     23          8           0        1.583443    1.137816    0.451529
     24          8           0        2.625307   -1.863734   -0.525056
     25          1           0        1.579886   -1.334898   -0.677034
     26          1           0        2.979786   -2.107723   -1.395699
     27          8           0        3.798647    0.087582    0.309008
     28          1           0        2.866053    0.670295    0.390425
     29          1           0        3.279041   -1.022778   -0.101484
     30          1           0        4.138185   -0.012002    1.213234
 ---------------------------------------------------------------------
                    Distance matrix (angstroms):
                    1          2          3          4          5
     1  C    0.000000
     2  C    2.586638   0.000000
     3  O    2.488353   2.430503   0.000000
     4  C    2.822586   1.526872   1.636324   0.000000
     5  C    1.537323   2.868655   1.457965   2.658416   0.000000
     6  C    1.553907   1.536510   2.930877   2.532832   2.575234
     7  H    2.138633   2.147984   3.716264   2.982283   3.426412
     8  H    3.026911   1.099791   2.472776   2.129504   2.908687
     9  H    2.133785   3.859154   2.062244   3.366552   1.098825
    10  H    1.096555   3.450097   3.383596   3.888750   2.122755
    11  C    2.573377   3.495507   2.423448   3.695368   1.537227
    12  H    3.503189   4.061893   2.551108   4.010638   2.161534
    13  H    2.779112   3.060560   2.779847   3.669180   2.175068
    14  O    3.047676   4.606509   3.687005   4.923960   2.448698
    15  H    3.418113   5.212290   3.895523   5.283057   2.655269
    16  O    3.784791   1.418817   3.710939   2.383743   4.269168
    17  H    4.086327   1.927782   4.344653   3.216577   4.692002
    18  O    2.500127   2.350107   3.861451   3.681780   3.322841
    19  H    2.686782   3.206265   4.527325   4.436454   3.738112
    20  O    1.415119   3.346169   3.088394   3.142800   2.440380
    21  H    1.921801   2.989491   2.816698   2.492676   2.671632
    22  H    3.849132   2.184310   2.078696   1.101259   3.404254
    23  O    3.010317   2.421144   2.450229   1.308323   3.200269
    24  O    4.326592   4.601583   2.421278   3.253100   3.272293
    25  H    3.350723   3.523890   1.242237   2.328811   2.240395
    26  H    5.088640   5.059321   2.901442   3.728028   3.902379
    27  O    4.899734   4.639870   3.541229   3.152935   4.532861
    28  H    4.054973   3.640472   2.954944   2.228880   3.907353
    29  H    4.544321   4.588773   2.859440   3.100175   3.819231
    30  H    5.170091   5.250583   4.186736   3.837079   4.960046
                    6          7          8          9         10
     6  C    0.000000
     7  H    1.097783   0.000000
     8  H    2.143037   3.011036   0.000000
     9  H    3.481915   4.174264   3.979081   0.000000
    10  H    2.168112   2.679177   3.725224   2.518053   0.000000
    11  C    3.244387   4.278437   3.047105   2.161480   2.652429
    12  H    4.139447   5.185007   3.473703   2.543960   3.701919
    13  H    2.900367   3.988202   2.405074   3.069044   2.863659
    14  O    3.941952   4.862933   4.245367   2.663634   2.584664
    15  H    4.566583   5.425486   4.931987   2.459162   2.987081
    16  O    2.454326   2.525921   2.073028   5.221377   4.598248
    17  H    2.583553   2.645917   2.294177   5.706895   4.718249
    18  O    1.432878   2.089574   2.386977   4.294872   2.559633
    19  H    1.963392   2.315084   3.338034   4.570648   2.386541
    20  O    2.447576   2.432281   4.071173   2.520656   2.021840
    21  H    2.513930   2.405729   3.849203   2.849462   2.814052
    22  H    3.491489   3.974592   2.430824   4.071346   4.886061
    23  O    2.940767   2.965248   3.297326   3.617617   4.092895
    24  O    5.105795   5.640153   4.782188   2.952907   5.162011
    25  H    4.029089   4.672524   3.644953   2.239277   4.219343
    26  H    5.749824   6.355211   5.087121   3.673552   5.916978
    27  O    5.270856   5.371313   5.246610   4.452913   5.917372
    28  H    4.253485   4.304510   4.358325   4.032314   5.114015
    29  H    5.161202   5.496199   4.986361   3.597453   5.488478
    30  H    5.669081   5.640089   5.951113   4.732911   6.124467
                   11         12         13         14         15
    11  C    0.000000
    12  H    1.100561   0.000000
    13  H    1.092269   1.775922   0.000000
    14  O    1.422613   2.098416   2.014219   0.000000
    15  H    1.953096   2.322445   2.820576   0.970689   0.000000
    16  O    4.879104   5.418536   4.322340   5.953101   6.601766
    17  H    5.080585   5.696919   4.360058   6.034481   6.781578
    18  O    3.345242   4.289306   2.640318   3.804188   4.633206
    19  H    3.751523   4.787879   3.172151   3.865297   4.666251
    20  O    3.787554   4.587018   4.150519   4.169989   4.296113
    21  H    4.133113   4.804597   4.430560   4.784679   4.935006
    22  H    4.217532   4.278181   4.145058   5.565836   5.912517
    23  O    4.538462   4.944002   4.665219   5.590814   5.827591
    24  O    4.280966   4.005997   4.966602   5.288941   5.066790
    25  H    3.257811   3.111471   3.845735   4.388450   4.338090
    26  H    4.667569   4.182810   5.302166   5.747905   5.535545
    27  O    5.867304   5.895577   6.295401   6.927991   6.869524
    28  H    5.277822   5.465366   5.581257   6.354403   6.423239
    29  H    5.034786   4.915622   5.605709   6.072665   5.920002
    30  H    6.385265   6.490228   6.881436   7.315231   7.185022
                   16         17         18         19         20
    16  O    0.000000
    17  H    0.970947   0.000000
    18  O    3.027107   2.688285   0.000000
    19  H    3.825795   3.444337   0.970347   0.000000
    20  O    4.302043   4.758112   3.644091   3.705769   0.000000
    21  H    3.804202   4.418424   3.897592   4.149890   0.986333
    22  H    2.716527   3.574200   4.461573   5.305650   4.209271
    23  O    2.943079   3.820203   4.313906   4.893036   2.706275
    24  O    5.632468   6.441763   6.209387   6.783896   4.240611
    25  H    4.666245   5.409234   5.064113   5.674634   3.547489
    26  H    6.035826   6.843601   6.762306   7.408844   5.142138
    27  O    5.148733   6.094116   6.618495   7.195957   4.336922
    28  H    4.114506   5.048092   5.617224   6.197743   3.552060
    29  H    5.401869   6.292806   6.411620   6.990937   4.193227
    30  H    5.745871   6.671570   7.067981   7.546072   4.358845
                   21         22         23         24         25
    21  H    0.000000
    22  H    3.522160   0.000000
    23  O    1.787888   2.045849   0.000000
    24  O    3.814790   3.255218   3.323929   0.000000
    25  H    3.177669   2.492423   2.718084   1.181385   0.000000
    26  H    4.696919   3.451651   3.986922   0.971188   1.753128
    27  O    3.501721   3.143196   2.455694   2.424875   2.814005
    28  H    2.638881   2.447223   1.366528   2.705064   2.610459
    29  H    3.554302   3.090279   2.801615   1.146293   1.820935
    30  H    3.566325   4.002068   2.903271   2.956241   3.445005
                   26         27         28         29         30
    26  H    0.000000
    27  O    2.897572   0.000000
    28  H    3.304627   1.102685   0.000000
    29  H    1.715124   1.292824   1.810810   0.000000
    30  H    3.541252   0.970993   1.661585   1.867694   0.000000
 Stoichiometry    C6H16O8
 Framework group  C1[X(C6H16O8)]
 Deg. of freedom    84
 Full point group                 C1      NOp   1
 Largest Abelian subgroup         C1      NOp   1
 Largest concise Abelian subgroup C1      NOp   1
                         Standard orientation:                         
 ---------------------------------------------------------------------
 Center     Atomic      Atomic             Coordinates (Angstroms)
 Number     Number       Type             X           Y           Z
 ---------------------------------------------------------------------
      1          6           0       -1.031152   -0.209767    1.100744
      2          6           0       -0.484464    1.518319   -0.744669
      3          8           0        0.522601   -0.693420   -0.781762
      4          6           0        0.903348    0.891202   -0.634932
      5          6           0       -0.533179   -1.232726    0.066849
      6          6           0       -1.357372    1.173214    0.471800
      7          1           0       -1.163379    1.919312    1.253358
      8          1           0       -0.967232    1.086832   -1.633654
      9          1           0       -0.090598   -2.066243    0.629688
     10          1           0       -1.952934   -0.626549    1.523879
     11          6           0       -1.643766   -1.777801   -0.845597
     12          1           0       -1.185813   -2.379969   -1.644913
     13          1           0       -2.193785   -0.956575   -1.310485
     14          8           0       -2.609234   -2.519217   -0.109390
     15          1           0       -2.173357   -3.313803    0.238292
     16          8           0       -0.320974    2.918148   -0.908344
     17          1           0       -1.214986    3.281851   -1.014174
     18          8           0       -2.703375    1.282434   -0.007245
     19          1           0       -3.300746    1.185066    0.751202
     20          8           0       -0.119988   -0.075116    2.175087
     21          1           0        0.642077    0.426328    1.800035
     22          1           0        1.460696    0.980786   -1.580505
     23          8           0        1.583118    1.136189    0.455757
     24          8           0        2.623579   -1.867311   -0.516318
     25          1           0        1.579402   -1.337016   -0.671729
     26          1           0        2.980365   -2.112203   -1.385765
     27          8           0        3.797210    0.082657    0.320482
     28          1           0        2.865225    0.666768    0.398787
     29          1           0        3.277241   -1.027124   -0.091114
     30          1           0        4.133832   -0.017022    1.225787
 ---------------------------------------------------------------------
 Rotational constants (GHZ):      0.7482261      0.5350172      0.3937946
 Standard basis: 6-31G(d) (6D, 7F)
 There are   242 symmetry adapted cartesian basis functions of A   symmetry.
 There are   242 symmetry adapted basis functions of A   symmetry.
   242 basis functions,   456 primitive gaussians,   242 cartesian basis functions
    58 alpha electrons       58 beta electrons
       nuclear repulsion energy      1123.2674481563 Hartrees.
 NAtoms=   30 NActive=   30 NUniq=   30 SFac= 1.00D+00 NAtFMM=   60 NAOKFM=F Big=F
 Integral buffers will be    131072 words long.
 Raffenetti 2 integral format.
 Two-electron integral symmetry is turned on.
 One-electron integrals computed using PRISM.
 NBasis=   242 RedAO= T EigKep=  1.13D-03  NBF=   242
 NBsUse=   242 1.00D-06 EigRej= -1.00D+00 NBFU=   242
 Initial guess from the checkpoint file:  "/scratch/10450569.yak.local/Gau-15614.chk"
 B after Tr=    -0.000000    0.000000    0.000000
         Rot=    0.999998    0.000262    0.001651    0.000721 Ang=   0.21 deg.
 ExpMin= 1.61D-01 ExpMax= 5.48D+03 ExpMxC= 8.25D+02 IAcc=1 IRadAn=         1 AccDes= 0.00D+00
 Harris functional with IExCor=  402 and IRadAn=       1 diagonalized for initial guess.
 HarFok:  IExCor=  402 AccDes= 0.00D+00 IRadAn=         1 IDoV= 1 UseB2=F ITyADJ=14
 ICtDFT=  3500011 ScaDFX=  1.000000  1.000000  1.000000  1.000000
 FoFCou: FMM=F IPFlag=           0 FMFlag=      100000 FMFlg1=           0
         NFxFlg=           0 DoJE=T BraDBF=F KetDBF=T FulRan=T
         wScrn=  0.000000 ICntrl=     500 IOpCl=  0 I1Cent=   200000004 NGrid=           0
         NMat0=    1 NMatS0=      1 NMatT0=    0 NMatD0=    1 NMtDS0=    0 NMtDT0=    0
 Petite list used in FoFCou.
 Requested convergence on RMS density matrix=1.00D-08 within 128 cycles.
 Requested convergence on MAX density matrix=1.00D-06.
 Requested convergence on             energy=1.00D-06.
 No special actions if energy rises.
 Integral accuracy reduced to 1.0D-05 until final iterations.
 Initial convergence to 1.0D-05 achieved.  Increase integral accuracy.
 SCF Done:  E(RB3LYP) =  -839.961350757     A.U. after   11 cycles
            NFock= 11  Conv=0.41D-08     -V/T= 2.0086
 Calling FoFJK, ICntrl=      2127 FMM=F ISym2X=0 I1Cent= 0 IOpClX= 0 NMat=1 NMatS=1 NMatT=0.
 ***** Axes restored to original set *****
 -------------------------------------------------------------------
 Center     Atomic                   Forces (Hartrees/Bohr)
 Number     Number              X              Y              Z
 -------------------------------------------------------------------
      1        6          -0.000002083   -0.000001228   -0.000010140
      2        6          -0.000027084    0.000041060   -0.000022993
      3        8          -0.000017330    0.000000816    0.000013404
      4        6           0.000006818    0.000010340    0.000013675
      5        6          -0.000016797   -0.000025426    0.000011952
      6        6          -0.000023251    0.000053429   -0.000005631
      7        1          -0.000019902   -0.000023515   -0.000035966
      8        1           0.000045903    0.000040586    0.000052076
      9        1          -0.000015485    0.000039791   -0.000020772
     10        1           0.000006197    0.000004815   -0.000005971
     11        6          -0.000032542   -0.000002074    0.000035510
     12        1          -0.000004321    0.000005153    0.000009661
     13        1           0.000025091   -0.000091226    0.000039591
     14        8           0.000191963   -0.000222566    0.000065431
     15        1          -0.000106704    0.000284087   -0.000103257
     16        8          -0.000068298   -0.000076852    0.000011035
     17        1           0.000065918   -0.000022761    0.000009153
     18        8           0.000022649   -0.000011971    0.000038499
     19        1           0.000031870    0.000002967   -0.000048683
     20        8          -0.000000119    0.000028688   -0.000045078
     21        1          -0.000021771   -0.000022277    0.000022273
     22        1           0.000000395   -0.000000417    0.000006003
     23        8          -0.000042396   -0.000020216   -0.000035274
     24        8           0.000077076   -0.000043777   -0.000160041
     25        1           0.000003701   -0.000010257    0.000001451
     26        1          -0.000078982    0.000076219    0.000172007
     27        8           0.000199537   -0.000016495    0.000433710
     28        1           0.000011141    0.000014362   -0.000001613
     29        1           0.000003949   -0.000010660   -0.000015584
     30        1          -0.000215141   -0.000000593   -0.000424429
 -------------------------------------------------------------------
 Cartesian Forces:  Max     0.000433710 RMS     0.000093415

 GradGradGradGradGradGradGradGradGradGradGradGradGradGradGradGradGradGrad
 Berny optimization.
 Search for a saddle point.
 Step number   2 out of a maximum of  180
 All quantities printed in internal units (Hartrees-Bohrs-Radians)
 Swapping is turned off.
 Update second derivatives using D2CorN and points    1    2
 ITU=  0  0
     Eigenvalues ---   -0.07758   0.00041   0.00078   0.00121   0.00138
     Eigenvalues ---    0.00235   0.00324   0.00433   0.00548   0.00717
     Eigenvalues ---    0.00804   0.00938   0.01048   0.01275   0.01585
     Eigenvalues ---    0.01661   0.01702   0.02055   0.02178   0.02437
     Eigenvalues ---    0.02564   0.02794   0.03281   0.03687   0.04189
     Eigenvalues ---    0.04515   0.04692   0.04903   0.05111   0.05317
     Eigenvalues ---    0.05702   0.06171   0.06358   0.07085   0.07226
     Eigenvalues ---    0.07263   0.07848   0.08743   0.09108   0.09768
     Eigenvalues ---    0.10483   0.10831   0.11456   0.12506   0.12881
     Eigenvalues ---    0.14055   0.15197   0.15807   0.17193   0.18063
     Eigenvalues ---    0.18397   0.19953   0.21252   0.21784   0.22359
     Eigenvalues ---    0.25291   0.25800   0.28723   0.30657   0.30862
     Eigenvalues ---    0.36561   0.38476   0.44149   0.48369   0.53561
     Eigenvalues ---    0.57267   0.62744   0.63638   0.65535   0.66138
     Eigenvalues ---    0.73920   0.76613   0.81011   0.82166   0.86881
     Eigenvalues ---    0.88658   0.91657   0.93612   0.96195   1.01885
     Eigenvalues ---    1.04302   1.04651   1.05275   1.06210
 Eigenvectors required to have negative eigenvalues:
                          X25       Y29       X28       Y25       Z29
   1                    0.50335   0.43507  -0.42139  -0.25143   0.23404
                          Y4        Y3        X29       Y27       X23
   1                   -0.22463   0.21289   0.20907  -0.15433   0.13531
 RFO step:  Lambda0=3.596942758D-09 Lambda=-6.64905836D-06.
 Linear search not attempted -- option 19 set.
 B after Tr=     0.000146    0.000178    0.000275
         Rot=    1.000000   -0.000001   -0.000000    0.000012 Ang=  -0.00 deg.
 Variable       Old X    -DE/DX   Delta X   Delta X   Delta X     New X
                                 (Linear)    (Quad)   (Total)
    X1       -1.94050  -0.00000   0.00000  -0.00394  -0.00380  -1.94430
    Y1       -0.40108  -0.00000   0.00000   0.00637   0.00660  -0.39448
    Z1        2.08611  -0.00001   0.00000  -0.00158  -0.00130   2.08481
    X2       -0.92287  -0.00003   0.00000   0.00380   0.00402  -0.91885
    Y2        2.86756   0.00004   0.00000   0.00861   0.00881   2.87637
    Z2       -1.40291  -0.00002   0.00000   0.00140   0.00168  -1.40124
    X3        0.98608  -0.00002   0.00000  -0.00436  -0.00424   0.98184
    Y3       -1.30920   0.00000   0.00000   0.00657   0.00673  -1.30247
    Z3       -1.48069   0.00001   0.00000  -0.00341  -0.00314  -1.48382
    X4        1.70206   0.00001   0.00000   0.00139   0.00157   1.70364
    Y4        1.68623   0.00001   0.00000   0.00352   0.00366   1.68989
    Z4       -1.20410   0.00001   0.00000   0.00385   0.00413  -1.19997
    X5       -1.00264  -0.00002   0.00000   0.00316   0.00325  -0.99938
    Y5       -2.33196  -0.00003   0.00000   0.00390   0.00410  -2.32786
    Z5        0.12861   0.00001   0.00000   0.00413   0.00440   0.13301
    X6       -2.56442  -0.00002   0.00000  -0.00517  -0.00497  -2.56939
    Y6        2.21199   0.00005   0.00000   0.00393   0.00417   2.21616
    Z6        0.90063  -0.00001   0.00000  -0.00595  -0.00567   0.89496
    X7       -2.19537  -0.00002   0.00000  -0.01619  -0.01595  -2.21132
    Y7        3.62180  -0.00002   0.00000   0.00509   0.00532   3.62712
    Z7        2.37706  -0.00004   0.00000  -0.00431  -0.00403   2.37303
    X8       -1.83912   0.00005   0.00000   0.00733   0.00752  -1.83160
    Y8        2.05157   0.00004   0.00000   0.01515   0.01538   2.06695
    Z8       -3.08041   0.00005   0.00000  -0.00354  -0.00326  -3.08367
    X9       -0.16073  -0.00002   0.00000   0.01099   0.01104  -0.14969
    Y9       -3.90632   0.00004   0.00000   0.01164   0.01182  -3.89450
    Z9        1.18896  -0.00002   0.00000   0.00943   0.00970   1.19865
   X10       -3.67881   0.00001   0.00000  -0.00478  -0.00466  -3.68347
   Y10       -1.19158   0.00000   0.00000   0.00492   0.00518  -1.18640
   Z10        2.89070  -0.00001   0.00000  -0.00481  -0.00454   2.88617
   X11       -3.10511  -0.00003   0.00000   0.00596   0.00603  -3.09908
   Y11       -3.36431  -0.00000   0.00000  -0.01172  -0.01146  -3.37578
   Z11       -1.58969   0.00004   0.00000   0.01028   0.01055  -1.57913
   X12       -2.24267  -0.00000   0.00000   0.00916   0.00920  -2.23348
   Y12       -4.50032   0.00001   0.00000  -0.01370  -0.01346  -4.51378
   Z12       -3.10332   0.00001   0.00000   0.01358   0.01385  -3.08947
[...]
 92,0.00620672,0.01449248,-0.00405164,-0.00534390,-0.00574695,-0.000752
 54,0.00335638,-0.00110668,0.00006061,-0.00016608,-0.00006992,-0.000039
 54,0.00008740,0.00005791,0.00028719,-0.00007445,0.00011766,-0.00056844
 ,-0.00060641,0.00007892,-0.00008689,0.00024490,0.00031407,0.00037492,-
 0.00020807,-0.00001721,0.00007390,0.00018884,0.00023090,0.00005154,0.0
 0008746,0.00004561,-0.00044834,-0.00020875,0.00030279,0.00003228,0.000
 02560,-0.00014776,-0.00028176,0.00044654,0.00009092,0.00001525,0.00006
 050,-0.00002136,0.00001639,0.00008760,0.00012189,0.00000300,-0.0000523
 3,-0.00001666,0.00110651,-0.00000286,0.00051748,-0.00056012,0.00018566
 ,-0.00000591,-0.00024349,-0.00017074,0.00073633,0.00718947,-0.00094626
 ,0.00431755,-0.12151514,0.14661183,0.49652692,0.00359706,0.00299336,0.
 00143300,-0.00520075,-0.00297346,0.00021466,-0.00985944,-0.03346973,0.
 00023545,0.03032513,0.03340964,0.01135185,-0.01969410,-0.01224063,0.01
 250291,-0.00226001,0.00137107,0.00029510,0.00023386,-0.00045477,-0.000
 11946,-0.00107736,-0.00014022,-0.00051604,0.00170789,0.00290011,-0.002
 15538,0.00076762,-0.00092309,-0.00142741,-0.00189497,-0.00157987,-0.00
 222595,-0.00024752,-0.00005877,0.00015528,-0.00013853,0.00000519,-0.00
 001215,0.00323809,0.00276443,-0.00000360,-0.00040564,-0.00088993,-0.00
 015896,0.00281245,-0.00446981,0.00016908,-0.00007083,-0.00050787,-0.00
 021824,0.00143100,-0.00066416,0.00004526,-0.00034243,0.00039066,-0.000
 05092,-0.00170342,-0.00063241,-0.00234313,0.00075521,0.00017750,0.0013
 6564,-0.00024698,-0.00231028,0.00140474,-0.01990405,-0.00211927,-0.012
 64913,-0.01895664,0.00697736,0.00501337,0.04722307,-0.00264029,-0.0027
 9904,-0.00010884,0.00036163,-0.00158551,0.00026796,-0.01783200,-0.0281
 0803,0.00659917,0.00310994,-0.02349700,-0.00258306,-0.00070437,0.01529
 444,-0.01072438,0.00108312,-0.00072991,-0.00043064,-0.00011677,0.00015
 611,0.00011380,0.00035692,0.00021312,0.00034800,-0.00211732,-0.0020562
 5,0.00330238,-0.00052630,0.00079570,0.00105685,-0.00003634,0.00065135,
 0.00397440,-0.00001655,-0.00033918,-0.00065592,0.00046288,0.00010405,-
 0.00001696,-0.00245916,-0.00230763,-0.00053352,0.00002956,0.00052151,0
 .00021277,-0.00027366,0.00176781,-0.00001907,-0.00000223,-0.00011777,0
 .00005250,-0.00088947,0.00037907,-0.00000034,0.00018959,-0.00021831,0.
 00003411,0.00057572,0.00007640,0.00132026,0.00014209,0.00010120,-0.001
 26166,-0.00019658,0.00097036,0.00009176,0.00763122,0.00376240,0.005348
 80,-0.00201380,-0.04598432,-0.01161515,0.02790270,0.06789142,0.0035609
 1,0.00185217,-0.00073233,-0.00065101,-0.00039698,-0.00019343,-0.008645
 38,0.01217438,-0.02854961,0.00430938,0.00026061,0.00381751,0.01120536,
 -0.01000599,-0.00033264,-0.00021266,0.00035232,0.00016316,0.00000806,-
 0.00001454,-0.00002753,0.00001607,0.00015225,0.00012297,0.00112412,0.0
 0083359,-0.00033628,0.00025578,-0.00059538,-0.00073062,-0.00049549,0.0
 0046106,-0.00017383,-0.00017111,-0.00030749,-0.00022424,-0.00008050,-0
 .00014125,-0.00008977,0.00030892,0.00012469,-0.00027079,0.00007687,0.0
 0001921,0.00012611,0.00030428,-0.00007901,0.00005493,-0.00001299,-0.00
 008067,0.00001626,-0.00005714,-0.00002350,-0.00007068,-0.00000925,0.00
 004546,-0.00000849,-0.00143845,0.00037016,-0.00022097,0.00042692,-0.00
 063109,-0.00028973,0.00019026,0.00063174,-0.00068067,-0.00193603,0.001
 21902,-0.00306028,-0.02424435,0.00064991,-0.05486898,-0.00305827,0.001
 36214,0.08081273,0.00013679,0.00009088,0.00006518,0.00000927,0.0001709
 5,-0.00005572,-0.00490702,0.00248162,-0.00363597,-0.00003554,0.0002263
 8,0.00042925,0.00051999,0.00005752,-0.00041800,-0.00001386,0.00000699,
 0.00000614,0.00000361,-0.00001456,-0.00001240,-0.00000802,0.00000732,-
 0.00000421,0.00032687,-0.00004329,0.00007218,0.00002217,-0.00001941,-0
 .00001296,-0.00026545,0.00011131,0.00039408,-0.00002029,-0.00011613,-0
 .00017550,0.00001992,-0.00004044,-0.00003284,0.00014771,0.00000481,-0.
 00022331,-0.00004683,-0.00000333,0.00008500,-0.00001036,-0.00009698,0.
 00000803,-0.00000020,0.00003200,0.00000323,0.00005255,-0.00006441,-0.0
 0001996,-0.00001449,0.00002695,0.00000360,-0.00007063,-0.00002448,-0.0
 0011668,-0.00002214,-0.00002172,0.00004606,0.00009680,0.00012445,-0.00
 012565,-0.00014397,-0.00005107,-0.00031269,-0.10716089,0.03936972,0.14
 802260,0.00046462,0.00048000,0.02627478,0.10084362,-0.00012197,-0.0000
 6717,0.00002371,0.00002669,-0.00020486,0.00026560,0.00090244,-0.000841
 41,0.00187620,0.00045022,0.00017113,-0.00117300,0.00034877,0.00039548,
 -0.00012079,0.00011411,0.00005713,-0.00007690,-0.00001711,0.00000017,0
 .00001172,-0.00000237,0.00000890,-0.00002059,0.00008185,0.00005622,-0.
 00005354,-0.00005860,0.00004601,0.00006237,0.00006761,0.00027866,0.000
 22305,-0.00000849,-0.00002837,-0.00010462,0.00000614,-0.00003595,-0.00
 003536,-0.00016991,-0.00021361,-0.00007331,0.00000778,0.00009521,0.000
 07663,-0.00007685,0.00011546,0.00001045,0.00000703,-0.00001890,-0.0000
 0145,-0.00020736,-0.00001821,0.00001963,0.00001340,-0.00000714,0.00000
 832,-0.00015192,-0.00006644,0.00010229,0.00016135,0.00006127,-0.000208
 55,-0.00009676,-0.00026032,0.00043280,-0.00028072,-0.00010728,0.000564
 42,0.02859550,-0.04087661,-0.08784110,0.00272963,-0.00307203,-0.011218
 93,-0.04171516,0.04859394,-0.00003823,-0.00007227,-0.00003163,0.000109
 49,-0.00000100,0.00000633,-0.00468574,0.00261693,-0.00109720,-0.000230
 56,-0.00079905,0.00044228,0.00036411,0.00034051,-0.00033026,0.00007616
 ,-0.00004341,0.00001798,-0.00000303,0.00001209,-0.00000815,-0.00002308
 ,0.00001814,-0.00000698,0.00005868,-0.00004068,-0.00001934,-0.00002511
 ,0.00002877,0.00003526,0.00000940,0.00007351,0.00020809,0.00001789,-0.
 00004273,-0.00001823,-0.00001926,0.00000394,0.00000080,-0.00008638,-0.
 00007834,-0.00008863,0.00003368,0.00002881,0.00002586,-0.00004890,0.00
 011533,-0.00005665,-0.00000441,0.00000627,0.00002629,-0.00006877,0.000
 02668,-0.00002819,0.00001636,-0.00001376,0.00000440,-0.00003632,0.0000
 2751,0.00002254,0.00003163,-0.00001757,-0.00004889,0.00006338,0.000078
 02,-0.00008157,-0.00028388,0.00028794,-0.00013144,0.15027861,-0.116678
 83,-0.41151577,0.00511125,-0.00082951,0.00572730,-0.15570840,0.1149552
 2,0.41632009,0.00074174,0.00056406,0.00019432,-0.00129809,-0.00347863,
 -0.00319028,-0.00280059,-0.00787398,-0.00147888,0.00533342,0.01402656,
 0.02266375,0.00205438,0.00099990,-0.00173270,0.00171413,0.00023820,-0.
 00052565,-0.00004791,-0.00010292,-0.00005790,-0.00151346,0.00069571,-0
 .00048793,-0.00026616,-0.00031866,0.00022908,-0.00028271,-0.00003595,0
 .00013962,0.00063752,0.00054039,0.00036283,0.00001329,-0.00008635,-0.0
 0004517,0.00003224,0.00003358,0.00004882,-0.00106632,-0.00088244,0.000
 02431,0.00022382,0.00031111,0.00003236,-0.00008757,0.00119282,-0.00014
 199,0.00002969,-0.00032433,0.00003431,-0.00148242,0.00010096,0.0000470
 1,0.00013142,-0.00014620,0.00008394,-0.00193641,-0.00161127,0.00197149
 ,0.00211885,0.00197416,-0.00397440,0.00047318,-0.00028318,-0.00313264,
 -0.06862759,0.02733954,-0.01241755,-0.00024629,-0.03022562,-0.01602027
 ,-0.00141673,0.00189930,0.00093097,-0.00456487,-0.00302601,-0.00084071
 ,0.27488963,-0.00093371,-0.00111004,-0.00078904,0.00127155,0.00158474,
 0.00259635,-0.00853376,0.01594422,0.00165752,-0.00646761,-0.01701858,-
 0.01928034,0.00047456,0.00063952,0.00001270,-0.00097732,-0.00061298,0.
 00055808,-0.00004641,0.00028343,0.00008505,0.00134052,-0.00041350,0.00
 054213,0.00054654,0.00039357,-0.00051224,0.00005023,0.00021495,0.00010
 261,0.00016918,-0.00004924,-0.00029198,0.00005076,0.00017439,0.0002617
 4,-0.00018551,-0.00004611,-0.00009321,-0.00004960,0.00020626,0.0002231
 9,0.00010662,-0.00006270,-0.00011000,0.00006370,0.00032652,0.00006612,
 -0.00001348,0.00015636,0.00001482,0.00075911,0.00042423,-0.00008652,0.
 00002040,-0.00010016,-0.00007816,0.00155618,0.00243012,-0.00089017,-0.
 00144485,-0.00276318,0.00260862,-0.00060944,0.00047398,0.00231028,0.05
 322012,-0.00230831,0.01345343,-0.05221887,-0.04398513,-0.04061909,0.02
 324087,-0.01583848,0.00002858,-0.00553275,-0.00363360,0.00058694,-0.08
 053968,0.16703801,-0.00055535,-0.00032337,-0.00067690,0.00056937,0.000
 71802,0.00094777,-0.00357901,0.00463245,0.00096825,0.00162230,-0.00532
 082,-0.00389850,0.00048798,0.00061418,-0.00046118,-0.00010694,-0.00004
 243,0.00010695,-0.00000411,0.00008722,0.00000483,0.00042305,-0.0001108
 0,0.00010114,0.00010634,-0.00008110,-0.00015506,0.00002586,0.00007726,
 0.00011159,0.00013872,-0.00002420,-0.00004283,0.00002777,0.00008712,0.
 00012271,-0.00002441,-0.00000182,-0.00000671,-0.00017168,-0.00004027,0
 .00015643,0.00004239,-0.00000420,-0.00007621,-0.00017383,0.00014500,0.
 00010035,-0.00000556,0.00003329,-0.00003663,0.00014539,0.00004004,0.00
 007421,-0.00000994,-0.00002713,-0.00003714,0.00068586,-0.00003091,0.00
 072245,-0.00114923,0.00035149,-0.00035554,0.00057698,-0.00011902,0.000
 95336,0.00234391,0.00112826,0.01788543,-0.02670411,-0.03306211,-0.0058
 6129,0.00859137,-0.00499771,-0.00059291,-0.00007549,0.00109213,0.00135
 491,0.15656456,-0.01955417,0.51589585,-0.00141988,-0.00130172,-0.00056
 477,0.00305190,0.00499438,0.00411019,-0.00147142,0.02104901,0.00328650
 ,-0.02284183,-0.02491415,-0.04046419,-0.00263316,-0.00086627,0.0024723
 2,-0.00253563,-0.00072359,0.00106836,0.00004216,0.00029018,0.00008855,
 0.00247176,-0.00098775,0.00091042,0.00077701,0.00070508,-0.00064657,0.
 00037951,0.00014346,-0.00013991,-0.00066954,-0.00061625,-0.00075450,0.
 00000607,0.00019957,0.00020820,-0.00015487,-0.00007180,-0.00010889,0.0
 0135372,0.00121869,0.00011036,-0.00020414,-0.00042164,-0.00009842,0.00
 010311,-0.00134653,0.00024296,-0.00002990,0.00048989,-0.00000741,0.002
 27489,0.00008844,-0.00018631,-0.00010481,0.00013874,-0.00014392,0.0034
 7978,0.00345872,-0.00334766,-0.00391229,-0.00432686,0.00735390,0.00055
 294,0.00050748,0.00627138,0.03040914,-0.00580906,0.01907632,-0.0249122
 2,-0.01145506,-0.01049960,0.01903444,-0.01150700,-0.00017252,0.0001320
 3,0.00030558,0.00056683,-0.09548348,0.02279279,-0.01217343,0.06769470,
 0.00065747,0.00087416,0.00020735,-0.00039609,-0.00053359,-0.00286270,0
 .00173238,-0.00977853,-0.00128765,0.00129897,0.01335684,0.01807775,0.0
 0029976,0.00002094,-0.00060434,0.00127052,0.00039430,-0.00047028,0.000
 01229,-0.00018315,-0.00004168,-0.00114627,0.00041754,-0.00051770,-0.00
 037360,-0.00041756,0.00026751,-0.00008151,-0.00013069,0.00003961,0.000
 16964,0.00014589,0.00024026,-0.00001646,-0.00009223,-0.00010350,0.0001
 2142,0.00005086,0.00008227,-0.00035691,-0.00039624,-0.00005311,0.00002
 556,0.00012383,0.00003862,-0.00057685,0.00052573,-0.00014091,-0.000008
 95,-0.00008445,-0.00000990,-0.00085368,-0.00024057,0.00007703,0.000030
 89,0.00000596,0.00005629,-0.00140425,-0.00260407,0.00200211,0.00073785
 ,0.00327276,-0.00366862,0.00051678,-0.00112192,-0.00344514,-0.02204562
 ,-0.02126414,-0.01196294,0.00832256,0.00605490,0.00497725,-0.01135879,
 0.00388672,-0.00159502,0.00043385,0.00018796,-0.00026490,0.03998191,-0
 .05541851,-0.00529845,-0.02130929,0.08819821,-0.00000428,-0.00005184,0
 .00028169,-0.00059948,-0.00141545,-0.00210668,0.00043630,-0.00059663,-
 0.00059813,-0.01786864,0.00612063,-0.00014401,-0.00013568,-0.00023991,
 0.00023777,-0.00003794,-0.00016476,-0.00011438,-0.00002418,0.00002734,
 0.00006863,-0.00059705,0.00022803,0.00002775,0.00003885,0.00009902,-0.
 00002985,-0.00002531,-0.00002213,-0.00006703,-0.00004016,0.00001932,-0
 .00005571,-0.00000281,-0.00002235,-0.00001483,-0.00000745,-0.00000145,
 -0.00000095,0.00007418,0.00003668,-0.00003657,-0.00000224,-0.00000346,
 0.00002006,0.00026639,0.00003004,0.00001604,0.00004364,0.00000320,0.00
 002406,0.00001717,0.00006465,-0.00000581,-0.00000011,0.00000067,0.0000
 3581,0.00006800,0.00099820,-0.00121171,0.00134205,-0.00143824,0.001552
 02,-0.00091860,0.00029113,-0.00066721,0.01539030,-0.00762450,-0.032526
 60,-0.00141883,0.00008308,-0.00118173,-0.00082437,-0.00096378,0.000321
 99,0.00011683,-0.00039525,0.00006891,0.02314629,-0.03002773,-0.0632987
 8,0.00554755,0.01569085,0.09469731,0.00049193,0.00070026,0.00067816,-0
 .00058082,0.00002174,-0.00074150,0.00805764,-0.00718214,-0.00010467,0.
 00264166,0.00939421,0.00539939,-0.00158283,-0.00130049,0.00109587,-0.0
 0006870,0.00033990,-0.00017510,0.00005711,-0.00018539,-0.00005042,-0.0
 0043849,0.00005175,-0.00021954,-0.00021898,-0.00014661,0.00018706,0.00
 010056,-0.00018039,-0.00019335,-0.00044529,-0.00026109,-0.00001476,-0.
 00005264,-0.00009772,-0.00017526,0.00011408,0.00002124,0.00004628,0.00
 064085,0.00035362,-0.00020399,-0.00018575,-0.00011951,0.00007839,0.000
 13777,-0.00082204,0.00002011,-0.00000569,0.00000022,-0.00002521,0.0001
 2780,-0.00034049,0.00001648,-0.00007635,0.00013672,0.00002493,-0.00039
 237,-0.00098302,-0.00051130,0.00047455,0.00096257,0.00000565,0.0003501
 3,-0.00015066,-0.00060293,-0.01396735,-0.00100738,-0.00482318,-0.06024
 833,-0.02025121,-0.00145904,-0.02808173,-0.00299807,-0.00748632,0.0141
 7676,0.01232389,0.00527005,-0.03408991,0.02278680,0.00130995,0.0296114
 5,0.00372363,0.00663984,0.08674567,0.00123160,0.00112474,0.00131043,-0
 .00113758,-0.00094034,-0.00054089,0.01461893,-0.01939321,-0.00208644,0
 .01065806,0.01419940,0.01149981,-0.00152845,-0.00163425,0.00097285,0.0
 0020450,0.00060446,-0.00046709,0.00006572,-0.00030659,-0.00006839,-0.0
 0082779,0.00014390,-0.00039168,-0.00062741,-0.00017676,0.00061828,0.00
 002245,-0.00025205,-0.00026336,-0.00052375,-0.00013453,0.00023242,-0.0
 0008058,-0.00021265,-0.00036079,0.00018491,0.00002484,0.00006120,0.000
 56767,0.00015638,-0.00036620,-0.00022552,-0.00004583,0.00016065,0.0002
 0256,-0.00096966,-0.00006043,-0.00000717,-0.00011927,-0.00002748,-0.00
 033297,-0.00045719,0.00003272,-0.00007074,0.00016089,0.00005178,-0.001
 57795,-0.00162456,-0.00042359,0.00173273,0.00138945,-0.00100362,0.0003
 1516,-0.00052766,-0.00047913,-0.02176500,0.00260449,-0.00785182,0.0025
 3283,-0.06121287,-0.01396512,-0.03045969,0.03001603,0.00465834,0.00402
 818,-0.00099748,-0.00045367,0.00647027,-0.00641066,0.01566776,0.029197
 72,-0.02663294,-0.00248059,-0.01366815,0.05758048,0.00100512,0.0006623
 2,0.00102351,-0.00062924,-0.00029151,-0.00064145,0.00808813,-0.0092929
 0,-0.00144432,0.00435895,0.00820622,0.00777618,-0.00104201,-0.00133820
 ,0.00103956,0.00010477,0.00018055,-0.00013659,0.00004727,-0.00017353,-
 0.00005751,-0.00046469,0.00007494,-0.00021614,-0.00026539,0.00010416,0
 .00035728,0.00001104,-0.00015023,-0.00019321,-0.00034121,-0.00003047,0
 .00002445,-0.00006065,-0.00013789,-0.00021907,0.00006275,0.00000047,0.
 00001011,0.00043102,0.00017469,-0.00025129,-0.00011845,-0.00003873,0.0
 0011924,0.00016847,-0.00055756,-0.00010036,-0.00001054,-0.00005099,0.0
 0001152,-0.00009928,-0.00017861,-0.00009145,-0.00001205,0.00007890,0.0
 0003045,-0.00123703,-0.00048151,-0.00056908,0.00102800,0.00020236,-0.0
 0020434,0.00029875,-0.00011508,-0.00095977,-0.01201214,0.00129345,-0.0
 0581509,0.02634966,0.00006835,-0.03900105,-0.02152554,0.01033055,0.000
 33407,-0.01467928,-0.01862538,-0.01088909,0.00043256,0.03965185,-0.021
 88712,0.01907870,-0.01100713,0.00203284,-0.00235466,-0.00374201,0.0768
 7603,-0.00028382,-0.00004131,-0.00033241,0.00002878,0.00035129,-0.0000
 6120,0.00042238,0.00026320,0.00020752,0.00024482,-0.00066030,-0.000140
 29,-0.00024042,-0.00000197,0.00009099,-0.00012607,0.00006114,0.0000480
 8,0.00001358,0.00000488,-0.00001101,0.00004682,-0.00002327,0.00000862,
 -0.00000560,-0.00006595,-0.00001935,0.00007833,-0.00000246,0.00002162,
 -0.00012120,-0.00012517,-0.00002588,0.00000591,0.00002543,0.00002481,0
 .00002131,0.00000497,0.00000833,0.00015485,0.00013287,0.00002485,-0.00
 005047,-0.00006101,-0.00002310,0.00000560,-0.00021857,0.00007202,0.000
 00355,0.00004524,-0.00002773,0.00023274,-0.00010017,0.00005796,-0.0000
 4420,0.00003936,-0.00001112,0.00058656,-0.00022046,0.00031003,-0.00079
 424,0.00041473,-0.00019270,0.00022187,-0.00003682,0.00005809,-0.003011
 56,0.00119995,0.00421275,-0.00023149,-0.00107884,0.00076809,-0.0000893
 2,0.00010521,-0.00032121,0.00033185,-0.00020876,0.00009527,-0.07318278
 ,0.02910306,-0.12892870,-0.00500145,0.00059274,-0.03062028,-0.00329272
 ,0.00079947,-0.00661302,0.08407639,-0.00010933,-0.00000613,-0.00002418
 ,0.00002987,0.00009357,0.00004624,-0.00007287,-0.00004354,0.00004949,-
 0.00064765,0.00000931,-0.00071697,-0.00002371,0.00012399,-0.00009921,-
 0.00001793,0.00004438,0.00002624,0.00000734,-0.00001072,-0.00000585,0.
 00001178,-0.00002404,0.00000994,-0.00000904,-0.00006595,-0.00000060,0.
 00000100,0.00000045,0.00000120,-0.00000038,-0.00002782,0.00000074,0.00
 000196,0.00000300,0.00000215,0.00001480,0.00000564,0.00001485,0.000006
 12,-0.00000580,0.00001231,-0.00001491,-0.00000301,-0.00001089,-0.00002
 156,-0.00011420,-0.00001272,0.00000350,0.00001647,0.00000425,0.0000156
 0,-0.00005637,0.00000412,-0.00000488,0.00002490,0.00000398,0.00017376,
 -0.00016610,-0.00008817,0.00006638,0.00022624,0.00017004,-0.00028349,0
 .00005005,0.00001718,0.00353267,-0.00135335,-0.00210855,-0.00436339,-0
 .00874038,-0.00014287,0.00039023,0.00006578,-0.00010579,0.00009081,0.0
 0038182,0.00012913,0.03256674,-0.04051913,0.04436426,0.00007724,0.0013
 8199,0.02175524,-0.00112219,0.01404342,-0.01481706,-0.03029848,0.03466
 554,0.00008790,0.00002683,0.00015661,-0.00003391,0.00010780,0.00009436
 ,0.00043898,0.00000916,-0.00000149,-0.00019783,-0.00023955,-0.00069743
 ,-0.00018597,-0.00011156,0.00014282,-0.00004357,-0.00001927,0.00002726
 ,0.00000552,-0.00001359,-0.00000038,0.00005062,-0.00002304,0.00001497,
 0.00000584,0.00002961,-0.00000059,-0.00000069,-0.00000559,-0.00002640,
 -0.00002630,-0.00001726,-0.00001191,-0.00000396,-0.00001011,-0.0000160
 9,-0.00000290,-0.00000040,-0.00000080,0.00005698,0.00003354,-0.0000317
 2,-0.00000881,-0.00000492,0.00001490,0.00003278,-0.00003794,-0.0000329
 3,-0.00000227,0.00000639,0.00001565,0.00002311,0.00001145,-0.00004073,
 0.00000738,0.00000446,0.00000225,-0.00008842,0.00006643,-0.00032204,0.
 00003941,-0.00012238,0.00038519,-0.00003382,-0.00000273,0.00005532,0.0
 0348922,-0.00124555,-0.00015895,0.00116556,0.00057164,0.00163613,-0.00
 060042,0.00032506,-0.00004325,0.00008211,0.00022426,0.00009097,-0.1628
 6017,0.04757264,-0.44211943,-0.00108442,0.00157710,0.00267509,-0.00163
 095,-0.00023396,-0.00695832,0.16131899,-0.04847851,0.44515092\\0.00000
 144,-0.00000137,0.00000128,0.00000132,0.00000220,0.00000517,-0.0000016
 8,0.00000079,-0.00000279,0.00000031,0.00000046,0.00000099,-0.00000143,
 0.00000044,-0.00000202,0.00000237,0.00000028,0.00000516,0.00000171,-0.
 00000053,0.00000275,-0.00000071,0.00000210,0.00000113,-0.00000057,-0.0
 0000035,-0.00000197,0.00000052,-0.00000047,0.00000058,-0.00000357,0.00
 000389,-0.00000136,-0.00000217,0.00000205,-0.00000138,-0.00000111,0.00
 000213,0.00000073,-0.00000133,0.00000253,-0.00000054,-0.00000345,0.000
 00266,-0.00000354,0.00000362,0.00000431,0.00000926,0.00000122,0.000002
 11,0.00000432,0.00000207,0.00000412,0.00000825,0.00000094,0.00000095,0
 .00000310,0.00000341,-0.00000616,0.00000026,0.00000145,-0.00000191,0.0
 0000002,-0.00000037,0.00000087,0.00000023,0.00000293,-0.00000385,0.000
 00080,0.00000082,-0.00000092,-0.00002111,-0.00000107,-0.00000040,-0.00
 000281,-0.00000632,0.00000213,0.00000861,0.00000159,-0.00001521,0.0000
 1044,0.00000111,-0.00000249,-0.00000036,-0.00000069,-0.00000285,-0.000
 00405,-0.00000236,0.00000247,-0.00002116\\\@


 IF I AM NOT FOR MYSELF, WHO WILL BE?
 BUT IF I AM ONLY FOR MYSELF, WHAT AM I?
 THOUGH A SEEKER SINCE MY BIRTH,
 HERE IS ALL I'VE LEARNED ON EARTH,
 THIS IS THE GIST OF WHAT I KNOW:
 GIVE ADVICE AND BUY A FOE.

 PRESSED FOR RULES AND VERITIES,
 ALL I RECOLLECT ARE THESE:
 FEED A COLD TO STARVE A FEVER,
 ARGUE WITH NO TRUE-BELIEVER.
 THINK-TOO-LONG IS NEVER-ACT,
 SCRATCH A MYTH AND FIND A FACT.

 STITCH IN TIME SAVES TWENTY STITCHES,
 GIVE THE RICH TO PLEASE THEM, RICHES.
 GIVE TO LOVE YOU HEARTH AND HALL,
 BUT DO NOT GIVE ADVICE AT ALL.

                                  -- HILLEL
 Job cpu time:       0 days  0 hours 42 minutes 60.0 seconds.
 File lengths (MBytes):  RWF=    220 Int=      0 D2E=      0 Chk=      6 Scr=      1
 Normal termination of Gaussian 09 at Tue Jan 10 14:16:53 2017.
