 Entering Gaussian System, Link 0=g09
 Initial command:
 /global/software/gaussian/g09.e01/l1.exe "/scratch/10461036.yak.local/Gau-26421.inp" -scrdir="/scratch/10461036.yak.local/"
 Entering Link 1 = /global/software/gaussian/g09.e01/l1.exe PID=     26422.
  
 Copyright (c) 1988,1990,1992,1993,1995,1998,2003,2009,2015,
            Gaussian, Inc.  All Rights Reserved.
  
 This is part of the Gaussian(R) 09 program.  It is based on
 the Gaussian(R) 03 system (copyright 2003, Gaussian, Inc.),
 the Gaussian(R) 98 system (copyright 1998, Gaussian, Inc.),
 the Gaussian(R) 94 system (copyright 1995, Gaussian, Inc.),
 the Gaussian 92(TM) system (copyright 1992, Gaussian, Inc.),
 the Gaussian 90(TM) system (copyright 1990, Gaussian, Inc.),
 the Gaussian 88(TM) system (copyright 1988, Gaussian, Inc.),
 the Gaussian 86(TM) system (copyright 1986, Carnegie Mellon
 University), and the Gaussian 82(TM) system (copyright 1983,
 Carnegie Mellon University). Gaussian is a federally registered
 trademark of Gaussian, Inc.
  
 This software contains proprietary and confidential information,
 including trade secrets, belonging to Gaussian, Inc.
  
 This software is provided under written license and may be
 used, copied, transmitted, or stored only in accord with that
 written license.
  
 The following legend is applicable only to US Government
 contracts under FAR:
  
                    RESTRICTED RIGHTS LEGEND
  
 Use, reproduction and disclosure by the US Government is
 subject to restrictions as set forth in subparagraphs (a)
 and (c) of the Commercial Computer Software - Restricted
 Rights clause in FAR 52.227-19.
  
 Gaussian, Inc.
 340 Quinnipiac St., Bldg. 40, Wallingford CT 06492
  
  
 ---------------------------------------------------------------
 Warning -- This program may not be used in any manner that
 competes with the business of Gaussian, Inc. or will provide
 assistance to any competitor of Gaussian, Inc.  The licensee
 of this program is prohibited from giving any competitor of
 Gaussian, Inc. access to this program.  By using this program,
 the user acknowledges that Gaussian, Inc. is engaged in the
 business of creating and licensing software in the field of
 computational chemistry and represents and warrants to the
 licensee that it is not a competitor of Gaussian, Inc. and that
 it will not use this program in any manner prohibited above.
 ---------------------------------------------------------------
  

 Cite this work as:
 Gaussian 09, Revision E.01,
 M. J. Frisch, G. W. Trucks, H. B. Schlegel, G. E. Scuseria, 
 M. A. Robb, J. R. Cheeseman, G. Scalmani, V. Barone, B. Mennucci, 
 G. A. Petersson, H. Nakatsuji, M. Caricato, X. Li, H. P. Hratchian, 
 A. F. Izmaylov, J. Bloino, G. Zheng, J. L. Sonnenberg, M. Hada, 
 M. Ehara, K. Toyota, R. Fukuda, J. Hasegawa, M. Ishida, T. Nakajima, 
 Y. Honda, O. Kitao, H. Nakai, T. Vreven, J. A. Montgomery, Jr., 
 J. E. Peralta, F. Ogliaro, M. Bearpark, J. J. Heyd, E. Brothers, 
 K. N. Kudin, V. N. Staroverov, T. Keith, R. Kobayashi, J. Normand, 
 K. Raghavachari, A. Rendell, J. C. Burant, S. S. Iyengar, J. Tomasi, 
 M. Cossi, N. Rega, J. M. Millam, M. Klene, J. E. Knox, J. B. Cross, 
 V. Bakken, C. Adamo, J. Jaramillo, R. Gomperts, R. E. Stratmann, 
 O. Yazyev, A. J. Austin, R. Cammi, C. Pomelli, J. W. Ochterski, 
 R. L. Martin, K. Morokuma, V. G. Zakrzewski, G. A. Voth, 
 P. Salvador, J. J. Dannenberg, S. Dapprich, A. D. Daniels, 
 O. Farkas, J. B. Foresman, J. V. Ortiz, J. Cioslowski, 
 and D. J. Fox, Gaussian, Inc., Wallingford CT, 2013.
 
 ******************************************
 Gaussian 09:  ES64L-G09RevE.01 30-Nov-2015
                13-Jan-2017 
 ******************************************
 -------------------------------------
 # b3lyp/6-31g(d) irc=(calcfc,reverse)
 -------------------------------------
 1/10=4,14=-1,18=10,22=2,26=3,38=1,44=3/1,23;
 2/12=2,17=6,18=5,29=1,40=1/2;
 3/5=1,6=6,7=1,11=2,16=1,25=1,30=1,71=2,74=-5,140=1/1,2,3;
 4//1;
 5/5=2,38=5/2;
 8/6=4,10=90,11=11/1;
 11/6=1,8=1,9=11,15=111,16=1/1,2,10;
 10/6=1,13=1/2;
 6/7=2,8=2,9=2,10=2,28=1/1;
 7/10=1,18=20,25=1/1,2,3,16;
 1/10=4,14=-1,18=10,22=2,26=3,44=3/23(2);
 2/29=1/2;
 99/5=20/99;
 2/29=1/2;
 3/5=1,6=6,7=1,11=2,16=1,25=1,30=1,71=2,74=-5,140=1/1,2,3;
 4/5=5,16=3,69=1/1;
 5/5=2,38=5/2;
 8/6=4,10=90,11=11/1;
 11/6=1,8=1,9=11,15=111,16=1/1,2,10;
 10/6=1,13=1/2;
 7/10=1,18=20,25=1/1,2,3,16;
 1/14=-1,18=10,22=2,26=3,44=3/23(-8);
 2/29=1/2;
 6/7=2,8=2,9=2,10=2,19=2,28=1/1;
 99/5=20,9=1/99;
 --------------------------------
 glo_1w_beta_ts_boat1_B3LYP_631Gd
 --------------------------------
 Symbolic Z-matrix:
 Charge =  0 Multiplicity = 1
 1                    -0.0266    1.57668   1.42475 
 6                    -0.48954   1.09755   0.54996 
 6                     1.12816  -0.78059   0.05326 
 6                    -1.3392   -1.55395   0.03787 
 6                     0.08951  -1.80973  -0.41852 
 8                    -1.27734   0.01358   1.02626 
 6                     0.68217   0.62871  -0.3476 
 1                    -1.61247  -2.09442   0.95206 
 1                     0.07897  -1.77623  -1.51891 
 1                     0.37077   0.60197  -1.40305 
 6                    -1.34162   2.1445   -0.17571 
 1                    -2.13666   2.51605   0.48841 
 1                    -1.80549   1.68299  -1.05967 
 8                    -2.23057  -1.34393  -0.86452 
 1                     1.20971  -0.83953   1.14997 
 8                    -0.45963   3.20838  -0.54997 
 1                    -0.9154    3.79309  -1.17297 
 8                     0.45325  -3.09718   0.04738 
 1                     1.40676  -3.15808  -0.14511 
 8                     2.32582  -1.20371  -0.56861 
 1                     3.08681  -0.74692  -0.13824 
 8                     1.76241   1.55713  -0.21102 
 1                     1.39291   2.42522  -0.45787 
 8                    -3.63145  -0.10218   0.60687 
 1                    -3.16606  -0.8203   -0.23723 
 1                    -2.48644   0.15342   0.94883 
 8                     4.14934   0.47993   0.62124 
 1                     3.45391   1.11579   0.34734 
 1                     4.08868   0.45608   1.58824 
 1                    -4.05095   0.65905   0.17676 
 
 IRC-IRC-IRC-IRC-IRC-IRC-IRC-IRC-IRC-IRC-IRC-IRC-IRC-IRC-IRC-IRC-IRC-IRC
 ------------------------------------------------------------------------
 INPUT DATA FOR L123
 ------------------------------------------------------------------------
 GENERAL PARAMETERS:
 Rxn path following direction = Reverse
 Maximum points per path      =  10
 Step size                    =   0.100 bohr
 Integration scheme           = HPC                                 
    Redo corrector integration= Yes                                 
    DWI Weight Power          =  2
    DWI will use Hessian update vectors when possible.
    Max correction cycles     =  20
 Initial Hessian              = CalcFC
 Hessian evaluation           = All updating
 Hessian updating method      = Bofill                              
 ------------------------------------------------------------------------
 IRC-IRC-IRC-IRC-IRC-IRC-IRC-IRC-IRC-IRC-IRC-IRC-IRC-IRC-IRC-IRC-IRC-IRC
                          Input orientation:                          
 ---------------------------------------------------------------------
 Center     Atomic      Atomic             Coordinates (Angstroms)
 Number     Number       Type             X           Y           Z
 ---------------------------------------------------------------------
      1          1           0       -0.026595    1.576676    1.424754
      2          6           0       -0.489540    1.097554    0.549958
      3          6           0        1.128162   -0.780590    0.053260
      4          6           0       -1.339197   -1.553946    0.037873
      5          6           0        0.089513   -1.809730   -0.418522
      6          8           0       -1.277335    0.013579    1.026265
      7          6           0        0.682166    0.628710   -0.347601
      8          1           0       -1.612465   -2.094418    0.952062
      9          1           0        0.078971   -1.776228   -1.518913
     10          1           0        0.370773    0.601971   -1.403053
     11          6           0       -1.341622    2.144495   -0.175710
     12          1           0       -2.136657    2.516049    0.488414
     13          1           0       -1.805488    1.682991   -1.059667
     14          8           0       -2.230571   -1.343928   -0.864517
     15          1           0        1.209714   -0.839527    1.149974
     16          8           0       -0.459634    3.208383   -0.549967
     17          1           0       -0.915396    3.793088   -1.172972
     18          8           0        0.453246   -3.097178    0.047377
     19          1           0        1.406763   -3.158083   -0.145110
     20          8           0        2.325821   -1.203709   -0.568608
     21          1           0        3.086806   -0.746917   -0.138237
     22          8           0        1.762413    1.557129   -0.211020
     23          1           0        1.392913    2.425223   -0.457870
     24          8           0       -3.631452   -0.102179    0.606869
     25          1           0       -3.166061   -0.820304   -0.237226
     26          1           0       -2.486439    0.153422    0.948825
     27          8           0        4.149341    0.479928    0.621242
     28          1           0        3.453905    1.115792    0.347336
     29          1           0        4.088680    0.456077    1.588235
     30          1           0       -4.050952    0.659053    0.176758
 ---------------------------------------------------------------------
                    Distance matrix (angstroms):
                    1          2          3          4          5
     1  H    0.000000
     2  C    1.099611   0.000000
     3  C    2.961615   2.528061   0.000000
     4  C    3.667037   2.831007   2.585764   0.000000
     5  C    3.857317   3.118582   1.536392   1.521491   0.000000
     6  O    2.041180   1.422143   2.713643   1.854152   2.698173
     7  C    2.131249   1.548652   1.531577   2.999748   2.510430
     8  H    4.026829   3.407541   3.169389   1.096598   2.203696
     9  H    4.462991   3.586371   2.136311   2.117591   1.100951
    10  H    3.017357   2.190889   2.146150   3.106162   2.620059
    11  C    2.147836   1.532554   3.835151   3.704604   4.212244
    12  H    2.492291   2.174606   4.660068   4.171785   4.948811
    13  H    3.057468   2.159942   3.989253   3.449606   4.025071
    14  O    4.316040   3.315534   3.527145   1.285676   2.408043
    15  H    2.728003   2.645707   1.101320   2.871256   2.157852
    16  O    2.597983   2.380405   4.335537   4.878418   5.049782
    17  H    3.528545   3.227343   5.157354   5.498775   5.742004
    18  O    4.896154   4.328650   2.412908   2.365271   1.416646
    19  H    5.190080   4.710576   2.401966   3.185441   1.904720
    20  O    4.151854   3.804374   1.414262   3.731332   2.321823
    21  H    4.187516   4.082393   1.968271   4.502423   3.192475
    22  O    2.424188   2.421072   2.436606   4.400082   3.765288
    23  H    2.505855   2.514369   3.257082   4.852213   4.431165
    24  O    4.059863   3.363660   4.839489   2.772331   4.220514
    25  H    4.285316   3.385499   4.304220   1.987798   3.407432
    26  H    2.881491   2.244568   3.839239   2.249690   3.515556
    27  O    4.391689   4.680359   3.322504   5.882263   4.775547
    28  H    3.672482   3.948689   3.015265   5.495188   4.523754
    29  H    4.268250   4.738102   3.556706   5.992133   5.015405
    30  H    4.312189   3.607661   5.376899   3.502894   4.857232
                    6          7          8          9         10
     6  O    0.000000
     7  C    2.470939   0.000000
     8  H    2.135760   3.790763   0.000000
     9  H    3.394246   2.742178   3.011298   0.000000
    10  H    2.994003   1.100754   4.092715   2.398834   0.000000
    11  C    2.447382   2.534338   4.394725   4.381135   2.611139
    12  H    2.700014   3.493813   4.663277   5.230871   3.678117
    13  H    2.723416   2.794095   4.284055   3.965891   2.454105
    14  O    2.515262   3.555635   2.060400   2.439078   3.292952
    15  H    2.632206   2.162581   3.094934   3.046136   3.049539
    16  O    3.655122   2.828316   5.630702   5.106398   2.865435
    17  H    4.387748   3.639606   6.297968   5.667956   3.448245
    18  O    3.691875   3.753752   2.468024   2.082848   3.974198
    19  H    4.316937   3.860809   3.383919   2.357942   4.098012
    20  O    4.124093   2.471478   4.314614   2.505832   2.789084
    21  H    4.580409   2.778215   5.008758   3.465951   3.285741
    22  O    3.626774   1.430926   5.106501   3.956745   2.066381
    23  H    3.892160   1.935143   5.607795   4.528184   2.293990
    24  O    2.393984   4.478003   2.857356   4.592236   4.533588
    25  H    2.420549   4.113475   2.334830   3.617561   3.986378
    26  H    1.219625   3.456396   2.411768   4.049026   3.727759
    27  O    5.461716   3.603067   6.319423   5.122345   4.288384
    28  H    4.905145   2.898745   6.028204   4.820461   3.582398
    29  H    5.413477   3.921938   6.277961   5.542140   4.774089
    30  H    2.971742   4.762172   3.758845   5.085485   4.695819
                   11         12         13         14         15
    11  C    0.000000
    12  H    1.100542   0.000000
    13  H    1.099790   1.788914   0.000000
    14  O    3.665212   4.091291   3.062845   0.000000
    15  H    4.143808   4.784950   4.509662   4.018477   0.000000
    16  O    1.431722   2.090447   2.097126   4.894762   4.697031
    17  H    1.973337   2.425389   2.292948   5.311663   5.601187
    18  O    5.544949   6.197615   5.401615   3.332913   2.623919
    19  H    5.972595   6.719595   5.881409   4.127821   2.663038
    20  O    4.981463   5.904880   5.063782   4.568143   2.081309
    21  H    5.288917   6.190655   5.539677   5.399852   2.278495
    22  O    3.159316   4.075719   3.669600   4.978666   2.811004
    23  H    2.763350   3.655348   3.338089   5.244187   3.643805
    24  O    3.302014   3.017211   3.049314   2.381047   4.927021
    25  H    3.481723   3.566157   2.965477   1.242102   4.590436
    26  H    2.557256   2.432351   2.614826   2.365531   3.832487
    27  O    5.792805   6.608873   6.303396   6.799795   3.265260
    28  H    4.932432   5.764981   5.473809   6.311266   3.082839
    29  H    5.954027   6.648903   6.577075   7.013483   3.187336
    30  H    3.109862   2.685161   2.760309   2.899995   5.555853
                   16         17         18         19         20
    16  O    0.000000
    17  H    0.968367   0.000000
    18  O    6.399240   7.130091   0.000000
    19  H    6.646746   7.400520   0.974657   0.000000
    20  O    5.217822   5.986545   2.733350   2.200817   0.000000
    21  H    5.328335   6.140028   3.534659   2.938760   0.986396
    22  O    2.789089   3.618774   4.841824   4.729065   2.840339
    23  H    2.013393   2.776818   5.624514   5.592076   3.748563
    24  O    4.728480   5.071282   5.095862   5.940339   6.171241
    25  H    4.863422   5.217710   4.285386   5.136576   5.515214
    26  H    3.960695   4.496373   4.474456   5.226833   5.225156
    27  O    5.482595   6.312511   5.175532   4.619973   2.752381
    28  H    4.527679   5.345095   5.181028   4.764378   2.737081
    29  H    5.730118   6.618208   5.311897   4.822791   3.242612
    30  H    4.463718   4.634184   5.866329   6.667892   6.684960
                   21         22         23         24         25
    21  H    0.000000
    22  O    2.658560   0.000000
    23  H    3.610251   0.975219   0.000000
    24  O    6.790130   5.702282   5.724131   0.000000
    25  H    6.254081   5.471995   5.600569   1.201994   0.000000
    26  H    5.749206   4.622594   4.710546   1.222015   1.678316
    27  O    1.791909   2.747808   3.542111   7.802551   7.479484
    28  H    1.959650   1.835125   2.571119   7.193962   6.922003
    29  H    2.330590   3.140247   3.915513   7.802254   7.588987
    30  H    7.281728   5.895093   5.758279   0.969768   1.772826
                   26         27         28         29         30
    26  H    0.000000
    27  O    6.651879   0.000000
    28  H    6.047779   0.981315   0.000000
    29  H    6.613065   0.969187   1.542074   0.000000
    30  H    1.816439   8.214284   7.520677   8.263599   0.000000
 Symmetry turned off by external request.
 Stoichiometry    C6H16O8
 Framework group  C1[X(C6H16O8)]
 Deg. of freedom    84
 Full point group                 C1      NOp   1
 Rotational constants (GHZ):      0.7314493      0.5238381      0.3353985
 Standard basis: 6-31G(d) (6D, 7F)
   242 basis functions,   456 primitive gaussians,   242 cartesian basis functions
    58 alpha electrons       58 beta electrons
       nuclear repulsion energy      1103.4621563569 Hartrees.
 NAtoms=   30 NActive=   30 NUniq=   30 SFac= 1.00D+00 NAtFMM=   60 NAOKFM=F Big=F
 Integral buffers will be    131072 words long.
 Raffenetti 2 integral format.
 Two-electron integral symmetry is turned off.
 One-electron integrals computed using PRISM.
 NBasis=   242 RedAO= T EigKep=  1.59D-03  NBF=   242
 NBsUse=   242 1.00D-06 EigRej= -1.00D+00 NBFU=   242
 ExpMin= 1.61D-01 ExpMax= 5.48D+03 ExpMxC= 8.25D+02 IAcc=1 IRadAn=         1 AccDes= 0.00D+00
 Harris functional with IExCor=  402 and IRadAn=       1 diagonalized for initial guess.
 HarFok:  IExCor=  402 AccDes= 0.00D+00 IRadAn=         1 IDoV= 1 UseB2=F ITyADJ=14
 ICtDFT=  3500011 ScaDFX=  1.000000  1.000000  1.000000  1.000000
 FoFCou: FMM=F IPFlag=           0 FMFlag=      100000 FMFlg1=           0
         NFxFlg=           0 DoJE=T BraDBF=F KetDBF=T FulRan=T
         wScrn=  0.000000 ICntrl=     500 IOpCl=  0 I1Cent=   200000004 NGrid=           0
         NMat0=    1 NMatS0=      1 NMatT0=    0 NMatD0=    1 NMtDS0=    0 NMtDT0=    0
 Symmetry not used in FoFCou.
 Requested convergence on RMS density matrix=1.00D-08 within 128 cycles.
 Requested convergence on MAX density matrix=1.00D-06.
 Requested convergence on             energy=1.00D-06.
 No special actions if energy rises.
 Integral accuracy reduced to 1.0D-05 until final iterations.
 Initial convergence to 1.0D-05 achieved.  Increase integral accuracy.
 SCF Done:  E(RB3LYP) =  -839.953068735     A.U. after   14 cycles
            NFock= 14  Conv=0.60D-08     -V/T= 2.0086
 DoSCS=F DFT=T ScalE2(SS,OS)=  1.000000  1.000000
 Range of M.O.s used for correlation:     1   242
 NBasis=   242 NAE=    58 NBE=    58 NFC=     0 NFV=     0
 NROrb=    242 NOA=    58 NOB=    58 NVA=   184 NVB=   184
 Symmetrizing basis deriv contribution to polar:
 IMax=3 JMax=2 DiffMx= 0.00D+00
 G2DrvN: will do    31 centers at a time, making    1 passes.
 Calling FoFCou, ICntrl=  3107 FMM=F I1Cent=   0 AccDes= 0.00D+00.
 End of G2Drv F.D. properties file   721 does not exist.
 End of G2Drv F.D. properties file   722 does not exist.
 End of G2Drv F.D. properties file   788 does not exist.
          IDoAtm=111111111111111111111111111111
          Differentiating once with respect to nuclear coordinates.
          There are    93 degrees of freedom in the 1st order CPHF.  IDoFFX=6 NUNeed=     0.
     87 vectors produced by pass  0 Test12= 1.15D-14 1.08D-09 XBig12= 1.19D-01 9.61D-02.
 AX will form    87 AO Fock derivatives at one time.
     87 vectors produced by pass  1 Test12= 1.15D-14 1.08D-09 XBig12= 1.28D-02 2.07D-02.
     87 vectors produced by pass  2 Test12= 1.15D-14 1.08D-09 XBig12= 1.40D-04 1.65D-03.
     87 vectors produced by pass  3 Test12= 1.15D-14 1.08D-09 XBig12= 3.61D-07 7.40D-05.
     87 vectors produced by pass  4 Test12= 1.15D-14 1.08D-09 XBig12= 4.86D-10 2.17D-06.
     71 vectors produced by pass  5 Test12= 1.15D-14 1.08D-09 XBig12= 4.04D-13 4.80D-08.
      2 vectors produced by pass  6 Test12= 1.15D-14 1.08D-09 XBig12= 3.44D-16 1.59D-09.
 InvSVY:  IOpt=1 It=  1 EMax= 5.00D-16
 Solved reduced A of dimension   508 with    93 vectors.
 End of Minotr F.D. properties file   721 does not exist.
 End of Minotr F.D. properties file   722 does not exist.
 End of Minotr F.D. properties file   788 does not exist.

 **********************************************************************

            Population analysis using the SCF density.

 **********************************************************************

 Alpha  occ. eigenvalues --  -19.18795 -19.16427 -19.15983 -19.15923 -19.14973
 Alpha  occ. eigenvalues --  -19.14072 -19.13921 -19.13304 -10.29374 -10.26109
 Alpha  occ. eigenvalues --  -10.25254 -10.24676 -10.23884 -10.23726  -1.06360
 Alpha  occ. eigenvalues --   -1.05619  -1.03961  -1.02538  -1.00836  -1.00647
 Alpha  occ. eigenvalues --   -0.99480  -0.99276  -0.78426  -0.76025  -0.69993
 Alpha  occ. eigenvalues --   -0.63953  -0.61956  -0.57566  -0.56808  -0.54948
 Alpha  occ. eigenvalues --   -0.53997  -0.53071  -0.52211  -0.50445  -0.49289
 Alpha  occ. eigenvalues --   -0.47802  -0.46216  -0.45094  -0.43387  -0.43271
 Alpha  occ. eigenvalues --   -0.42663  -0.41790  -0.40376  -0.39497  -0.38686
 Alpha  occ. eigenvalues --   -0.37386  -0.35650  -0.34779  -0.34160  -0.33678
 Alpha  occ. eigenvalues --   -0.30977  -0.30362  -0.30062  -0.28044  -0.27481
 Alpha  occ. eigenvalues --   -0.26992  -0.26716  -0.25572
 Alpha virt. eigenvalues --    0.00278   0.03420   0.05225   0.06548   0.09595
 Alpha virt. eigenvalues --    0.10955   0.11756   0.12093   0.12866   0.14469
 Alpha virt. eigenvalues --    0.15354   0.15446   0.16692   0.18201   0.19060
 Alpha virt. eigenvalues --    0.19496   0.20987   0.21952   0.23003   0.24434
 Alpha virt. eigenvalues --    0.25549   0.26235   0.27695   0.27921   0.30233
 Alpha virt. eigenvalues --    0.31603   0.32165   0.34983   0.50656   0.52256
 Alpha virt. eigenvalues --    0.54093   0.54958   0.57981   0.58553   0.59124
 Alpha virt. eigenvalues --    0.59363   0.61733   0.62466   0.63577   0.67062
 Alpha virt. eigenvalues --    0.67653   0.69060   0.69897   0.71868   0.72462
 Alpha virt. eigenvalues --    0.75692   0.76044   0.78797   0.79592   0.81008
 Alpha virt. eigenvalues --    0.81673   0.83049   0.83345   0.84040   0.84853
 Alpha virt. eigenvalues --    0.85943   0.86144   0.86789   0.88791   0.89552
 Alpha virt. eigenvalues --    0.90389   0.91673   0.92865   0.94404   0.95421
 Alpha virt. eigenvalues --    0.96932   0.98129   0.99690   1.00460   1.02358
 Alpha virt. eigenvalues --    1.03180   1.04382   1.05724   1.06804   1.07108
 Alpha virt. eigenvalues --    1.11368   1.11828   1.14944   1.15288   1.15718
 Alpha virt. eigenvalues --    1.18717   1.19374   1.23355   1.24178   1.25303
 Alpha virt. eigenvalues --    1.29199   1.29931   1.32340   1.34915   1.36697
 Alpha virt. eigenvalues --    1.39908   1.44308   1.45472   1.47644   1.49542
 Alpha virt. eigenvalues --    1.50973   1.53179   1.56233   1.59437   1.61680
 Alpha virt. eigenvalues --    1.63320   1.64215   1.65639   1.67225   1.68313
 Alpha virt. eigenvalues --    1.70196   1.70652   1.71957   1.72505   1.73912
 Alpha virt. eigenvalues --    1.75221   1.76239   1.77492   1.79107   1.80520
 Alpha virt. eigenvalues --    1.81400   1.82992   1.84507   1.85188   1.86893
 Alpha virt. eigenvalues --    1.88578   1.90745   1.91000   1.92722   1.93727
 Alpha virt. eigenvalues --    1.96138   1.99494   2.02032   2.04217   2.04397
 Alpha virt. eigenvalues --    2.07595   2.09443   2.10525   2.11683   2.14877
 Alpha virt. eigenvalues --    2.15839   2.21527   2.24369   2.25121   2.26601
 Alpha virt. eigenvalues --    2.27619   2.30400   2.33093   2.34918   2.37199
 Alpha virt. eigenvalues --    2.44473   2.46027   2.47798   2.48049   2.49065
 Alpha virt. eigenvalues --    2.51168   2.54226   2.56548   2.57637   2.58601
 Alpha virt. eigenvalues --    2.59624   2.61666   2.64324   2.67793   2.68913
 Alpha virt. eigenvalues --    2.72900   2.75122   2.75763   2.82964   2.89499
 Alpha virt. eigenvalues --    2.94602   2.96003   2.98074   3.01775   3.09720
 Alpha virt. eigenvalues --    3.73510   3.75789   3.80416   3.84400   3.89901
 Alpha virt. eigenvalues --    3.96610   3.98703   4.16093   4.26671   4.33649
 Alpha virt. eigenvalues --    4.41293   4.48144   4.67167   4.74894
          Condensed to atoms (all electrons):
               1          2          3          4          5          6
     1  H    0.621689   0.363108  -0.006255   0.001388   0.000268  -0.034719
     2  C    0.363108   4.920504  -0.027903  -0.005322  -0.007895   0.168171
     3  C   -0.006255  -0.027903   4.966411  -0.026637   0.325064  -0.001648
     4  C    0.001388  -0.005322  -0.026637   4.784992   0.308207   0.079869
     5  C    0.000268  -0.007895   0.325064   0.308207   4.938206  -0.012040
     6  O   -0.034719   0.168171  -0.001648   0.079869  -0.012040   8.571903
     7  C   -0.056302   0.286939   0.272457  -0.007866  -0.031868  -0.032922
     8  H   -0.000208   0.003349  -0.000069   0.346220  -0.060043  -0.030132
     9  H    0.000019   0.000987  -0.043158  -0.059550   0.346698   0.001585
    10  H    0.007218  -0.056094  -0.053402  -0.000173  -0.005321   0.002869
    11  C   -0.055384   0.342874   0.003439   0.000019  -0.000212  -0.031038
    12  H   -0.007851  -0.038199  -0.000070  -0.000107  -0.000000   0.000236
    13  H    0.006387  -0.029622  -0.000323   0.000923  -0.000246   0.001463
    14  O   -0.000122   0.005344   0.000407   0.330590  -0.039596  -0.051310
    15  H    0.002986  -0.001709   0.344697  -0.004218  -0.037947   0.003304
    16  O    0.003790  -0.047117   0.000231  -0.000001  -0.000003   0.001161
    17  H   -0.000222   0.005000   0.000007   0.000001  -0.000000  -0.000081
    18  O    0.000002   0.000028  -0.029286  -0.033446   0.227898   0.000353
    19  H   -0.000001  -0.000053  -0.010874   0.006801  -0.036519  -0.000068
    20  O   -0.000066   0.002808   0.233340   0.003042  -0.048443   0.000092
    21  H   -0.000005  -0.000070  -0.016830  -0.000144   0.004692   0.000001
    22  O    0.006831  -0.037427  -0.026508   0.000079   0.001542   0.001489
    23  H    0.001101  -0.005444   0.004567   0.000004  -0.000125   0.000015
    24  O   -0.000084   0.001050   0.000069   0.014452  -0.000463  -0.094080
    25  H    0.000008  -0.000342  -0.000150  -0.029398   0.003853   0.008999
    26  H   -0.001174  -0.008285   0.000095  -0.011501   0.001597   0.110820
    27  O   -0.000027  -0.000031   0.005639   0.000000   0.000088   0.000000
    28  H    0.000203   0.000404  -0.001492  -0.000002   0.000069  -0.000005
    29  H    0.000022  -0.000001   0.000495  -0.000000   0.000017  -0.000000
    30  H    0.000024  -0.000928  -0.000004  -0.000551  -0.000009   0.004796
               7          8          9         10         11         12
     1  H   -0.056302  -0.000208   0.000019   0.007218  -0.055384  -0.007851
     2  C    0.286939   0.003349   0.000987  -0.056094   0.342874  -0.038199
     3  C    0.272457  -0.000069  -0.043158  -0.053402   0.003439  -0.000070
     4  C   -0.007866   0.346220  -0.059550  -0.000173   0.000019  -0.000107
     5  C   -0.031868  -0.060043   0.346698  -0.005321  -0.000212  -0.000000
     6  O   -0.032922  -0.030132   0.001585   0.002869  -0.031038   0.000236
     7  C    5.065813   0.000337  -0.007483   0.357291  -0.031977   0.006325
     8  H    0.000337   0.606283   0.006147   0.000073  -0.000084   0.000004
     9  H   -0.007483   0.006147   0.622352   0.009929  -0.000006  -0.000000
    10  H    0.357291   0.000073   0.009929   0.639333  -0.006387   0.000205
    11  C   -0.031977  -0.000084  -0.000006  -0.006387   4.980160   0.360161
    12  H    0.006325   0.000004  -0.000000   0.000205   0.360161   0.627785
    13  H   -0.012723   0.000086   0.000076   0.005096   0.350370  -0.053687
    14  O    0.001150  -0.044784   0.006528   0.000789  -0.001568   0.000095
    15  H   -0.062330   0.001296   0.007739   0.007473   0.000245   0.000006
    16  O    0.007613   0.000000   0.000000   0.001013   0.203256  -0.035825
    17  H   -0.000046  -0.000000   0.000000  -0.000081  -0.017906  -0.001738
    18  O    0.003727   0.007329  -0.037728   0.000014   0.000001  -0.000000
    19  H    0.001203  -0.000534  -0.002180  -0.000035   0.000001  -0.000000
    20  O   -0.041309  -0.000103  -0.001784   0.000777  -0.000040   0.000000
    21  H   -0.003455   0.000004  -0.000185  -0.000402  -0.000002  -0.000000
    22  O    0.201232   0.000000  -0.000088  -0.040122  -0.000581  -0.000263
    23  H   -0.022422  -0.000000   0.000005  -0.002483  -0.004261   0.000299
    24  O   -0.000258   0.002542   0.000022   0.000010   0.005133  -0.000098
    25  H    0.000047  -0.005359  -0.000070  -0.000026  -0.000086  -0.000108
    26  H    0.002673   0.000037  -0.000137  -0.000217  -0.002689   0.004728
    27  O   -0.000828  -0.000000  -0.000000  -0.000072  -0.000000  -0.000000
    28  H   -0.003788   0.000000   0.000002   0.000563  -0.000008   0.000001
    29  H   -0.000211   0.000000   0.000000   0.000007  -0.000000   0.000000
    30  H    0.000041  -0.000121  -0.000001  -0.000006   0.001203   0.001802
              13         14         15         16         17         18
     1  H    0.006387  -0.000122   0.002986   0.003790  -0.000222   0.000002
     2  C   -0.029622   0.005344  -0.001709  -0.047117   0.005000   0.000028
     3  C   -0.000323   0.000407   0.344697   0.000231   0.000007  -0.029286
     4  C    0.000923   0.330590  -0.004218  -0.000001   0.000001  -0.033446
     5  C   -0.000246  -0.039596  -0.037947  -0.000003  -0.000000   0.227898
     6  O    0.001463  -0.051310   0.003304   0.001161  -0.000081   0.000353
     7  C   -0.012723   0.001150  -0.062330   0.007613  -0.000046   0.003727
     8  H    0.000086  -0.044784   0.001296   0.000000  -0.000000   0.007329
     9  H    0.000076   0.006528   0.007739   0.000000   0.000000  -0.037728
    10  H    0.005096   0.000789   0.007473   0.001013  -0.000081   0.000014
    11  C    0.350370  -0.001568   0.000245   0.203256  -0.017906   0.000001
    12  H   -0.053687   0.000095   0.000006  -0.035825  -0.001738  -0.000000
    13  H    0.616101   0.003781   0.000010  -0.030412  -0.005824   0.000001
    14  O    0.003781   8.330220   0.000043   0.000004  -0.000001   0.000507
    15  H    0.000010   0.000043   0.656434  -0.000009   0.000000   0.002204
    16  O   -0.030412   0.000004  -0.000009   8.269418   0.236848  -0.000000
    17  H   -0.005824  -0.000001   0.000000   0.236848   0.372563   0.000000
    18  O    0.000001   0.000507   0.002204  -0.000000   0.000000   8.285751
    19  H   -0.000000  -0.000119  -0.000475   0.000000  -0.000000   0.235488
    20  O   -0.000003  -0.000015  -0.042935  -0.000000  -0.000000  -0.008873
    21  H    0.000000   0.000000  -0.004250   0.000000  -0.000000  -0.000039
    22  O    0.000098   0.000001  -0.000044  -0.012624   0.000544  -0.000010
    23  H    0.000522  -0.000000  -0.000203   0.039633  -0.001379   0.000001
    24  O    0.001485  -0.100879   0.000006   0.000018   0.000003   0.000001
    25  H   -0.000067   0.132422   0.000001  -0.000005  -0.000000  -0.000072
    26  H   -0.000957   0.013849  -0.000088   0.000012  -0.000008  -0.000024
    27  O    0.000000  -0.000000   0.000958  -0.000000   0.000000  -0.000000
    28  H   -0.000000  -0.000000   0.000426   0.000009  -0.000001  -0.000000
    29  H    0.000000   0.000000   0.000396   0.000000  -0.000000   0.000000
    30  H    0.001087   0.004988  -0.000000   0.000004  -0.000005   0.000000
              19         20         21         22         23         24
     1  H   -0.000001  -0.000066  -0.000005   0.006831   0.001101  -0.000084
     2  C   -0.000053   0.002808  -0.000070  -0.037427  -0.005444   0.001050
     3  C   -0.010874   0.233340  -0.016830  -0.026508   0.004567   0.000069
     4  C    0.006801   0.003042  -0.000144   0.000079   0.000004   0.014452
     5  C   -0.036519  -0.048443   0.004692   0.001542  -0.000125  -0.000463
     6  O   -0.000068   0.000092   0.000001   0.001489   0.000015  -0.094080
     7  C    0.001203  -0.041309  -0.003455   0.201232  -0.022422  -0.000258
     8  H   -0.000534  -0.000103   0.000004   0.000000  -0.000000   0.002542
     9  H   -0.002180  -0.001784  -0.000185  -0.000088   0.000005   0.000022
    10  H   -0.000035   0.000777  -0.000402  -0.040122  -0.002483   0.000010
    11  C    0.000001  -0.000040  -0.000002  -0.000581  -0.004261   0.005133
    12  H   -0.000000   0.000000  -0.000000  -0.000263   0.000299  -0.000098
    13  H   -0.000000  -0.000003   0.000000   0.000098   0.000522   0.001485
    14  O   -0.000119  -0.000015   0.000000   0.000001  -0.000000  -0.100879
    15  H   -0.000475  -0.042935  -0.004250  -0.000044  -0.000203   0.000006
    16  O    0.000000  -0.000000   0.000000  -0.012624   0.039633   0.000018
    17  H   -0.000000  -0.000000  -0.000000   0.000544  -0.001379   0.000003
    18  O    0.235488  -0.008873  -0.000039  -0.000010   0.000001   0.000001
    19  H    0.365024   0.030896  -0.000437  -0.000006   0.000000  -0.000000
    20  O    0.030896   8.372098   0.203007   0.000431  -0.000081   0.000000
    21  H   -0.000437   0.203007   0.316239   0.002395  -0.000006   0.000000
    22  O   -0.000006   0.000431   0.002395   8.321848   0.228452   0.000000
    23  H    0.000000  -0.000081  -0.000006   0.228452   0.333137  -0.000000
    24  O   -0.000000   0.000000   0.000000   0.000000  -0.000000   8.531403
    25  H    0.000007   0.000000  -0.000000  -0.000000   0.000000   0.129359
    26  H    0.000002   0.000000  -0.000000  -0.000024   0.000001   0.124313
    27  O    0.000011  -0.027289   0.079975  -0.018956   0.000564   0.000000
    28  H   -0.000006   0.005382  -0.011374   0.052258  -0.001645  -0.000000
    29  H   -0.000003   0.001313  -0.004322   0.001143  -0.000025  -0.000000
    30  H    0.000000   0.000000  -0.000000  -0.000000   0.000000   0.225203
              25         26         27         28         29         30
     1  H    0.000008  -0.001174  -0.000027   0.000203   0.000022   0.000024
     2  C   -0.000342  -0.008285  -0.000031   0.000404  -0.000001  -0.000928
     3  C   -0.000150   0.000095   0.005639  -0.001492   0.000495  -0.000004
     4  C   -0.029398  -0.011501   0.000000  -0.000002  -0.000000  -0.000551
     5  C    0.003853   0.001597   0.000088   0.000069   0.000017  -0.000009
     6  O    0.008999   0.110820   0.000000  -0.000005  -0.000000   0.004796
     7  C    0.000047   0.002673  -0.000828  -0.003788  -0.000211   0.000041
     8  H   -0.005359   0.000037  -0.000000   0.000000   0.000000  -0.000121
     9  H   -0.000070  -0.000137  -0.000000   0.000002   0.000000  -0.000001
    10  H   -0.000026  -0.000217  -0.000072   0.000563   0.000007  -0.000006
    11  C   -0.000086  -0.002689  -0.000000  -0.000008  -0.000000   0.001203
    12  H   -0.000108   0.004728  -0.000000   0.000001   0.000000   0.001802
    13  H   -0.000067  -0.000957   0.000000  -0.000000   0.000000   0.001087
    14  O    0.132422   0.013849  -0.000000  -0.000000   0.000000   0.004988
    15  H    0.000001  -0.000088   0.000958   0.000426   0.000396  -0.000000
    16  O   -0.000005   0.000012  -0.000000   0.000009   0.000000   0.000004
    17  H   -0.000000  -0.000008   0.000000  -0.000001  -0.000000  -0.000005
    18  O   -0.000072  -0.000024  -0.000000  -0.000000   0.000000   0.000000
    19  H    0.000007   0.000002   0.000011  -0.000006  -0.000003   0.000000
    20  O    0.000000   0.000000  -0.027289   0.005382   0.001313   0.000000
    21  H   -0.000000  -0.000000   0.079975  -0.011374  -0.004322  -0.000000
    22  O   -0.000000  -0.000024  -0.018956   0.052258   0.001143  -0.000000
    23  H    0.000000   0.000001   0.000564  -0.001645  -0.000025   0.000000
    24  O    0.129359   0.124313   0.000000  -0.000000  -0.000000   0.225203
    25  H    0.320198  -0.020103   0.000000   0.000000  -0.000000  -0.004118
    26  H   -0.020103   0.315508  -0.000000   0.000000  -0.000000  -0.006007
    27  O    0.000000  -0.000000   8.302772   0.217707   0.241145  -0.000000
    28  H    0.000000   0.000000   0.217707   0.323617  -0.016056   0.000000
    29  H   -0.000000  -0.000000   0.241145  -0.016056   0.381862   0.000000
    30  H   -0.004118  -0.006007  -0.000000   0.000000   0.000000   0.374231
 Mulliken charges:
               1
     1  H    0.147378
     2  C    0.165877
     3  C    0.087690
     4  C    0.302328
     5  C    0.122529
     6  O   -0.669084
     7  C    0.108946
     8  H    0.167730
     9  H    0.150281
    10  H    0.132164
    11  C   -0.094633
    12  H    0.136300
    13  H    0.146377
    14  O   -0.592325
    15  H    0.125983
    16  O   -0.637014
    17  H    0.412327
    18  O   -0.653825
    19  H    0.411879
    20  O   -0.682247
    21  H    0.435206
    22  O   -0.681688
    23  H    0.429772
    24  O   -0.839206
    25  H    0.465008
    26  H    0.477577
    27  O   -0.801656
    28  H    0.433735
    29  H    0.394218
    30  H    0.398374
 Sum of Mulliken charges =  -0.00000
 Mulliken charges with hydrogens summed into heavy atoms:
               1
     2  C    0.313255
     3  C    0.213673
     4  C    0.470058
     5  C    0.272810
     6  O   -0.191507
     7  C    0.241109
    11  C    0.188044
    14  O   -0.592325
    16  O   -0.224687
    18  O   -0.241947
    20  O   -0.247041
    22  O   -0.251916
    24  O    0.024176
    27  O    0.026297
 APT charges:
               1
     1  H    0.404640
     2  C   -0.278862
     3  C   -0.226485
     4  C   -0.298639
     5  C   -0.207246
     6  O   -0.450424
     7  C   -0.145275
     8  H    0.488848
     9  H    0.360207
    10  H    0.313589
    11  C   -0.569009
    12  H    0.514092
    13  H    0.297122
    14  O   -0.301284
    15  H    0.305211
    16  O   -1.097047
    17  H    0.932703
    18  O   -0.751415
    19  H    0.636963
    20  O   -0.801491
    21  H    0.584791
    22  O   -0.840419
    23  H    0.639005
    24  O   -1.091227
    25  H    0.362582
    26  H    0.389058
    27  O   -0.693142
    28  H    0.165261
    29  H    0.629871
    30  H    0.728021
 Sum of APT charges =  -0.00000
 APT charges with hydrogens summed into heavy atoms:
               1
     2  C    0.125778
     3  C    0.078726
     4  C    0.190209
     5  C    0.152961
     6  O   -0.061366
     7  C    0.168314
    11  C    0.242206
    14  O   -0.301284
    16  O   -0.164345
    18  O   -0.114452
    20  O   -0.216700
    22  O   -0.201414
    24  O   -0.000624
    27  O    0.101990
 Electronic spatial extent (au):  <R**2>=           3287.5900
 Charge=              0.0000 electrons
 Dipole moment (field-independent basis, Debye):
    X=             -1.8645    Y=              5.6701    Z=              0.2383  Tot=              5.9736
 Quadrupole moment (field-independent basis, Debye-Ang):
   XX=            -89.1813   YY=            -78.9082   ZZ=            -82.4179
   XY=            -10.5559   XZ=             10.1813   YZ=             -5.5391
 Traceless Quadrupole moment (field-independent basis, Debye-Ang):
   XX=             -5.6788   YY=              4.5942   ZZ=              1.0845
   XY=            -10.5559   XZ=             10.1813   YZ=             -5.5391
 Octapole moment (field-independent basis, Debye-Ang**2):
  XXX=            -45.6717  YYY=             60.2979  ZZZ=              4.1575  XYY=             -5.7949
  XXY=             28.2885  XXZ=             12.6524  XZZ=             20.4351  YZZ=             14.1728
  YYZ=            -18.2597  XYZ=              9.2716
 Hexadecapole moment (field-independent basis, Debye-Ang**3):
 XXXX=          -2264.3251 YYYY=          -1389.2034 ZZZZ=           -245.9828 XXXY=           -111.5837
 XXXZ=            146.6261 YYYX=            -76.0387 YYYZ=            -83.5363 ZZZX=             39.2019
 ZZZY=            -13.0727 XXYY=           -523.1025 XXZZ=           -356.7615 YYZZ=           -259.5220
 XXYZ=            -11.8745 YYXZ=             11.3965 ZZXY=             -3.8197
 N-N= 1.103462156357D+03 E-N=-4.179194824984D+03  KE= 8.327952763608D+02
  Exact polarizability:   0.000   0.000   0.000   0.000   0.000   0.000
 Approx polarizability: 146.170  -0.137 138.211   7.320   4.211 126.227
 Calling FoFJK, ICntrl=    100147 FMM=F ISym2X=0 I1Cent= 0 IOpClX= 0 NMat=1 NMatS=1 NMatT=0.
 -------------------------------------------------------------------
 Center     Atomic                   Forces (Hartrees/Bohr)
 Number     Number              X              Y              Z
 -------------------------------------------------------------------
      1        1          -0.000015420   -0.000008720   -0.000012954
      2        6           0.000003420    0.000001759    0.000021163
      3        6          -0.000008847    0.000001849   -0.000005506
      4        6          -0.000024118   -0.000004807   -0.000012005
      5        6           0.000000654    0.000002491   -0.000010444
      6        8           0.000002188   -0.000011513   -0.000005601
      7        6          -0.000012820   -0.000001821   -0.000010694
      8        1           0.000003942    0.000004146   -0.000027957
      9        1           0.000001883    0.000002975   -0.000004065
     10        1           0.000010569    0.000006635    0.000011514
     11        6           0.000001605    0.000000130    0.000005277
     12        1           0.000001546   -0.000001013    0.000002723
     13        1          -0.000001397    0.000003486   -0.000001978
     14        8           0.000024970   -0.000004134    0.000005425
     15        1          -0.000001185   -0.000000426    0.000008520
     16        8          -0.000004316    0.000013665    0.000006286
     17        1           0.000006223   -0.000009865    0.000015608
     18        8           0.000013105   -0.000003625   -0.000013698
     19        1          -0.000008193    0.000000167   -0.000005597
     20        8           0.000024394    0.000011158    0.000012135
     21        1          -0.000010154   -0.000007321   -0.000006447
     22        8           0.000005200   -0.000002848    0.000020452
     23        1          -0.000007535    0.000012213    0.000000645
     24        8           0.000010659   -0.000026834   -0.000006763
     25        1          -0.000004355    0.000004412   -0.000003482
     26        1           0.000002979    0.000001914   -0.000003369
     27        8           0.000019737   -0.000017618    0.000044313
     28        1          -0.000020495    0.000014903    0.000003301
     29        1          -0.000002884   -0.000000497   -0.000011187
     30        1          -0.000011358    0.000019139   -0.000015614
 -------------------------------------------------------------------
 Cartesian Forces:  Max     0.000044313 RMS     0.000011676
 IRC-IRC-IRC-IRC-IRC-IRC-IRC-IRC-IRC-IRC-IRC-IRC-IRC-IRC-IRC-IRC-IRC-IRC
          ******** Start new reaction path calculation ********
 Supplied step size of   0.1000 bohr.
    Integration on MW PES will use step size of   0.1049 sqrt(amu)*bohr.
 Point Number:   0          Path Number:   1
 Calculating another point on the path.
 IRC-IRC-IRC-IRC-IRC-IRC-IRC-IRC-IRC-IRC-IRC-IRC-IRC-IRC-IRC-IRC-IRC-IRC
                          Input orientation:                          
 ---------------------------------------------------------------------
 Center     Atomic      Atomic             Coordinates (Angstroms)
 Number     Number       Type             X           Y           Z
 ---------------------------------------------------------------------
      1          1           0       -0.031413    1.602558    1.428933
      2          6           0       -0.494591    1.123765    0.554364
      3          6           0        1.123103   -0.755232    0.057614
      4          6           0       -1.345664   -1.530816    0.039676
      5          6           0        0.084642   -1.784172   -0.414081
      6          8           0       -1.283226    0.040138    1.031396
      7          6           0        0.677047    0.654015   -0.343276
      8          1           0       -1.617319   -2.068258    0.956995
      9          1           0        0.073972   -1.750652   -1.514384
     10          1           0        0.365512    0.627381   -1.398569
     11          6           0       -1.346742    2.170024   -0.171401
     12          1           0       -2.141816    2.541579    0.492653
     13          1           0       -1.810522    1.708318   -1.055229
     14          8           0       -2.234135   -1.319114   -0.860042
     15          1           0        1.204906   -0.814011    1.154411
     16          8           0       -0.464717    3.233797   -0.545606
     17          1           0       -0.920493    3.818416   -1.168698
     18          8           0        0.448203   -3.071709    0.051750
     19          1           0        1.401650   -3.132864   -0.140855
     20          8           0        2.320768   -1.178211   -0.564258
     21          1           0        3.081807   -0.721536   -0.133937
     22          8           0        1.757217    1.582572   -0.206629
     23          1           0        1.388005    2.450696   -0.453808
     24          8           0       -3.637122   -0.077328    0.610281
     25          1           0       -3.193246   -0.774944   -0.211067
     26          1           0       -2.454529    0.180673    0.958641
     27          8           0        4.144270    0.505378    0.625582
     28          1           0        3.448932    1.141260    0.351709
     29          1           0        4.083657    0.481502    1.592576
     30          1           0       -4.058213    0.682303    0.178898
 ---------------------------------------------------------------------
                    Distance matrix (angstroms):
                    1          2          3          4          5
     1  H    0.000000
     2  C    1.099385   0.000000
     3  C    2.961857   2.528701   0.000000
     4  C    3.670876   2.834790   2.587791   0.000000
     5  C    3.857475   3.119215   1.536104   1.521795   0.000000
     6  O    2.041134   1.422586   2.715011   1.858845   2.699736
     7  C    2.131285   1.548922   1.531554   3.001917   2.510123
     8  H    4.026502   3.407586   3.169043   1.097321   2.203911
     9  H    4.462986   3.586818   2.136051   2.116317   1.100865
    10  H    3.017166   2.190918   2.146166   3.107168   2.619865
    11  C    2.147831   1.532173   3.835323   3.706855   4.212294
    12  H    2.492425   2.174248   4.660249   4.174141   4.948880
    13  H    3.057364   2.159668   3.989192   3.450637   4.024948
    14  O    4.315966   3.315753   3.525776   1.282065   2.406633
    15  H    2.728306   2.646380   1.101414   2.874344   2.157864
    16  O    2.597595   2.379719   4.335597   4.880591   5.049665
    17  H    3.528198   3.226682   5.157362   5.500475   5.741841
    18  O    4.896472   4.329375   2.412797   2.364837   1.416660
    19  H    5.190580   4.711470   2.402105   3.185418   1.904766
    20  O    4.151897   3.804821   1.414227   3.732532   2.321638
    21  H    4.187614   4.082832   1.968336   4.504173   3.192284
    22  O    2.423770   2.420796   2.436648   4.402468   3.765038
    23  H    2.505753   2.514225   3.257253   4.854783   4.431077
    24  O    4.061200   3.364707   4.839911   2.772904   4.220683
    25  H    4.282442   3.387288   4.324748   2.011908   3.435740
    26  H    2.848583   2.212288   3.806207   2.236799   3.491757
    27  O    4.391526   4.680439   3.322526   5.884620   4.775304
    28  H    3.672330   3.948766   3.015403   5.497773   4.523609
    29  H    4.268178   4.738222   3.556755   5.994869   5.015185
    30  H    4.315620   3.610438   5.378406   3.503598   4.857815
                    6          7          8          9         10
     6  O    0.000000
     7  C    2.471687   0.000000
     8  H    2.135999   3.790197   0.000000
     9  H    3.395572   2.741828   3.011487   0.000000
    10  H    2.994648   1.100639   4.092282   2.398635   0.000000
    11  C    2.446869   2.534471   4.394261   4.381066   2.611035
    12  H    2.699005   3.493947   4.662758   5.230790   3.677985
    13  H    2.723025   2.793999   4.283561   3.965679   2.453861
    14  O    2.515816   3.554612   2.059927   2.437569   3.291963
    15  H    2.633535   2.162592   3.094683   3.046109   3.049574
    16  O    3.654634   2.828398   5.630106   5.106217   2.865350
    17  H    4.387183   3.639627   6.297386   5.667714   3.448095
    18  O    3.693392   3.753590   2.468352   2.082790   3.974107
    19  H    4.318643   3.860891   3.384204   2.357927   4.098154
    20  O    4.125441   2.471378   4.314501   2.505698   2.789133
    21  H    4.581665   2.778279   5.008550   3.465802   3.285898
    22  O    3.627134   1.430964   5.105886   3.956504   2.066386
    23  H    3.892569   1.935391   5.607431   4.528005   2.294023
    24  O    2.394152   4.478414   2.857205   4.591997   4.533561
    25  H    2.419969   4.127781   2.349591   3.650391   4.005176
    26  H    1.181945   3.424296   2.399711   4.029787   3.702515
    27  O    5.462494   3.603112   6.318967   5.122154   4.288482
    28  H    4.905890   2.898923   6.027792   4.820355   3.582600
    29  H    5.414163   3.922025   6.277449   5.541958   4.774184
    30  H    2.973160   4.764048   3.758854   5.085413   4.696889
                   11         12         13         14         15
    11  C    0.000000
    12  H    1.100529   0.000000
    13  H    1.099735   1.788860   0.000000
    14  O    3.665485   4.091853   3.063150   0.000000
    15  H    4.144050   4.785233   4.509707   4.017481   0.000000
    16  O    1.431646   2.090409   2.097140   4.894764   4.697069
    17  H    1.973192   2.425290   2.292933   5.311793   5.601209
    18  O    5.545033   6.197709   5.401471   3.331349   2.624055
    19  H    5.972873   6.719880   5.881426   4.126239   2.663363
    20  O    4.981531   5.904961   5.063661   4.566670   2.081253
    21  H    5.289099   6.190862   5.539661   5.398477   2.278409
    22  O    3.159257   4.075678   3.669427   4.977712   2.810887
    23  H    2.763580   3.655638   3.338174   5.243700   3.643927
    24  O    3.302644   3.018021   3.049413   2.381650   4.927882
    25  H    3.476203   3.549655   2.964982   1.279525   4.605410
    26  H    2.541988   2.426687   2.608469   2.367602   3.797260
    27  O    5.792879   6.608983   6.303312   6.798522   3.265013
    28  H    4.932594   5.765173   5.473836   6.310232   3.082705
    29  H    5.954155   6.649080   6.577028   7.012278   3.187091
    30  H    3.112571   2.688481   2.761864   2.900401   5.557968
                   16         17         18         19         20
    16  O    0.000000
    17  H    0.968377   0.000000
    18  O    6.399193   7.129982   0.000000
    19  H    6.646918   7.400615   0.974627   0.000000
    20  O    5.217767   5.986435   2.733367   2.201071   0.000000
    21  H    5.328411   6.140057   3.534637   2.938958   0.986362
    22  O    2.788986   3.618661   4.841756   4.729280   2.840319
    23  H    2.013518   2.776849   5.624568   5.592339   3.748494
    24  O    4.729036   5.071653   5.095896   5.940516   6.171543
    25  H    4.860740   5.213580   4.313277   5.165055   5.540011
    26  H    3.942547   4.484642   4.452672   5.201782   5.193192
    27  O    5.482583   6.312487   5.175495   4.620194   2.752336
    28  H    4.527752   5.345154   5.181067   4.764674   2.737097
    29  H    5.730154   6.618244   5.311872   4.823026   3.242586
    30  H    4.466346   4.636433   5.866562   6.668421   6.686194
                   21         22         23         24         25
    21  H    0.000000
    22  O    2.658709   0.000000
    23  H    3.610309   0.975220   0.000000
    24  O    6.790646   5.702763   5.724954   0.000000
    25  H    6.275754   5.483155   5.608167   1.165464   0.000000
    26  H    5.714780   4.589333   4.681141   1.259542   1.681405
    27  O    1.791931   2.747898   3.542081   7.803195   7.495222
    28  H    1.959755   1.835319   2.571166   7.194719   6.935927
    29  H    2.330633   3.140353   3.915603   7.803053   7.601652
    30  H    7.283441   5.897317   5.760974   0.969766   1.738910
                   26         27         28         29         30
    26  H    0.000000
    27  O    6.615172   0.000000
    28  H    6.011817   0.981248   0.000000
    29  H    6.575732   0.969186   1.542047   0.000000
    30  H    1.852413   8.216542   7.523146   8.266127   0.000000
 Symmetry turned off by external request.
 Stoichiometry    C6H16O8
 Framework group  C1[X(C6H16O8)]
 Deg. of freedom    84
 Full point group                 C1      NOp   1
 Rotational constants (GHZ):      0.7313520      0.5238297      0.3353749
 Standard basis: 6-31G(d) (6D, 7F)
   242 basis functions,   456 primitive gaussians,   242 cartesian basis functions
    58 alpha electrons       58 beta electrons
       nuclear repulsion energy      1103.4891108172 Hartrees.
 NAtoms=   30 NActive=   30 NUniq=   30 SFac= 1.00D+00 NAtFMM=   60 NAOKFM=F Big=F
 Integral buffers will be    131072 words long.
 Raffenetti 2 integral format.
 Two-electron integral symmetry is turned off.
 One-electron integrals computed using PRISM.
 NBasis=   242 RedAO= T EigKep=  1.59D-03  NBF=   242
 NBsUse=   242 1.00D-06 EigRej= -1.00D+00 NBFU=   242
 Initial guess from the checkpoint file:  "/scratch/10461036.yak.local/Gau-26422.chk"
 B after Tr=    -0.009486    0.048255    0.008397
         Rot=    1.000000    0.000012   -0.000054    0.000025 Ang=   0.01 deg.
 ExpMin= 1.61D-01 ExpMax= 5.48D+03 ExpMxC= 8.25D+02 IAcc=1 IRadAn=         1 AccDes= 0.00D+00
 Harris functional with IExCor=  402 and IRadAn=       1 diagonalized for initial guess.
 HarFok:  IExCor=  402 AccDes= 0.00D+00 IRadAn=         1 IDoV= 1 UseB2=F ITyADJ=14
 ICtDFT=  3500011 ScaDFX=  1.000000  1.000000  1.000000  1.000000
 FoFCou: FMM=F IPFlag=           0 FMFlag=      100000 FMFlg1=           0
         NFxFlg=           0 DoJE=T BraDBF=F KetDBF=T FulRan=T
         wScrn=  0.000000 ICntrl=     500 IOpCl=  0 I1Cent=   200000004 NGrid=           0
         NMat0=    1 NMatS0=      1 NMatT0=    0 NMatD0=    1 NMtDS0=    0 NMtDT0=    0
 Symmetry not used in FoFCou.
 Requested convergence on RMS density matrix=1.00D-08 within 128 cycles.
 Requested convergence on MAX density matrix=1.00D-06.
 Requested convergence on             energy=1.00D-06.
 No special actions if energy rises.
 Integral accuracy reduced to 1.0D-05 until final iterations.
 Initial convergence to 1.0D-05 achieved.  Increase integral accuracy.
 SCF Done:  E(RB3LYP) =  -839.953514715     A.U. after   11 cycles
            NFock= 11  Conv=0.69D-08     -V/T= 2.0086
 DoSCS=F DFT=T ScalE2(SS,OS)=  1.000000  1.000000
 Range of M.O.s used for correlation:     1   242
 NBasis=   242 NAE=    58 NBE=    58 NFC=     0 NFV=     0
 NROrb=    242 NOA=    58 NOB=    58 NVA=   184 NVB=   184
 Symmetrizing basis deriv contribution to polar:
 IMax=3 JMax=2 DiffMx= 0.00D+00
 Calling FoFJK, ICntrl=      2147 FMM=F ISym2X=0 I1Cent= 0 IOpClX= 0 NMat=1 NMatS=1 NMatT=0.
 -------------------------------------------------------------------
 Center     Atomic                   Forces (Hartrees/Bohr)
 Number     Number              X              Y              Z
 -------------------------------------------------------------------
      1        1           0.000023564    0.000056556   -0.000036200
      2        6           0.000073421    0.001428812    0.000146282
      3        6           0.000027273   -0.000174914    0.000031227
      4        6          -0.002595205   -0.004378034   -0.004760425
      5        6           0.000389784    0.000212110    0.000193420
      6        8          -0.001292588    0.002710436    0.002048681
      7        6          -0.000088235   -0.000269639   -0.000026487
      8        1           0.000033777    0.000106259    0.000057584
      9        1           0.000017207    0.000023551    0.000025418
     10        1          -0.000019303    0.000000549    0.000035304
     11        6          -0.000087452    0.000152028   -0.000043421
     12        1          -0.000013466    0.000013675   -0.000013783
     13        1           0.000004837   -0.000016653    0.000015427
     14        8           0.004076656   -0.001757144    0.000162456
     15        1           0.000041694    0.000010934    0.000025543
     16        8          -0.000015817   -0.000072450    0.000072715
     17        1           0.000002953   -0.000029314    0.000006036
     18        8           0.000105865    0.000048808    0.000085670
     19        1          -0.000013646   -0.000036946   -0.000017708
     20        8           0.000090881    0.000138900    0.000052858
     21        1           0.000002108   -0.000018546   -0.000012501
     22        8          -0.000292106   -0.000014492    0.000163889
     23        1           0.000020332    0.000015829   -0.000043243
     24        8          -0.002293659   -0.001046373   -0.001934368
     25        1          -0.003442017    0.002858198    0.003107127
     26        1           0.005569959    0.000402409    0.000915445
     27        8           0.000038291   -0.000010296    0.000059560
     28        1          -0.000003756    0.000017894    0.000009407
     29        1           0.000005899   -0.000004148   -0.000010061
     30        1          -0.000367251   -0.000367997   -0.000315853
 -------------------------------------------------------------------
 Cartesian Forces:  Max     0.005569959 RMS     0.001317981
 IRC-IRC-IRC-IRC-IRC-IRC-IRC-IRC-IRC-IRC-IRC-IRC-IRC-IRC-IRC-IRC-IRC-IRC
 Pt  1 Step number   1 out of a maximum of  20
 Modified Bulirsch-Stoer Extrapolation Cycles:
    EPS =    0.000010000000000
 Maximum DWI energy   std dev =  0.000002962 at pt     1
 Maximum DWI gradient std dev =  0.030992758 at pt     1
 CORRECTOR INTEGRATION CONVERGENCE:
   Recorrection delta-x convergence threshold:    0.010000
   Delta-x Convergence Met
 Point Number:   1          Path Number:   1
   CHANGE IN THE REACTION COORDINATE =    0.10490
   NET REACTION COORDINATE UP TO THIS POINT =    0.10490
  # OF POINTS ALONG THE PATH =   1
  # OF STEPS =   1

 Calculating another point on the path.
 IRC-IRC-IRC-IRC-IRC-IRC-IRC-IRC-IRC-IRC-IRC-IRC-IRC-IRC-IRC-IRC-IRC-IRC
                          Input orientation:                          
 ---------------------------------------------------------------------
 Center     Atomic      Atomic             Coordinates (Angstroms)
 Number     Number       Type             X           Y           Z
 ---------------------------------------------------------------------
      1          1           0       -0.031167    1.603040    1.428759
      2          6           0       -0.494535    1.124577    0.554437
      3          6           0        1.123119   -0.755328    0.057638
      4          6           0       -1.347096   -1.533305    0.037006
      5          6           0        0.084864   -1.784058   -0.413979
      6          8           0       -1.283708    0.041285    1.032283
      7          6           0        0.677002    0.653870   -0.343285
      8          1           0       -1.617169   -2.067604    0.957447
      9          1           0        0.074122   -1.750493   -1.514208
     10          1           0        0.365356    0.627378   -1.398401
     11          6           0       -1.346794    2.170110   -0.171427
     12          1           0       -2.141912    2.541666    0.492557
     13          1           0       -1.810493    1.708209   -1.055121
     14          8           0       -2.232412   -1.319876   -0.860028
     15          1           0        1.205178   -0.813942    1.154533
     16          8           0       -0.464721    3.233762   -0.545573
     17          1           0       -0.920519    3.818296   -1.168710
     18          8           0        0.448247   -3.071688    0.051787
     19          1           0        1.401605   -3.133119   -0.140993
     20          8           0        2.320802   -1.178155   -0.564238
     21          1           0        3.081885   -0.721610   -0.133971
     22          8           0        1.757094    1.582570   -0.206561
     23          1           0        1.388165    2.450738   -0.454062
     24          8           0       -3.638183   -0.077737    0.609499
     25          1           0       -3.215880   -0.755835   -0.190137
     26          1           0       -2.417533    0.183095    0.964569
     27          8           0        4.144280    0.505381    0.625602
     28          1           0        3.448994    1.141294    0.351811
     29          1           0        4.083698    0.481455    1.592592
     30          1           0       -4.060930    0.680055    0.176717
 ---------------------------------------------------------------------
                    Distance matrix (angstroms):
                    1          2          3          4          5
     1  H    0.000000
     2  C    1.099124   0.000000
     3  C    2.962136   2.529359   0.000000
     4  C    3.674956   2.838826   2.589910   0.000000
     5  C    3.857665   3.119887   1.535800   1.522095   0.000000
     6  O    2.040865   1.422903   2.716127   1.863847   2.701211
     7  C    2.131329   1.549183   1.531535   3.004218   2.509805
     8  H    4.026308   3.407747   3.168738   1.098010   2.204114
     9  H    4.462995   3.587296   2.135755   2.115017   1.100794
    10  H    3.016949   2.190936   2.146190   3.108285   2.619693
    11  C    2.147798   1.531785   3.835510   3.709276   4.212354
    12  H    2.492536   2.173896   4.660446   4.176679   4.948963
    13  H    3.057241   2.159410   3.989152   3.451795   4.024845
    14  O    4.315954   3.316064   3.524261   1.278283   2.405035
    15  H    2.728653   2.647073   1.101520   2.877578   2.157883
    16  O    2.597154   2.378986   4.335660   4.882921   5.049543
    17  H    3.527769   3.225961   5.157366   5.502304   5.741671
    18  O    4.896832   4.330143   2.412677   2.364339   1.416678
    19  H    5.191161   4.712424   2.402269   3.185348   1.904807
    20  O    4.151968   3.805277   1.414198   3.733778   2.321447
    21  H    4.187746   4.083269   1.968404   4.505990   3.192074
    22  O    2.423338   2.420477   2.436697   4.404996   3.764779
    23  H    2.505615   2.514027   3.257445   4.857509   4.430993
    24  O    4.062851   3.366172   4.840835   2.774078   4.221388
    25  H    4.281064   3.390584   4.346068   2.036764   3.464427
    26  H    2.815396   2.180027   3.773511   2.225362   3.468728
    27  O    4.391387   4.680499   3.322557   5.887096   4.775052
    28  H    3.672131   3.948767   3.015528   5.500461   4.523439
    29  H    4.268127   4.738311   3.556788   5.997719   5.014933
    30  H    4.319548   3.613786   5.380416   3.504765   4.858846
                    6          7          8          9         10
     6  O    0.000000
     7  C    2.472212   0.000000
     8  H    2.136401   3.789663   0.000000
     9  H    3.396880   2.741439   3.011661   0.000000
    10  H    2.995188   1.100498   4.091864   2.398437   0.000000
    11  C    2.446384   2.534615   4.393823   4.381005   2.610929
    12  H    2.698097   3.494092   4.662280   5.230731   3.677855
    13  H    2.722755   2.793917   4.283056   3.965496   2.453642
    14  O    2.516672   3.553503   2.059329   2.435875   3.290904
    15  H    2.634561   2.162614   3.094536   3.046079   3.049619
    16  O    3.654078   2.828479   5.629537   5.106017   2.865237
    17  H    4.386581   3.639641   6.296799   5.667459   3.447925
    18  O    3.694813   3.753424   2.468673   2.082754   3.974042
    19  H    4.320222   3.860992   3.384506   2.357877   4.098320
    20  O    4.126549   2.471278   4.314424   2.505510   2.789184
    21  H    4.582637   2.778348   5.008392   3.465586   3.286043
    22  O    3.627227   1.431005   5.105324   3.956216   2.066351
    23  H    3.892762   1.935654   5.607120   4.527799   2.294026
    24  O    2.395091   4.479271   2.857471   4.592326   4.534003
    25  H    2.421363   4.143097   2.365072   3.683290   4.024728
    26  H    1.144663   3.392382   2.388782   4.011415   3.677702
    27  O    5.462951   3.603167   6.318597   5.121908   4.288559
    28  H    4.906276   2.899083   6.027423   4.820190   3.582761
    29  H    5.414494   3.922107   6.277021   5.541705   4.774243
    30  H    2.975396   4.766454   3.759140   5.085809   4.698487
                   11         12         13         14         15
    11  C    0.000000
    12  H    1.100518   0.000000
    13  H    1.099675   1.788798   0.000000
    14  O    3.665855   4.092577   3.063556   0.000000
    15  H    4.144309   4.785534   4.509777   4.016398   0.000000
    16  O    1.431571   2.090378   2.097154   4.894817   4.697109
    17  H    1.973018   2.425159   2.292907   5.311982   5.601220
    18  O    5.545128   6.197818   5.401349   3.329592   2.624197
    19  H    5.973179   6.720199   5.881467   4.124432   2.663748
    20  O    4.981611   5.905057   5.063562   4.565012   2.081212
    21  H    5.289296   6.191087   5.539666   5.396928   2.278332
    22  O    3.159202   4.075644   3.669266   4.976682   2.810775
    23  H    2.763809   3.655927   3.338268   5.243178   3.644063
    24  O    3.303502   3.018903   3.049757   2.382984   4.929220
    25  H    3.472029   3.534543   2.965607   1.316854   4.621393
    26  H    2.526895   2.421078   2.602618   2.371149   3.762208
    27  O    5.792968   6.609113   6.303249   6.797122   3.264766
    28  H    4.932731   5.765335   5.473853   6.309064   3.082535
    29  H    5.954290   6.649268   6.576990   7.010948   3.186821
    30  H    3.115767   2.692208   2.763873   2.901386   5.560579
                   16         17         18         19         20
    16  O    0.000000
    17  H    0.968365   0.000000
    18  O    6.399145   7.129868   0.000000
    19  H    6.647107   7.400718   0.974592   0.000000
    20  O    5.217710   5.986323   2.733389   2.201350   0.000000
    21  H    5.328489   6.140086   3.534603   2.939177   0.986312
    22  O    2.788875   3.618537   4.841688   4.729523   2.840300
    23  H    2.013626   2.776861   5.624635   5.592642   3.748442
    24  O    4.729808   5.072159   5.096440   5.941217   6.172364
    25  H    4.859228   5.210467   4.341374   5.193752   5.565353
    26  H    3.924357   4.472876   4.431645   5.177389   5.161596
    27  O    5.482573   6.312460   5.175456   4.620456   2.752288
    28  H    4.527791   5.345182   5.181093   4.765005   2.737118
    29  H    5.730188   6.618269   5.311818   4.823286   3.242534
    30  H    4.469435   4.639064   5.867185   6.669371   6.687934
                   21         22         23         24         25
    21  H    0.000000
    22  O    2.658869   0.000000
    23  H    3.610393   0.975234   0.000000
    24  O    6.791659   5.703646   5.726126   0.000000
    25  H    6.298108   5.495350   5.616849   1.130299   0.000000
    26  H    5.680570   4.556049   4.651672   1.297727   1.688874
    27  O    1.791966   2.747998   3.542070   7.804295   7.511861
    28  H    1.959890   1.835493   2.571204   7.195869   6.950781
    29  H    2.330669   3.140461   3.915707   7.804269   7.615304
    30  H    7.285670   5.900071   5.764186   0.969672   1.706010
                   26         27         28         29         30
    26  H    0.000000
    27  O    6.578462   0.000000
    28  H    5.975765   0.981208   0.000000
    29  H    6.538305   0.969181   1.542003   0.000000
    30  H    1.889030   8.219336   7.526112   8.269166   0.000000
 Symmetry turned off by external request.
 Stoichiometry    C6H16O8
 Framework group  C1[X(C6H16O8)]
 Deg. of freedom    84
 Full point group                 C1      NOp   1
 Rotational constants (GHZ):      0.7312260      0.5237939      0.3353389
 Standard basis: 6-31G(d) (6D, 7F)
   242 basis functions,   456 primitive gaussians,   242 cartesian basis functions
    58 alpha electrons       58 beta electrons
       nuclear repulsion energy      1103.5173007221 Hartrees.
 NAtoms=   30 NActive=   30 NUniq=   30 SFac= 1.00D+00 NAtFMM=   60 NAOKFM=F Big=F
 Integral buffers will be    131072 words long.
 Raffenetti 2 integral format.
 Two-electron integral symmetry is turned off.
 One-electron integrals computed using PRISM.
 NBasis=   242 RedAO= T EigKep=  1.60D-03  NBF=   242
 NBsUse=   242 1.00D-06 EigRej= -1.00D+00 NBFU=   242
 Initial guess from the checkpoint file:  "/scratch/10461036.yak.local/Gau-26422.chk"
 B after Tr=     0.000098    0.000163    0.000203
         Rot=    1.000000    0.000010   -0.000052    0.000024 Ang=   0.01 deg.
 ExpMin= 1.61D-01 ExpMax= 5.48D+03 ExpMxC= 8.25D+02 IAcc=1 IRadAn=         1 AccDes= 0.00D+00
 Harris functional with IExCor=  402 and IRadAn=       1 diagonalized for initial guess.
 HarFok:  IExCor=  402 AccDes= 0.00D+00 IRadAn=         1 IDoV= 1 UseB2=F ITyADJ=14
 ICtDFT=  3500011 ScaDFX=  1.000000  1.000000  1.000000  1.000000
 FoFCou: FMM=F IPFlag=           0 FMFlag=      100000 FMFlg1=           0
         NFxFlg=           0 DoJE=T BraDBF=F KetDBF=T FulRan=T
         wScrn=  0.000000 ICntrl=     500 IOpCl=  0 I1Cent=   200000004 NGrid=           0
         NMat0=    1 NMatS0=      1 NMatT0=    0 NMatD0=    1 NMtDS0=    0 NMtDT0=    0
 Symmetry not used in FoFCou.
 Requested convergence on RMS density matrix=1.00D-08 within 128 cycles.
 Requested convergence on MAX density matrix=1.00D-06.
 Requested convergence on             energy=1.00D-06.
 No special actions if energy rises.
 Integral accuracy reduced to 1.0D-05 until final iterations.
 Initial convergence to 1.0D-05 achieved.  Increase integral accuracy.
 SCF Done:  E(RB3LYP) =  -839.954731001     A.U. after   11 cycles
            NFock= 11  Conv=0.10D-07     -V/T= 2.0085
 DoSCS=F DFT=T ScalE2(SS,OS)=  1.000000  1.000000
 Range of M.O.s used for correlation:     1   242
 NBasis=   242 NAE=    58 NBE=    58 NFC=     0 NFV=     0
 NROrb=    242 NOA=    58 NOB=    58 NVA=   184 NVB=   184
 Symmetrizing basis deriv contribution to polar:
 IMax=3 JMax=2 DiffMx= 0.00D+00
 Calling FoFJK, ICntrl=      2147 FMM=F ISym2X=0 I1Cent= 0 IOpClX= 0 NMat=1 NMatS=1 NMatT=0.
 -------------------------------------------------------------------
 Center     Atomic                   Forces (Hartrees/Bohr)
 Number     Number              X              Y              Z
 -------------------------------------------------------------------
      1        1           0.000082370    0.000142533   -0.000048212
      2        6           0.000226508    0.002775264    0.000237878
      3        6           0.000064231   -0.000340234    0.000085207
      4        6          -0.004835472   -0.008587900   -0.009129641
      5        6           0.000762101    0.000389708    0.000366153
      6        8          -0.000834370    0.005146474    0.004158108
      7        6          -0.000144163   -0.000495749   -0.000018622
      8        1           0.000037605    0.000180878    0.000140061
      9        1           0.000043694    0.000040336    0.000054126
     10        1          -0.000056934   -0.000010426    0.000041537
     11        6          -0.000196466    0.000299631   -0.000087283
     12        1          -0.000030868    0.000028742   -0.000034610
     13        1           0.000007766   -0.000038869    0.000033302
     14        8           0.007951871   -0.003543668   -0.000047725
     15        1           0.000081649    0.000022334    0.000031533
     16        8          -0.000016064   -0.000166925    0.000149606
     17        1          -0.000009167   -0.000034403   -0.000016648
     18        8           0.000200057    0.000097307    0.000177297
     19        1          -0.000012115   -0.000075263   -0.000028098
     20        8           0.000143181    0.000257080    0.000084694
     21        1           0.000023250   -0.000021518   -0.000011811
     22        8          -0.000569182   -0.000015151    0.000295757
     23        1           0.000051279    0.000006376   -0.000082991
     24        8          -0.005747288   -0.000963906   -0.002757624
     25        1          -0.006110924    0.004736574    0.005157316
     26        1           0.009573518    0.000878441    0.001702967
     27        8           0.000037536    0.000014803    0.000068708
     28        1           0.000027719    0.000006032    0.000014730
     29        1           0.000017673   -0.000011087   -0.000003133
     30        1          -0.000768997   -0.000717414   -0.000532582
 -------------------------------------------------------------------
 Cartesian Forces:  Max     0.009573518 RMS     0.002438994
 IRC-IRC-IRC-IRC-IRC-IRC-IRC-IRC-IRC-IRC-IRC-IRC-IRC-IRC-IRC-IRC-IRC-IRC
 Pt  2 Step number   1 out of a maximum of  20
 Modified Bulirsch-Stoer Extrapolation Cycles:
    EPS =    0.000010000000000
 Maximum DWI energy   std dev =  0.000010591 at pt    49
 Maximum DWI gradient std dev =  0.027056500 at pt    55
 CORRECTOR INTEGRATION CONVERGENCE:
   Recorrection delta-x convergence threshold:    0.010000
   Delta-x Convergence Met
 Point Number:   2          Path Number:   1
   CHANGE IN THE REACTION COORDINATE =    0.10485
   NET REACTION COORDINATE UP TO THIS POINT =    0.20976
  # OF POINTS ALONG THE PATH =   2
  # OF STEPS =   1

 Calculating another point on the path.
 IRC-IRC-IRC-IRC-IRC-IRC-IRC-IRC-IRC-IRC-IRC-IRC-IRC-IRC-IRC-IRC-IRC-IRC
                          Input orientation:                          
 ---------------------------------------------------------------------
 Center     Atomic      Atomic             Coordinates (Angstroms)
 Number     Number       Type             X           Y           Z
 ---------------------------------------------------------------------
      1          1           0       -0.030770    1.603721    1.428539
      2          6           0       -0.494433    1.125519    0.554520
      3          6           0        1.123140   -0.755438    0.057674
      4          6           0       -1.348670   -1.536248    0.033974
      5          6           0        0.085120   -1.783939   -0.413866
      6          8           0       -1.283722    0.042591    1.033373
      7          6           0        0.676953    0.653712   -0.343288
      8          1           0       -1.617094   -2.066897    0.957906
      9          1           0        0.074365   -1.750339   -1.514018
     10          1           0        0.365128    0.627325   -1.398242
     11          6           0       -1.346864    2.170213   -0.171456
     12          1           0       -2.142050    2.541788    0.492409
     13          1           0       -1.810470    1.708051   -1.054990
     14          8           0       -2.230417   -1.320796   -0.860125
     15          1           0        1.205501   -0.813854    1.154649
     16          8           0       -0.464726    3.233722   -0.545536
     17          1           0       -0.920542    3.818148   -1.168782
     18          8           0        0.448300   -3.071665    0.051832
     19          1           0        1.401571   -3.133424   -0.141094
     20          8           0        2.320838   -1.178091   -0.564218
     21          1           0        3.081983   -0.721683   -0.134006
     22          8           0        1.756952    1.582565   -0.206487
     23          1           0        1.388362    2.450752   -0.454409
     24          8           0       -3.639802   -0.077876    0.608922
     25          1           0       -3.239142   -0.738021   -0.170542
     26          1           0       -2.381171    0.186496    0.971091
     27          8           0        4.144290    0.505384    0.625619
     28          1           0        3.449102    1.141320    0.351860
     29          1           0        4.083767    0.481420    1.592602
     30          1           0       -4.064424    0.677577    0.174533
 ---------------------------------------------------------------------
                    Distance matrix (angstroms):
                    1          2          3          4          5
     1  H    0.000000
     2  C    1.098895   0.000000
     3  C    2.962501   2.530098   0.000000
     4  C    3.679820   2.843535   2.592310   0.000000
     5  C    3.857996   3.120673   1.535464   1.522389   0.000000
     6  O    2.040386   1.423029   2.716951   1.869692   2.702673
     7  C    2.131375   1.549454   1.531521   3.006892   2.509461
     8  H    4.026333   3.408021   3.168473   1.098768   2.204395
     9  H    4.463117   3.587888   2.135410   2.113562   1.100718
    10  H    3.016749   2.190964   2.146231   3.109565   2.619465
    11  C    2.147790   1.531361   3.835734   3.712150   4.212442
    12  H    2.492751   2.173549   4.660703   4.179712   4.949095
    13  H    3.057144   2.159125   3.989093   3.453198   4.024711
    14  O    4.316159   3.316522   3.522546   1.274092   2.403199
    15  H    2.729112   2.647848   1.101612   2.881242   2.157906
    16  O    2.596574   2.378136   4.335733   4.885673   5.049416
    17  H    3.527245   3.225150   5.157375   5.504496   5.741484
    18  O    4.897354   4.331027   2.412541   2.363668   1.416690
    19  H    5.191907   4.713524   2.402468   3.185192   1.904877
    20  O    4.152062   3.805778   1.414166   3.735157   2.321226
    21  H    4.187873   4.083745   1.968489   4.508040   3.191849
    22  O    2.422748   2.420074   2.436751   4.407914   3.764489
    23  H    2.505373   2.513782   3.257641   4.860662   4.430880
    24  O    4.065052   3.368154   4.842373   2.776094   4.222771
    25  H    4.281876   3.395868   4.368282   2.062250   3.493403
    26  H    2.782475   2.148272   3.741893   2.216324   3.447218
    27  O    4.391145   4.680532   3.322587   5.889900   4.774766
    28  H    3.671861   3.948771   3.015681   5.503548   4.523256
    29  H    4.268008   4.738396   3.556843   6.000973   5.014673
    30  H    4.324423   3.617993   5.383122   3.506579   4.860452
                    6          7          8          9         10
     6  O    0.000000
     7  C    2.472431   0.000000
     8  H    2.137001   3.789126   0.000000
     9  H    3.398264   2.741019   3.011919   0.000000
    10  H    2.995559   1.100390   4.091390   2.398172   0.000000
    11  C    2.445890   2.534785   4.393357   4.380992   2.610828
    12  H    2.697287   3.494280   4.661786   5.230736   3.677726
    13  H    2.722588   2.793818   4.282451   3.965321   2.453368
    14  O    2.518013   3.552267   2.058658   2.433949   3.289620
    15  H    2.635230   2.162621   3.094490   3.046023   3.049668
    16  O    3.653359   2.828566   5.628931   5.105824   2.865148
    17  H    4.385912   3.639655   6.296169   5.667193   3.447746
    18  O    3.696203   3.753244   2.469085   2.082695   3.973935
    19  H    4.321718   3.861134   3.384911   2.357822   4.098520
    20  O    4.127374   2.471168   4.314411   2.505240   2.789251
    21  H    4.583260   2.778431   5.008313   3.465304   3.286247
    22  O    3.626910   1.431041   5.104760   3.955879   2.066383
    23  H    3.892656   1.935924   5.606831   4.527529   2.294061
    24  O    2.397036   4.480658   2.858207   4.593370   4.534917
    25  H    2.425372   4.159634   2.381249   3.716052   4.045018
    26  H    1.108594   3.361250   2.379447   3.994591   3.653796
    27  O    5.462944   3.603222   6.318274   5.121584   4.288700
    28  H    4.906250   2.899276   6.027129   4.819962   3.583007
    29  H    5.414356   3.922211   6.276669   5.541402   4.774381
    30  H    2.978777   4.769629   3.759686   5.086802   4.700753
                   11         12         13         14         15
    11  C    0.000000
    12  H    1.100502   0.000000
    13  H    1.099616   1.788717   0.000000
    14  O    3.666343   4.093496   3.064024   0.000000
    15  H    4.144609   4.785916   4.509833   4.015201   0.000000
    16  O    1.431487   2.090339   2.097198   4.894922   4.697144
    17  H    1.972840   2.425022   2.292908   5.312230   5.601235
    18  O    5.545247   6.197974   5.401183   3.327572   2.624361
    19  H    5.973558   6.720611   5.881522   4.122375   2.664169
    20  O    4.981710   5.905194   5.063435   4.563096   2.081141
[...]
 Alpha  occ. eigenvalues --  -10.25644 -10.24771 -10.23799 -10.23070  -1.06736
 Alpha  occ. eigenvalues --   -1.05640  -1.03979  -1.02683  -1.01839  -1.00903
 Alpha  occ. eigenvalues --   -1.00544  -0.99302  -0.78970  -0.75799  -0.69636
 Alpha  occ. eigenvalues --   -0.64311  -0.61837  -0.57424  -0.56851  -0.54722
 Alpha  occ. eigenvalues --   -0.54457  -0.53156  -0.51870  -0.50738  -0.49362
 Alpha  occ. eigenvalues --   -0.47924  -0.46580  -0.44882  -0.43370  -0.43158
 Alpha  occ. eigenvalues --   -0.42336  -0.41574  -0.40066  -0.39524  -0.38943
 Alpha  occ. eigenvalues --   -0.37850  -0.35821  -0.34926  -0.34342  -0.33591
 Alpha  occ. eigenvalues --   -0.31190  -0.30729  -0.30064  -0.29098  -0.27269
 Alpha  occ. eigenvalues --   -0.26817  -0.25870  -0.24842
 Alpha virt. eigenvalues --    0.00480   0.03177   0.05298   0.06545   0.09558
 Alpha virt. eigenvalues --    0.10902   0.11697   0.12184   0.12700   0.14739
 Alpha virt. eigenvalues --    0.15339   0.15395   0.16539   0.18415   0.19184
 Alpha virt. eigenvalues --    0.19422   0.21108   0.22100   0.23056   0.24643
 Alpha virt. eigenvalues --    0.25570   0.26452   0.27847   0.28343   0.30176
 Alpha virt. eigenvalues --    0.31608   0.32452   0.35896   0.50682   0.52049
 Alpha virt. eigenvalues --    0.54116   0.55711   0.58444   0.59197   0.59564
 Alpha virt. eigenvalues --    0.62050   0.63127   0.63450   0.65004   0.67352
 Alpha virt. eigenvalues --    0.68333   0.71056   0.71979   0.72705   0.74084
 Alpha virt. eigenvalues --    0.75879   0.76185   0.78786   0.79538   0.81169
 Alpha virt. eigenvalues --    0.81805   0.82740   0.83343   0.84346   0.85023
 Alpha virt. eigenvalues --    0.85881   0.86295   0.86776   0.88328   0.89203
 Alpha virt. eigenvalues --    0.90329   0.91612   0.92686   0.94583   0.95355
 Alpha virt. eigenvalues --    0.96925   0.98559   0.99510   1.00815   1.01700
 Alpha virt. eigenvalues --    1.03520   1.04186   1.06055   1.06795   1.07040
 Alpha virt. eigenvalues --    1.11577   1.12226   1.14712   1.15973   1.16194
 Alpha virt. eigenvalues --    1.17651   1.18984   1.22795   1.24361   1.25607
 Alpha virt. eigenvalues --    1.28577   1.29440   1.32341   1.33808   1.35865
 Alpha virt. eigenvalues --    1.40310   1.43377   1.44921   1.47205   1.48269
 Alpha virt. eigenvalues --    1.50306   1.52064   1.55244   1.57075   1.60535
 Alpha virt. eigenvalues --    1.62281   1.64510   1.66282   1.67337   1.68117
 Alpha virt. eigenvalues --    1.69690   1.71273   1.71551   1.72364   1.73801
 Alpha virt. eigenvalues --    1.75400   1.76146   1.77715   1.78707   1.80756
 Alpha virt. eigenvalues --    1.81600   1.82340   1.84596   1.85540   1.87027
 Alpha virt. eigenvalues --    1.88834   1.90507   1.91917   1.92788   1.93478
 Alpha virt. eigenvalues --    1.95936   1.99766   2.01966   2.04044   2.04375
 Alpha virt. eigenvalues --    2.07009   2.10278   2.11157   2.12520   2.14464
 Alpha virt. eigenvalues --    2.15803   2.20243   2.24562   2.25677   2.26865
 Alpha virt. eigenvalues --    2.27324   2.31937   2.33381   2.35043   2.38745
 Alpha virt. eigenvalues --    2.43864   2.45275   2.47122   2.48236   2.50196
 Alpha virt. eigenvalues --    2.50989   2.53641   2.56564   2.58381   2.59164
 Alpha virt. eigenvalues --    2.60714   2.61856   2.65110   2.67143   2.69440
 Alpha virt. eigenvalues --    2.72983   2.76577   2.78151   2.83343   2.89193
 Alpha virt. eigenvalues --    2.94590   2.98020   2.98836   3.02011   3.10191
 Alpha virt. eigenvalues --    3.73502   3.75610   3.78604   3.83851   3.89424
 Alpha virt. eigenvalues --    3.98557   3.99078   4.16770   4.26283   4.31733
 Alpha virt. eigenvalues --    4.41437   4.48236   4.66993   4.74156
          Condensed to atoms (all electrons):
               1          2          3          4          5          6
     1  H    0.621087   0.364349  -0.005744   0.000825   0.000177  -0.035194
     2  C    0.364349   4.923379  -0.028513  -0.002221  -0.006338   0.180283
     3  C   -0.005744  -0.028513   4.969192  -0.024675   0.319938  -0.001346
     4  C    0.000825  -0.002221  -0.024675   4.748430   0.306046   0.037009
     5  C    0.000177  -0.006338   0.319938   0.306046   4.983482  -0.010432
     6  O   -0.035194   0.180283  -0.001346   0.037009  -0.010432   8.511895
     7  C   -0.060137   0.286767   0.273276  -0.005448  -0.034073  -0.036573
     8  H   -0.000176   0.002771   0.000343   0.339160  -0.074165  -0.022901
     9  H    0.000015   0.000913  -0.042679  -0.058609   0.342491   0.001301
    10  H    0.007231  -0.056338  -0.051725  -0.000337  -0.005768   0.003159
    11  C   -0.052685   0.347418   0.003209  -0.000215  -0.000166  -0.027338
    12  H   -0.008019  -0.039063  -0.000069  -0.000067   0.000001  -0.000304
    13  H    0.006379  -0.029525  -0.000307   0.000866  -0.000250   0.001242
    14  O   -0.000099   0.004752   0.000314   0.399635  -0.047666  -0.043800
    15  H    0.002893  -0.001851   0.344469  -0.003945  -0.037585   0.002750
    16  O    0.003558  -0.048990   0.000229   0.000000  -0.000002   0.001217
    17  H   -0.000181   0.005197   0.000007   0.000000  -0.000000  -0.000079
    18  O    0.000002   0.000027  -0.028382  -0.032782   0.219925   0.000208
    19  H   -0.000001  -0.000051  -0.011399   0.006594  -0.034869  -0.000055
    20  O   -0.000066   0.002812   0.232339   0.002901  -0.047696   0.000064
    21  H   -0.000003  -0.000074  -0.016602  -0.000133   0.004608   0.000001
    22  O    0.007586  -0.038487  -0.026492   0.000063   0.001529   0.001541
    23  H    0.001036  -0.005408   0.004548   0.000002  -0.000126   0.000018
    24  O   -0.000054  -0.001549   0.000040   0.008767  -0.000343  -0.064682
    25  H    0.000001   0.000053  -0.000108  -0.016855   0.002706   0.006833
    26  H   -0.001909  -0.011248   0.000245  -0.007198   0.001544   0.157875
    27  O   -0.000028  -0.000033   0.005628   0.000000   0.000090   0.000000
    28  H    0.000207   0.000417  -0.001476  -0.000001   0.000070  -0.000005
    29  H    0.000022  -0.000001   0.000493  -0.000000   0.000017  -0.000000
    30  H    0.000015  -0.000516  -0.000002  -0.000289  -0.000014   0.003185
               7          8          9         10         11         12
     1  H   -0.060137  -0.000176   0.000015   0.007231  -0.052685  -0.008019
     2  C    0.286767   0.002771   0.000913  -0.056338   0.347418  -0.039063
     3  C    0.273276   0.000343  -0.042679  -0.051725   0.003209  -0.000069
     4  C   -0.005448   0.339160  -0.058609  -0.000337  -0.000215  -0.000067
     5  C   -0.034073  -0.074165   0.342491  -0.005768  -0.000166   0.000001
     6  O   -0.036573  -0.022901   0.001301   0.003159  -0.027338  -0.000304
     7  C    5.066049   0.000385  -0.007756   0.357942  -0.029203   0.006340
     8  H    0.000385   0.642474   0.006845   0.000094  -0.000074   0.000002
     9  H   -0.007756   0.006845   0.628569   0.010004  -0.000009  -0.000000
    10  H    0.357942   0.000094   0.010004   0.635051  -0.006201   0.000206
    11  C   -0.029203  -0.000074  -0.000009  -0.006201   4.965094   0.360683
    12  H    0.006340   0.000002  -0.000000   0.000206   0.360683   0.624751
    13  H   -0.013045   0.000090   0.000081   0.005063   0.352172  -0.052960
    14  O    0.001469  -0.050073   0.007785   0.000929  -0.001433   0.000075
    15  H   -0.062785   0.001399   0.007847   0.007424   0.000231   0.000006
    16  O    0.007740   0.000000   0.000000   0.000977   0.205218  -0.035471
    17  H   -0.000067  -0.000000   0.000000  -0.000069  -0.018346  -0.001798
    18  O    0.003760   0.008425  -0.037380   0.000016   0.000000  -0.000000
    19  H    0.001150  -0.000711  -0.002546  -0.000036   0.000001  -0.000000
    20  O   -0.041166  -0.000113  -0.002276   0.000627  -0.000040   0.000000
    21  H   -0.003330   0.000006  -0.000167  -0.000389  -0.000002  -0.000000
    22  O    0.201099   0.000000  -0.000091  -0.039994  -0.000731  -0.000265
    23  H   -0.022198  -0.000000   0.000006  -0.002552  -0.004169   0.000295
    24  O   -0.000164   0.003135   0.000017   0.000003   0.004637   0.000486
    25  H    0.000035  -0.006588  -0.000079  -0.000024  -0.000199  -0.000078
    26  H    0.003688   0.000584  -0.000129  -0.000296  -0.002391   0.005096
    27  O   -0.000826  -0.000000  -0.000000  -0.000072  -0.000000  -0.000000
    28  H   -0.003815   0.000000   0.000002   0.000555  -0.000006   0.000001
    29  H   -0.000210   0.000000   0.000000   0.000007  -0.000000   0.000000
    30  H    0.000024  -0.000119  -0.000000  -0.000004   0.001048   0.001205
              13         14         15         16         17         18
     1  H    0.006379  -0.000099   0.002893   0.003558  -0.000181   0.000002
     2  C   -0.029525   0.004752  -0.001851  -0.048990   0.005197   0.000027
     3  C   -0.000307   0.000314   0.344469   0.000229   0.000007  -0.028382
     4  C    0.000866   0.399635  -0.003945   0.000000   0.000000  -0.032782
     5  C   -0.000250  -0.047666  -0.037585  -0.000002  -0.000000   0.219925
     6  O    0.001242  -0.043800   0.002750   0.001217  -0.000079   0.000208
     7  C   -0.013045   0.001469  -0.062785   0.007740  -0.000067   0.003760
     8  H    0.000090  -0.050073   0.001399   0.000000  -0.000000   0.008425
     9  H    0.000081   0.007785   0.007847   0.000000   0.000000  -0.037380
    10  H    0.005063   0.000929   0.007424   0.000977  -0.000069   0.000016
    11  C    0.352172  -0.001433   0.000231   0.205218  -0.018346   0.000000
    12  H   -0.052960   0.000075   0.000006  -0.035471  -0.001798  -0.000000
    13  H    0.608319   0.003602   0.000011  -0.030503  -0.005643   0.000001
    14  O    0.003602   8.233286   0.000027   0.000004  -0.000001   0.000527
    15  H    0.000011   0.000027   0.659069  -0.000009   0.000000   0.002275
    16  O   -0.030503   0.000004  -0.000009   8.267732   0.237285  -0.000000
    17  H   -0.005643  -0.000001   0.000000   0.237285   0.371527   0.000000
    18  O    0.000001   0.000527   0.002275  -0.000000   0.000000   8.292595
    19  H   -0.000000  -0.000129  -0.000478   0.000000  -0.000000   0.234526
    20  O   -0.000003  -0.000018  -0.043117  -0.000000  -0.000000  -0.008881
    21  H    0.000000   0.000001  -0.004280   0.000000  -0.000000  -0.000030
    22  O    0.000111   0.000001  -0.000085  -0.012590   0.000543  -0.000010
    23  H    0.000506  -0.000000  -0.000200   0.039225  -0.001345   0.000001
    24  O    0.001704  -0.068016   0.000003   0.000018   0.000002   0.000000
    25  H   -0.000194   0.095054   0.000002  -0.000005  -0.000000  -0.000036
    26  H   -0.000852   0.007145  -0.000120   0.000032  -0.000008  -0.000027
    27  O    0.000000  -0.000000   0.000960  -0.000000   0.000000  -0.000000
    28  H   -0.000000  -0.000000   0.000433   0.000009  -0.000001  -0.000000
    29  H    0.000000   0.000000   0.000404   0.000000  -0.000000   0.000000
    30  H    0.000937   0.003315  -0.000000   0.000001  -0.000003   0.000000
              19         20         21         22         23         24
     1  H   -0.000001  -0.000066  -0.000003   0.007586   0.001036  -0.000054
     2  C   -0.000051   0.002812  -0.000074  -0.038487  -0.005408  -0.001549
     3  C   -0.011399   0.232339  -0.016602  -0.026492   0.004548   0.000040
     4  C    0.006594   0.002901  -0.000133   0.000063   0.000002   0.008767
     5  C   -0.034869  -0.047696   0.004608   0.001529  -0.000126  -0.000343
     6  O   -0.000055   0.000064   0.000001   0.001541   0.000018  -0.064682
     7  C    0.001150  -0.041166  -0.003330   0.201099  -0.022198  -0.000164
     8  H   -0.000711  -0.000113   0.000006   0.000000  -0.000000   0.003135
     9  H   -0.002546  -0.002276  -0.000167  -0.000091   0.000006   0.000017
    10  H   -0.000036   0.000627  -0.000389  -0.039994  -0.002552   0.000003
    11  C    0.000001  -0.000040  -0.000002  -0.000731  -0.004169   0.004637
    12  H   -0.000000   0.000000  -0.000000  -0.000265   0.000295   0.000486
    13  H   -0.000000  -0.000003   0.000000   0.000111   0.000506   0.001704
    14  O   -0.000129  -0.000018   0.000001   0.000001  -0.000000  -0.068016
    15  H   -0.000478  -0.043117  -0.004280  -0.000085  -0.000200   0.000003
    16  O    0.000000  -0.000000   0.000000  -0.012590   0.039225   0.000018
    17  H   -0.000000  -0.000000  -0.000000   0.000543  -0.001345   0.000002
    18  O    0.234526  -0.008881  -0.000030  -0.000010   0.000001   0.000000
    19  H    0.367281   0.030683  -0.000447  -0.000006   0.000000  -0.000000
    20  O    0.030683   8.372545   0.202756   0.000437  -0.000080  -0.000000
    21  H   -0.000447   0.202756   0.316915   0.002381  -0.000005   0.000000
    22  O   -0.000006   0.000437   0.002381   8.322005   0.228381   0.000000
    23  H    0.000000  -0.000080  -0.000005   0.228381   0.333659  -0.000000
    24  O   -0.000000  -0.000000   0.000000   0.000000  -0.000000   8.433952
    25  H    0.000004   0.000000  -0.000000  -0.000000   0.000000   0.169428
    26  H    0.000002   0.000001   0.000000  -0.000042   0.000001   0.100524
    27  O    0.000011  -0.027277   0.079648  -0.018847   0.000567   0.000000
    28  H   -0.000006   0.005409  -0.011359   0.052023  -0.001656  -0.000000
    29  H   -0.000003   0.001316  -0.004307   0.001133  -0.000025  -0.000000
    30  H    0.000000   0.000000  -0.000000  -0.000000   0.000000   0.233672
              25         26         27         28         29         30
     1  H    0.000001  -0.001909  -0.000028   0.000207   0.000022   0.000015
     2  C    0.000053  -0.011248  -0.000033   0.000417  -0.000001  -0.000516
     3  C   -0.000108   0.000245   0.005628  -0.001476   0.000493  -0.000002
     4  C   -0.016855  -0.007198   0.000000  -0.000001  -0.000000  -0.000289
     5  C    0.002706   0.001544   0.000090   0.000070   0.000017  -0.000014
     6  O    0.006833   0.157875   0.000000  -0.000005  -0.000000   0.003185
     7  C    0.000035   0.003688  -0.000826  -0.003815  -0.000210   0.000024
     8  H   -0.006588   0.000584  -0.000000   0.000000   0.000000  -0.000119
     9  H   -0.000079  -0.000129  -0.000000   0.000002   0.000000  -0.000000
    10  H   -0.000024  -0.000296  -0.000072   0.000555   0.000007  -0.000004
    11  C   -0.000199  -0.002391  -0.000000  -0.000006  -0.000000   0.001048
    12  H   -0.000078   0.005096  -0.000000   0.000001   0.000000   0.001205
    13  H   -0.000194  -0.000852   0.000000  -0.000000   0.000000   0.000937
    14  O    0.095054   0.007145  -0.000000  -0.000000   0.000000   0.003315
    15  H    0.000002  -0.000120   0.000960   0.000433   0.000404  -0.000000
    16  O   -0.000005   0.000032  -0.000000   0.000009   0.000000   0.000001
    17  H   -0.000000  -0.000008   0.000000  -0.000001  -0.000000  -0.000003
    18  O   -0.000036  -0.000027  -0.000000  -0.000000   0.000000   0.000000
    19  H    0.000004   0.000002   0.000011  -0.000006  -0.000003   0.000000
    20  O    0.000000   0.000001  -0.027277   0.005409   0.001316   0.000000
    21  H   -0.000000   0.000000   0.079648  -0.011359  -0.004307  -0.000000
    22  O   -0.000000  -0.000042  -0.018847   0.052023   0.001133  -0.000000
    23  H    0.000000   0.000001   0.000567  -0.001656  -0.000025   0.000000
    24  O    0.169428   0.100524   0.000000  -0.000000  -0.000000   0.233672
    25  H    0.325053  -0.014397   0.000000   0.000000  -0.000000  -0.006424
    26  H   -0.014397   0.300972  -0.000000   0.000000  -0.000000  -0.006229
    27  O    0.000000  -0.000000   8.302625   0.217899   0.241123  -0.000000
    28  H    0.000000   0.000000   0.217899   0.323786  -0.016069   0.000000
    29  H   -0.000000  -0.000000   0.241123  -0.016069   0.381968   0.000000
    30  H   -0.006424  -0.006229  -0.000000   0.000000   0.000000   0.374389
 Mulliken charges:
               1
     1  H    0.148913
     2  C    0.151067
     3  C    0.085247
     4  C    0.302476
     5  C    0.116868
     6  O   -0.665872
     7  C    0.111073
     8  H    0.149206
     9  H    0.145847
    10  H    0.134517
    11  C   -0.096502
    12  H    0.138946
    13  H    0.152200
    14  O   -0.546685
    15  H    0.124252
    16  O   -0.635676
    17  H    0.412980
    18  O   -0.654759
    19  H    0.410486
    20  O   -0.681159
    21  H    0.434813
    22  O   -0.681193
    23  H    0.429521
    24  O   -0.821581
    25  H    0.445819
    26  H    0.467138
    27  O   -0.801467
    28  H    0.433584
    29  H    0.394132
    30  H    0.395809
 Sum of Mulliken charges =  -0.00000
 Mulliken charges with hydrogens summed into heavy atoms:
               1
     2  C    0.299979
     3  C    0.209499
     4  C    0.451682
     5  C    0.262715
     6  O   -0.198734
     7  C    0.245590
    11  C    0.194644
    14  O   -0.546685
    16  O   -0.222696
    18  O   -0.244273
    20  O   -0.246346
    22  O   -0.251672
    24  O    0.020047
    27  O    0.026249
 APT charges:
               1
     1  H    0.406677
     2  C   -0.306838
     3  C   -0.231313
     4  C   -0.356557
     5  C   -0.189592
     6  O   -0.555638
     7  C   -0.138233
     8  H    0.449610
     9  H    0.352090
    10  H    0.314761
    11  C   -0.571185
    12  H    0.521188
    13  H    0.299478
    14  O   -0.217957
    15  H    0.304779
    16  O   -1.099202
    17  H    0.936109
    18  O   -0.760239
    19  H    0.635744
    20  O   -0.802913
    21  H    0.586249
    22  O   -0.845389
    23  H    0.643371
    24  O   -1.068606
    25  H    0.267639
    26  H    0.576697
    27  O   -0.695504
    28  H    0.166789
    29  H    0.630315
    30  H    0.747669
 Sum of APT charges =  -0.00000
 APT charges with hydrogens summed into heavy atoms:
               1
     2  C    0.099840
     3  C    0.073466
     4  C    0.093054
     5  C    0.162498
     6  O    0.021059
     7  C    0.176528
    11  C    0.249481
    14  O   -0.217957
    16  O   -0.163093
    18  O   -0.124494
    20  O   -0.216665
    22  O   -0.202018
    24  O   -0.053298
    27  O    0.101600
 Electronic spatial extent (au):  <R**2>=           3302.1281
 Charge=              0.0000 electrons
 Dipole moment (field-independent basis, Debye):
    X=             -1.9685    Y=              5.9621    Z=              0.3473  Tot=              6.2883
 Quadrupole moment (field-independent basis, Debye-Ang):
   XX=            -88.1752   YY=            -78.5711   ZZ=            -82.2160
   XY=            -10.8951   XZ=             10.0475   YZ=             -5.5380
 Traceless Quadrupole moment (field-independent basis, Debye-Ang):
   XX=             -5.1877   YY=              4.4163   ZZ=              0.7714
   XY=            -10.8951   XZ=             10.0475   YZ=             -5.5380
 Octapole moment (field-independent basis, Debye-Ang**2):
  XXX=            -50.9329  YYY=             55.0914  ZZZ=              3.3588  XYY=             -6.1644
  XXY=             26.4121  XXZ=             11.8198  XZZ=             20.5867  YZZ=             12.5212
  YYZ=            -19.4106  XYZ=              9.5130
 Hexadecapole moment (field-independent basis, Debye-Ang**3):
 XXXX=          -2234.2073 YYYY=          -1389.0839 ZZZZ=           -247.7251 XXXY=           -113.0347
 XXXZ=            149.1329 YYYX=            -76.8943 YYYZ=            -85.8549 ZZZX=             38.8450
 ZZZY=            -14.6489 XXYY=           -523.2516 XXZZ=           -358.1787 YYZZ=           -260.6569
 XXYZ=            -12.6618 YYXZ=             12.3835 ZZXY=             -3.8567
 N-N= 1.101309188923D+03 E-N=-4.175102842042D+03  KE= 8.330369487121D+02
  Exact polarizability:   0.000   0.000   0.000   0.000   0.000   0.000
 Approx polarizability: 143.393  -0.722 132.849   8.906   0.680 125.627

 This type of calculation cannot be archived.


 ALTHOUGH J.J. COULD DIAGNOSE THE FAULTS OF AN
 APPARATUS WITH UNCANNY ACCURACY, IT WAS JUST AS
 WELL NOT TO LET HIM HANDLE IT.
   -- GEORGE THOMPSON, ABOUT HIS FATHER
 Job cpu time:       0 days  1 hours  1 minutes 37.6 seconds.
 File lengths (MBytes):  RWF=    220 Int=      0 D2E=      0 Chk=      9 Scr=      1
 Normal termination of Gaussian 09 at Sat Jan 14 00:55:15 2017.
