 Entering Gaussian System, Link 0=g09
 Initial command:
 /global/software/gaussian/g09.e01/l1.exe "/scratch/10461039.yak.local/Gau-28085.inp" -scrdir="/scratch/10461039.yak.local/"
 Entering Link 1 = /global/software/gaussian/g09.e01/l1.exe PID=     28086.
  
 Copyright (c) 1988,1990,1992,1993,1995,1998,2003,2009,2015,
            Gaussian, Inc.  All Rights Reserved.
  
 This is part of the Gaussian(R) 09 program.  It is based on
 the Gaussian(R) 03 system (copyright 2003, Gaussian, Inc.),
 the Gaussian(R) 98 system (copyright 1998, Gaussian, Inc.),
 the Gaussian(R) 94 system (copyright 1995, Gaussian, Inc.),
 the Gaussian 92(TM) system (copyright 1992, Gaussian, Inc.),
 the Gaussian 90(TM) system (copyright 1990, Gaussian, Inc.),
 the Gaussian 88(TM) system (copyright 1988, Gaussian, Inc.),
 the Gaussian 86(TM) system (copyright 1986, Carnegie Mellon
 University), and the Gaussian 82(TM) system (copyright 1983,
 Carnegie Mellon University). Gaussian is a federally registered
 trademark of Gaussian, Inc.
  
 This software contains proprietary and confidential information,
 including trade secrets, belonging to Gaussian, Inc.
  
 This software is provided under written license and may be
 used, copied, transmitted, or stored only in accord with that
 written license.
  
 The following legend is applicable only to US Government
 contracts under FAR:
  
                    RESTRICTED RIGHTS LEGEND
  
 Use, reproduction and disclosure by the US Government is
 subject to restrictions as set forth in subparagraphs (a)
 and (c) of the Commercial Computer Software - Restricted
 Rights clause in FAR 52.227-19.
  
 Gaussian, Inc.
 340 Quinnipiac St., Bldg. 40, Wallingford CT 06492
  
  
 ---------------------------------------------------------------
 Warning -- This program may not be used in any manner that
 competes with the business of Gaussian, Inc. or will provide
 assistance to any competitor of Gaussian, Inc.  The licensee
 of this program is prohibited from giving any competitor of
 Gaussian, Inc. access to this program.  By using this program,
 the user acknowledges that Gaussian, Inc. is engaged in the
 business of creating and licensing software in the field of
 computational chemistry and represents and warrants to the
 licensee that it is not a competitor of Gaussian, Inc. and that
 it will not use this program in any manner prohibited above.
 ---------------------------------------------------------------
  

 Cite this work as:
 Gaussian 09, Revision E.01,
 M. J. Frisch, G. W. Trucks, H. B. Schlegel, G. E. Scuseria, 
 M. A. Robb, J. R. Cheeseman, G. Scalmani, V. Barone, B. Mennucci, 
 G. A. Petersson, H. Nakatsuji, M. Caricato, X. Li, H. P. Hratchian, 
 A. F. Izmaylov, J. Bloino, G. Zheng, J. L. Sonnenberg, M. Hada, 
 M. Ehara, K. Toyota, R. Fukuda, J. Hasegawa, M. Ishida, T. Nakajima, 
 Y. Honda, O. Kitao, H. Nakai, T. Vreven, J. A. Montgomery, Jr., 
 J. E. Peralta, F. Ogliaro, M. Bearpark, J. J. Heyd, E. Brothers, 
 K. N. Kudin, V. N. Staroverov, T. Keith, R. Kobayashi, J. Normand, 
 K. Raghavachari, A. Rendell, J. C. Burant, S. S. Iyengar, J. Tomasi, 
 M. Cossi, N. Rega, J. M. Millam, M. Klene, J. E. Knox, J. B. Cross, 
 V. Bakken, C. Adamo, J. Jaramillo, R. Gomperts, R. E. Stratmann, 
 O. Yazyev, A. J. Austin, R. Cammi, C. Pomelli, J. W. Ochterski, 
 R. L. Martin, K. Morokuma, V. G. Zakrzewski, G. A. Voth, 
 P. Salvador, J. J. Dannenberg, S. Dapprich, A. D. Daniels, 
 O. Farkas, J. B. Foresman, J. V. Ortiz, J. Cioslowski, 
 and D. J. Fox, Gaussian, Inc., Wallingford CT, 2013.
 
 ******************************************
 Gaussian 09:  ES64L-G09RevE.01 30-Nov-2015
                13-Jan-2017 
 ******************************************
 -------------------------------------
 # b3lyp/6-31g(d) irc=(calcfc,forward)
 -------------------------------------
 1/10=4,14=-1,18=10,22=1,26=3,38=1,44=3/1,23;
 2/12=2,17=6,18=5,29=1,40=1/2;
 3/5=1,6=6,7=1,11=2,16=1,25=1,30=1,71=2,74=-5,140=1/1,2,3;
 4//1;
 5/5=2,38=5/2;
 8/6=4,10=90,11=11/1;
 11/6=1,8=1,9=11,15=111,16=1/1,2,10;
 10/6=1,13=1/2;
 6/7=2,8=2,9=2,10=2,28=1/1;
 7/10=1,18=20,25=1/1,2,3,16;
 1/10=4,14=-1,18=10,22=1,26=3,44=3/23(2);
 2/29=1/2;
 99/5=20/99;
 2/29=1/2;
 3/5=1,6=6,7=1,11=2,16=1,25=1,30=1,71=2,74=-5,140=1/1,2,3;
 4/5=5,16=3,69=1/1;
 5/5=2,38=5/2;
 8/6=4,10=90,11=11/1;
 11/6=1,8=1,9=11,15=111,16=1/1,2,10;
 10/6=1,13=1/2;
 7/10=1,18=20,25=1/1,2,3,16;
 1/14=-1,18=10,22=1,26=3,44=3/23(-8);
 2/29=1/2;
 6/7=2,8=2,9=2,10=2,19=2,28=1/1;
 99/5=20,9=1/99;
 --------------------------------
 glo_1w_beta_ts_boat1_B3LYP_631Gd
 --------------------------------
 Symbolic Z-matrix:
 Charge =  0 Multiplicity = 1
 1                    -0.0266    1.57668   1.42475 
 6                    -0.48954   1.09755   0.54996 
 6                     1.12816  -0.78059   0.05326 
 6                    -1.3392   -1.55395   0.03787 
 6                     0.08951  -1.80973  -0.41852 
 8                    -1.27734   0.01358   1.02626 
 6                     0.68217   0.62871  -0.3476 
 1                    -1.61247  -2.09442   0.95206 
 1                     0.07897  -1.77623  -1.51891 
 1                     0.37077   0.60197  -1.40305 
 6                    -1.34162   2.1445   -0.17571 
 1                    -2.13666   2.51605   0.48841 
 1                    -1.80549   1.68299  -1.05967 
 8                    -2.23057  -1.34393  -0.86452 
 1                     1.20971  -0.83953   1.14997 
 8                    -0.45963   3.20838  -0.54997 
 1                    -0.9154    3.79309  -1.17297 
 8                     0.45325  -3.09718   0.04738 
 1                     1.40676  -3.15808  -0.14511 
 8                     2.32582  -1.20371  -0.56861 
 1                     3.08681  -0.74692  -0.13824 
 8                     1.76241   1.55713  -0.21102 
 1                     1.39291   2.42522  -0.45787 
 8                    -3.63145  -0.10218   0.60687 
 1                    -3.16606  -0.8203   -0.23723 
 1                    -2.48644   0.15342   0.94883 
 8                     4.14934   0.47993   0.62124 
 1                     3.45391   1.11579   0.34734 
 1                     4.08868   0.45608   1.58824 
 1                    -4.05095   0.65905   0.17676 
 
 IRC-IRC-IRC-IRC-IRC-IRC-IRC-IRC-IRC-IRC-IRC-IRC-IRC-IRC-IRC-IRC-IRC-IRC
 ------------------------------------------------------------------------
 INPUT DATA FOR L123
 ------------------------------------------------------------------------
 GENERAL PARAMETERS:
 Rxn path following direction = Forward
 Maximum points per path      =  10
 Step size                    =   0.100 bohr
 Integration scheme           = HPC                                 
    Redo corrector integration= Yes                                 
    DWI Weight Power          =  2
    DWI will use Hessian update vectors when possible.
    Max correction cycles     =  20
 Initial Hessian              = CalcFC
 Hessian evaluation           = All updating
 Hessian updating method      = Bofill                              
 ------------------------------------------------------------------------
 IRC-IRC-IRC-IRC-IRC-IRC-IRC-IRC-IRC-IRC-IRC-IRC-IRC-IRC-IRC-IRC-IRC-IRC
                          Input orientation:                          
 ---------------------------------------------------------------------
 Center     Atomic      Atomic             Coordinates (Angstroms)
 Number     Number       Type             X           Y           Z
 ---------------------------------------------------------------------
      1          1           0       -0.026595    1.576676    1.424754
      2          6           0       -0.489540    1.097554    0.549958
      3          6           0        1.128162   -0.780590    0.053260
      4          6           0       -1.339197   -1.553946    0.037873
      5          6           0        0.089513   -1.809730   -0.418522
      6          8           0       -1.277335    0.013579    1.026265
      7          6           0        0.682166    0.628710   -0.347601
      8          1           0       -1.612465   -2.094418    0.952062
      9          1           0        0.078971   -1.776228   -1.518913
     10          1           0        0.370773    0.601971   -1.403053
     11          6           0       -1.341622    2.144495   -0.175710
     12          1           0       -2.136657    2.516049    0.488414
     13          1           0       -1.805488    1.682991   -1.059667
     14          8           0       -2.230571   -1.343928   -0.864517
     15          1           0        1.209714   -0.839527    1.149974
     16          8           0       -0.459634    3.208383   -0.549967
     17          1           0       -0.915396    3.793088   -1.172972
     18          8           0        0.453246   -3.097178    0.047377
     19          1           0        1.406763   -3.158083   -0.145110
     20          8           0        2.325821   -1.203709   -0.568608
     21          1           0        3.086806   -0.746917   -0.138237
     22          8           0        1.762413    1.557129   -0.211020
     23          1           0        1.392913    2.425223   -0.457870
     24          8           0       -3.631452   -0.102179    0.606869
     25          1           0       -3.166061   -0.820304   -0.237226
     26          1           0       -2.486439    0.153422    0.948825
     27          8           0        4.149341    0.479928    0.621242
     28          1           0        3.453905    1.115792    0.347336
     29          1           0        4.088680    0.456077    1.588235
     30          1           0       -4.050952    0.659053    0.176758
 ---------------------------------------------------------------------
                    Distance matrix (angstroms):
                    1          2          3          4          5
     1  H    0.000000
     2  C    1.099611   0.000000
     3  C    2.961615   2.528061   0.000000
     4  C    3.667037   2.831007   2.585764   0.000000
     5  C    3.857317   3.118582   1.536392   1.521491   0.000000
     6  O    2.041180   1.422143   2.713643   1.854152   2.698173
     7  C    2.131249   1.548652   1.531577   2.999748   2.510430
     8  H    4.026829   3.407541   3.169389   1.096598   2.203696
     9  H    4.462991   3.586371   2.136311   2.117591   1.100951
    10  H    3.017357   2.190889   2.146150   3.106162   2.620059
    11  C    2.147836   1.532554   3.835151   3.704604   4.212244
    12  H    2.492291   2.174606   4.660068   4.171785   4.948811
    13  H    3.057468   2.159942   3.989253   3.449606   4.025071
    14  O    4.316040   3.315534   3.527145   1.285676   2.408043
    15  H    2.728003   2.645707   1.101320   2.871256   2.157852
    16  O    2.597983   2.380405   4.335537   4.878418   5.049782
    17  H    3.528545   3.227343   5.157354   5.498775   5.742004
    18  O    4.896154   4.328650   2.412908   2.365271   1.416646
    19  H    5.190080   4.710576   2.401966   3.185441   1.904720
    20  O    4.151854   3.804374   1.414262   3.731332   2.321823
    21  H    4.187516   4.082393   1.968271   4.502423   3.192475
    22  O    2.424188   2.421072   2.436606   4.400082   3.765288
    23  H    2.505855   2.514369   3.257082   4.852213   4.431165
    24  O    4.059863   3.363660   4.839489   2.772331   4.220514
    25  H    4.285316   3.385499   4.304220   1.987798   3.407432
    26  H    2.881491   2.244568   3.839239   2.249690   3.515556
    27  O    4.391689   4.680359   3.322504   5.882263   4.775547
    28  H    3.672482   3.948689   3.015265   5.495188   4.523754
    29  H    4.268250   4.738102   3.556706   5.992133   5.015405
    30  H    4.312189   3.607661   5.376899   3.502894   4.857232
                    6          7          8          9         10
     6  O    0.000000
     7  C    2.470939   0.000000
     8  H    2.135760   3.790763   0.000000
     9  H    3.394246   2.742178   3.011298   0.000000
    10  H    2.994003   1.100754   4.092715   2.398834   0.000000
    11  C    2.447382   2.534338   4.394725   4.381135   2.611139
    12  H    2.700014   3.493813   4.663277   5.230871   3.678117
    13  H    2.723416   2.794095   4.284055   3.965891   2.454105
    14  O    2.515262   3.555635   2.060400   2.439078   3.292952
    15  H    2.632206   2.162581   3.094934   3.046136   3.049539
    16  O    3.655122   2.828316   5.630702   5.106398   2.865435
    17  H    4.387748   3.639606   6.297968   5.667956   3.448245
    18  O    3.691875   3.753752   2.468024   2.082848   3.974198
    19  H    4.316937   3.860809   3.383919   2.357942   4.098012
    20  O    4.124093   2.471478   4.314614   2.505832   2.789084
    21  H    4.580409   2.778215   5.008758   3.465951   3.285741
    22  O    3.626774   1.430926   5.106501   3.956745   2.066381
    23  H    3.892160   1.935143   5.607795   4.528184   2.293990
    24  O    2.393984   4.478003   2.857356   4.592236   4.533588
    25  H    2.420549   4.113475   2.334830   3.617561   3.986378
    26  H    1.219625   3.456396   2.411768   4.049026   3.727759
    27  O    5.461716   3.603067   6.319423   5.122345   4.288384
    28  H    4.905145   2.898745   6.028204   4.820461   3.582398
    29  H    5.413477   3.921938   6.277961   5.542140   4.774089
    30  H    2.971742   4.762172   3.758845   5.085485   4.695819
                   11         12         13         14         15
    11  C    0.000000
    12  H    1.100542   0.000000
    13  H    1.099790   1.788914   0.000000
    14  O    3.665212   4.091291   3.062845   0.000000
    15  H    4.143808   4.784950   4.509662   4.018477   0.000000
    16  O    1.431722   2.090447   2.097126   4.894762   4.697031
    17  H    1.973337   2.425389   2.292948   5.311663   5.601187
    18  O    5.544949   6.197615   5.401615   3.332913   2.623919
    19  H    5.972595   6.719595   5.881409   4.127821   2.663038
    20  O    4.981463   5.904880   5.063782   4.568143   2.081309
    21  H    5.288917   6.190655   5.539677   5.399852   2.278495
    22  O    3.159316   4.075719   3.669600   4.978666   2.811004
    23  H    2.763350   3.655348   3.338089   5.244187   3.643805
    24  O    3.302014   3.017211   3.049314   2.381047   4.927021
    25  H    3.481723   3.566157   2.965477   1.242102   4.590436
    26  H    2.557256   2.432351   2.614826   2.365531   3.832487
    27  O    5.792805   6.608873   6.303396   6.799795   3.265260
    28  H    4.932432   5.764981   5.473809   6.311266   3.082839
    29  H    5.954027   6.648903   6.577075   7.013483   3.187336
    30  H    3.109862   2.685161   2.760309   2.899995   5.555853
                   16         17         18         19         20
    16  O    0.000000
    17  H    0.968367   0.000000
    18  O    6.399240   7.130091   0.000000
    19  H    6.646746   7.400520   0.974657   0.000000
    20  O    5.217822   5.986545   2.733350   2.200817   0.000000
    21  H    5.328335   6.140028   3.534659   2.938760   0.986396
    22  O    2.789089   3.618774   4.841824   4.729065   2.840339
    23  H    2.013393   2.776818   5.624514   5.592076   3.748563
    24  O    4.728480   5.071282   5.095862   5.940339   6.171241
    25  H    4.863422   5.217710   4.285386   5.136576   5.515214
    26  H    3.960695   4.496373   4.474456   5.226833   5.225156
    27  O    5.482595   6.312511   5.175532   4.619973   2.752381
    28  H    4.527679   5.345095   5.181028   4.764378   2.737081
    29  H    5.730118   6.618208   5.311897   4.822791   3.242612
    30  H    4.463718   4.634184   5.866329   6.667892   6.684960
                   21         22         23         24         25
    21  H    0.000000
    22  O    2.658560   0.000000
    23  H    3.610251   0.975219   0.000000
    24  O    6.790130   5.702282   5.724131   0.000000
    25  H    6.254081   5.471995   5.600569   1.201994   0.000000
    26  H    5.749206   4.622594   4.710546   1.222015   1.678316
    27  O    1.791909   2.747808   3.542111   7.802551   7.479484
    28  H    1.959650   1.835125   2.571119   7.193962   6.922003
    29  H    2.330590   3.140247   3.915513   7.802254   7.588987
    30  H    7.281728   5.895093   5.758279   0.969768   1.772826
                   26         27         28         29         30
    26  H    0.000000
    27  O    6.651879   0.000000
    28  H    6.047779   0.981315   0.000000
    29  H    6.613065   0.969187   1.542074   0.000000
    30  H    1.816439   8.214284   7.520677   8.263599   0.000000
 Symmetry turned off by external request.
 Stoichiometry    C6H16O8
 Framework group  C1[X(C6H16O8)]
 Deg. of freedom    84
 Full point group                 C1      NOp   1
 Rotational constants (GHZ):      0.7314493      0.5238381      0.3353985
 Standard basis: 6-31G(d) (6D, 7F)
   242 basis functions,   456 primitive gaussians,   242 cartesian basis functions
    58 alpha electrons       58 beta electrons
       nuclear repulsion energy      1103.4621563569 Hartrees.
 NAtoms=   30 NActive=   30 NUniq=   30 SFac= 1.00D+00 NAtFMM=   60 NAOKFM=F Big=F
 Integral buffers will be    131072 words long.
 Raffenetti 2 integral format.
 Two-electron integral symmetry is turned off.
 One-electron integrals computed using PRISM.
 NBasis=   242 RedAO= T EigKep=  1.59D-03  NBF=   242
 NBsUse=   242 1.00D-06 EigRej= -1.00D+00 NBFU=   242
 ExpMin= 1.61D-01 ExpMax= 5.48D+03 ExpMxC= 8.25D+02 IAcc=1 IRadAn=         1 AccDes= 0.00D+00
 Harris functional with IExCor=  402 and IRadAn=       1 diagonalized for initial guess.
 HarFok:  IExCor=  402 AccDes= 0.00D+00 IRadAn=         1 IDoV= 1 UseB2=F ITyADJ=14
 ICtDFT=  3500011 ScaDFX=  1.000000  1.000000  1.000000  1.000000
 FoFCou: FMM=F IPFlag=           0 FMFlag=      100000 FMFlg1=           0
         NFxFlg=           0 DoJE=T BraDBF=F KetDBF=T FulRan=T
         wScrn=  0.000000 ICntrl=     500 IOpCl=  0 I1Cent=   200000004 NGrid=           0
         NMat0=    1 NMatS0=      1 NMatT0=    0 NMatD0=    1 NMtDS0=    0 NMtDT0=    0
 Symmetry not used in FoFCou.
 Requested convergence on RMS density matrix=1.00D-08 within 128 cycles.
 Requested convergence on MAX density matrix=1.00D-06.
 Requested convergence on             energy=1.00D-06.
 No special actions if energy rises.
 Integral accuracy reduced to 1.0D-05 until final iterations.
 Initial convergence to 1.0D-05 achieved.  Increase integral accuracy.
 SCF Done:  E(RB3LYP) =  -839.953068735     A.U. after   14 cycles
            NFock= 14  Conv=0.60D-08     -V/T= 2.0086
 DoSCS=F DFT=T ScalE2(SS,OS)=  1.000000  1.000000
 Range of M.O.s used for correlation:     1   242
 NBasis=   242 NAE=    58 NBE=    58 NFC=     0 NFV=     0
 NROrb=    242 NOA=    58 NOB=    58 NVA=   184 NVB=   184
 Symmetrizing basis deriv contribution to polar:
 IMax=3 JMax=2 DiffMx= 0.00D+00
 G2DrvN: will do    31 centers at a time, making    1 passes.
 Calling FoFCou, ICntrl=  3107 FMM=F I1Cent=   0 AccDes= 0.00D+00.
 End of G2Drv F.D. properties file   721 does not exist.
 End of G2Drv F.D. properties file   722 does not exist.
 End of G2Drv F.D. properties file   788 does not exist.
          IDoAtm=111111111111111111111111111111
          Differentiating once with respect to nuclear coordinates.
          There are    93 degrees of freedom in the 1st order CPHF.  IDoFFX=6 NUNeed=     0.
     87 vectors produced by pass  0 Test12= 1.15D-14 1.08D-09 XBig12= 1.19D-01 9.61D-02.
 AX will form    87 AO Fock derivatives at one time.
     87 vectors produced by pass  1 Test12= 1.15D-14 1.08D-09 XBig12= 1.28D-02 2.07D-02.
     87 vectors produced by pass  2 Test12= 1.15D-14 1.08D-09 XBig12= 1.40D-04 1.65D-03.
     87 vectors produced by pass  3 Test12= 1.15D-14 1.08D-09 XBig12= 3.61D-07 7.40D-05.
     87 vectors produced by pass  4 Test12= 1.15D-14 1.08D-09 XBig12= 4.86D-10 2.17D-06.
     71 vectors produced by pass  5 Test12= 1.15D-14 1.08D-09 XBig12= 4.04D-13 4.80D-08.
      2 vectors produced by pass  6 Test12= 1.15D-14 1.08D-09 XBig12= 3.44D-16 1.59D-09.
 InvSVY:  IOpt=1 It=  1 EMax= 5.00D-16
 Solved reduced A of dimension   508 with    93 vectors.
 End of Minotr F.D. properties file   721 does not exist.
 End of Minotr F.D. properties file   722 does not exist.
 End of Minotr F.D. properties file   788 does not exist.

 **********************************************************************

            Population analysis using the SCF density.

 **********************************************************************

 Alpha  occ. eigenvalues --  -19.18795 -19.16427 -19.15983 -19.15923 -19.14973
 Alpha  occ. eigenvalues --  -19.14072 -19.13921 -19.13304 -10.29374 -10.26109
 Alpha  occ. eigenvalues --  -10.25254 -10.24676 -10.23884 -10.23726  -1.06360
 Alpha  occ. eigenvalues --   -1.05619  -1.03961  -1.02538  -1.00836  -1.00647
 Alpha  occ. eigenvalues --   -0.99480  -0.99276  -0.78426  -0.76025  -0.69993
 Alpha  occ. eigenvalues --   -0.63953  -0.61956  -0.57566  -0.56808  -0.54948
 Alpha  occ. eigenvalues --   -0.53997  -0.53071  -0.52211  -0.50445  -0.49289
 Alpha  occ. eigenvalues --   -0.47802  -0.46216  -0.45094  -0.43387  -0.43271
 Alpha  occ. eigenvalues --   -0.42663  -0.41790  -0.40376  -0.39497  -0.38686
 Alpha  occ. eigenvalues --   -0.37386  -0.35650  -0.34779  -0.34160  -0.33678
 Alpha  occ. eigenvalues --   -0.30977  -0.30362  -0.30062  -0.28044  -0.27481
 Alpha  occ. eigenvalues --   -0.26992  -0.26716  -0.25572
 Alpha virt. eigenvalues --    0.00278   0.03420   0.05225   0.06548   0.09595
 Alpha virt. eigenvalues --    0.10955   0.11756   0.12093   0.12866   0.14469
 Alpha virt. eigenvalues --    0.15354   0.15446   0.16692   0.18201   0.19060
 Alpha virt. eigenvalues --    0.19496   0.20987   0.21952   0.23003   0.24434
 Alpha virt. eigenvalues --    0.25549   0.26235   0.27695   0.27921   0.30233
 Alpha virt. eigenvalues --    0.31603   0.32165   0.34983   0.50656   0.52256
 Alpha virt. eigenvalues --    0.54093   0.54958   0.57981   0.58553   0.59124
 Alpha virt. eigenvalues --    0.59363   0.61733   0.62466   0.63577   0.67062
 Alpha virt. eigenvalues --    0.67653   0.69060   0.69897   0.71868   0.72462
 Alpha virt. eigenvalues --    0.75692   0.76044   0.78797   0.79592   0.81008
 Alpha virt. eigenvalues --    0.81673   0.83049   0.83345   0.84040   0.84853
 Alpha virt. eigenvalues --    0.85943   0.86144   0.86789   0.88791   0.89552
 Alpha virt. eigenvalues --    0.90389   0.91673   0.92865   0.94404   0.95421
 Alpha virt. eigenvalues --    0.96932   0.98129   0.99690   1.00460   1.02358
 Alpha virt. eigenvalues --    1.03180   1.04382   1.05724   1.06804   1.07108
 Alpha virt. eigenvalues --    1.11368   1.11828   1.14944   1.15288   1.15718
 Alpha virt. eigenvalues --    1.18717   1.19374   1.23355   1.24178   1.25303
 Alpha virt. eigenvalues --    1.29199   1.29931   1.32340   1.34915   1.36697
 Alpha virt. eigenvalues --    1.39908   1.44308   1.45472   1.47644   1.49542
 Alpha virt. eigenvalues --    1.50973   1.53179   1.56233   1.59437   1.61680
 Alpha virt. eigenvalues --    1.63320   1.64215   1.65639   1.67225   1.68313
 Alpha virt. eigenvalues --    1.70196   1.70652   1.71957   1.72505   1.73912
 Alpha virt. eigenvalues --    1.75221   1.76239   1.77492   1.79107   1.80520
 Alpha virt. eigenvalues --    1.81400   1.82992   1.84507   1.85188   1.86893
 Alpha virt. eigenvalues --    1.88578   1.90745   1.91000   1.92722   1.93727
 Alpha virt. eigenvalues --    1.96138   1.99494   2.02032   2.04217   2.04397
 Alpha virt. eigenvalues --    2.07595   2.09443   2.10525   2.11683   2.14877
 Alpha virt. eigenvalues --    2.15839   2.21527   2.24369   2.25121   2.26601
 Alpha virt. eigenvalues --    2.27619   2.30400   2.33093   2.34918   2.37199
 Alpha virt. eigenvalues --    2.44473   2.46027   2.47798   2.48049   2.49065
 Alpha virt. eigenvalues --    2.51168   2.54226   2.56548   2.57637   2.58601
 Alpha virt. eigenvalues --    2.59624   2.61666   2.64324   2.67793   2.68913
 Alpha virt. eigenvalues --    2.72900   2.75122   2.75763   2.82964   2.89499
 Alpha virt. eigenvalues --    2.94602   2.96003   2.98074   3.01775   3.09720
 Alpha virt. eigenvalues --    3.73510   3.75789   3.80416   3.84400   3.89901
 Alpha virt. eigenvalues --    3.96610   3.98703   4.16093   4.26671   4.33649
 Alpha virt. eigenvalues --    4.41293   4.48144   4.67167   4.74894
          Condensed to atoms (all electrons):
               1          2          3          4          5          6
     1  H    0.621689   0.363108  -0.006255   0.001388   0.000268  -0.034719
     2  C    0.363108   4.920504  -0.027903  -0.005322  -0.007895   0.168171
     3  C   -0.006255  -0.027903   4.966411  -0.026637   0.325064  -0.001648
     4  C    0.001388  -0.005322  -0.026637   4.784992   0.308207   0.079869
     5  C    0.000268  -0.007895   0.325064   0.308207   4.938206  -0.012040
     6  O   -0.034719   0.168171  -0.001648   0.079869  -0.012040   8.571903
     7  C   -0.056302   0.286939   0.272457  -0.007866  -0.031868  -0.032922
     8  H   -0.000208   0.003349  -0.000069   0.346220  -0.060043  -0.030132
     9  H    0.000019   0.000987  -0.043158  -0.059550   0.346698   0.001585
    10  H    0.007218  -0.056094  -0.053402  -0.000173  -0.005321   0.002869
    11  C   -0.055384   0.342874   0.003439   0.000019  -0.000212  -0.031038
    12  H   -0.007851  -0.038199  -0.000070  -0.000107  -0.000000   0.000236
    13  H    0.006387  -0.029622  -0.000323   0.000923  -0.000246   0.001463
    14  O   -0.000122   0.005344   0.000407   0.330590  -0.039596  -0.051310
    15  H    0.002986  -0.001709   0.344697  -0.004218  -0.037947   0.003304
    16  O    0.003790  -0.047117   0.000231  -0.000001  -0.000003   0.001161
    17  H   -0.000222   0.005000   0.000007   0.000001  -0.000000  -0.000081
    18  O    0.000002   0.000028  -0.029286  -0.033446   0.227898   0.000353
    19  H   -0.000001  -0.000053  -0.010874   0.006801  -0.036519  -0.000068
    20  O   -0.000066   0.002808   0.233340   0.003042  -0.048443   0.000092
    21  H   -0.000005  -0.000070  -0.016830  -0.000144   0.004692   0.000001
    22  O    0.006831  -0.037427  -0.026508   0.000079   0.001542   0.001489
    23  H    0.001101  -0.005444   0.004567   0.000004  -0.000125   0.000015
    24  O   -0.000084   0.001050   0.000069   0.014452  -0.000463  -0.094080
    25  H    0.000008  -0.000342  -0.000150  -0.029398   0.003853   0.008999
    26  H   -0.001174  -0.008285   0.000095  -0.011501   0.001597   0.110820
    27  O   -0.000027  -0.000031   0.005639   0.000000   0.000088   0.000000
    28  H    0.000203   0.000404  -0.001492  -0.000002   0.000069  -0.000005
    29  H    0.000022  -0.000001   0.000495  -0.000000   0.000017  -0.000000
    30  H    0.000024  -0.000928  -0.000004  -0.000551  -0.000009   0.004796
               7          8          9         10         11         12
     1  H   -0.056302  -0.000208   0.000019   0.007218  -0.055384  -0.007851
     2  C    0.286939   0.003349   0.000987  -0.056094   0.342874  -0.038199
     3  C    0.272457  -0.000069  -0.043158  -0.053402   0.003439  -0.000070
     4  C   -0.007866   0.346220  -0.059550  -0.000173   0.000019  -0.000107
     5  C   -0.031868  -0.060043   0.346698  -0.005321  -0.000212  -0.000000
     6  O   -0.032922  -0.030132   0.001585   0.002869  -0.031038   0.000236
     7  C    5.065813   0.000337  -0.007483   0.357291  -0.031977   0.006325
     8  H    0.000337   0.606283   0.006147   0.000073  -0.000084   0.000004
     9  H   -0.007483   0.006147   0.622352   0.009929  -0.000006  -0.000000
    10  H    0.357291   0.000073   0.009929   0.639333  -0.006387   0.000205
    11  C   -0.031977  -0.000084  -0.000006  -0.006387   4.980160   0.360161
    12  H    0.006325   0.000004  -0.000000   0.000205   0.360161   0.627785
    13  H   -0.012723   0.000086   0.000076   0.005096   0.350370  -0.053687
    14  O    0.001150  -0.044784   0.006528   0.000789  -0.001568   0.000095
    15  H   -0.062330   0.001296   0.007739   0.007473   0.000245   0.000006
    16  O    0.007613   0.000000   0.000000   0.001013   0.203256  -0.035825
    17  H   -0.000046  -0.000000   0.000000  -0.000081  -0.017906  -0.001738
    18  O    0.003727   0.007329  -0.037728   0.000014   0.000001  -0.000000
    19  H    0.001203  -0.000534  -0.002180  -0.000035   0.000001  -0.000000
    20  O   -0.041309  -0.000103  -0.001784   0.000777  -0.000040   0.000000
    21  H   -0.003455   0.000004  -0.000185  -0.000402  -0.000002  -0.000000
    22  O    0.201232   0.000000  -0.000088  -0.040122  -0.000581  -0.000263
    23  H   -0.022422  -0.000000   0.000005  -0.002483  -0.004261   0.000299
    24  O   -0.000258   0.002542   0.000022   0.000010   0.005133  -0.000098
    25  H    0.000047  -0.005359  -0.000070  -0.000026  -0.000086  -0.000108
    26  H    0.002673   0.000037  -0.000137  -0.000217  -0.002689   0.004728
    27  O   -0.000828  -0.000000  -0.000000  -0.000072  -0.000000  -0.000000
    28  H   -0.003788   0.000000   0.000002   0.000563  -0.000008   0.000001
    29  H   -0.000211   0.000000   0.000000   0.000007  -0.000000   0.000000
    30  H    0.000041  -0.000121  -0.000001  -0.000006   0.001203   0.001802
              13         14         15         16         17         18
     1  H    0.006387  -0.000122   0.002986   0.003790  -0.000222   0.000002
     2  C   -0.029622   0.005344  -0.001709  -0.047117   0.005000   0.000028
     3  C   -0.000323   0.000407   0.344697   0.000231   0.000007  -0.029286
     4  C    0.000923   0.330590  -0.004218  -0.000001   0.000001  -0.033446
     5  C   -0.000246  -0.039596  -0.037947  -0.000003  -0.000000   0.227898
     6  O    0.001463  -0.051310   0.003304   0.001161  -0.000081   0.000353
     7  C   -0.012723   0.001150  -0.062330   0.007613  -0.000046   0.003727
     8  H    0.000086  -0.044784   0.001296   0.000000  -0.000000   0.007329
     9  H    0.000076   0.006528   0.007739   0.000000   0.000000  -0.037728
    10  H    0.005096   0.000789   0.007473   0.001013  -0.000081   0.000014
    11  C    0.350370  -0.001568   0.000245   0.203256  -0.017906   0.000001
    12  H   -0.053687   0.000095   0.000006  -0.035825  -0.001738  -0.000000
    13  H    0.616101   0.003781   0.000010  -0.030412  -0.005824   0.000001
    14  O    0.003781   8.330220   0.000043   0.000004  -0.000001   0.000507
    15  H    0.000010   0.000043   0.656434  -0.000009   0.000000   0.002204
    16  O   -0.030412   0.000004  -0.000009   8.269418   0.236848  -0.000000
    17  H   -0.005824  -0.000001   0.000000   0.236848   0.372563   0.000000
    18  O    0.000001   0.000507   0.002204  -0.000000   0.000000   8.285751
    19  H   -0.000000  -0.000119  -0.000475   0.000000  -0.000000   0.235488
    20  O   -0.000003  -0.000015  -0.042935  -0.000000  -0.000000  -0.008873
    21  H    0.000000   0.000000  -0.004250   0.000000  -0.000000  -0.000039
    22  O    0.000098   0.000001  -0.000044  -0.012624   0.000544  -0.000010
    23  H    0.000522  -0.000000  -0.000203   0.039633  -0.001379   0.000001
    24  O    0.001485  -0.100879   0.000006   0.000018   0.000003   0.000001
    25  H   -0.000067   0.132422   0.000001  -0.000005  -0.000000  -0.000072
    26  H   -0.000957   0.013849  -0.000088   0.000012  -0.000008  -0.000024
    27  O    0.000000  -0.000000   0.000958  -0.000000   0.000000  -0.000000
    28  H   -0.000000  -0.000000   0.000426   0.000009  -0.000001  -0.000000
    29  H    0.000000   0.000000   0.000396   0.000000  -0.000000   0.000000
    30  H    0.001087   0.004988  -0.000000   0.000004  -0.000005   0.000000
              19         20         21         22         23         24
     1  H   -0.000001  -0.000066  -0.000005   0.006831   0.001101  -0.000084
     2  C   -0.000053   0.002808  -0.000070  -0.037427  -0.005444   0.001050
     3  C   -0.010874   0.233340  -0.016830  -0.026508   0.004567   0.000069
     4  C    0.006801   0.003042  -0.000144   0.000079   0.000004   0.014452
     5  C   -0.036519  -0.048443   0.004692   0.001542  -0.000125  -0.000463
     6  O   -0.000068   0.000092   0.000001   0.001489   0.000015  -0.094080
     7  C    0.001203  -0.041309  -0.003455   0.201232  -0.022422  -0.000258
     8  H   -0.000534  -0.000103   0.000004   0.000000  -0.000000   0.002542
     9  H   -0.002180  -0.001784  -0.000185  -0.000088   0.000005   0.000022
    10  H   -0.000035   0.000777  -0.000402  -0.040122  -0.002483   0.000010
    11  C    0.000001  -0.000040  -0.000002  -0.000581  -0.004261   0.005133
    12  H   -0.000000   0.000000  -0.000000  -0.000263   0.000299  -0.000098
    13  H   -0.000000  -0.000003   0.000000   0.000098   0.000522   0.001485
    14  O   -0.000119  -0.000015   0.000000   0.000001  -0.000000  -0.100879
    15  H   -0.000475  -0.042935  -0.004250  -0.000044  -0.000203   0.000006
    16  O    0.000000  -0.000000   0.000000  -0.012624   0.039633   0.000018
    17  H   -0.000000  -0.000000  -0.000000   0.000544  -0.001379   0.000003
    18  O    0.235488  -0.008873  -0.000039  -0.000010   0.000001   0.000001
    19  H    0.365024   0.030896  -0.000437  -0.000006   0.000000  -0.000000
    20  O    0.030896   8.372098   0.203007   0.000431  -0.000081   0.000000
    21  H   -0.000437   0.203007   0.316239   0.002395  -0.000006   0.000000
    22  O   -0.000006   0.000431   0.002395   8.321848   0.228452   0.000000
    23  H    0.000000  -0.000081  -0.000006   0.228452   0.333137  -0.000000
    24  O   -0.000000   0.000000   0.000000   0.000000  -0.000000   8.531403
    25  H    0.000007   0.000000  -0.000000  -0.000000   0.000000   0.129359
    26  H    0.000002   0.000000  -0.000000  -0.000024   0.000001   0.124313
    27  O    0.000011  -0.027289   0.079975  -0.018956   0.000564   0.000000
    28  H   -0.000006   0.005382  -0.011374   0.052258  -0.001645  -0.000000
    29  H   -0.000003   0.001313  -0.004322   0.001143  -0.000025  -0.000000
    30  H    0.000000   0.000000  -0.000000  -0.000000   0.000000   0.225203
              25         26         27         28         29         30
     1  H    0.000008  -0.001174  -0.000027   0.000203   0.000022   0.000024
     2  C   -0.000342  -0.008285  -0.000031   0.000404  -0.000001  -0.000928
     3  C   -0.000150   0.000095   0.005639  -0.001492   0.000495  -0.000004
     4  C   -0.029398  -0.011501   0.000000  -0.000002  -0.000000  -0.000551
     5  C    0.003853   0.001597   0.000088   0.000069   0.000017  -0.000009
     6  O    0.008999   0.110820   0.000000  -0.000005  -0.000000   0.004796
     7  C    0.000047   0.002673  -0.000828  -0.003788  -0.000211   0.000041
     8  H   -0.005359   0.000037  -0.000000   0.000000   0.000000  -0.000121
     9  H   -0.000070  -0.000137  -0.000000   0.000002   0.000000  -0.000001
    10  H   -0.000026  -0.000217  -0.000072   0.000563   0.000007  -0.000006
    11  C   -0.000086  -0.002689  -0.000000  -0.000008  -0.000000   0.001203
    12  H   -0.000108   0.004728  -0.000000   0.000001   0.000000   0.001802
    13  H   -0.000067  -0.000957   0.000000  -0.000000   0.000000   0.001087
    14  O    0.132422   0.013849  -0.000000  -0.000000   0.000000   0.004988
    15  H    0.000001  -0.000088   0.000958   0.000426   0.000396  -0.000000
    16  O   -0.000005   0.000012  -0.000000   0.000009   0.000000   0.000004
    17  H   -0.000000  -0.000008   0.000000  -0.000001  -0.000000  -0.000005
    18  O   -0.000072  -0.000024  -0.000000  -0.000000   0.000000   0.000000
    19  H    0.000007   0.000002   0.000011  -0.000006  -0.000003   0.000000
    20  O    0.000000   0.000000  -0.027289   0.005382   0.001313   0.000000
    21  H   -0.000000  -0.000000   0.079975  -0.011374  -0.004322  -0.000000
    22  O   -0.000000  -0.000024  -0.018956   0.052258   0.001143  -0.000000
    23  H    0.000000   0.000001   0.000564  -0.001645  -0.000025   0.000000
    24  O    0.129359   0.124313   0.000000  -0.000000  -0.000000   0.225203
    25  H    0.320198  -0.020103   0.000000   0.000000  -0.000000  -0.004118
    26  H   -0.020103   0.315508  -0.000000   0.000000  -0.000000  -0.006007
    27  O    0.000000  -0.000000   8.302772   0.217707   0.241145  -0.000000
    28  H    0.000000   0.000000   0.217707   0.323617  -0.016056   0.000000
    29  H   -0.000000  -0.000000   0.241145  -0.016056   0.381862   0.000000
    30  H   -0.004118  -0.006007  -0.000000   0.000000   0.000000   0.374231
 Mulliken charges:
               1
     1  H    0.147378
     2  C    0.165877
     3  C    0.087690
     4  C    0.302328
     5  C    0.122529
     6  O   -0.669084
     7  C    0.108946
     8  H    0.167730
     9  H    0.150281
    10  H    0.132164
    11  C   -0.094633
    12  H    0.136300
    13  H    0.146377
    14  O   -0.592325
    15  H    0.125983
    16  O   -0.637014
    17  H    0.412327
    18  O   -0.653825
    19  H    0.411879
    20  O   -0.682247
    21  H    0.435206
    22  O   -0.681688
    23  H    0.429772
    24  O   -0.839206
    25  H    0.465008
    26  H    0.477577
    27  O   -0.801656
    28  H    0.433735
    29  H    0.394218
    30  H    0.398374
 Sum of Mulliken charges =  -0.00000
 Mulliken charges with hydrogens summed into heavy atoms:
               1
     2  C    0.313255
     3  C    0.213673
     4  C    0.470058
     5  C    0.272810
     6  O   -0.191507
     7  C    0.241109
    11  C    0.188044
    14  O   -0.592325
    16  O   -0.224687
    18  O   -0.241947
    20  O   -0.247041
    22  O   -0.251916
    24  O    0.024176
    27  O    0.026297
 APT charges:
               1
     1  H    0.404640
     2  C   -0.278862
     3  C   -0.226485
     4  C   -0.298639
     5  C   -0.207246
     6  O   -0.450424
     7  C   -0.145275
     8  H    0.488848
     9  H    0.360207
    10  H    0.313589
    11  C   -0.569009
    12  H    0.514092
    13  H    0.297122
    14  O   -0.301284
    15  H    0.305211
    16  O   -1.097047
    17  H    0.932703
    18  O   -0.751415
    19  H    0.636963
    20  O   -0.801491
    21  H    0.584791
    22  O   -0.840419
    23  H    0.639005
    24  O   -1.091227
    25  H    0.362582
    26  H    0.389058
    27  O   -0.693142
    28  H    0.165261
    29  H    0.629871
    30  H    0.728021
 Sum of APT charges =  -0.00000
 APT charges with hydrogens summed into heavy atoms:
               1
     2  C    0.125778
     3  C    0.078726
     4  C    0.190209
     5  C    0.152961
     6  O   -0.061366
     7  C    0.168314
    11  C    0.242206
    14  O   -0.301284
    16  O   -0.164345
    18  O   -0.114452
    20  O   -0.216700
    22  O   -0.201414
    24  O   -0.000624
    27  O    0.101990
 Electronic spatial extent (au):  <R**2>=           3287.5900
 Charge=              0.0000 electrons
 Dipole moment (field-independent basis, Debye):
    X=             -1.8645    Y=              5.6701    Z=              0.2383  Tot=              5.9736
 Quadrupole moment (field-independent basis, Debye-Ang):
   XX=            -89.1813   YY=            -78.9082   ZZ=            -82.4179
   XY=            -10.5559   XZ=             10.1813   YZ=             -5.5391
 Traceless Quadrupole moment (field-independent basis, Debye-Ang):
   XX=             -5.6788   YY=              4.5942   ZZ=              1.0845
   XY=            -10.5559   XZ=             10.1813   YZ=             -5.5391
 Octapole moment (field-independent basis, Debye-Ang**2):
  XXX=            -45.6717  YYY=             60.2979  ZZZ=              4.1575  XYY=             -5.7949
  XXY=             28.2885  XXZ=             12.6524  XZZ=             20.4351  YZZ=             14.1728
  YYZ=            -18.2597  XYZ=              9.2716
 Hexadecapole moment (field-independent basis, Debye-Ang**3):
 XXXX=          -2264.3251 YYYY=          -1389.2034 ZZZZ=           -245.9828 XXXY=           -111.5837
 XXXZ=            146.6261 YYYX=            -76.0387 YYYZ=            -83.5363 ZZZX=             39.2019
 ZZZY=            -13.0727 XXYY=           -523.1025 XXZZ=           -356.7615 YYZZ=           -259.5220
 XXYZ=            -11.8745 YYXZ=             11.3965 ZZXY=             -3.8197
 N-N= 1.103462156357D+03 E-N=-4.179194824984D+03  KE= 8.327952763608D+02
  Exact polarizability:   0.000   0.000   0.000   0.000   0.000   0.000
 Approx polarizability: 146.170  -0.137 138.211   7.320   4.211 126.227
 Calling FoFJK, ICntrl=    100147 FMM=F ISym2X=0 I1Cent= 0 IOpClX= 0 NMat=1 NMatS=1 NMatT=0.
 -------------------------------------------------------------------
 Center     Atomic                   Forces (Hartrees/Bohr)
 Number     Number              X              Y              Z
 -------------------------------------------------------------------
      1        1          -0.000015420   -0.000008720   -0.000012954
      2        6           0.000003420    0.000001759    0.000021163
      3        6          -0.000008847    0.000001849   -0.000005506
      4        6          -0.000024118   -0.000004807   -0.000012005
      5        6           0.000000654    0.000002491   -0.000010444
      6        8           0.000002188   -0.000011513   -0.000005601
      7        6          -0.000012820   -0.000001821   -0.000010694
      8        1           0.000003942    0.000004146   -0.000027957
      9        1           0.000001883    0.000002975   -0.000004065
     10        1           0.000010569    0.000006635    0.000011514
     11        6           0.000001605    0.000000130    0.000005277
     12        1           0.000001546   -0.000001013    0.000002723
     13        1          -0.000001397    0.000003486   -0.000001978
     14        8           0.000024970   -0.000004134    0.000005425
     15        1          -0.000001185   -0.000000426    0.000008520
     16        8          -0.000004316    0.000013665    0.000006286
     17        1           0.000006223   -0.000009865    0.000015608
     18        8           0.000013105   -0.000003625   -0.000013698
     19        1          -0.000008193    0.000000167   -0.000005597
     20        8           0.000024394    0.000011158    0.000012135
     21        1          -0.000010154   -0.000007321   -0.000006447
     22        8           0.000005200   -0.000002848    0.000020452
     23        1          -0.000007535    0.000012213    0.000000645
     24        8           0.000010659   -0.000026834   -0.000006763
     25        1          -0.000004355    0.000004412   -0.000003482
     26        1           0.000002979    0.000001914   -0.000003369
     27        8           0.000019737   -0.000017618    0.000044313
     28        1          -0.000020495    0.000014903    0.000003301
     29        1          -0.000002884   -0.000000497   -0.000011187
     30        1          -0.000011358    0.000019139   -0.000015614
 -------------------------------------------------------------------
 Cartesian Forces:  Max     0.000044313 RMS     0.000011676
 IRC-IRC-IRC-IRC-IRC-IRC-IRC-IRC-IRC-IRC-IRC-IRC-IRC-IRC-IRC-IRC-IRC-IRC
          ******** Start new reaction path calculation ********
 Supplied step size of   0.1000 bohr.
    Integration on MW PES will use step size of   0.1049 sqrt(amu)*bohr.
 Point Number:   0          Path Number:   1
 Calculating another point on the path.
 IRC-IRC-IRC-IRC-IRC-IRC-IRC-IRC-IRC-IRC-IRC-IRC-IRC-IRC-IRC-IRC-IRC-IRC
                          Input orientation:                          
 ---------------------------------------------------------------------
 Center     Atomic      Atomic             Coordinates (Angstroms)
 Number     Number       Type             X           Y           Z
 ---------------------------------------------------------------------
      1          1           0       -0.031933    1.601690    1.429243
      2          6           0       -0.494645    1.122239    0.554220
      3          6           0        1.123065   -0.755052    0.057574
      4          6           0       -1.342886   -1.526179    0.044737
      5          6           0        0.084228   -1.784391   -0.414295
      6          8           0       -1.281600    0.037916    1.029802
      7          6           0        0.677129    0.654301   -0.343258
      8          1           0       -1.617767   -2.069682    0.955797
      9          1           0        0.073814   -1.750907   -1.514774
     10          1           0        0.365878    0.627457   -1.398869
     11          6           0       -1.346658    2.169862   -0.171351
     12          1           0       -2.141654    2.541415    0.492842
     13          1           0       -1.810610    1.708561   -1.055437
     14          8           0       -2.237163   -1.317845   -0.860324
     15          1           0        1.204366   -0.814147    1.154204
     16          8           0       -0.464707    3.233865   -0.545660
     17          1           0       -0.920455    3.818656   -1.168578
     18          8           0        0.448133   -3.071751    0.051672
     19          1           0        1.401720   -3.132406   -0.140697
     20          8           0        2.320718   -1.178310   -0.564290
     21          1           0        3.081649   -0.721402   -0.133869
     22          8           0        1.757453    1.582582   -0.206744
     23          1           0        1.387665    2.450647   -0.453264
     24          8           0       -3.635938   -0.076134    0.612125
     25          1           0       -3.149032   -0.814768   -0.254717
     26          1           0       -2.528505    0.177067    0.947677
     27          8           0        4.144256    0.505374    0.625570
     28          1           0        3.448722    1.141220    0.351631
     29          1           0        4.083547    0.481548    1.592562
     30          1           0       -4.053847    0.686700    0.183286
 ---------------------------------------------------------------------
                    Distance matrix (angstroms):
                    1          2          3          4          5
     1  H    0.000000
     2  C    1.099837   0.000000
     3  C    2.961372   2.527422   0.000000
     4  C    3.663198   2.827226   2.583741   0.000000
     5  C    3.857158   3.117950   1.536679   1.521196   0.000000
     6  O    2.041228   1.421701   2.712276   1.849460   2.696610
     7  C    2.131214   1.548382   1.531600   2.997581   2.510736
     8  H    4.027156   3.407495   3.169735   1.095894   2.203481
     9  H    4.462995   3.585924   2.136571   2.118872   1.101038
    10  H    3.017549   2.190859   2.146134   3.105161   2.620253
    11  C    2.147841   1.532936   3.834978   3.702355   4.212194
    12  H    2.492158   2.174964   4.659886   4.169431   4.948742
    13  H    3.057572   2.160216   3.989314   3.448578   4.025194
    14  O    4.316114   3.315316   3.528514   1.289292   2.409454
    15  H    2.727700   2.645035   1.101227   2.868170   2.157840
    16  O    2.598370   2.381091   4.335478   4.876247   5.049899
    17  H    3.528892   3.228004   5.157347   5.497076   5.742166
    18  O    4.895836   4.327925   2.413020   2.365711   1.416632
    19  H    5.189580   4.709683   2.401827   3.185468   1.904674
    20  O    4.151812   3.803927   1.414297   3.730136   2.322008
    21  H    4.187418   4.081955   1.968206   4.500675   3.192666
    22  O    2.424607   2.421348   2.436564   4.397697   3.765537
    23  H    2.505956   2.514514   3.256911   4.849645   4.431254
    24  O    4.058525   3.362614   4.839067   2.771759   4.220345
    25  H    4.288507   3.384102   4.283912   1.964165   3.379291
    26  H    2.914503   2.277004   3.872350   2.263193   3.539585
    27  O    4.391851   4.680279   3.322482   5.879906   4.775790
    28  H    3.672634   3.948613   3.015128   5.492605   4.523899
    29  H    4.268321   4.737982   3.556658   5.989399   5.015626
    30  H    4.308759   3.604887   5.375395   3.502191   4.856651
                    6          7          8          9         10
     6  O    0.000000
     7  C    2.470191   0.000000
     8  H    2.135521   3.791328   0.000000
     9  H    3.392920   2.742529   3.011110   0.000000
    10  H    2.993357   1.100869   4.093148   2.399032   0.000000
    11  C    2.447896   2.534204   4.395190   4.381205   2.611243
    12  H    2.701023   3.493680   4.663796   5.230952   3.678250
    13  H    2.723808   2.794192   4.284550   3.966102   2.454349
    14  O    2.514710   3.556658   2.060875   2.440587   3.293942
    15  H    2.630877   2.162571   3.095185   3.046164   3.049503
    16  O    3.655610   2.828234   5.631299   5.106578   2.865519
    17  H    4.388314   3.639584   6.298550   5.668197   3.448396
    18  O    3.690358   3.753914   2.467697   2.082905   3.974290
    19  H    4.315231   3.860727   3.383635   2.357956   4.097870
    20  O    4.122746   2.471579   4.314727   2.505966   2.789036
    21  H    4.579153   2.778151   5.008967   3.466100   3.285584
    22  O    3.626415   1.430889   5.107117   3.956986   2.066376
    23  H    3.891752   1.934896   5.608158   4.528362   2.293957
    24  O    2.393819   4.477593   2.857508   4.592475   4.533615
    25  H    2.421644   4.099452   2.320544   3.584807   3.967832
    26  H    1.257331   3.488604   2.424333   4.068516   3.753210
    27  O    5.460937   3.603023   6.319879   5.122536   4.288287
    28  H    4.904401   2.898567   6.028617   4.820567   3.582197
    29  H    5.412791   3.921852   6.278473   5.542323   4.773993
    30  H    2.970330   4.760297   3.758842   5.085560   4.694751
                   11         12         13         14         15
    11  C    0.000000
    12  H    1.100556   0.000000
    13  H    1.099845   1.788968   0.000000
    14  O    3.664940   4.090730   3.062540   0.000000
    15  H    4.143565   4.784668   4.509617   4.019473   0.000000
    16  O    1.431799   2.090485   2.097113   4.894761   4.696993
    17  H    1.973482   2.425487   2.292963   5.311533   5.601165
    18  O    5.544864   6.197520   5.401758   3.334477   2.623784
    19  H    5.972317   6.719309   5.881392   4.129402   2.662714
    20  O    4.981396   5.904799   5.063904   4.569616   2.081365
    21  H    5.288735   6.190448   5.539694   5.401227   2.278581
    22  O    3.159376   4.075759   3.669772   4.979619   2.811120
    23  H    2.763121   3.655058   3.338003   5.244674   3.643684
    24  O    3.301384   3.016401   3.049216   2.380446   4.926160
    25  H    3.487624   3.582962   2.966431   1.204720   4.575711
    26  H    2.572979   2.438579   2.621701   2.364004   3.867750
    27  O    5.792732   6.608763   6.303481   6.801068   3.265508
    28  H    4.932270   5.764789   5.473782   6.312300   3.082973
    29  H    5.953899   6.648726   6.577123   7.014688   3.187580
    30  H    3.107155   2.681842   2.758758   2.899597   5.553740
                   16         17         18         19         20
    16  O    0.000000
    17  H    0.968356   0.000000
    18  O    6.399287   7.130200   0.000000
    19  H    6.646574   7.400426   0.974686   0.000000
    20  O    5.217876   5.986655   2.733332   2.200563   0.000000
    21  H    5.328260   6.139999   3.534682   2.938563   0.986430
    22  O    2.789192   3.618887   4.841892   4.728850   2.840358
    23  H    2.013268   2.776786   5.624461   5.591813   3.748632
    24  O    4.727924   5.070911   5.095828   5.940163   6.170939
    25  H    4.866382   5.222099   4.257633   5.108208   5.490552
    26  H    3.979112   4.508385   4.496445   5.252032   5.257191
    27  O    5.482607   6.312535   5.175568   4.619753   2.752426
    28  H    4.527606   5.345036   5.180988   4.764083   2.737065
    29  H    5.730083   6.618173   5.311921   4.822556   3.242638
    30  H    4.461092   4.631936   5.866097   6.667364   6.683727
                   21         22         23         24         25
    21  H    0.000000
    22  O    2.658412   0.000000
    23  H    3.610193   0.975219   0.000000
    24  O    6.789614   5.701802   5.723308   0.000000
    25  H    6.232553   5.461061   5.593208   1.238577   0.000000
    26  H    5.783669   4.655921   4.740062   1.184531   1.677660
    27  O    1.791887   2.747718   3.542141   7.801907   7.463895
    28  H    1.959544   1.834932   2.571072   7.193206   6.908249
    29  H    2.330547   3.140141   3.915422   7.801456   7.576481
    30  H    7.280017   5.892871   5.755585   0.969777   1.806915
                   26         27         28         29         30
    26  H    0.000000
    27  O    6.688593   0.000000
    28  H    6.083758   0.981382   0.000000
    29  H    6.650400   0.969189   1.542102   0.000000
    30  H    1.780642   8.212027   7.518209   8.261073   0.000000
 Symmetry turned off by external request.
 Stoichiometry    C6H16O8
 Framework group  C1[X(C6H16O8)]
 Deg. of freedom    84
 Full point group                 C1      NOp   1
 Rotational constants (GHZ):      0.7315441      0.5238438      0.3354210
 Standard basis: 6-31G(d) (6D, 7F)
   242 basis functions,   456 primitive gaussians,   242 cartesian basis functions
    58 alpha electrons       58 beta electrons
       nuclear repulsion energy      1103.4602383939 Hartrees.
 NAtoms=   30 NActive=   30 NUniq=   30 SFac= 1.00D+00 NAtFMM=   60 NAOKFM=F Big=F
 Integral buffers will be    131072 words long.
 Raffenetti 2 integral format.
 Two-electron integral symmetry is turned off.
 One-electron integrals computed using PRISM.
 NBasis=   242 RedAO= T EigKep=  1.59D-03  NBF=   242
 NBsUse=   242 1.00D-06 EigRej= -1.00D+00 NBFU=   242
 Initial guess from the checkpoint file:  "/scratch/10461039.yak.local/Gau-28086.chk"
 B after Tr=    -0.009706    0.047925    0.007983
         Rot=    1.000000   -0.000012    0.000054   -0.000025 Ang=  -0.01 deg.
 ExpMin= 1.61D-01 ExpMax= 5.48D+03 ExpMxC= 8.25D+02 IAcc=1 IRadAn=         1 AccDes= 0.00D+00
 Harris functional with IExCor=  402 and IRadAn=       1 diagonalized for initial guess.
 HarFok:  IExCor=  402 AccDes= 0.00D+00 IRadAn=         1 IDoV= 1 UseB2=F ITyADJ=14
 ICtDFT=  3500011 ScaDFX=  1.000000  1.000000  1.000000  1.000000
 FoFCou: FMM=F IPFlag=           0 FMFlag=      100000 FMFlg1=           0
         NFxFlg=           0 DoJE=T BraDBF=F KetDBF=T FulRan=T
         wScrn=  0.000000 ICntrl=     500 IOpCl=  0 I1Cent=   200000004 NGrid=           0
         NMat0=    1 NMatS0=      1 NMatT0=    0 NMatD0=    1 NMtDS0=    0 NMtDT0=    0
 Symmetry not used in FoFCou.
 Requested convergence on RMS density matrix=1.00D-08 within 128 cycles.
 Requested convergence on MAX density matrix=1.00D-06.
 Requested convergence on             energy=1.00D-06.
 No special actions if energy rises.
 Integral accuracy reduced to 1.0D-05 until final iterations.
 Initial convergence to 1.0D-05 achieved.  Increase integral accuracy.
 SCF Done:  E(RB3LYP) =  -839.953528117     A.U. after   11 cycles
            NFock= 11  Conv=0.98D-08     -V/T= 2.0086
 DoSCS=F DFT=T ScalE2(SS,OS)=  1.000000  1.000000
 Range of M.O.s used for correlation:     1   242
 NBasis=   242 NAE=    58 NBE=    58 NFC=     0 NFV=     0
 NROrb=    242 NOA=    58 NOB=    58 NVA=   184 NVB=   184
 Symmetrizing basis deriv contribution to polar:
 IMax=3 JMax=2 DiffMx= 0.00D+00
 Calling FoFJK, ICntrl=      2147 FMM=F ISym2X=0 I1Cent= 0 IOpClX= 0 NMat=1 NMatS=1 NMatT=0.
 -------------------------------------------------------------------
 Center     Atomic                   Forces (Hartrees/Bohr)
 Number     Number              X              Y              Z
 -------------------------------------------------------------------
      1        1          -0.000059748   -0.000082539    0.000013186
      2        6          -0.000028698   -0.001451795   -0.000129783
      3        6          -0.000044259    0.000164974   -0.000045455
      4        6           0.002643964    0.004395354    0.004785229
      5        6          -0.000390534   -0.000197666   -0.000209566
      6        8           0.002596121   -0.002873615   -0.001975671
      7        6           0.000067119    0.000267819    0.000007966
      8        1          -0.000037623   -0.000119335   -0.000130277
      9        1          -0.000008860   -0.000016868   -0.000036288
     10        1           0.000038698    0.000013034   -0.000012102
     11        6           0.000071255   -0.000154978    0.000055152
     12        1           0.000013334   -0.000012767    0.000016337
     13        1          -0.000008946    0.000022678   -0.000017473
     14        8          -0.003398223    0.001363057   -0.000626043
     15        1          -0.000043758   -0.000010807   -0.000007469
     16        8           0.000010949    0.000098246   -0.000056962
     17        1           0.000008956    0.000008864    0.000025535
     18        8          -0.000072736   -0.000057825   -0.000115042
     19        1          -0.000002909    0.000035790    0.000006980
     20        8          -0.000035021   -0.000109919   -0.000026987
     21        1          -0.000022928    0.000002322   -0.000002111
     22        8           0.000301628    0.000012112   -0.000122671
     23        1          -0.000033582    0.000008372    0.000043442
     24        8           0.000580047    0.001786481    0.002503486
     25        1           0.003356014   -0.003256093   -0.003576747
     26        1          -0.005776014   -0.000149487   -0.000754900
     27        8           0.000002416   -0.000023136    0.000029821
     28        1          -0.000036691    0.000011143   -0.000002745
     29        1          -0.000011637    0.000002922   -0.000012369
     30        1           0.000321665    0.000323663    0.000373526
 -------------------------------------------------------------------
 Cartesian Forces:  Max     0.005776014 RMS     0.001347332
 IRC-IRC-IRC-IRC-IRC-IRC-IRC-IRC-IRC-IRC-IRC-IRC-IRC-IRC-IRC-IRC-IRC-IRC
 Pt  1 Step number   1 out of a maximum of  20
 Modified Bulirsch-Stoer Extrapolation Cycles:
    EPS =    0.000010000000000
 Maximum DWI energy   std dev =  0.000001793 at pt     1
 Maximum DWI gradient std dev =  0.024712696 at pt     1
 CORRECTOR INTEGRATION CONVERGENCE:
   Recorrection delta-x convergence threshold:    0.010000
   Delta-x Convergence Met
 Point Number:   1          Path Number:   1
   CHANGE IN THE REACTION COORDINATE =    0.10491
   NET REACTION COORDINATE UP TO THIS POINT =    0.10491
  # OF POINTS ALONG THE PATH =   1
  # OF STEPS =   1

 Calculating another point on the path.
 IRC-IRC-IRC-IRC-IRC-IRC-IRC-IRC-IRC-IRC-IRC-IRC-IRC-IRC-IRC-IRC-IRC-IRC
                          Input orientation:                          
 ---------------------------------------------------------------------
 Center     Atomic      Atomic             Coordinates (Angstroms)
 Number     Number       Type             X           Y           Z
 ---------------------------------------------------------------------
      1          1           0       -0.032251    1.601226    1.429397
      2          6           0       -0.494646    1.121471    0.554137
      3          6           0        1.123044   -0.754965    0.057553
      4          6           0       -1.341468   -1.523829    0.047287
      5          6           0        0.084024   -1.784495   -0.414406
      6          8           0       -1.280514    0.036753    1.029021
      7          6           0        0.677171    0.654446   -0.343250
      8          1           0       -1.618054   -2.070475    0.955062
      9          1           0        0.073757   -1.751011   -1.514986
     10          1           0        0.366100    0.627538   -1.399006
     11          6           0       -1.346623    2.169778   -0.171322
     12          1           0       -2.141572    2.541331    0.492948
     13          1           0       -1.810674    1.708709   -1.055540
     14          8           0       -2.238493   -1.317325   -0.860614
     15          1           0        1.204085   -0.814216    1.154114
     16          8           0       -0.464699    3.233899   -0.545678
     17          1           0       -0.920444    3.818775   -1.168468
     18          8           0        0.448101   -3.071773    0.051627
     19          1           0        1.401741   -3.132186   -0.140674
     20          8           0        2.320700   -1.178357   -0.564302
     21          1           0        3.081569   -0.721344   -0.133842
     22          8           0        1.757572    1.582592   -0.206793
     23          1           0        1.387479    2.450642   -0.452962
     24          8           0       -3.635805   -0.075400    0.613151
     25          1           0       -3.127546   -0.835313   -0.277200
     26          1           0       -2.565164    0.175854    0.942753
     27          8           0        4.144252    0.505371    0.625577
     28          1           0        3.448573    1.141207    0.351649
     29          1           0        4.083474    0.481551    1.592561
     30          1           0       -4.052045    0.688949    0.185583
 ---------------------------------------------------------------------
                    Distance matrix (angstroms):
                    1          2          3          4          5
     1  H    0.000000
     2  C    1.100025   0.000000
     3  C    2.961131   2.526762   0.000000
     4  C    3.659268   2.823404   2.581681   0.000000
     5  C    3.856972   3.117302   1.536958   1.520899   0.000000
     6  O    2.041088   1.421167   2.710657   1.844704   2.694882
     7  C    2.131185   1.548086   1.531628   2.995380   2.511039
     8  H    4.027549   3.407536   3.170127   1.095160   2.203246
     9  H    4.462972   3.585457   2.136818   2.120182   1.101137
    10  H    3.017717   2.190804   2.146123   3.104180   2.620479
    11  C    2.147819   1.533331   3.834808   3.700073   4.212138
    12  H    2.491981   2.175342   4.659705   4.167049   4.948670
    13  H    3.057655   2.160517   3.989406   3.447561   4.025345
    14  O    4.316201   3.315154   3.529760   1.292897   2.410691
    15  H    2.727392   2.644342   1.101148   2.865041   2.157831
    16  O    2.598760   2.381773   4.335418   4.874044   5.050011
    17  H    3.529209   3.228641   5.157331   5.495338   5.742316
    18  O    4.895499   4.327191   2.413128   2.366159   1.416624
    19  H    5.189089   4.708783   2.401697   3.185489   1.904621
    20  O    4.151782   3.803457   1.414335   3.728923   2.322196
    21  H    4.187353   4.081494   1.968142   4.498894   3.192848
    22  O    2.425064   2.421598   2.436530   4.395277   3.765786
    23  H    2.506076   2.514625   3.256757   4.847042   4.431350
    24  O    4.057454   3.361972   4.839126   2.771665   4.220664
    25  H    4.293023   3.384123   4.264508   1.941499   3.351709
    26  H    2.946890   2.309168   3.905494   2.277765   3.564133
    27  O    4.392061   4.680177   3.322468   5.877516   4.776033
    28  H    3.672777   3.948464   3.014970   5.489949   4.524020
    29  H    4.268429   4.737827   3.556595   5.986603   5.015823
    30  H    4.305586   3.602498   5.374274   3.501819   4.856436
                    6          7          8          9         10
     6  O    0.000000
     7  C    2.469252   0.000000
     8  H    2.135371   3.791947   0.000000
     9  H    3.391478   2.742863   3.010882   0.000000
    10  H    2.992605   1.100958   4.093626   2.399253   0.000000
    11  C    2.448467   2.534073   4.395697   4.381266   2.611347
    12  H    2.702167   3.493547   4.664372   5.231031   3.678385
    13  H    2.724316   2.794314   4.285073   3.966337   2.454637
    14  O    2.514353   3.557617   2.061275   2.441881   3.294884
    15  H    2.629264   2.162570   3.095525   3.046198   3.049475
    16  O    3.656088   2.828148   5.631947   5.106743   2.865574
    17  H    4.388884   3.639551   6.299150   5.668424   3.448526
    18  O    3.688678   3.754080   2.467345   2.082983   3.974414
    19  H    4.313335   3.860651   3.383346   2.357948   4.097741
    20  O    4.121155   2.471684   4.314872   2.506090   2.788987
    21  H    4.577634   2.778090   5.009223   3.466223   3.285406
    22  O    3.625856   1.430854   5.107803   3.957210   2.066324
    23  H    3.891185   1.934656   5.608587   4.528537   2.293888
    24  O    2.394352   4.477626   2.858067   4.593200   4.534109
    25  H    2.424508   4.086516   2.307089   3.552317   3.950183
    26  H    1.295035   3.520737   2.437860   4.088666   3.778911
    27  O    5.459895   3.602985   6.320420   5.122714   4.288157
    28  H    4.903358   2.898361   6.029072   4.820647   3.581939
    29  H    5.411820   3.921755   6.279065   5.542474   4.773851
    30  H    2.969533   4.758816   3.759099   5.086018   4.694113
                   11         12         13         14         15
    11  C    0.000000
    12  H    1.100569   0.000000
    13  H    1.099894   1.789013   0.000000
    14  O    3.664756   4.090324   3.062337   0.000000
    15  H    4.143321   4.784376   4.509600   4.020397   0.000000
    16  O    1.431882   2.090526   2.097096   4.894810   4.696953
    17  H    1.973606   2.425556   2.292954   5.311454   5.601126
    18  O    5.544781   6.197428   5.401934   3.335874   2.623653
    19  H    5.972040   6.719028   5.881399   4.130779   2.662429
    20  O    4.981334   5.904721   5.064061   4.570924   2.081437
    21  H    5.288561   6.190244   5.539740   5.402448   2.278684
    22  O    3.159442   4.075800   3.669967   4.980516   2.811247
    23  H    2.762882   3.654746   3.337925   5.245133   3.643573
    24  O    3.300995   3.015702   3.049373   2.380513   4.925751
    25  H    3.494777   3.600971   2.968503   1.167528   4.562032
    26  H    2.588771   2.444838   2.629082   2.363986   3.902839
    27  O    5.792668   6.608654   6.303595   6.802235   3.265768
    28  H    4.932075   5.764550   5.473748   6.313214   3.083075
    29  H    5.953768   6.648537   6.577183   7.015788   3.187809
    30  H    3.104761   2.678749   2.757543   2.899764   5.551978
                   16         17         18         19         20
    16  O    0.000000
    17  H    0.968324   0.000000
    18  O    6.399334   7.130302   0.000000
    19  H    6.646402   7.400322   0.974710   0.000000
    20  O    5.217930   5.986765   2.733317   2.200317   0.000000
    21  H    5.328187   6.139971   3.534695   2.938371   0.986447
    22  O    2.789291   3.618992   4.841964   4.728649   2.840381
    23  H    2.013120   2.776733   5.624421   5.591573   3.748724
    24  O    4.727605   5.070695   5.096259   5.940460   6.171131
    25  H    4.870454   5.227446   4.230264   5.080227   5.466579
    26  H    3.997377   4.520313   4.518955   5.277621   5.289307
    27  O    5.482621   6.312558   5.175607   4.619558   2.752470
    28  H    4.527500   5.344945   5.180931   4.763800   2.737049
    29  H    5.730041   6.618123   5.311923   4.822332   3.242642
    30  H    4.458763   4.629923   5.866199   6.667180   6.682891
                   21         22         23         24         25
    21  H    0.000000
    22  O    2.658272   0.000000
    23  H    3.610163   0.975232   0.000000
    24  O    6.789577   5.701733   5.722837   0.000000
    25  H    6.211815   5.451202   5.586935   1.276135   0.000000
    26  H    5.818042   4.688968   4.769284   1.148058   1.681374
    27  O    1.791882   2.747633   3.542192   7.801713   7.449260
    28  H    1.959462   1.834711   2.571017   7.192838   6.895464
    29  H    2.330502   3.140030   3.915339   7.801071   7.564982
    30  H    7.278695   5.891028   5.753235   0.969690   1.841804
                   26         27         28         29         30
    26  H    0.000000
    27  O    6.724987   0.000000
    28  H    6.119342   0.981475   0.000000
    29  H    6.687309   0.969186   1.542112   0.000000
    30  H    1.745676   8.210150   7.516075   8.258890   0.000000
 Symmetry turned off by external request.
 Stoichiometry    C6H16O8
 Framework group  C1[X(C6H16O8)]
 Deg. of freedom    84
 Full point group                 C1      NOp   1
 Rotational constants (GHZ):      0.7316228      0.5238243      0.3354337
 Standard basis: 6-31G(d) (6D, 7F)
   242 basis functions,   456 primitive gaussians,   242 cartesian basis functions
    58 alpha electrons       58 beta electrons
       nuclear repulsion energy      1103.4648911118 Hartrees.
 NAtoms=   30 NActive=   30 NUniq=   30 SFac= 1.00D+00 NAtFMM=   60 NAOKFM=F Big=F
 Integral buffers will be    131072 words long.
 Raffenetti 2 integral format.
 Two-electron integral symmetry is turned off.
 One-electron integrals computed using PRISM.
 NBasis=   242 RedAO= T EigKep=  1.59D-03  NBF=   242
 NBsUse=   242 1.00D-06 EigRej= -1.00D+00 NBFU=   242
 Initial guess from the checkpoint file:  "/scratch/10461039.yak.local/Gau-28086.chk"
 B after Tr=    -0.000114   -0.000164   -0.000208
         Rot=    1.000000   -0.000015    0.000055   -0.000025 Ang=  -0.01 deg.
 ExpMin= 1.61D-01 ExpMax= 5.48D+03 ExpMxC= 8.25D+02 IAcc=1 IRadAn=         1 AccDes= 0.00D+00
 Harris functional with IExCor=  402 and IRadAn=       1 diagonalized for initial guess.
 HarFok:  IExCor=  402 AccDes= 0.00D+00 IRadAn=         1 IDoV= 1 UseB2=F ITyADJ=14
 ICtDFT=  3500011 ScaDFX=  1.000000  1.000000  1.000000  1.000000
 FoFCou: FMM=F IPFlag=           0 FMFlag=      100000 FMFlg1=           0
         NFxFlg=           0 DoJE=T BraDBF=F KetDBF=T FulRan=T
         wScrn=  0.000000 ICntrl=     500 IOpCl=  0 I1Cent=   200000004 NGrid=           0
         NMat0=    1 NMatS0=      1 NMatT0=    0 NMatD0=    1 NMtDS0=    0 NMtDT0=    0
 Symmetry not used in FoFCou.
 Requested convergence on RMS density matrix=1.00D-08 within 128 cycles.
 Requested convergence on MAX density matrix=1.00D-06.
 Requested convergence on             energy=1.00D-06.
 No special actions if energy rises.
 Integral accuracy reduced to 1.0D-05 until final iterations.
 Initial convergence to 1.0D-05 achieved.  Increase integral accuracy.
 SCF Done:  E(RB3LYP) =  -839.954845479     A.U. after   11 cycles
            NFock= 11  Conv=0.97D-08     -V/T= 2.0086
 DoSCS=F DFT=T ScalE2(SS,OS)=  1.000000  1.000000
 Range of M.O.s used for correlation:     1   242
 NBasis=   242 NAE=    58 NBE=    58 NFC=     0 NFV=     0
 NROrb=    242 NOA=    58 NOB=    58 NVA=   184 NVB=   184
 Symmetrizing basis deriv contribution to polar:
 IMax=3 JMax=2 DiffMx= 0.00D+00
 Calling FoFJK, ICntrl=      2147 FMM=F ISym2X=0 I1Cent= 0 IOpClX= 0 NMat=1 NMatS=1 NMatT=0.
 -------------------------------------------------------------------
 Center     Atomic                   Forces (Hartrees/Bohr)
 Number     Number              X              Y              Z
 -------------------------------------------------------------------
      1        1          -0.000090419   -0.000148279    0.000051349
      2        6           0.000004985   -0.002842750   -0.000339583
      3        6          -0.000064365    0.000307907   -0.000085247
      4        6           0.005272291    0.008732528    0.009432649
      5        6          -0.000751220   -0.000372706   -0.000393090
      6        8           0.005637586   -0.005774818   -0.003818273
      7        6           0.000174168    0.000538261    0.000032930
      8        1          -0.000094771   -0.000253914   -0.000207524
      9        1          -0.000021979   -0.000037219   -0.000057684
     10        1           0.000056083    0.000015218   -0.000046747
     11        6           0.000117788   -0.000314924    0.000104032
     12        1           0.000023414   -0.000023601    0.000027144
     13        1          -0.000018888    0.000039793   -0.000030100
     14        8          -0.005760041    0.002115170   -0.001926458
     15        1          -0.000083137   -0.000019837   -0.000029599
     16        8           0.000038317    0.000159217   -0.000096650
     17        1           0.000001383    0.000039322    0.000021686
     18        8          -0.000159661   -0.000106026   -0.000217969
     19        1           0.000007372    0.000068111    0.000019568
     20        8          -0.000101437   -0.000227280   -0.000067530
     21        1          -0.000025226    0.000017344    0.000006527
     22        8           0.000586543    0.000041244   -0.000261973
     23        1          -0.000051454   -0.000005664    0.000086638
     24        8          -0.000699725    0.003757372    0.004946580
     25        1           0.006045433   -0.006171842   -0.006700950
     26        1          -0.010517022   -0.000114845   -0.001218697
     27        8          -0.000035541   -0.000008721    0.000009463
     28        1          -0.000033875   -0.000008359   -0.000008109
     29        1          -0.000016522    0.000002598   -0.000007533
     30        1           0.000559923    0.000596702    0.000775151
 -------------------------------------------------------------------
 Cartesian Forces:  Max     0.010517022 RMS     0.002574442
 IRC-IRC-IRC-IRC-IRC-IRC-IRC-IRC-IRC-IRC-IRC-IRC-IRC-IRC-IRC-IRC-IRC-IRC
 Pt  2 Step number   1 out of a maximum of  20
 Modified Bulirsch-Stoer Extrapolation Cycles:
    EPS =    0.000010000000000
 Maximum DWI energy   std dev =  0.000005709 at pt    50
 Maximum DWI gradient std dev =  0.020893261 at pt    55
 CORRECTOR INTEGRATION CONVERGENCE:
   Recorrection delta-x convergence threshold:    0.010000
   Delta-x Convergence Met
 Point Number:   2          Path Number:   1
   CHANGE IN THE REACTION COORDINATE =    0.10487
   NET REACTION COORDINATE UP TO THIS POINT =    0.20978
  # OF POINTS ALONG THE PATH =   2
  # OF STEPS =   1

 Calculating another point on the path.
 IRC-IRC-IRC-IRC-IRC-IRC-IRC-IRC-IRC-IRC-IRC-IRC-IRC-IRC-IRC-IRC-IRC-IRC
                          Input orientation:                          
 ---------------------------------------------------------------------
 Center     Atomic      Atomic             Coordinates (Angstroms)
 Number     Number       Type             X           Y           Z
 ---------------------------------------------------------------------
      1          1           0       -0.032566    1.600688    1.429575
      2          6           0       -0.494625    1.120639    0.554025
      3          6           0        1.123030   -0.754878    0.057524
      4          6           0       -1.339922   -1.521217    0.050073
      5          6           0        0.083808   -1.784597   -0.414514
      6          8           0       -1.279195    0.035447    1.028179
      7          6           0        0.677228    0.654604   -0.343244
      8          1           0       -1.618394   -2.071340    0.954349
      9          1           0        0.073646   -1.751141   -1.515176
     10          1           0        0.366293    0.627590   -1.399160
     11          6           0       -1.346593    2.169680   -0.171292
     12          1           0       -2.141493    2.541249    0.493042
     13          1           0       -1.810748    1.708847   -1.055633
     14          8           0       -2.239654   -1.316923   -0.861110
     15          1           0        1.203802   -0.814284    1.154010
     16          8           0       -0.464690    3.233933   -0.545696
     17          1           0       -0.920438    3.818894   -1.168392
     18          8           0        0.448064   -3.071796    0.051576
     19          1           0        1.401773   -3.131946   -0.140598
     20          8           0        2.320677   -1.178406   -0.564317
     21          1           0        3.081493   -0.721282   -0.133821
     22          8           0        1.757702    1.582602   -0.206850
     23          1           0        1.387307    2.450624   -0.452671
     24          8           0       -3.636167   -0.074550    0.614270
     25          1           0       -3.106927   -0.856584   -0.300195
     26          1           0       -2.601002    0.175457    0.938715
     27          8           0        4.144243    0.505368    0.625578
     28          1           0        3.448464    1.141175    0.351612
     29          1           0        4.083417    0.481566    1.592554
     30          1           0       -4.050445    0.691318    0.188187
 ---------------------------------------------------------------------
                    Distance matrix (angstroms):
                    1          2          3          4          5
     1  H    0.000000
     2  C    1.100242   0.000000
     3  C    2.960847   2.526041   0.000000
     4  C    3.654928   2.819203   2.579431   0.000000
     5  C    3.856729   3.116577   1.537245   1.520598   0.000000
     6  O    2.040878   1.420569   2.708776   1.839451   2.692898
     7  C    2.131142   1.547746   1.531664   2.992957   2.511360
     8  H    4.027962   3.407616   3.170611   1.094485   2.203066
     9  H    4.462914   3.584920   2.137085   2.121567   1.101218
    10  H    3.017905   2.190709   2.146112   3.103034   2.620682
    11  C    2.147835   1.533760   3.834636   3.697536   4.212068
    12  H    2.491851   2.175781   4.659531   4.164417   4.948592
    13  H    3.057759   2.160826   3.989500   3.446387   4.025485
    14  O    4.316356   3.315033   3.530924   1.296730   2.411772
    15  H    2.727018   2.643589   1.101061   2.861637   2.157814
    16  O    2.599215   2.382497   4.335359   4.871594   5.050119
    17  H    3.529617   3.229337   5.157327   5.493398   5.742470
    18  O    4.895098   4.326388   2.413239   2.366683   1.416617
    19  H    5.188506   4.707792   2.401542   3.185545   1.904576
    20  O    4.151713   3.802923   1.414363   3.727598   2.322389
    21  H    4.187256   4.080983   1.968075   4.496957   3.193046
    22  O    2.425546   2.421842   2.436496   4.392605   3.766042
    23  H    2.506249   2.514749   3.256590   4.844177   4.431440
    24  O    4.056734   3.361755   4.839707   2.771986   4.221478
    25  H    4.299067   3.385738   4.246273   1.920086   3.324916
    26  H    2.978101   2.340551   3.938328   2.293188   3.589045
    27  O    4.392252   4.680040   3.322444   5.874890   4.776282
    28  H    3.672973   3.948334   3.014822   5.487067   4.524158
    29  H    4.268526   4.737660   3.556544   5.983561   5.016043
    30  H    4.302482   3.600280   5.373397   3.501617   4.856486
                    6          7          8          9         10
     6  O    0.000000
     7  C    2.468146   0.000000
     8  H    2.135195   3.792677   0.000000
     9  H    3.389798   2.743237   3.010661   0.000000
    10  H    2.991695   1.101076   4.094168   2.399472   0.000000
    11  C    2.449128   2.533944   4.396271   4.381318   2.611451
    12  H    2.703511   3.493420   4.665020   5.231098   3.678519
    13  H    2.724902   2.794450   4.285656   3.966565   2.454921
    14  O    2.514120   3.558554   2.061796   2.442889   3.295693
    15  H    2.627384   2.162564   3.095940   3.046229   3.049442
    16  O    3.656613   2.828055   5.632681   5.106923   2.865651
    17  H    4.389545   3.639524   6.299844   5.668664   3.448674
    18  O    3.686751   3.754259   2.467014   2.083034   3.974516
    19  H    4.311149   3.860569   3.383076   2.357967   4.097598
    20  O    4.119292   2.471787   4.315085   2.506254   2.788943
    21  H    4.575858   2.778023   5.009562   3.466395   3.285247
    22  O    3.625153   1.430807   5.108591   3.957475   2.066317
    23  H    3.890531   1.934392   5.609109   4.528736   2.293853
    24  O    2.395566   4.478155   2.859061   4.594367   4.535040
    25  H    2.429176   4.074968   2.294611   3.520292   3.933669
    26  H    1.332208   3.552434   2.452317   4.109393   3.804592
    27  O    5.458626   3.602927   6.321037   5.122931   4.288054
    28  H    4.902157   2.898160   6.029644   4.820767   3.581724
    29  H    5.410652   3.921656   6.279752   5.542674   4.773749
    30  H    2.969104   4.757590   3.759542   5.086766   4.693752
                   11         12         13         14         15
    11  C    0.000000
    12  H    1.100576   0.000000
    13  H    1.099939   1.789044   0.000000
    14  O    3.664671   4.090092   3.062203   0.000000
    15  H    4.143064   4.784085   4.509570   4.021287   0.000000
    16  O    1.431979   2.090564   2.097092   4.894923   4.696906
    17  H    1.973759   2.425637   2.292960   5.311438   5.601097
    18  O    5.544685   6.197335   5.402101   3.337125   2.623521
    19  H    5.971742   6.718733   5.881400   4.132002   2.662097
    20  O    4.981267   5.904642   5.064218   4.572078   2.081501
[...]
 Alpha  occ. eigenvalues --  -10.24724 -10.24366 -10.24061 -10.23724  -1.07151
 Alpha  occ. eigenvalues --   -1.05559  -1.03836  -1.02480  -1.01092  -1.00730
 Alpha  occ. eigenvalues --   -0.99429  -0.98817  -0.77968  -0.76342  -0.70453
 Alpha  occ. eigenvalues --   -0.64054  -0.61808  -0.57464  -0.56503  -0.55438
 Alpha  occ. eigenvalues --   -0.53951  -0.53567  -0.52728  -0.51142  -0.48892
 Alpha  occ. eigenvalues --   -0.47570  -0.45478  -0.44794  -0.43591  -0.43433
 Alpha  occ. eigenvalues --   -0.42630  -0.41186  -0.40428  -0.39391  -0.38393
 Alpha  occ. eigenvalues --   -0.37527  -0.35692  -0.34596  -0.33635  -0.33085
 Alpha  occ. eigenvalues --   -0.30828  -0.30436  -0.30219  -0.29535  -0.27354
 Alpha  occ. eigenvalues --   -0.27105  -0.26693  -0.25460
 Alpha virt. eigenvalues --    0.01211   0.03981   0.05435   0.06675   0.09728
 Alpha virt. eigenvalues --    0.11127   0.11766   0.12254   0.13242   0.14340
 Alpha virt. eigenvalues --    0.15441   0.15636   0.16878   0.17989   0.19019
 Alpha virt. eigenvalues --    0.19844   0.20714   0.21629   0.23059   0.24331
 Alpha virt. eigenvalues --    0.25704   0.27074   0.27423   0.28273   0.30160
 Alpha virt. eigenvalues --    0.31647   0.32227   0.33608   0.50781   0.52601
 Alpha virt. eigenvalues --    0.54171   0.54742   0.56817   0.58798   0.59118
 Alpha virt. eigenvalues --    0.59752   0.61656   0.62423   0.64664   0.67061
 Alpha virt. eigenvalues --    0.68470   0.70401   0.71225   0.72741   0.74247
 Alpha virt. eigenvalues --    0.75757   0.76549   0.78841   0.79907   0.81043
 Alpha virt. eigenvalues --    0.81697   0.83385   0.83691   0.83932   0.84918
 Alpha virt. eigenvalues --    0.86043   0.86190   0.86972   0.88488   0.90169
 Alpha virt. eigenvalues --    0.90560   0.92143   0.93253   0.94140   0.95383
 Alpha virt. eigenvalues --    0.96980   0.97827   0.99227   0.99986   1.03282
 Alpha virt. eigenvalues --    1.03650   1.05394   1.05999   1.06576   1.07632
 Alpha virt. eigenvalues --    1.10125   1.11936   1.14852   1.15272   1.16153
 Alpha virt. eigenvalues --    1.19077   1.19963   1.23153   1.23918   1.24959
 Alpha virt. eigenvalues --    1.29169   1.30606   1.32024   1.35279   1.37144
 Alpha virt. eigenvalues --    1.39910   1.44155   1.45649   1.47378   1.50039
 Alpha virt. eigenvalues --    1.50662   1.53207   1.55341   1.59525   1.62150
 Alpha virt. eigenvalues --    1.62708   1.64059   1.65139   1.66182   1.68109
 Alpha virt. eigenvalues --    1.69515   1.70991   1.71848   1.72532   1.73833
 Alpha virt. eigenvalues --    1.75026   1.75542   1.76394   1.79020   1.80232
 Alpha virt. eigenvalues --    1.81141   1.82107   1.84123   1.84460   1.86431
 Alpha virt. eigenvalues --    1.88924   1.89667   1.90892   1.92428   1.93912
 Alpha virt. eigenvalues --    1.97228   1.99359   2.02337   2.04142   2.04937
 Alpha virt. eigenvalues --    2.06847   2.08129   2.11063   2.11405   2.15374
 Alpha virt. eigenvalues --    2.15427   2.21577   2.24273   2.25480   2.27032
 Alpha virt. eigenvalues --    2.29288   2.30366   2.33222   2.34597   2.36278
 Alpha virt. eigenvalues --    2.44559   2.45421   2.46607   2.49205   2.49855
 Alpha virt. eigenvalues --    2.51607   2.53775   2.56061   2.57598   2.58421
 Alpha virt. eigenvalues --    2.59699   2.61787   2.63404   2.67984   2.70286
 Alpha virt. eigenvalues --    2.72954   2.73619   2.75662   2.83560   2.90372
 Alpha virt. eigenvalues --    2.92927   2.95806   2.97824   3.02586   3.09678
 Alpha virt. eigenvalues --    3.73697   3.75737   3.80299   3.84244   3.90172
 Alpha virt. eigenvalues --    3.92299   3.99048   4.15361   4.26172   4.34305
 Alpha virt. eigenvalues --    4.41635   4.48360   4.67231   4.76167
          Condensed to atoms (all electrons):
               1          2          3          4          5          6
     1  H    0.624740   0.362312  -0.006911   0.002145   0.000332  -0.035273
     2  C    0.362312   4.915383  -0.027236  -0.010058  -0.009129   0.180769
     3  C   -0.006911  -0.027236   4.965971  -0.029187   0.329055  -0.003118
     4  C    0.002145  -0.010058  -0.029187   4.787506   0.306772   0.131136
     5  C    0.000332  -0.009129   0.329055   0.306772   4.911144  -0.015933
     6  O   -0.035273   0.180769  -0.003118   0.131136  -0.015933   8.485258
     7  C   -0.050818   0.284618   0.272726  -0.009969  -0.029969  -0.030873
     8  H   -0.000208   0.003522  -0.000004   0.355176  -0.047266  -0.032893
     9  H    0.000021   0.001079  -0.044457  -0.059887   0.350421   0.001818
    10  H    0.007257  -0.056283  -0.055104   0.000108  -0.004949   0.002648
    11  C   -0.060760   0.335291   0.003797  -0.000069  -0.000310  -0.036807
    12  H   -0.007356  -0.037082  -0.000074  -0.000137  -0.000003   0.000975
    13  H    0.006397  -0.029054  -0.000340   0.001001  -0.000172   0.001761
    14  O   -0.000132   0.005253   0.000766   0.290930  -0.034395  -0.049201
    15  H    0.002980  -0.001462   0.344889  -0.004436  -0.038061   0.003836
    16  O    0.004179  -0.044744   0.000225  -0.000002  -0.000004   0.001103
    17  H   -0.000272   0.004729   0.000008   0.000001  -0.000000  -0.000080
    18  O    0.000003   0.000031  -0.030378  -0.033558   0.233505   0.000522
    19  H   -0.000002  -0.000055  -0.010397   0.006843  -0.037775  -0.000083
    20  O   -0.000070   0.002888   0.233923   0.003201  -0.049456   0.000136
    21  H   -0.000008  -0.000072  -0.017160  -0.000154   0.004811   0.000001
    22  O    0.005942  -0.037106  -0.026342   0.000098   0.001541   0.001563
    23  H    0.001162  -0.005571   0.004577   0.000007  -0.000124   0.000011
    24  O   -0.000071   0.000663   0.000059   0.009330  -0.000222  -0.068300
    25  H    0.000008  -0.000352  -0.000155  -0.030335   0.004995   0.004935
    26  H   -0.000460  -0.006040  -0.000004  -0.010020   0.001124   0.082627
    27  O   -0.000027  -0.000031   0.005655   0.000000   0.000086   0.000000
    28  H    0.000210   0.000401  -0.001515  -0.000002   0.000069  -0.000006
    29  H    0.000022  -0.000001   0.000500  -0.000000   0.000018  -0.000000
    30  H    0.000027  -0.000790  -0.000004  -0.000273  -0.000016   0.003735
               7          8          9         10         11         12
     1  H   -0.050818  -0.000208   0.000021   0.007257  -0.060760  -0.007356
     2  C    0.284618   0.003522   0.001079  -0.056283   0.335291  -0.037082
     3  C    0.272726  -0.000004  -0.044457  -0.055104   0.003797  -0.000074
     4  C   -0.009969   0.355176  -0.059887   0.000108  -0.000069  -0.000137
     5  C   -0.029969  -0.047266   0.350421  -0.004949  -0.000310  -0.000003
     6  O   -0.030873  -0.032893   0.001818   0.002648  -0.036807   0.000975
     7  C    5.071231   0.000226  -0.007101   0.356626  -0.036389   0.006288
     8  H    0.000226   0.572343   0.005391   0.000053  -0.000086   0.000006
     9  H   -0.007101   0.005391   0.618734   0.009856   0.000006  -0.000000
    10  H    0.356626   0.000053   0.009856   0.644773  -0.006559   0.000212
    11  C   -0.036389  -0.000086   0.000006  -0.006559   5.005488   0.358243
    12  H    0.006288   0.000006  -0.000000   0.000212   0.358243   0.632320
    13  H   -0.012256   0.000069   0.000060   0.005044   0.349120  -0.053708
    14  O    0.000567  -0.038874   0.005142   0.000635  -0.001255   0.000071
    15  H   -0.061975   0.001070   0.007659   0.007506   0.000270   0.000005
    16  O    0.007807   0.000000  -0.000000   0.001027   0.199563  -0.035999
    17  H   -0.000015  -0.000000   0.000000  -0.000099  -0.017569  -0.001680
    18  O    0.003694   0.005967  -0.037905   0.000014   0.000001  -0.000000
    19  H    0.001233  -0.000380  -0.001891  -0.000034   0.000001  -0.000000
    20  O   -0.041594  -0.000091  -0.001232   0.000943  -0.000039   0.000000
    21  H   -0.003538   0.000004  -0.000200  -0.000415  -0.000001  -0.000000
    22  O    0.199086   0.000001  -0.000083  -0.040201  -0.000119  -0.000265
    23  H   -0.022508  -0.000000   0.000004  -0.002437  -0.004402   0.000306
    24  O   -0.000212   0.001102   0.000014   0.000005   0.005109  -0.000311
    25  H   -0.000016  -0.004614   0.000006  -0.000009   0.000150  -0.000118
    26  H    0.001806  -0.000249  -0.000099  -0.000128  -0.003489   0.004778
    27  O   -0.000829  -0.000000  -0.000000  -0.000073  -0.000000  -0.000000
    28  H   -0.003768   0.000000   0.000001   0.000574  -0.000010   0.000001
    29  H   -0.000212   0.000000   0.000000   0.000007  -0.000000   0.000000
    30  H    0.000037  -0.000047  -0.000000  -0.000004   0.001066   0.002157
              13         14         15         16         17         18
     1  H    0.006397  -0.000132   0.002980   0.004179  -0.000272   0.000003
     2  C   -0.029054   0.005253  -0.001462  -0.044744   0.004729   0.000031
     3  C   -0.000340   0.000766   0.344889   0.000225   0.000008  -0.030378
     4  C    0.001001   0.290930  -0.004436  -0.000002   0.000001  -0.033558
     5  C   -0.000172  -0.034395  -0.038061  -0.000004  -0.000000   0.233505
     6  O    0.001761  -0.049201   0.003836   0.001103  -0.000080   0.000522
     7  C   -0.012256   0.000567  -0.061975   0.007807  -0.000015   0.003694
     8  H    0.000069  -0.038874   0.001070   0.000000  -0.000000   0.005967
     9  H    0.000060   0.005142   0.007659  -0.000000   0.000000  -0.037905
    10  H    0.005044   0.000635   0.007506   0.001027  -0.000099   0.000014
    11  C    0.349120  -0.001255   0.000270   0.199563  -0.017569   0.000001
    12  H   -0.053708   0.000071   0.000005  -0.035999  -0.001680  -0.000000
    13  H    0.619739   0.003766   0.000009  -0.030383  -0.005980   0.000001
    14  O    0.003766   8.275061   0.000064   0.000003  -0.000001   0.000500
    15  H    0.000009   0.000064   0.654230  -0.000010   0.000001   0.002180
    16  O   -0.030383   0.000003  -0.000010   8.271537   0.236444  -0.000000
    17  H   -0.005980  -0.000001   0.000001   0.236444   0.373833   0.000000
    18  O    0.000001   0.000500   0.002180  -0.000000   0.000000   8.282016
    19  H   -0.000000  -0.000118  -0.000450   0.000000  -0.000000   0.235915
    20  O   -0.000002  -0.000013  -0.042658  -0.000000  -0.000000  -0.008784
    21  H    0.000000   0.000000  -0.004240   0.000000  -0.000000  -0.000046
    22  O    0.000076   0.000001   0.000027  -0.012674   0.000546  -0.000010
    23  H    0.000535  -0.000000  -0.000206   0.039909  -0.001414   0.000001
    24  O    0.001429  -0.072604   0.000004   0.000015   0.000003   0.000000
    25  H    0.000007   0.190102   0.000005  -0.000003   0.000000  -0.000119
    26  H   -0.001060   0.011559  -0.000054  -0.000003  -0.000007  -0.000015
    27  O    0.000000  -0.000000   0.000958  -0.000000   0.000000  -0.000000
    28  H   -0.000000  -0.000000   0.000423   0.000010  -0.000001  -0.000000
    29  H    0.000000  -0.000000   0.000392   0.000000  -0.000000   0.000000
    30  H    0.001085   0.003757  -0.000000   0.000006  -0.000006   0.000000
              19         20         21         22         23         24
     1  H   -0.000002  -0.000070  -0.000008   0.005942   0.001162  -0.000071
     2  C   -0.000055   0.002888  -0.000072  -0.037106  -0.005571   0.000663
     3  C   -0.010397   0.233923  -0.017160  -0.026342   0.004577   0.000059
     4  C    0.006843   0.003201  -0.000154   0.000098   0.000007   0.009330
     5  C   -0.037775  -0.049456   0.004811   0.001541  -0.000124  -0.000222
     6  O   -0.000083   0.000136   0.000001   0.001563   0.000011  -0.068300
     7  C    0.001233  -0.041594  -0.003538   0.199086  -0.022508  -0.000212
     8  H   -0.000380  -0.000091   0.000004   0.000001  -0.000000   0.001102
     9  H   -0.001891  -0.001232  -0.000200  -0.000083   0.000004   0.000014
    10  H   -0.000034   0.000943  -0.000415  -0.040201  -0.002437   0.000005
    11  C    0.000001  -0.000039  -0.000001  -0.000119  -0.004402   0.005109
    12  H   -0.000000   0.000000  -0.000000  -0.000265   0.000306  -0.000311
    13  H   -0.000000  -0.000002   0.000000   0.000076   0.000535   0.001429
    14  O   -0.000118  -0.000013   0.000000   0.000001  -0.000000  -0.072604
    15  H   -0.000450  -0.042658  -0.004240   0.000027  -0.000206   0.000004
    16  O    0.000000  -0.000000   0.000000  -0.012674   0.039909   0.000015
    17  H   -0.000000  -0.000000  -0.000000   0.000546  -0.001414   0.000003
    18  O    0.235915  -0.008784  -0.000046  -0.000010   0.000001   0.000000
    19  H    0.364242   0.031069  -0.000438  -0.000007   0.000000  -0.000000
    20  O    0.031069   8.372715   0.203405   0.000438  -0.000083   0.000000
    21  H   -0.000438   0.203405   0.316134   0.002414  -0.000008   0.000000
    22  O   -0.000007   0.000438   0.002414   8.324398   0.228605   0.000000
    23  H    0.000000  -0.000083  -0.000008   0.228605   0.333293  -0.000000
    24  O   -0.000000   0.000000   0.000000   0.000000  -0.000000   8.451442
    25  H    0.000010   0.000001  -0.000000  -0.000000   0.000000   0.101809
    26  H    0.000001  -0.000000  -0.000000  -0.000013   0.000001   0.167773
    27  O    0.000011  -0.027298   0.080119  -0.019174   0.000565   0.000000
    28  H   -0.000007   0.005371  -0.011398   0.052768  -0.001650  -0.000000
    29  H   -0.000003   0.001312  -0.004336   0.001159  -0.000025  -0.000000
    30  H    0.000000  -0.000000  -0.000000  -0.000000   0.000000   0.233662
              25         26         27         28         29         30
     1  H    0.000008  -0.000460  -0.000027   0.000210   0.000022   0.000027
     2  C   -0.000352  -0.006040  -0.000031   0.000401  -0.000001  -0.000790
     3  C   -0.000155  -0.000004   0.005655  -0.001515   0.000500  -0.000004
     4  C   -0.030335  -0.010020   0.000000  -0.000002  -0.000000  -0.000273
     5  C    0.004995   0.001124   0.000086   0.000069   0.000018  -0.000016
     6  O    0.004935   0.082627   0.000000  -0.000006  -0.000000   0.003735
     7  C   -0.000016   0.001806  -0.000829  -0.003768  -0.000212   0.000037
     8  H   -0.004614  -0.000249  -0.000000   0.000000   0.000000  -0.000047
     9  H    0.000006  -0.000099  -0.000000   0.000001   0.000000  -0.000000
    10  H   -0.000009  -0.000128  -0.000073   0.000574   0.000007  -0.000004
    11  C    0.000150  -0.003489  -0.000000  -0.000010  -0.000000   0.001066
    12  H   -0.000118   0.004778  -0.000000   0.000001   0.000000   0.002157
    13  H    0.000007  -0.001060   0.000000  -0.000000   0.000000   0.001085
    14  O    0.190102   0.011559  -0.000000  -0.000000  -0.000000   0.003757
    15  H    0.000005  -0.000054   0.000958   0.000423   0.000392  -0.000000
    16  O   -0.000003  -0.000003  -0.000000   0.000010   0.000000   0.000006
    17  H    0.000000  -0.000007   0.000000  -0.000001  -0.000000  -0.000006
    18  O   -0.000119  -0.000015  -0.000000  -0.000000   0.000000   0.000000
    19  H    0.000010   0.000001   0.000011  -0.000007  -0.000003   0.000000
    20  O    0.000001  -0.000000  -0.027298   0.005371   0.001312  -0.000000
    21  H   -0.000000  -0.000000   0.080119  -0.011398  -0.004336  -0.000000
    22  O   -0.000000  -0.000013  -0.019174   0.052768   0.001159  -0.000000
    23  H    0.000000   0.000001   0.000565  -0.001650  -0.000025   0.000000
    24  O    0.101809   0.167773   0.000000  -0.000000  -0.000000   0.233662
    25  H    0.303932  -0.014644   0.000000   0.000000  -0.000000  -0.005165
    26  H   -0.014644   0.321381  -0.000000   0.000000   0.000000  -0.008855
    27  O    0.000000  -0.000000   8.303749   0.217295   0.241070  -0.000000
    28  H    0.000000   0.000000   0.217295   0.323476  -0.016039   0.000000
    29  H   -0.000000   0.000000   0.241070  -0.016039   0.382152   0.000000
    30  H   -0.005165  -0.008855  -0.000000   0.000000   0.000000   0.375884
 Mulliken charges:
               1
     1  H    0.144630
     2  C    0.168129
     3  C    0.090233
     4  C    0.293835
     5  C    0.123909
     6  O   -0.630267
     7  C    0.106096
     8  H    0.179783
     9  H    0.152642
    10  H    0.129006
    11  C   -0.090240
    12  H    0.131370
    13  H    0.142855
    14  O   -0.591585
    15  H    0.127041
    16  O   -0.638009
    17  H    0.411560
    18  O   -0.653536
    19  H    0.412312
    20  O   -0.684080
    21  H    0.435126
    22  O   -0.682670
    23  H    0.429452
    24  O   -0.830701
    25  H    0.449572
    26  H    0.454088
    27  O   -0.802076
    28  H    0.433797
    29  H    0.393986
    30  H    0.393743
 Sum of Mulliken charges =  -0.00000
 Mulliken charges with hydrogens summed into heavy atoms:
               1
     2  C    0.312759
     3  C    0.217274
     4  C    0.473617
     5  C    0.276552
     6  O   -0.630267
     7  C    0.235102
    11  C    0.183985
    14  O   -0.142013
    16  O   -0.226449
    18  O   -0.241224
    20  O   -0.248954
    22  O   -0.253218
    24  O    0.017130
    27  O    0.025707
 APT charges:
               1
     1  H    0.403366
     2  C   -0.258415
     3  C   -0.222002
     4  C   -0.285457
     5  C   -0.217863
     6  O   -0.456271
     7  C   -0.151861
     8  H    0.524799
     9  H    0.364930
    10  H    0.310641
    11  C   -0.557716
    12  H    0.509263
    13  H    0.293458
    14  O   -0.444871
    15  H    0.305628
    16  O   -1.099067
    17  H    0.933221
    18  O   -0.744152
    19  H    0.634720
    20  O   -0.804112
    21  H    0.585440
    22  O   -0.844050
    23  H    0.639982
    24  O   -0.953069
    25  H    0.555559
    26  H    0.147531
    27  O   -0.694711
    28  H    0.166911
    29  H    0.629494
    30  H    0.728674
 Sum of APT charges =  -0.00000
 APT charges with hydrogens summed into heavy atoms:
               1
     2  C    0.144951
     3  C    0.083626
     4  C    0.239342
     5  C    0.147067
     6  O   -0.456271
     7  C    0.158780
    11  C    0.245006
    14  O    0.110687
    16  O   -0.165845
    18  O   -0.109433
    20  O   -0.218672
    22  O   -0.204068
    24  O   -0.076864
    27  O    0.101694
 Electronic spatial extent (au):  <R**2>=           3291.0670
 Charge=             -0.0000 electrons
 Dipole moment (field-independent basis, Debye):
    X=             -2.0628    Y=              5.2877    Z=              0.0857  Tot=              5.6765
 Quadrupole moment (field-independent basis, Debye-Ang):
   XX=            -88.9607   YY=            -78.3043   ZZ=            -82.1454
   XY=             -9.7880   XZ=             10.6251   YZ=             -5.1794
 Traceless Quadrupole moment (field-independent basis, Debye-Ang):
   XX=             -5.8239   YY=              4.8325   ZZ=              0.9914
   XY=             -9.7880   XZ=             10.6251   YZ=             -5.1794
 Octapole moment (field-independent basis, Debye-Ang**2):
  XXX=            -45.0768  YYY=             53.0919  ZZZ=              3.2719  XYY=             -7.8407
  XXY=             23.6481  XXZ=             10.7458  XZZ=             19.9391  YZZ=             11.5794
  YYZ=            -18.4363  XYZ=              8.5356
 Hexadecapole moment (field-independent basis, Debye-Ang**3):
 XXXX=          -2275.2332 YYYY=          -1381.9445 ZZZZ=           -246.1045 XXXY=           -105.9895
 XXXZ=            151.7839 YYYX=            -73.4792 YYYZ=            -84.4772 ZZZX=             40.0269
 ZZZY=            -12.0197 XXYY=           -516.0307 XXZZ=           -355.4108 YYZZ=           -258.2795
 XXYZ=             -7.7935 YYXZ=             12.2691 ZZXY=             -2.2061
 N-N= 1.103226876099D+03 E-N=-4.178802725308D+03  KE= 8.328515907662D+02
  Exact polarizability:   0.000   0.000   0.000   0.000   0.000   0.000
 Approx polarizability: 139.338   1.073 139.281   6.102   4.426 123.849

 This type of calculation cannot be archived.


 THERE IS SOMETHING FASCINATING ABOUT SCIENCE.
 ONE GETS SUCH WHOLESALE CONJECTURE OUT OF SUCH TRIFLING INVESTMENTS.

                                                       -- MARK TWAIN
 Job cpu time:       0 days  1 hours  2 minutes 51.3 seconds.
 File lengths (MBytes):  RWF=    220 Int=      0 D2E=      0 Chk=      9 Scr=      1
 Normal termination of Gaussian 09 at Sat Jan 14 00:56:29 2017.
