 Entering Gaussian System, Link 0=g09
 Initial command:
 /global/software/gaussian/g09.e01/l1.exe "/scratch/10461040.yak.local/Gau-9860.inp" -scrdir="/scratch/10461040.yak.local/"
 Entering Link 1 = /global/software/gaussian/g09.e01/l1.exe PID=      9861.
  
 Copyright (c) 1988,1990,1992,1993,1995,1998,2003,2009,2015,
            Gaussian, Inc.  All Rights Reserved.
  
 This is part of the Gaussian(R) 09 program.  It is based on
 the Gaussian(R) 03 system (copyright 2003, Gaussian, Inc.),
 the Gaussian(R) 98 system (copyright 1998, Gaussian, Inc.),
 the Gaussian(R) 94 system (copyright 1995, Gaussian, Inc.),
 the Gaussian 92(TM) system (copyright 1992, Gaussian, Inc.),
 the Gaussian 90(TM) system (copyright 1990, Gaussian, Inc.),
 the Gaussian 88(TM) system (copyright 1988, Gaussian, Inc.),
 the Gaussian 86(TM) system (copyright 1986, Carnegie Mellon
 University), and the Gaussian 82(TM) system (copyright 1983,
 Carnegie Mellon University). Gaussian is a federally registered
 trademark of Gaussian, Inc.
  
 This software contains proprietary and confidential information,
 including trade secrets, belonging to Gaussian, Inc.
  
 This software is provided under written license and may be
 used, copied, transmitted, or stored only in accord with that
 written license.
  
 The following legend is applicable only to US Government
 contracts under FAR:
  
                    RESTRICTED RIGHTS LEGEND
  
 Use, reproduction and disclosure by the US Government is
 subject to restrictions as set forth in subparagraphs (a)
 and (c) of the Commercial Computer Software - Restricted
 Rights clause in FAR 52.227-19.
  
 Gaussian, Inc.
 340 Quinnipiac St., Bldg. 40, Wallingford CT 06492
  
  
 ---------------------------------------------------------------
 Warning -- This program may not be used in any manner that
 competes with the business of Gaussian, Inc. or will provide
 assistance to any competitor of Gaussian, Inc.  The licensee
 of this program is prohibited from giving any competitor of
 Gaussian, Inc. access to this program.  By using this program,
 the user acknowledges that Gaussian, Inc. is engaged in the
 business of creating and licensing software in the field of
 computational chemistry and represents and warrants to the
 licensee that it is not a competitor of Gaussian, Inc. and that
 it will not use this program in any manner prohibited above.
 ---------------------------------------------------------------
  

 Cite this work as:
 Gaussian 09, Revision E.01,
 M. J. Frisch, G. W. Trucks, H. B. Schlegel, G. E. Scuseria, 
 M. A. Robb, J. R. Cheeseman, G. Scalmani, V. Barone, B. Mennucci, 
 G. A. Petersson, H. Nakatsuji, M. Caricato, X. Li, H. P. Hratchian, 
 A. F. Izmaylov, J. Bloino, G. Zheng, J. L. Sonnenberg, M. Hada, 
 M. Ehara, K. Toyota, R. Fukuda, J. Hasegawa, M. Ishida, T. Nakajima, 
 Y. Honda, O. Kitao, H. Nakai, T. Vreven, J. A. Montgomery, Jr., 
 J. E. Peralta, F. Ogliaro, M. Bearpark, J. J. Heyd, E. Brothers, 
 K. N. Kudin, V. N. Staroverov, T. Keith, R. Kobayashi, J. Normand, 
 K. Raghavachari, A. Rendell, J. C. Burant, S. S. Iyengar, J. Tomasi, 
 M. Cossi, N. Rega, J. M. Millam, M. Klene, J. E. Knox, J. B. Cross, 
 V. Bakken, C. Adamo, J. Jaramillo, R. Gomperts, R. E. Stratmann, 
 O. Yazyev, A. J. Austin, R. Cammi, C. Pomelli, J. W. Ochterski, 
 R. L. Martin, K. Morokuma, V. G. Zakrzewski, G. A. Voth, 
 P. Salvador, J. J. Dannenberg, S. Dapprich, A. D. Daniels, 
 O. Farkas, J. B. Foresman, J. V. Ortiz, J. Cioslowski, 
 and D. J. Fox, Gaussian, Inc., Wallingford CT, 2013.
 
 ******************************************
 Gaussian 09:  ES64L-G09RevE.01 30-Nov-2015
                13-Jan-2017 
 ******************************************
 -------------------------------------
 # b3lyp/6-31g(d) irc=(calcfc,forward)
 -------------------------------------
 1/10=4,14=-1,18=10,22=1,26=3,38=1,44=3/1,23;
 2/12=2,17=6,18=5,29=1,40=1/2;
 3/5=1,6=6,7=1,11=2,16=1,25=1,30=1,71=2,74=-5,140=1/1,2,3;
 4//1;
 5/5=2,38=5/2;
 8/6=4,10=90,11=11/1;
 11/6=1,8=1,9=11,15=111,16=1/1,2,10;
 10/6=1,13=1/2;
 6/7=2,8=2,9=2,10=2,28=1/1;
 7/10=1,18=20,25=1/1,2,3,16;
 1/10=4,14=-1,18=10,22=1,26=3,44=3/23(2);
 2/29=1/2;
 99/5=20/99;
 2/29=1/2;
 3/5=1,6=6,7=1,11=2,16=1,25=1,30=1,71=2,74=-5,140=1/1,2,3;
 4/5=5,16=3,69=1/1;
 5/5=2,38=5/2;
 8/6=4,10=90,11=11/1;
 11/6=1,8=1,9=11,15=111,16=1/1,2,10;
 10/6=1,13=1/2;
 7/10=1,18=20,25=1/1,2,3,16;
 1/14=-1,18=10,22=1,26=3,44=3/23(-8);
 2/29=1/2;
 6/7=2,8=2,9=2,10=2,19=2,28=1/1;
 99/5=20,9=1/99;
 --------------------------------
 glo_2w_beta_ts_boat1_B3LYP_631Gd
 --------------------------------
 Symbolic Z-matrix:
 Charge =  0 Multiplicity = 1
 1                     0.42646   1.58072   1.54322 
 6                     0.08848   1.12427   0.60397 
 6                     1.88666  -0.57472   0.25787 
 6                    -0.52163  -1.38257  -0.16605 
 6                     0.98074  -1.70112  -0.24096 
 8                    -0.61841  -0.07767   0.95707 
 6                     1.35466   0.77815  -0.20092 
 1                    -1.04773  -2.08053   0.5023 
 1                     1.20011  -1.84843  -1.30791 
 1                     1.1173    0.72458  -1.27399 
 6                    -0.8017    2.11889  -0.14428 
 1                    -1.67405   2.39115   0.465 
 1                    -1.1524    1.65432  -1.07537 
 8                    -1.08981  -1.04609  -1.27741 
 1                     1.89548  -0.60063   1.35869 
 8                     0.02218   3.26312  -0.4067 
 1                    -0.46073   3.86198  -0.99464 
 8                     1.19765  -2.90018   0.49203 
 1                     2.14861  -3.08699   0.42911 
 8                     3.1889   -0.82373  -0.25305 
 1                     3.67365   0.01436  -0.15471 
 8                     2.37821   1.74001   0.02807 
 1                     2.00674   2.59386  -0.25723 
 8                    -3.01061   0.20025   1.21009 
 1                    -2.36418  -1.07285  -1.13794 
 1                    -1.78553   0.08625   1.15194 
 1                    -3.34425  -0.28554   1.98109 
 8                    -3.47726  -1.0149   -0.82985 
 1                    -3.35685  -0.35735   0.24786 
 1                    -3.93273  -0.47878  -1.49723 
 
 IRC-IRC-IRC-IRC-IRC-IRC-IRC-IRC-IRC-IRC-IRC-IRC-IRC-IRC-IRC-IRC-IRC-IRC
 ------------------------------------------------------------------------
 INPUT DATA FOR L123
 ------------------------------------------------------------------------
 GENERAL PARAMETERS:
 Rxn path following direction = Forward
 Maximum points per path      =  10
 Step size                    =   0.100 bohr
 Integration scheme           = HPC                                 
    Redo corrector integration= Yes                                 
    DWI Weight Power          =  2
    DWI will use Hessian update vectors when possible.
    Max correction cycles     =  20
 Initial Hessian              = CalcFC
 Hessian evaluation           = All updating
 Hessian updating method      = Bofill                              
 ------------------------------------------------------------------------
 IRC-IRC-IRC-IRC-IRC-IRC-IRC-IRC-IRC-IRC-IRC-IRC-IRC-IRC-IRC-IRC-IRC-IRC
                          Input orientation:                          
 ---------------------------------------------------------------------
 Center     Atomic      Atomic             Coordinates (Angstroms)
 Number     Number       Type             X           Y           Z
 ---------------------------------------------------------------------
      1          1           0        0.426460    1.580720    1.543217
      2          6           0        0.088480    1.124274    0.603970
      3          6           0        1.886662   -0.574722    0.257869
      4          6           0       -0.521630   -1.382567   -0.166046
      5          6           0        0.980741   -1.701123   -0.240961
      6          8           0       -0.618411   -0.077667    0.957071
      7          6           0        1.354657    0.778145   -0.200922
      8          1           0       -1.047726   -2.080527    0.502298
      9          1           0        1.200113   -1.848429   -1.307907
     10          1           0        1.117298    0.724579   -1.273990
     11          6           0       -0.801699    2.118894   -0.144276
     12          1           0       -1.674046    2.391145    0.464996
     13          1           0       -1.152396    1.654319   -1.075373
     14          8           0       -1.089809   -1.046090   -1.277408
     15          1           0        1.895477   -0.600626    1.358686
     16          8           0        0.022179    3.263124   -0.406697
     17          1           0       -0.460732    3.861979   -0.994640
     18          8           0        1.197646   -2.900183    0.492034
     19          1           0        2.148614   -3.086993    0.429106
     20          8           0        3.188900   -0.823727   -0.253054
     21          1           0        3.673645    0.014362   -0.154713
     22          8           0        2.378211    1.740005    0.028069
     23          1           0        2.006739    2.593864   -0.257227
     24          8           0       -3.010607    0.200250    1.210093
     25          1           0       -2.364177   -1.072847   -1.137942
     26          1           0       -1.785529    0.086247    1.151943
     27          1           0       -3.344252   -0.285544    1.981090
     28          8           0       -3.477257   -1.014900   -0.829854
     29          1           0       -3.356846   -0.357353    0.247864
     30          1           0       -3.932732   -0.478783   -1.497233
 ---------------------------------------------------------------------
                    Distance matrix (angstroms):
                    1          2          3          4          5
     1  H    0.000000
     2  C    1.097615   0.000000
     3  C    2.903487   2.497966   0.000000
     4  C    3.549863   2.692473   2.575303   0.000000
     5  C    3.776376   3.081056   1.529151   1.537598   0.000000
     6  O    2.045867   1.438415   2.647893   1.724390   2.574525
     7  C    2.132533   1.539760   1.524391   2.861878   2.507626
     8  H    4.081846   3.401772   3.307239   1.100277   2.193413
     9  H    4.526203   3.705127   2.131979   2.117846   1.099180
    10  H    3.024383   2.178292   2.150976   2.890275   2.640043
    11  C    2.155374   1.530216   3.826823   3.512711   4.216512
    12  H    2.496292   2.175034   4.638740   3.995895   4.928786
    13  H    3.058630   2.154278   3.997753   3.232247   4.062697
    14  O    4.141875   3.104582   3.382106   1.292737   2.406339
    15  H    2.636348   2.609620   1.101157   2.962878   2.146324
    16  O    2.606931   2.366542   4.318218   4.683598   5.058662
    17  H    3.525900   3.217486   5.173331   5.309947   5.796031
    18  O    4.666712   4.176007   2.436667   2.385820   1.421997
    19  H    5.098490   4.691428   2.531688   3.223271   1.932240
    20  O    4.079097   3.760559   1.420869   3.753386   2.376118
    21  H    3.985054   3.828957   1.926279   4.421750   3.194066
    22  O    2.475960   2.440011   2.377475   4.265819   3.723797
    23  H    2.601027   2.565360   3.212426   4.713063   4.415863
    24  O    3.718884   3.290220   5.048817   3.254854   4.653132
    25  H    4.692301   3.725201   4.501783   2.106060   3.519628
    26  H    2.698044   2.211263   3.836826   2.343491   3.575909
    27  H    4.230005   3.958244   5.515032   3.712256   5.064281
    28  O    5.254304   4.398454   5.490767   3.051483   4.548785
    29  H    4.443813   3.767267   5.248021   3.043162   4.567201
    30  H    5.699863   4.811963   6.079057   3.771538   5.216757
                    6          7          8          9         10
     6  O    0.000000
     7  C    2.442613   0.000000
     8  H    2.098232   3.799733   0.000000
     9  H    3.401875   2.854504   2.895426   0.000000
    10  H    2.938353   1.100311   3.963729   2.574564   0.000000
    11  C    2.464029   2.539820   4.256022   4.593576   2.627340
    12  H    2.729750   3.495462   4.515475   5.420144   3.686884
    13  H    2.723186   2.796008   4.055746   4.225827   2.460767
    14  O    2.480515   3.234512   2.058928   2.426607   2.829594
    15  H    2.598925   2.150784   3.403814   3.025105   3.048395
    16  O    3.664847   2.827183   5.524995   5.322376   2.897532
    17  H    4.399415   3.665468   6.156197   5.955275   3.522995
    18  O    3.388350   3.746323   2.390321   2.084701   4.032889
    19  H    4.122040   3.995822   3.351853   2.334718   4.300259
    20  O    4.064065   2.435808   4.483202   2.473460   2.780485
    21  H    4.434668   2.441967   5.206877   3.304271   2.879601
    22  O    3.625841   1.423121   5.153484   4.006196   2.077583
    23  H    3.937386   1.930082   5.635296   4.635573   2.306326
    24  O    2.421541   4.623900   3.091249   5.316726   4.846152
    25  H    2.902957   4.258392   2.332134   3.651654   3.920449
    26  H    1.194574   3.488515   2.379349   4.325262   3.836538
    27  H    2.919253   5.288890   3.268459   5.823346   5.614385
    28  O    3.499215   5.192105   2.968638   4.775049   4.932847
    29  H    2.842574   4.867137   2.892421   5.040794   4.848152
    30  H    4.143576   5.587197   3.858363   5.315813   5.196222
                   11         12         13         14         15
    11  C    0.000000
    12  H    1.098327   0.000000
    13  H    1.098071   1.785432   0.000000
    14  O    3.374036   3.897677   2.708679   0.000000
    15  H    4.114540   4.742454   4.505436   4.007413   0.000000
    16  O    1.434190   2.096992   2.101192   4.534753   4.642670
    17  H    1.969193   2.401254   2.314882   4.956293   5.568187
    18  O    5.439982   6.020423   5.359380   3.435264   2.554607
    19  H    6.011187   6.680121   5.969938   4.191045   2.666499
    20  O    4.959408   5.873606   5.065942   4.405235   2.078563
    21  H    4.945490   5.884805   5.179551   5.007544   2.414636
    22  O    3.207037   4.127430   3.700015   4.636136   2.735348
    23  H    2.850558   3.756445   3.395915   4.886578   3.581664
    24  O    3.224094   2.672375   3.284908   3.380901   4.973243
    25  H    3.689976   3.878780   2.984923   1.282256   4.959919
    26  H    2.603797   2.407671   2.796541   2.769108   3.750246
    27  H    4.094274   3.500399   4.231934   4.034694   5.285965
    28  O    4.177235   4.065630   3.548237   2.429236   5.816150
    29  H    3.579714   3.230047   3.264564   2.817848   5.374012
    30  H    4.287399   4.145901   3.529640   2.907296   6.491467
                   16         17         18         19         20
    16  O    0.000000
    17  H    0.968250   0.000000
    18  O    6.338438   7.119498   0.000000
    19  H    6.748650   7.558039   0.971184   0.000000
    20  O    5.172435   5.985449   2.971854   2.582617   0.000000
    21  H    4.893992   5.709878   3.878585   3.504992   0.973161
    22  O    2.838979   3.688944   4.810441   4.849067   2.703510
    23  H    2.099697   2.870593   5.603622   5.723925   3.616276
    24  O    4.603585   4.977044   5.276143   6.167128   6.451606
    25  H    5.003005   5.291138   4.322333   5.184371   5.628655
    26  H    3.973627   4.540821   4.272421   5.105823   5.248525
    27  H    5.443108   5.862730   5.448161   6.358329   6.925541
    28  O    5.543158   5.736770   5.211180   6.126090   6.693795
    29  H    4.995409   5.266313   5.221973   6.147672   6.581429
    30  H    5.552698   5.581183   6.011750   6.891757   7.237721
                   21         22         23         24         25
    21  H    0.000000
    22  O    2.165503   0.000000
    23  H    3.072933   0.973889   0.000000
    24  O    6.824696   5.727773   5.749450   0.000000
    25  H    6.213216   5.635775   5.772810   2.748075   0.000000
    26  H    5.613831   4.618954   4.759748   1.231744   2.630951
    27  H    7.341831   6.376811   6.475659   0.970439   3.362849
    28  O    7.256073   6.527790   6.589787   2.419863   1.156384
    29  H    7.051811   6.110491   6.142706   1.164769   1.848724
    30  H    7.739672   6.861309   6.801183   2.939560   1.715333
                   26         27         28         29         30
    26  H    0.000000
    27  H    1.804253   0.000000
    28  O    2.828778   2.907070   0.000000
    29  H    1.866327   1.734759   1.268205   0.000000
    30  H    3.456570   3.533041   0.969677   1.841671   0.000000
 Symmetry turned off by external request.
 Stoichiometry    C6H16O8
 Framework group  C1[X(C6H16O8)]
 Deg. of freedom    84
 Full point group                 C1      NOp   1
 Rotational constants (GHZ):      0.7234118      0.5509944      0.3616061
 Standard basis: 6-31G(d) (6D, 7F)
   242 basis functions,   456 primitive gaussians,   242 cartesian basis functions
    58 alpha electrons       58 beta electrons
       nuclear repulsion energy      1114.0924100464 Hartrees.
 NAtoms=   30 NActive=   30 NUniq=   30 SFac= 1.00D+00 NAtFMM=   60 NAOKFM=F Big=F
 Integral buffers will be    131072 words long.
 Raffenetti 2 integral format.
 Two-electron integral symmetry is turned off.
 One-electron integrals computed using PRISM.
 NBasis=   242 RedAO= T EigKep=  1.41D-03  NBF=   242
 NBsUse=   242 1.00D-06 EigRej= -1.00D+00 NBFU=   242
 ExpMin= 1.61D-01 ExpMax= 5.48D+03 ExpMxC= 8.25D+02 IAcc=1 IRadAn=         1 AccDes= 0.00D+00
 Harris functional with IExCor=  402 and IRadAn=       1 diagonalized for initial guess.
 HarFok:  IExCor=  402 AccDes= 0.00D+00 IRadAn=         1 IDoV= 1 UseB2=F ITyADJ=14
 ICtDFT=  3500011 ScaDFX=  1.000000  1.000000  1.000000  1.000000
 FoFCou: FMM=F IPFlag=           0 FMFlag=      100000 FMFlg1=           0
         NFxFlg=           0 DoJE=T BraDBF=F KetDBF=T FulRan=T
         wScrn=  0.000000 ICntrl=     500 IOpCl=  0 I1Cent=   200000004 NGrid=           0
         NMat0=    1 NMatS0=      1 NMatT0=    0 NMatD0=    1 NMtDS0=    0 NMtDT0=    0
 Symmetry not used in FoFCou.
 Requested convergence on RMS density matrix=1.00D-08 within 128 cycles.
 Requested convergence on MAX density matrix=1.00D-06.
 Requested convergence on             energy=1.00D-06.
 No special actions if energy rises.
 Integral accuracy reduced to 1.0D-05 until final iterations.
 Initial convergence to 1.0D-05 achieved.  Increase integral accuracy.
 SCF Done:  E(RB3LYP) =  -839.962047726     A.U. after   14 cycles
            NFock= 14  Conv=0.46D-08     -V/T= 2.0086
 DoSCS=F DFT=T ScalE2(SS,OS)=  1.000000  1.000000
 Range of M.O.s used for correlation:     1   242
 NBasis=   242 NAE=    58 NBE=    58 NFC=     0 NFV=     0
 NROrb=    242 NOA=    58 NOB=    58 NVA=   184 NVB=   184
 Symmetrizing basis deriv contribution to polar:
 IMax=3 JMax=2 DiffMx= 0.00D+00
 G2DrvN: will do    31 centers at a time, making    1 passes.
 Calling FoFCou, ICntrl=  3107 FMM=F I1Cent=   0 AccDes= 0.00D+00.
 End of G2Drv F.D. properties file   721 does not exist.
 End of G2Drv F.D. properties file   722 does not exist.
 End of G2Drv F.D. properties file   788 does not exist.
          IDoAtm=111111111111111111111111111111
          Differentiating once with respect to nuclear coordinates.
          There are    93 degrees of freedom in the 1st order CPHF.  IDoFFX=6 NUNeed=     0.
     87 vectors produced by pass  0 Test12= 1.15D-14 1.08D-09 XBig12= 1.43D-01 6.16D-02.
 AX will form    87 AO Fock derivatives at one time.
     87 vectors produced by pass  1 Test12= 1.15D-14 1.08D-09 XBig12= 1.09D-02 1.26D-02.
     87 vectors produced by pass  2 Test12= 1.15D-14 1.08D-09 XBig12= 1.45D-04 1.66D-03.
     87 vectors produced by pass  3 Test12= 1.15D-14 1.08D-09 XBig12= 3.23D-07 5.84D-05.
     87 vectors produced by pass  4 Test12= 1.15D-14 1.08D-09 XBig12= 5.02D-10 2.16D-06.
     66 vectors produced by pass  5 Test12= 1.15D-14 1.08D-09 XBig12= 4.14D-13 5.32D-08.
      2 vectors produced by pass  6 Test12= 1.15D-14 1.08D-09 XBig12= 3.61D-16 1.46D-09.
 InvSVY:  IOpt=1 It=  1 EMax= 5.00D-16
 Solved reduced A of dimension   503 with    93 vectors.
 End of Minotr F.D. properties file   721 does not exist.
 End of Minotr F.D. properties file   722 does not exist.
 End of Minotr F.D. properties file   788 does not exist.

 **********************************************************************

            Population analysis using the SCF density.

 **********************************************************************

 Alpha  occ. eigenvalues --  -19.17295 -19.17054 -19.16225 -19.14701 -19.14399
 Alpha  occ. eigenvalues --  -19.13998 -19.13828 -19.11529 -10.28430 -10.24663
 Alpha  occ. eigenvalues --  -10.24412 -10.23573 -10.23035 -10.22876  -1.05474
 Alpha  occ. eigenvalues --   -1.04090  -1.03166  -1.01826  -1.01198  -1.00511
 Alpha  occ. eigenvalues --   -0.99867  -0.97163  -0.77926  -0.75419  -0.68885
 Alpha  occ. eigenvalues --   -0.63190  -0.61590  -0.56581  -0.55339  -0.54619
 Alpha  occ. eigenvalues --   -0.54102  -0.53268  -0.51721  -0.50106  -0.48502
 Alpha  occ. eigenvalues --   -0.46677  -0.45431  -0.44378  -0.43757  -0.42387
 Alpha  occ. eigenvalues --   -0.41776  -0.41704  -0.40745  -0.38354  -0.38075
 Alpha  occ. eigenvalues --   -0.35928  -0.34959  -0.34461  -0.33589  -0.32245
 Alpha  occ. eigenvalues --   -0.31062  -0.30360  -0.29361  -0.27290  -0.26770
 Alpha  occ. eigenvalues --   -0.26004  -0.25859  -0.24989
 Alpha virt. eigenvalues --    0.03252   0.05571   0.05776   0.08714   0.09404
 Alpha virt. eigenvalues --    0.11056   0.11534   0.12799   0.13917   0.14510
 Alpha virt. eigenvalues --    0.15127   0.16724   0.17358   0.18093   0.19364
 Alpha virt. eigenvalues --    0.20060   0.21421   0.21935   0.24105   0.25864
 Alpha virt. eigenvalues --    0.27121   0.28245   0.28671   0.30669   0.30810
 Alpha virt. eigenvalues --    0.32325   0.32922   0.37182   0.51583   0.52432
 Alpha virt. eigenvalues --    0.55046   0.55322   0.58063   0.59180   0.60023
 Alpha virt. eigenvalues --    0.60409   0.62815   0.64718   0.65241   0.66561
 Alpha virt. eigenvalues --    0.67977   0.69315   0.71565   0.72071   0.73413
 Alpha virt. eigenvalues --    0.74953   0.75871   0.77731   0.80281   0.80920
 Alpha virt. eigenvalues --    0.81736   0.82711   0.83619   0.84915   0.85203
 Alpha virt. eigenvalues --    0.85899   0.86668   0.87655   0.89664   0.90154
 Alpha virt. eigenvalues --    0.92128   0.92408   0.93798   0.95735   0.96359
 Alpha virt. eigenvalues --    0.97348   0.98534   0.99813   1.01088   1.03312
 Alpha virt. eigenvalues --    1.03679   1.05480   1.06833   1.07208   1.07845
 Alpha virt. eigenvalues --    1.09169   1.12803   1.13887   1.14387   1.16299
 Alpha virt. eigenvalues --    1.17883   1.21001   1.21925   1.26403   1.27639
 Alpha virt. eigenvalues --    1.30523   1.32725   1.34063   1.36498   1.39888
 Alpha virt. eigenvalues --    1.42203   1.43180   1.45470   1.48279   1.53836
 Alpha virt. eigenvalues --    1.54323   1.57833   1.58014   1.59985   1.61645
 Alpha virt. eigenvalues --    1.63536   1.65848   1.66476   1.68476   1.69468
 Alpha virt. eigenvalues --    1.70959   1.71489   1.72782   1.74012   1.74359
 Alpha virt. eigenvalues --    1.76773   1.77120   1.78171   1.79425   1.81395
 Alpha virt. eigenvalues --    1.82227   1.83195   1.85501   1.85933   1.87173
 Alpha virt. eigenvalues --    1.88845   1.89708   1.91712   1.93629   1.95783
 Alpha virt. eigenvalues --    1.97524   2.00690   2.03263   2.04941   2.05607
 Alpha virt. eigenvalues --    2.06136   2.09066   2.10182   2.12549   2.15659
 Alpha virt. eigenvalues --    2.18635   2.22261   2.24681   2.27446   2.29670
 Alpha virt. eigenvalues --    2.33288   2.34875   2.36410   2.40375   2.41598
 Alpha virt. eigenvalues --    2.42359   2.45730   2.49165   2.50651   2.52102
 Alpha virt. eigenvalues --    2.54618   2.55038   2.57229   2.57670   2.61465
 Alpha virt. eigenvalues --    2.62851   2.66276   2.68605   2.71560   2.74596
 Alpha virt. eigenvalues --    2.75372   2.79230   2.82523   2.88426   2.91281
 Alpha virt. eigenvalues --    2.95420   2.95976   3.01921   3.05768   3.10503
 Alpha virt. eigenvalues --    3.74513   3.77929   3.78488   3.87166   3.89589
 Alpha virt. eigenvalues --    3.97399   4.03277   4.15686   4.25644   4.37003
 Alpha virt. eigenvalues --    4.46006   4.50546   4.67112   4.81581
          Condensed to atoms (all electrons):
               1          2          3          4          5          6
     1  H    0.599287   0.363909  -0.007484   0.001577   0.000480  -0.032046
     2  C    0.363909   4.948923  -0.029836  -0.008825  -0.013592   0.139259
     3  C   -0.007484  -0.029836   4.947280  -0.028721   0.327457  -0.006351
     4  C    0.001577  -0.008825  -0.028721   4.799826   0.308245   0.061623
     5  C    0.000480  -0.013592   0.327457   0.308245   4.931713  -0.018021
     6  O   -0.032046   0.139259  -0.006351   0.061623  -0.018021   8.624098
     7  C   -0.045624   0.298095   0.284508  -0.004393  -0.018879  -0.025358
     8  H   -0.000199   0.003984   0.002478   0.350362  -0.062512  -0.035880
     9  H    0.000017   0.000876  -0.040504  -0.059654   0.350815   0.002268
    10  H    0.006854  -0.056294  -0.051211  -0.001168  -0.005801   0.002256
    11  C   -0.054539   0.349609   0.003721  -0.000741  -0.000192  -0.026330
    12  H   -0.006544  -0.035743  -0.000076  -0.000161  -0.000023   0.001114
    13  H    0.005790  -0.029487  -0.000275   0.000909  -0.000039  -0.000396
    14  O   -0.000150   0.006967  -0.000198   0.311731  -0.046355  -0.056843
    15  H    0.003863  -0.001430   0.347026  -0.002816  -0.047648   0.003344
    16  O    0.004143  -0.047454   0.000220   0.000021  -0.000003   0.001155
    17  H   -0.000245   0.005389   0.000005  -0.000001   0.000000  -0.000081
    18  O    0.000005   0.000046  -0.033697  -0.032705   0.220289   0.000571
    19  H   -0.000002  -0.000020  -0.007040   0.006905  -0.026609  -0.000141
    20  O   -0.000077   0.002914   0.232015   0.002875  -0.043840   0.000080
    21  H    0.000017   0.000779  -0.030294  -0.000246   0.006267  -0.000021
    22  O    0.005541  -0.040834  -0.032927   0.000095   0.001972   0.001417
    23  H    0.000476  -0.005236   0.005273   0.000008  -0.000166  -0.000004
    24  O    0.000037   0.004317   0.000004   0.005349   0.000067  -0.098430
    25  H    0.000009  -0.000300  -0.000072  -0.018839   0.002572   0.003152
    26  H   -0.001598  -0.007949   0.000274  -0.002674   0.001111   0.108232
    27  H    0.000011  -0.000049  -0.000001  -0.000102   0.000007   0.004209
    28  O   -0.000000  -0.000016   0.000000   0.009721  -0.000138  -0.001050
    29  H    0.000006  -0.000359  -0.000002  -0.000124   0.000087   0.005494
    30  H   -0.000000  -0.000006   0.000000  -0.000385   0.000002   0.000001
               7          8          9         10         11         12
     1  H   -0.045624  -0.000199   0.000017   0.006854  -0.054539  -0.006544
     2  C    0.298095   0.003984   0.000876  -0.056294   0.349609  -0.035743
     3  C    0.284508   0.002478  -0.040504  -0.051211   0.003721  -0.000076
     4  C   -0.004393   0.350362  -0.059654  -0.001168  -0.000741  -0.000161
     5  C   -0.018879  -0.062512   0.350815  -0.005801  -0.000192  -0.000023
     6  O   -0.025358  -0.035880   0.002268   0.002256  -0.026330   0.001114
     7  C    5.017293   0.000313  -0.004658   0.356385  -0.035513   0.005818
     8  H    0.000313   0.634992   0.004792   0.000222  -0.000149   0.000008
     9  H   -0.004658   0.004792   0.611235   0.006977   0.000029  -0.000000
    10  H    0.356385   0.000222   0.006977   0.632039  -0.006496   0.000189
    11  C   -0.035513  -0.000149   0.000029  -0.006496   4.972669   0.359208
    12  H    0.005818   0.000008  -0.000000   0.000189   0.359208   0.598217
    13  H   -0.012128   0.000138   0.000014   0.004711   0.351240  -0.047857
    14  O    0.000359  -0.044739   0.006889   0.005143  -0.003628   0.000125
    15  H   -0.056121   0.000066   0.007698   0.007501   0.000287   0.000006
    16  O    0.008098   0.000001  -0.000000   0.000807   0.204060  -0.033438
    17  H   -0.000005  -0.000000   0.000000  -0.000083  -0.018965  -0.002194
    18  O    0.004229   0.008811  -0.036991   0.000022  -0.000000  -0.000000
    19  H    0.000485  -0.000513  -0.003595  -0.000021   0.000000  -0.000000
    20  O   -0.029063  -0.000077   0.000216   0.000320  -0.000044   0.000000
    21  H   -0.015684   0.000007  -0.000092   0.000465  -0.000018   0.000000
    22  O    0.213389   0.000002  -0.000141  -0.040534  -0.000275  -0.000213
    23  H   -0.023399  -0.000000   0.000007  -0.002985  -0.003026   0.000232
    24  O   -0.000124   0.001870   0.000002   0.000008  -0.001000   0.005334
    25  H   -0.000042  -0.006442   0.000030  -0.000021   0.000256  -0.000054
    26  H    0.001742  -0.000925  -0.000072  -0.000186  -0.001034   0.002029
    27  H    0.000004   0.000301  -0.000000  -0.000000  -0.000020   0.000003
    28  O    0.000002   0.003742   0.000003   0.000004  -0.000215   0.000024
    29  H    0.000016  -0.001045  -0.000003  -0.000005   0.000168   0.000285
    30  H   -0.000000  -0.000149  -0.000001  -0.000001   0.000035  -0.000025
              13         14         15         16         17         18
     1  H    0.005790  -0.000150   0.003863   0.004143  -0.000245   0.000005
     2  C   -0.029487   0.006967  -0.001430  -0.047454   0.005389   0.000046
     3  C   -0.000275  -0.000198   0.347026   0.000220   0.000005  -0.033697
     4  C    0.000909   0.311731  -0.002816   0.000021  -0.000001  -0.032705
     5  C   -0.000039  -0.046355  -0.047648  -0.000003   0.000000   0.220289
     6  O   -0.000396  -0.056843   0.003344   0.001155  -0.000081   0.000571
     7  C   -0.012128   0.000359  -0.056121   0.008098  -0.000005   0.004229
     8  H    0.000138  -0.044739   0.000066   0.000001  -0.000000   0.008811
     9  H    0.000014   0.006889   0.007698  -0.000000   0.000000  -0.036991
    10  H    0.004711   0.005143   0.007501   0.000807  -0.000083   0.000022
    11  C    0.351240  -0.003628   0.000287   0.204060  -0.018965  -0.000000
    12  H   -0.047857   0.000125   0.000006  -0.033438  -0.002194  -0.000000
    13  H    0.598405   0.009714   0.000010  -0.030641  -0.005172   0.000000
    14  O    0.009714   8.383817   0.000057   0.000021  -0.000002   0.000774
    15  H    0.000010   0.000057   0.650772  -0.000011   0.000001   0.002463
    16  O   -0.030641   0.000021  -0.000011   8.272506   0.235921   0.000000
    17  H   -0.005172  -0.000002   0.000001   0.235921   0.377905  -0.000000
    18  O    0.000000   0.000774   0.002463   0.000000  -0.000000   8.278620
    19  H    0.000000  -0.000130  -0.000493   0.000000  -0.000000   0.237373
    20  O   -0.000002  -0.000020  -0.046013  -0.000000   0.000000  -0.000907
    21  H   -0.000000   0.000002  -0.000373   0.000004  -0.000000  -0.000115
    22  O    0.000124   0.000014  -0.000633  -0.009610   0.000436  -0.000011
    23  H    0.000374  -0.000000  -0.000252   0.033673  -0.001118   0.000001
    24  O   -0.000124  -0.001916   0.000004   0.000015   0.000001   0.000000
    25  H    0.000134   0.129654   0.000003  -0.000001  -0.000000  -0.000059
    26  H   -0.000075   0.004669  -0.000093  -0.000046  -0.000001  -0.000037
    27  H    0.000015   0.000013  -0.000001  -0.000001  -0.000000  -0.000000
    28  O    0.000743  -0.098214  -0.000000   0.000000   0.000000   0.000001
    29  H    0.000159   0.005868  -0.000000   0.000001  -0.000001  -0.000001
    30  H    0.000142   0.004668   0.000000  -0.000000  -0.000000  -0.000000
              19         20         21         22         23         24
     1  H   -0.000002  -0.000077   0.000017   0.005541   0.000476   0.000037
     2  C   -0.000020   0.002914   0.000779  -0.040834  -0.005236   0.004317
     3  C   -0.007040   0.232015  -0.030294  -0.032927   0.005273   0.000004
     4  C    0.006905   0.002875  -0.000246   0.000095   0.000008   0.005349
     5  C   -0.026609  -0.043840   0.006267   0.001972  -0.000166   0.000067
     6  O   -0.000141   0.000080  -0.000021   0.001417  -0.000004  -0.098430
     7  C    0.000485  -0.029063  -0.015684   0.213389  -0.023399  -0.000124
     8  H   -0.000513  -0.000077   0.000007   0.000002  -0.000000   0.001870
     9  H   -0.003595   0.000216  -0.000092  -0.000141   0.000007   0.000002
    10  H   -0.000021   0.000320   0.000465  -0.040534  -0.002985   0.000008
    11  C    0.000000  -0.000044  -0.000018  -0.000275  -0.003026  -0.001000
    12  H   -0.000000   0.000000   0.000000  -0.000213   0.000232   0.005334
    13  H    0.000000  -0.000002  -0.000000   0.000124   0.000374  -0.000124
    14  O   -0.000130  -0.000020   0.000002   0.000014  -0.000000  -0.001916
    15  H   -0.000493  -0.046013  -0.000373  -0.000633  -0.000252   0.000004
    16  O    0.000000  -0.000000   0.000004  -0.009610   0.033673   0.000015
    17  H   -0.000000   0.000000  -0.000000   0.000436  -0.001118   0.000001
    18  O    0.237373  -0.000907  -0.000115  -0.000011   0.000001   0.000000
    19  H    0.377823   0.009072  -0.000319  -0.000001   0.000000  -0.000000
    20  O    0.009072   8.308149   0.236158  -0.007867   0.000177   0.000000
    21  H   -0.000319   0.236158   0.361174   0.027359  -0.000731  -0.000000
    22  O   -0.000001  -0.007867   0.027359   8.323789   0.231569   0.000000
    23  H    0.000000   0.000177  -0.000731   0.231569   0.343290  -0.000000
    24  O   -0.000000   0.000000  -0.000000   0.000000  -0.000000   8.529779
    25  H    0.000004   0.000000  -0.000000  -0.000000   0.000000   0.005955
    26  H    0.000004   0.000001   0.000000  -0.000018  -0.000000   0.133192
    27  H    0.000000  -0.000000   0.000000  -0.000000   0.000000   0.229778
    28  O   -0.000000  -0.000000   0.000000   0.000000  -0.000000  -0.101538
    29  H    0.000000   0.000000  -0.000000  -0.000000   0.000000   0.127622
    30  H    0.000000   0.000000  -0.000000  -0.000000   0.000000   0.004282
              25         26         27         28         29         30
     1  H    0.000009  -0.001598   0.000011  -0.000000   0.000006  -0.000000
     2  C   -0.000300  -0.007949  -0.000049  -0.000016  -0.000359  -0.000006
     3  C   -0.000072   0.000274  -0.000001   0.000000  -0.000002   0.000000
     4  C   -0.018839  -0.002674  -0.000102   0.009721  -0.000124  -0.000385
     5  C    0.002572   0.001111   0.000007  -0.000138   0.000087   0.000002
     6  O    0.003152   0.108232   0.004209  -0.001050   0.005494   0.000001
     7  C   -0.000042   0.001742   0.000004   0.000002   0.000016  -0.000000
     8  H   -0.006442  -0.000925   0.000301   0.003742  -0.001045  -0.000149
     9  H    0.000030  -0.000072  -0.000000   0.000003  -0.000003  -0.000001
    10  H   -0.000021  -0.000186  -0.000000   0.000004  -0.000005  -0.000001
    11  C    0.000256  -0.001034  -0.000020  -0.000215   0.000168   0.000035
    12  H   -0.000054   0.002029   0.000003   0.000024   0.000285  -0.000025
    13  H    0.000134  -0.000075   0.000015   0.000743   0.000159   0.000142
    14  O    0.129654   0.004669   0.000013  -0.098214   0.005868   0.004668
    15  H    0.000003  -0.000093  -0.000001  -0.000000  -0.000000   0.000000
    16  O   -0.000001  -0.000046  -0.000001   0.000000   0.000001  -0.000000
    17  H   -0.000000  -0.000001  -0.000000   0.000000  -0.000001  -0.000000
    18  O   -0.000059  -0.000037  -0.000000   0.000001  -0.000001  -0.000000
    19  H    0.000004   0.000004   0.000000  -0.000000   0.000000   0.000000
    20  O    0.000000   0.000001  -0.000000  -0.000000   0.000000   0.000000
    21  H   -0.000000   0.000000   0.000000   0.000000  -0.000000  -0.000000
    22  O   -0.000000  -0.000018  -0.000000   0.000000  -0.000000  -0.000000
    23  H    0.000000  -0.000000   0.000000  -0.000000   0.000000   0.000000
    24  O    0.005955   0.133192   0.229778  -0.101538   0.127622   0.004282
    25  H    0.304634  -0.000910  -0.000253   0.132663  -0.011049  -0.004861
    26  H   -0.000910   0.290008  -0.004371   0.005341  -0.008488  -0.000072
    27  H   -0.000253  -0.004371   0.364444   0.004326  -0.005692  -0.000157
    28  O    0.132663   0.005341   0.004326   8.529831   0.133628   0.227510
    29  H   -0.011049  -0.008488  -0.005692   0.133628   0.300561  -0.006232
    30  H   -0.004861  -0.000072  -0.000157   0.227510  -0.006232   0.378184
 Mulliken charges:
               1
     1  H    0.156487
     2  C    0.152365
     3  C    0.118429
     4  C    0.302309
     5  C    0.132735
     6  O   -0.657321
     7  C    0.080256
     8  H    0.140543
     9  H    0.153844
    10  H    0.140904
    11  C   -0.089097
    12  H    0.153738
    13  H    0.153572
    14  O   -0.618291
    15  H    0.132785
    16  O   -0.639440
    17  H    0.408211
    18  O   -0.648682
    19  H    0.407219
    20  O   -0.664065
    21  H    0.415663
    22  O   -0.672643
    23  H    0.421838
    24  O   -0.844482
    25  H    0.463836
    26  H    0.481948
    27  H    0.407534
    28  O   -0.846366
    29  H    0.459106
    30  H    0.397065
 Sum of Mulliken charges =  -0.00000
 Mulliken charges with hydrogens summed into heavy atoms:
               1
     2  C    0.308852
     3  C    0.251214
     4  C    0.442852
     5  C    0.286579
     6  O   -0.175373
     7  C    0.221160
    11  C    0.218214
    14  O   -0.618291
    16  O   -0.231230
    18  O   -0.241463
    20  O   -0.248402
    22  O   -0.250805
    24  O    0.022159
    28  O    0.014535
 APT charges:
               1
     1  H    0.451366
     2  C   -0.353861
     3  C   -0.165022
     4  C   -0.282705
     5  C   -0.220542
     6  O   -0.397345
     7  C   -0.146136
     8  H    0.438941
     9  H    0.394762
    10  H    0.287815
    11  C   -0.447709
    12  H    0.467851
    13  H    0.262020
    14  O   -0.415772
    15  H    0.331886
    16  O   -1.075344
    17  H    0.890332
    18  O   -0.912815
    19  H    0.795140
    20  O   -0.805356
    21  H    0.668230
    22  O   -0.803783
    23  H    0.624569
    24  O   -1.198299
    25  H    0.361418
    26  H    0.430365
    27  H    0.826521
    28  O   -1.161879
    29  H    0.373146
    30  H    0.782207
 Sum of APT charges =  -0.00000
 APT charges with hydrogens summed into heavy atoms:
               1
     2  C    0.097504
     3  C    0.166864
     4  C    0.156236
     5  C    0.174220
     6  O    0.033020
     7  C    0.141679
    11  C    0.282162
    14  O   -0.415772
    16  O   -0.185012
    18  O   -0.117675
    20  O   -0.137126
    22  O   -0.179214
    24  O    0.001369
    28  O   -0.018254
 Electronic spatial extent (au):  <R**2>=           3139.8237
 Charge=             -0.0000 electrons
 Dipole moment (field-independent basis, Debye):
    X=             -2.5323    Y=              3.5920    Z=              0.0340  Tot=              4.3950
 Quadrupole moment (field-independent basis, Debye-Ang):
   XX=            -78.7531   YY=            -81.0900   ZZ=            -80.2497
   XY=             -5.1508   XZ=             -0.4735   YZ=             -7.7610
 Traceless Quadrupole moment (field-independent basis, Debye-Ang):
   XX=              1.2778   YY=             -1.0591   ZZ=             -0.2188
   XY=             -5.1508   XZ=             -0.4735   YZ=             -7.7610
 Octapole moment (field-independent basis, Debye-Ang**2):
  XXX=            -35.2980  YYY=             47.7205  ZZZ=              6.0534  XYY=              0.5484
  XXY=              4.4268  XXZ=              2.4922  XZZ=            -24.3318  YZZ=              8.0099
  YYZ=            -20.3611  XYZ=             10.8407
 Hexadecapole moment (field-independent basis, Debye-Ang**3):
 XXXX=          -1749.5561 YYYY=          -1278.5278 ZZZZ=           -304.1344 XXXY=            -13.2501
 XXXZ=             25.3155 YYYX=            -73.9787 YYYZ=            -80.8887 ZZZX=            -15.8814
 ZZZY=            -17.3314 XXYY=           -544.7007 XXZZ=           -288.3885 YYZZ=           -274.8160
 XXYZ=            -55.9100 YYXZ=              0.3246 ZZXY=              8.7385
 N-N= 1.114092410046D+03 E-N=-4.201238663085D+03  KE= 8.328157173889D+02
  Exact polarizability:   0.000   0.000   0.000   0.000   0.000   0.000
 Approx polarizability: 140.342   1.982 130.534   2.917  -0.212 130.172
 Calling FoFJK, ICntrl=    100147 FMM=F ISym2X=0 I1Cent= 0 IOpClX= 0 NMat=1 NMatS=1 NMatT=0.
 -------------------------------------------------------------------
 Center     Atomic                   Forces (Hartrees/Bohr)
 Number     Number              X              Y              Z
 -------------------------------------------------------------------
      1        1          -0.000000320   -0.000000360    0.000000729
      2        6          -0.000000943    0.000000276    0.000000620
      3        6           0.000001574   -0.000001269   -0.000001566
      4        6          -0.000000991   -0.000000515   -0.000004045
      5        6           0.000003286   -0.000000759   -0.000004511
      6        8          -0.000001976   -0.000000622   -0.000000901
      7        6          -0.000000963    0.000001000    0.000000620
      8        1           0.000001063   -0.000000022   -0.000000881
      9        1          -0.000000602    0.000001425    0.000003753
     10        1           0.000000502    0.000001225    0.000002318
     11        6          -0.000002178   -0.000000625    0.000004310
     12        1           0.000000765   -0.000000278    0.000000524
     13        1          -0.000001243   -0.000000149    0.000001067
     14        8           0.000001671   -0.000000179    0.000002016
     15        1           0.000000024    0.000000226   -0.000002666
     16        8          -0.000006290    0.000004768    0.000000583
     17        1           0.000002757   -0.000002787    0.000006960
     18        8           0.000001574    0.000005624   -0.000008395
     19        1           0.000000494    0.000000815   -0.000002644
     20        8          -0.000000785    0.000004658   -0.000001643
     21        1          -0.000001442   -0.000000736   -0.000000044
     22        8          -0.000014852    0.000025630   -0.000002854
     23        1           0.000011527   -0.000021756    0.000007234
     24        8           0.000014892   -0.000009033   -0.000037020
     25        1          -0.000000616    0.000000690    0.000000399
     26        1          -0.000000143   -0.000002105   -0.000000249
     27        1          -0.000012854   -0.000012605    0.000026910
     28        8           0.000015627    0.000004992    0.000021853
     29        1           0.000001835   -0.000001210    0.000002773
     30        1          -0.000011394    0.000003680   -0.000015250
 -------------------------------------------------------------------
 Cartesian Forces:  Max     0.000037020 RMS     0.000008032
 IRC-IRC-IRC-IRC-IRC-IRC-IRC-IRC-IRC-IRC-IRC-IRC-IRC-IRC-IRC-IRC-IRC-IRC
          ******** Start new reaction path calculation ********
 Supplied step size of   0.1000 bohr.
    Integration on MW PES will use step size of   0.1052 sqrt(amu)*bohr.
 Point Number:   0          Path Number:   1
 Calculating another point on the path.
 IRC-IRC-IRC-IRC-IRC-IRC-IRC-IRC-IRC-IRC-IRC-IRC-IRC-IRC-IRC-IRC-IRC-IRC
                          Input orientation:                          
 ---------------------------------------------------------------------
 Center     Atomic      Atomic             Coordinates (Angstroms)
 Number     Number       Type             X           Y           Z
 ---------------------------------------------------------------------
      1          1           0        0.395456    1.594109    1.543262
      2          6           0        0.057863    1.137712    0.603684
      3          6           0        1.856077   -0.560466    0.257745
      4          6           0       -0.551688   -1.366444   -0.163285
      5          6           0        0.950008   -1.686899   -0.241269
      6          8           0       -0.648559   -0.064468    0.955852
      7          6           0        1.324135    0.792485   -0.200997
      8          1           0       -1.077930   -2.066891    0.501272
      9          1           0        1.169490   -1.834375   -1.308249
     10          1           0        1.087026    0.738873   -1.274259
     11          6           0       -0.832199    2.133029   -0.144324
     12          1           0       -1.704532    2.405250    0.464984
     13          1           0       -1.183012    1.668763   -1.075575
     14          8           0       -1.122028   -1.031915   -1.278081
     15          1           0        1.864709   -0.586506    1.358487
     16          8           0       -0.008385    3.277358   -0.406812
     17          1           0       -0.491310    3.876290   -0.994653
     18          8           0        1.167023   -2.885979    0.491875
     19          1           0        2.118069   -3.072503    0.429062
     20          8           0        3.158334   -0.809563   -0.253157
     21          1           0        3.642911    0.028636   -0.154887
     22          8           0        2.347757    1.754221    0.027924
     23          1           0        1.976029    2.608058   -0.257078
     24          8           0       -3.040033    0.214462    1.210100
     25          1           0       -2.366298   -1.058214   -1.140891
     26          1           0       -1.846516    0.102286    1.156606
     27          1           0       -3.372556   -0.270746    1.982052
     28          8           0       -3.507718   -0.999977   -0.828592
     29          1           0       -3.392671   -0.357884    0.220434
     30          1           0       -3.963957   -0.463066   -1.495033
 ---------------------------------------------------------------------
                    Distance matrix (angstroms):
                    1          2          3          4          5
     1  H    0.000000
     2  C    1.097758   0.000000
     3  C    2.903130   2.497410   0.000000
     4  C    3.546020   2.688976   2.573752   0.000000
     5  C    3.775857   3.080308   1.529323   1.537487   0.000000
     6  O    2.045946   1.438156   2.646992   1.719591   2.573091
     7  C    2.132483   1.539525   1.524429   2.860264   2.507776
     8  H    4.081608   3.401469   3.307116   1.099632   2.192782
     9  H    4.526008   3.704660   2.132273   2.119518   1.099258
    10  H    3.024587   2.178284   2.150990   2.889984   2.640116
    11  C    2.155346   1.530485   3.826670   3.510749   4.216339
    12  H    2.496113   2.175299   4.638572   3.993675   4.928596
    13  H    3.058667   2.154460   3.997908   3.231613   4.062796
    14  O    4.142310   3.104910   3.383805   1.296135   2.407762
    15  H    2.635893   2.609090   1.101084   2.960249   2.146337
    16  O    2.607528   2.367187   4.318188   4.681813   5.058633
    17  H    3.526431   3.218087   5.173348   5.308585   5.796038
    18  O    4.666039   4.175264   2.436723   2.385832   1.422107
    19  H    5.097657   4.690506   2.531466   3.223215   1.932254
    20  O    4.079002   3.760183   1.420895   3.752660   2.376250
    21  H    3.985020   3.828583   1.926158   4.420519   3.194097
    22  O    2.476563   2.440327   2.377465   4.264023   3.723905
    23  H    2.601447   2.565577   3.212316   4.711137   4.415838
    24  O    3.717124   3.288935   5.047711   3.252277   4.652104
    25  H    4.676193   3.707046   4.475755   2.084112   3.493200
    26  H    2.720566   2.237072   3.867349   2.361325   3.602192
    27  H    4.227071   3.956188   5.513236   3.709490   5.062924
    28  O    5.252594   4.397102   5.490319   3.052056   4.548421
    29  H    4.462069   3.780195   5.252789   3.039016   4.564900
    30  H    5.698043   4.810629   6.079023   3.772694   5.216967
                    6          7          8          9         10
     6  O    0.000000
     7  C    2.442169   0.000000
     8  H    2.097784   3.799885   0.000000
     9  H    3.400592   2.854876   2.894706   0.000000
    10  H    2.937858   1.100448   3.963818   2.574794   0.000000
    11  C    2.464367   2.539693   4.256349   4.593667   2.627518
    12  H    2.730483   3.495334   4.515970   5.420219   3.687082
    13  H    2.723311   2.796164   4.056180   4.226154   2.461147
    14  O    2.480037   3.236087   2.058935   2.428149   2.831188
    15  H    2.598299   2.150774   3.403745   3.025226   3.048405
    16  O    3.665307   2.827111   5.525353   5.322574   2.897636
    17  H    4.399860   3.665458   6.156567   5.955526   3.523168
    18  O    3.387113   3.746446   2.389730   2.084784   4.033012
    19  H    4.120681   3.995678   3.351250   2.334740   4.300109
    20  O    4.063164   2.435892   4.482852   2.473654   2.780400
    21  H    4.433861   2.441786   5.206546   3.304372   2.879233
    22  O    3.625822   1.423075   5.153666   4.006456   2.077511
    23  H    3.937265   1.929874   5.635326   4.635804   2.306260
    24  O    2.421073   4.622907   3.091416   5.316004   4.845582
    25  H    2.886951   4.234121   2.318193   3.623841   3.895222
    26  H    1.226055   3.517455   2.392804   4.349995   3.862644
    27  H    2.918183   5.287255   3.268662   5.822473   5.613445
    28  O    3.497743   5.191685   2.968285   4.775203   4.932940
    29  H    2.856061   4.873316   2.890952   5.032913   4.848162
    30  H    4.142171   5.587026   3.858321   5.316733   5.196714
                   11         12         13         14         15
    11  C    0.000000
    12  H    1.098329   0.000000
    13  H    1.098108   1.785419   0.000000
    14  O    3.374356   3.897651   2.708946   0.000000
    15  H    4.114320   4.742197   4.505497   4.008800   0.000000
    16  O    1.434244   2.097025   2.101088   4.535322   4.642651
    17  H    1.969321   2.401335   2.314774   4.956674   5.568182
    18  O    5.439860   6.020270   5.359593   3.436576   2.554477
    19  H    6.010858   6.679771   5.969981   4.192441   2.666121
    20  O    4.959339   5.873518   5.066139   4.406973   2.078609
    21  H    4.945219   5.884529   5.179500   5.009090   2.414685
    22  O    3.207068   4.127457   3.700182   4.637629   2.735459
    23  H    2.850352   3.756199   3.395843   4.887720   3.581575
    24  O    3.223337   2.671762   3.284483   3.379828   4.971928
    25  H    3.678402   3.874577   2.973354   1.252086   4.936681
    26  H    2.616329   2.408764   2.806550   2.781904   3.779998
    27  H    4.093046   3.499250   4.231415   4.033945   5.283700
    28  O    4.176405   4.064528   3.547877   2.427875   5.815260
    29  H    3.590782   3.247233   3.266424   2.802799   5.384003
    30  H    4.286261   4.144141   3.529064   2.906410   6.490853
                   16         17         18         19         20
    16  O    0.000000
    17  H    0.968243   0.000000
    18  O    6.338449   7.119559   0.000000
    19  H    6.748423   7.557880   0.971197   0.000000
    20  O    5.172489   5.985561   2.971850   2.582338   0.000000
    21  H    4.893835   5.709766   3.878570   3.504741   0.973165
    22  O    2.839075   3.689057   4.810492   4.848807   2.703522
    23  H    2.099591   2.870573   5.603558   5.723612   3.616351
    24  O    4.602893   4.976537   5.275216   6.166050   6.450543
    25  H    4.989570   5.280748   4.300117   5.160586   5.601023
    26  H    3.987992   4.550562   4.295697   5.130939   5.278960
    27  H    5.441815   5.861762   5.446820   6.356774   6.923800
    28  O    5.542456   5.736225   5.210935   6.125890   6.693552
    29  H    5.006177   5.274710   5.220705   6.146620   6.583614
    30  H    5.551716   5.580293   6.012094   6.892194   7.238049
                   21         22         23         24         25
    21  H    0.000000
    22  O    2.165291   0.000000
    23  H    3.072842   0.973882   0.000000
    24  O    6.823450   5.726838   5.748286   0.000000
    25  H    6.185794   5.612328   5.751389   2.756951   0.000000
    26  H    5.644400   4.647014   4.784270   1.199970   2.625914
    27  H    7.339817   6.375035   6.473683   0.970519   3.374230
    28  O    7.255579   6.527313   6.589084   2.418647   1.184805
    29  H    7.056181   6.119686   6.152054   1.196399   1.843125
    30  H    7.739652   6.861013   6.800571   2.937758   1.741302
                   26         27         28         29         30
    26  H    0.000000
    27  H    1.774630   0.000000
    28  O    2.813465   2.906848   0.000000
    29  H    1.865146   1.763886   1.235304   0.000000
    30  H    3.440112   3.532260   0.969831   1.811148   0.000000
 Symmetry turned off by external request.
 Stoichiometry    C6H16O8
 Framework group  C1[X(C6H16O8)]
 Deg. of freedom    84
 Full point group                 C1      NOp   1
 Rotational constants (GHZ):      0.7235649      0.5510738      0.3616509
 Standard basis: 6-31G(d) (6D, 7F)
   242 basis functions,   456 primitive gaussians,   242 cartesian basis functions
    58 alpha electrons       58 beta electrons
       nuclear repulsion energy      1114.1153524349 Hartrees.
 NAtoms=   30 NActive=   30 NUniq=   30 SFac= 1.00D+00 NAtFMM=   60 NAOKFM=F Big=F
 Integral buffers will be    131072 words long.
 Raffenetti 2 integral format.
 Two-electron integral symmetry is turned off.
 One-electron integrals computed using PRISM.
 NBasis=   242 RedAO= T EigKep=  1.41D-03  NBF=   242
 NBsUse=   242 1.00D-06 EigRej= -1.00D+00 NBFU=   242
 Initial guess from the checkpoint file:  "/scratch/10461040.yak.local/Gau-9861.chk"
 B after Tr=    -0.057812    0.026744   -0.000363
         Rot=    1.000000   -0.000013    0.000069   -0.000023 Ang=  -0.01 deg.
 ExpMin= 1.61D-01 ExpMax= 5.48D+03 ExpMxC= 8.25D+02 IAcc=1 IRadAn=         1 AccDes= 0.00D+00
 Harris functional with IExCor=  402 and IRadAn=       1 diagonalized for initial guess.
 HarFok:  IExCor=  402 AccDes= 0.00D+00 IRadAn=         1 IDoV= 1 UseB2=F ITyADJ=14
 ICtDFT=  3500011 ScaDFX=  1.000000  1.000000  1.000000  1.000000
 FoFCou: FMM=F IPFlag=           0 FMFlag=      100000 FMFlg1=           0
         NFxFlg=           0 DoJE=T BraDBF=F KetDBF=T FulRan=T
         wScrn=  0.000000 ICntrl=     500 IOpCl=  0 I1Cent=   200000004 NGrid=           0
         NMat0=    1 NMatS0=      1 NMatT0=    0 NMatD0=    1 NMtDS0=    0 NMtDT0=    0
 Symmetry not used in FoFCou.
 Requested convergence on RMS density matrix=1.00D-08 within 128 cycles.
 Requested convergence on MAX density matrix=1.00D-06.
 Requested convergence on             energy=1.00D-06.
 No special actions if energy rises.
 Integral accuracy reduced to 1.0D-05 until final iterations.
 Initial convergence to 1.0D-05 achieved.  Increase integral accuracy.
 SCF Done:  E(RB3LYP) =  -839.962448536     A.U. after   11 cycles
            NFock= 11  Conv=0.80D-08     -V/T= 2.0086
 DoSCS=F DFT=T ScalE2(SS,OS)=  1.000000  1.000000
 Range of M.O.s used for correlation:     1   242
 NBasis=   242 NAE=    58 NBE=    58 NFC=     0 NFV=     0
 NROrb=    242 NOA=    58 NOB=    58 NVA=   184 NVB=   184
 Symmetrizing basis deriv contribution to polar:
 IMax=3 JMax=2 DiffMx= 0.00D+00
 Calling FoFJK, ICntrl=      2147 FMM=F ISym2X=0 I1Cent= 0 IOpClX= 0 NMat=1 NMatS=1 NMatT=0.
 -------------------------------------------------------------------
 Center     Atomic                   Forces (Hartrees/Bohr)
 Number     Number              X              Y              Z
 -------------------------------------------------------------------
      1        1          -0.000058609   -0.000108484    0.000018958
      2        6          -0.000064184   -0.001187337   -0.000305447
      3        6          -0.000026791    0.000083197   -0.000048324
      4        6           0.000826823    0.002961482    0.004444860
      5        6          -0.000253725    0.000029852   -0.000343133
      6        8           0.001376801   -0.002132246   -0.002411106
      7        6           0.000069825    0.000221026    0.000030653
      8        1           0.000046263   -0.000070823   -0.000128782
      9        1          -0.000003812   -0.000018287   -0.000030177
     10        1           0.000038922    0.000013385   -0.000021792
     11        6           0.000096963   -0.000102419    0.000075613
     12        1           0.000011977   -0.000015698    0.000011074
     13        1          -0.000008554    0.000031930   -0.000013795
     14        8          -0.003262377   -0.000038804   -0.001224669
     15        1          -0.000025925   -0.000009987   -0.000016694
     16        8           0.000002932    0.000072678   -0.000045117
     17        1           0.000001176    0.000011489    0.000017611
     18        8          -0.000111040    0.000013813   -0.000144180
     19        1           0.000003370    0.000038503    0.000004265
     20        8           0.000003421   -0.000069845   -0.000020937
     21        1          -0.000022704    0.000008917   -0.000010371
     22        8           0.000219545    0.000057261   -0.000110423
     23        1          -0.000006932   -0.000022626    0.000038688
     24        8           0.002166949    0.000348313    0.000833971
     25        1           0.004172564    0.000007633   -0.000519284
     26        1          -0.004082233    0.000295633    0.000685247
     27        1           0.000287991    0.000099670    0.000150528
     28        8          -0.000417877    0.001435162    0.002732970
     29        1          -0.000877797   -0.002132057   -0.003956539
     30        1          -0.000102963    0.000178668    0.000306332
 -------------------------------------------------------------------
 Cartesian Forces:  Max     0.004444860 RMS     0.001187392
 IRC-IRC-IRC-IRC-IRC-IRC-IRC-IRC-IRC-IRC-IRC-IRC-IRC-IRC-IRC-IRC-IRC-IRC
 Pt  1 Step number   1 out of a maximum of  20
 Modified Bulirsch-Stoer Extrapolation Cycles:
    EPS =    0.000010000000000
 Maximum DWI energy   std dev =  0.000003014 at pt    53
 Maximum DWI gradient std dev =  0.031952646 at pt     1
 CORRECTOR INTEGRATION CONVERGENCE:
   Recorrection delta-x convergence threshold:    0.010000
   Delta-x Convergence Met
 Point Number:   1          Path Number:   1
   CHANGE IN THE REACTION COORDINATE =    0.10521
   NET REACTION COORDINATE UP TO THIS POINT =    0.10521
  # OF POINTS ALONG THE PATH =   1
  # OF STEPS =   1

 Calculating another point on the path.
 IRC-IRC-IRC-IRC-IRC-IRC-IRC-IRC-IRC-IRC-IRC-IRC-IRC-IRC-IRC-IRC-IRC-IRC
                          Input orientation:                          
 ---------------------------------------------------------------------
 Center     Atomic      Atomic             Coordinates (Angstroms)
 Number     Number       Type             X           Y           Z
 ---------------------------------------------------------------------
      1          1           0        0.395061    1.593389    1.543395
      2          6           0        0.057844    1.137038    0.603504
      3          6           0        1.856062   -0.560413    0.257719
      4          6           0       -0.551168   -1.364755   -0.160643
      5          6           0        0.949864   -1.686891   -0.241477
      6          8           0       -0.647878   -0.065405    0.954799
      7          6           0        1.324176    0.792622   -0.200976
      8          1           0       -1.077660   -2.067390    0.500286
      9          1           0        1.169517   -1.834513   -1.308485
     10          1           0        1.087301    0.738972   -1.274428
     11          6           0       -0.832148    2.132972   -0.144278
     12          1           0       -1.704466    2.405117    0.465067
     13          1           0       -1.183080    1.669000   -1.075675
     14          8           0       -1.123463   -1.031926   -1.278666
     15          1           0        1.864526   -0.586582    1.358379
     16          8           0       -0.008381    3.277386   -0.406831
     17          1           0       -0.491330    3.876404   -0.994542
     18          8           0        1.166974   -2.885972    0.491812
     19          1           0        2.118091   -3.072237    0.429092
     20          8           0        3.158333   -0.809595   -0.253166
     21          1           0        3.642753    0.028709   -0.154956
     22          8           0        2.347856    1.754235    0.027878
     23          1           0        1.975919    2.608034   -0.256856
     24          8           0       -3.039121    0.214659    1.210525
     25          1           0       -2.336631   -1.058086   -1.144417
     26          1           0       -1.875553    0.104312    1.161507
     27          1           0       -3.370594   -0.270048    1.983253
     28          8           0       -3.507959   -0.999373   -0.827420
     29          1           0       -3.398797   -0.372969    0.192394
     30          1           0       -3.964854   -0.461750   -1.492982
 ---------------------------------------------------------------------
                    Distance matrix (angstroms):
                    1          2          3          4          5
     1  H    0.000000
     2  C    1.097892   0.000000
     3  C    2.902817   2.496897   0.000000
     4  C    3.542557   2.685849   2.572304   0.000000
     5  C    3.775422   3.079655   1.529492   1.537337   0.000000
     6  O    2.045914   1.437819   2.645878   1.715189   2.571590
     7  C    2.132443   1.539288   1.524469   2.858814   2.507934
     8  H    4.081456   3.401233   3.307044   1.098961   2.192224
     9  H    4.525871   3.704272   2.132527   2.121078   1.099338
    10  H    3.024789   2.178271   2.151016   2.889769   2.640206
    11  C    2.155327   1.530734   3.826538   3.509032   4.216203
    12  H    2.495938   2.175528   4.638396   3.991683   4.928408
    13  H    3.058721   2.154650   3.998075   3.231139   4.062923
    14  O    4.142731   3.105230   3.385317   1.299335   2.409030
    15  H    2.635495   2.608602   1.101003   2.957796   2.146352
    16  O    2.608064   2.367752   4.318157   4.680245   5.058619
    17  H    3.526893   3.218612   5.173369   5.307420   5.796068
    18  O    4.665442   4.174597   2.436774   2.385752   1.422197
    19  H    5.096917   4.689673   2.531262   3.223078   1.932252
    20  O    4.078926   3.759827   1.420917   3.751954   2.376367
    21  H    3.984987   3.828214   1.926040   4.419360   3.194123
    22  O    2.477109   2.440580   2.377453   4.262391   3.724014
    23  H    2.601830   2.565747   3.212197   4.709403   4.415813
    24  O    3.715549   3.287925   5.046919   3.250317   4.651474
    25  H    4.660129   3.688809   4.448859   2.061489   3.465797
    26  H    2.742057   2.261840   3.896619   2.379124   3.627638
    27  H    4.224456   3.954465   5.511779   3.707268   5.061940
    28  O    5.251356   4.396220   5.490258   3.052984   4.548428
    29  H    4.481643   3.794404   5.258606   3.035994   4.563495
    30  H    5.696669   4.809727   6.079288   3.774095   5.217440
                    6          7          8          9         10
     6  O    0.000000
     7  C    2.441521   0.000000
     8  H    2.097436   3.800033   0.000000
     9  H    3.399283   2.855228   2.894078   0.000000
    10  H    2.937231   1.100585   3.963878   2.575023   0.000000
    11  C    2.464708   2.539584   4.256615   4.593797   2.627690
    12  H    2.731244   3.495201   4.516352   5.420306   3.687254
    13  H    2.723495   2.796332   4.056522   4.226525   2.461521
    14  O    2.479659   3.237488   2.058871   2.429566   2.832591
    15  H    2.597437   2.150761   3.403758   3.025315   3.048417
    16  O    3.665685   2.827037   5.525654   5.322775   2.897721
    17  H    4.400261   3.665450   6.156864   5.955799   3.523335
    18  O    3.385800   3.746561   2.389253   2.084861   4.033134
    19  H    4.119222   3.995550   3.350763   2.334722   4.299979
    20  O    4.062049   2.435971   4.482563   2.473771   2.780325
    21  H    4.432824   2.441613   5.206272   3.304409   2.878893
    22  O    3.625561   1.423023   5.153847   4.006676   2.077440
    23  H    3.936965   1.929666   5.635352   4.635993   2.306185
    24  O    2.421130   4.622201   3.091847   5.315746   4.845333
    25  H    2.871239   4.209123   2.304073   3.594834   3.869061
    26  H    1.256470   3.545194   2.406270   4.374054   3.887812
    27  H    2.917667   5.285924   3.269125   5.822002   5.612792
    28  O    3.496950   5.191648   2.968134   4.775737   4.933364
    29  H    2.871134   4.880555   2.890248   5.025757   4.849026
    30  H    4.141382   5.587179   3.858378   5.317920   5.197477
                   11         12         13         14         15
    11  C    0.000000
    12  H    1.098318   0.000000
    13  H    1.098145   1.785384   0.000000
    14  O    3.374652   3.897618   2.709199   0.000000
    15  H    4.114122   4.741938   4.505571   4.010039   0.000000
    16  O    1.434298   2.097085   2.100994   4.535821   4.642629
    17  H    1.969431   2.401425   2.314678   4.957017   5.568172
    18  O    5.439751   6.020091   5.359808   3.437758   2.554351
    19  H    6.010562   6.679419   5.970040   4.193683   2.665773
    20  O    4.959283   5.873418   5.066342   4.408498   2.078641
    21  H    4.944974   5.884257   5.179473   5.010437   2.414717
    22  O    3.207102   4.127480   3.700352   4.638944   2.735556
    23  H    2.850192   3.756006   3.395810   4.888719   3.581475
    24  O    3.222754   2.671164   3.284312   3.379318   4.970875
    25  H    3.666961   3.870898   2.961825   1.220854   4.912843
    26  H    2.628542   2.409980   2.816514   2.794838   3.808449
    27  H    4.092017   3.498196   4.231095   4.033631   5.281775
    28  O    4.175911   4.063700   3.547803   2.427037   5.814784
    29  H    3.602884   3.265405   3.269103   2.788438   5.395157
    30  H    4.285490   4.142732   3.528810   2.905948   6.490571
                   16         17         18         19         20
    16  O    0.000000
    17  H    0.968228   0.000000
    18  O    6.338454   7.119617   0.000000
    19  H    6.748212   7.557739   0.971212   0.000000
    20  O    5.172534   5.985671   2.971842   2.582078   0.000000
    21  H    4.893682   5.709667   3.878551   3.504507   0.973171
    22  O    2.839157   3.689162   4.810534   4.848566   2.703532
    23  H    2.099517   2.870585   5.603481   5.723304   3.616394
    24  O    4.602339   4.976136   5.274628   6.165319   6.449800
    25  H    4.976053   5.270369   4.277109   5.135883   5.572316
    26  H    4.001802   4.559967   4.318247   5.155200   5.308157
    27  H    5.440705   5.860929   5.445822   6.355576   6.922396
    28  O    5.542076   5.735955   5.211011   6.126013   6.693671
    29  H    5.017876   5.283877   5.220258   6.146391   6.586738
    30  H    5.551084   5.579730   6.012646   6.892839   7.238641
                   21         22         23         24         25
    21  H    0.000000
    22  O    2.165092   0.000000
    23  H    3.072724   0.973850   0.000000
    24  O    6.822503   5.726121   5.747354   0.000000
    25  H    6.157369   5.588188   5.729424   2.767513   0.000000
    26  H    5.673666   4.673815   4.807724   1.169816   2.623176
    27  H    7.338135   6.373530   6.471989   0.970528   3.387094
    28  O    7.255470   6.527209   6.588766   2.418037   1.214884
    29  H    7.061545   6.129933   6.162449   1.229335   1.839741
    30  H    7.739931   6.861042   6.800320   2.936573   1.768678
                   26         27         28         29         30
    26  H    0.000000
    27  H    1.746585   0.000000
    28  O    2.799768   2.907003   0.000000
    29  H    1.867417   1.794036   1.201798   0.000000
    30  H    3.425188   3.531870   0.969929   1.780111   0.000000
 Symmetry turned off by external request.
 Stoichiometry    C6H16O8
 Framework group  C1[X(C6H16O8)]
 Deg. of freedom    84
 Full point group                 C1      NOp   1
 Rotational constants (GHZ):      0.7236749      0.5511075      0.3616783
 Standard basis: 6-31G(d) (6D, 7F)
   242 basis functions,   456 primitive gaussians,   242 cartesian basis functions
    58 alpha electrons       58 beta electrons
       nuclear repulsion energy      1114.1409763153 Hartrees.
 NAtoms=   30 NActive=   30 NUniq=   30 SFac= 1.00D+00 NAtFMM=   60 NAOKFM=F Big=F
 Integral buffers will be    131072 words long.
 Raffenetti 2 integral format.
 Two-electron integral symmetry is turned off.
 One-electron integrals computed using PRISM.
 NBasis=   242 RedAO= T EigKep=  1.41D-03  NBF=   242
 NBsUse=   242 1.00D-06 EigRej= -1.00D+00 NBFU=   242
 Initial guess from the checkpoint file:  "/scratch/10461040.yak.local/Gau-9861.chk"
 B after Tr=    -0.000037   -0.000092   -0.000191
         Rot=    1.000000   -0.000014    0.000072   -0.000024 Ang=  -0.01 deg.
 ExpMin= 1.61D-01 ExpMax= 5.48D+03 ExpMxC= 8.25D+02 IAcc=1 IRadAn=         1 AccDes= 0.00D+00
 Harris functional with IExCor=  402 and IRadAn=       1 diagonalized for initial guess.
 HarFok:  IExCor=  402 AccDes= 0.00D+00 IRadAn=         1 IDoV= 1 UseB2=F ITyADJ=14
 ICtDFT=  3500011 ScaDFX=  1.000000  1.000000  1.000000  1.000000
 FoFCou: FMM=F IPFlag=           0 FMFlag=      100000 FMFlg1=           0
         NFxFlg=           0 DoJE=T BraDBF=F KetDBF=T FulRan=T
         wScrn=  0.000000 ICntrl=     500 IOpCl=  0 I1Cent=   200000004 NGrid=           0
         NMat0=    1 NMatS0=      1 NMatT0=    0 NMatD0=    1 NMtDS0=    0 NMtDT0=    0
 Symmetry not used in FoFCou.
 Requested convergence on RMS density matrix=1.00D-08 within 128 cycles.
 Requested convergence on MAX density matrix=1.00D-06.
 Requested convergence on             energy=1.00D-06.
 No special actions if energy rises.
 Integral accuracy reduced to 1.0D-05 until final iterations.
 Initial convergence to 1.0D-05 achieved.  Increase integral accuracy.
 SCF Done:  E(RB3LYP) =  -839.963703514     A.U. after   11 cycles
            NFock= 11  Conv=0.67D-08     -V/T= 2.0086
 DoSCS=F DFT=T ScalE2(SS,OS)=  1.000000  1.000000
 Range of M.O.s used for correlation:     1   242
 NBasis=   242 NAE=    58 NBE=    58 NFC=     0 NFV=     0
 NROrb=    242 NOA=    58 NOB=    58 NVA=   184 NVB=   184
 Symmetrizing basis deriv contribution to polar:
 IMax=3 JMax=2 DiffMx= 0.00D+00
 Calling FoFJK, ICntrl=      2147 FMM=F ISym2X=0 I1Cent= 0 IOpClX= 0 NMat=1 NMatS=1 NMatT=0.
 -------------------------------------------------------------------
 Center     Atomic                   Forces (Hartrees/Bohr)
 Number     Number              X              Y              Z
 -------------------------------------------------------------------
      1        1          -0.000116950   -0.000214160    0.000036880
      2        6          -0.000063534   -0.002343870   -0.000635042
      3        6          -0.000054490    0.000180327   -0.000089034
      4        6           0.001821421    0.005870751    0.009129730
      5        6          -0.000501080    0.000025190   -0.000720434
      6        8           0.003391197   -0.004376150   -0.004908168
      7        6           0.000149334    0.000470456    0.000069544
      8        1           0.000072866   -0.000143614   -0.000282424
      9        1           0.000008103   -0.000041883   -0.000068907
     10        1           0.000078611    0.000026078   -0.000050743
     11        6           0.000173186   -0.000200954    0.000158221
     12        1           0.000021024   -0.000038895    0.000020809
     13        1          -0.000018590    0.000068174   -0.000031560
     14        8          -0.006219287   -0.000043210   -0.002704616
     15        1          -0.000053270   -0.000021771   -0.000027846
     16        8           0.000021393    0.000129384   -0.000091237
     17        1          -0.000005544    0.000031643    0.000026178
     18        8          -0.000225446    0.000021505   -0.000283467
     19        1           0.000004837    0.000075622    0.000014396
     20        8          -0.000001913   -0.000147979   -0.000042093
     21        1          -0.000044612    0.000019025   -0.000020351
     22        8           0.000468098    0.000058504   -0.000217543
     23        1          -0.000036971   -0.000002204    0.000063200
     24        8           0.003758666    0.001213233    0.002581264
     25        1           0.008790538   -0.000017115   -0.001150462
     26        1          -0.008081592    0.000606241    0.001439254
     27        1           0.000587045    0.000251383    0.000289433
     28        8          -0.001769748    0.002580298    0.005016211
     29        1          -0.001918462   -0.004374210   -0.008164370
     30        1          -0.000234831    0.000338200    0.000643177
 -------------------------------------------------------------------
 Cartesian Forces:  Max     0.009129730 RMS     0.002412243
 IRC-IRC-IRC-IRC-IRC-IRC-IRC-IRC-IRC-IRC-IRC-IRC-IRC-IRC-IRC-IRC-IRC-IRC
 Pt  2 Step number   1 out of a maximum of  20
 Modified Bulirsch-Stoer Extrapolation Cycles:
    EPS =    0.000010000000000
 Maximum DWI energy   std dev =  0.000005271 at pt    61
 Maximum DWI gradient std dev =  0.019684592 at pt    55
 CORRECTOR INTEGRATION CONVERGENCE:
   Recorrection delta-x convergence threshold:    0.010000
   Delta-x Convergence Met
 Point Number:   2          Path Number:   1
   CHANGE IN THE REACTION COORDINATE =    0.10519
   NET REACTION COORDINATE UP TO THIS POINT =    0.21040
  # OF POINTS ALONG THE PATH =   2
  # OF STEPS =   1

 Calculating another point on the path.
 IRC-IRC-IRC-IRC-IRC-IRC-IRC-IRC-IRC-IRC-IRC-IRC-IRC-IRC-IRC-IRC-IRC-IRC
                          Input orientation:                          
 ---------------------------------------------------------------------
 Center     Atomic      Atomic             Coordinates (Angstroms)
 Number     Number       Type             X           Y           Z
 ---------------------------------------------------------------------
      1          1           0        0.394662    1.592657    1.543528
      2          6           0        0.057840    1.136385    0.603317
      3          6           0        1.856049   -0.560360    0.257695
      4          6           0       -0.550626   -1.363100   -0.158008
      5          6           0        0.949724   -1.686889   -0.241687
      6          8           0       -0.647062   -0.066357    0.953738
      7          6           0        1.324221    0.792759   -0.200956
      8          1           0       -1.077447   -2.067853    0.499266
      9          1           0        1.169563   -1.834658   -1.308723
     10          1           0        1.087571    0.739064   -1.274602
     11          6           0       -0.832104    2.132915   -0.144232
     12          1           0       -1.704404    2.404962    0.465137
     13          1           0       -1.183149    1.669241   -1.075782
     14          8           0       -1.124751   -1.031930   -1.279273
     15          1           0        1.864344   -0.586659    1.358281
     16          8           0       -0.008375    3.277412   -0.406850
     17          1           0       -0.491350    3.876507   -0.994450
     18          8           0        1.166924   -2.885966    0.491750
     19          1           0        2.118111   -3.071981    0.429148
     20          8           0        3.158330   -0.809627   -0.253176
     21          1           0        3.642605    0.028775   -0.155023
     22          8           0        2.347955    1.754246    0.027831
     23          1           0        1.975792    2.608030   -0.256645
     24          8           0       -3.038383    0.214996    1.211182
     25          1           0       -2.305868   -1.058182   -1.148490
     26          1           0       -1.903026    0.106396    1.166504
     27          1           0       -3.368722   -0.269244    1.984488
     28          8           0       -3.508447   -0.998866   -0.826394
     29          1           0       -3.405589   -0.388118    0.164089
     30          1           0       -3.965859   -0.460500   -1.490944
 ---------------------------------------------------------------------
                    Distance matrix (angstroms):
                    1          2          3          4          5
     1  H    0.000000
     2  C    1.098011   0.000000
     3  C    2.902499   2.496388   0.000000
     4  C    3.539108   2.682773   2.570852   0.000000
     5  C    3.774984   3.079020   1.529664   1.537170   0.000000
     6  O    2.045817   1.437453   2.644631   1.710795   2.569998
     7  C    2.132403   1.539044   1.524510   2.857380   2.508099
     8  H    4.081289   3.401006   3.307006   1.098283   2.191704
     9  H    4.525737   3.703906   2.132783   2.122631   1.099423
    10  H    3.024996   2.178254   2.151045   2.889561   2.640296
    11  C    2.155312   1.530981   3.826414   3.507355   4.216077
    12  H    2.495765   2.175749   4.638210   3.989712   4.928208
    13  H    3.058780   2.154846   3.998250   3.230710   4.063062
    14  O    4.143099   3.105520   3.386712   1.302509   2.410187
    15  H    2.635090   2.608124   1.100931   2.955346   2.146376
    16  O    2.608604   2.368294   4.318124   4.678708   5.058608
    17  H    3.527368   3.219121   5.173388   5.306282   5.796095
    18  O    4.664835   4.173946   2.436826   2.385641   1.422284
    19  H    5.096172   4.688859   2.531070   3.222915   1.932260
    20  O    4.078845   3.759466   1.420936   3.751232   2.376481
    21  H    3.984963   3.827848   1.925928   4.418202   3.194154
    22  O    2.477660   2.440812   2.377438   4.260769   3.724124
    23  H    2.602225   2.565894   3.212099   4.707695   4.415809
    24  O    3.714054   3.287104   5.046362   3.248692   4.651128
    25  H    4.644003   3.670431   4.421169   2.038359   3.437506
    26  H    2.762334   2.285400   3.924428   2.396400   3.651993
    27  H    4.221869   3.952815   5.510425   3.705195   5.061081
    28  O    5.250408   4.395655   5.490478   3.054196   4.548686
    29  H    4.502025   3.809511   5.265289   3.034000   4.562918
    30  H    5.695403   4.808964   6.079665   3.775610   5.218011
                    6          7          8          9         10
     6  O    0.000000
     7  C    2.440769   0.000000
     8  H    2.097084   3.800187   0.000000
     9  H    3.397903   2.855589   2.893485   0.000000
    10  H    2.936520   1.100728   3.963923   2.575254   0.000000
    11  C    2.465071   2.539483   4.256845   4.593946   2.627872
    12  H    2.732054   3.495061   4.516670   5.420391   3.687416
    13  H    2.723718   2.796506   4.056824   4.226917   2.461895
    14  O    2.479285   3.238784   2.058780   2.430867   2.833868
    15  H    2.596445   2.150755   3.403817   3.025414   3.048441
    16  O    3.666048   2.826961   5.525922   5.322985   2.897810
    17  H    4.400666   3.665438   6.157119   5.956073   3.523496
    18  O    3.384401   3.746679   2.388842   2.084936   4.033254
    19  H    4.117663   3.995436   3.350341   2.334718   4.299865
    20  O    4.060800   2.436047   4.482310   2.473876   2.780252
    21  H    4.431663   2.441451   5.206038   3.304443   2.878570
    22  O    3.625192   1.422965   5.154034   4.006896   2.077377
    23  H    3.936589   1.929470   5.635384   4.636200   2.306124
    24  O    2.421539   4.621716   3.092490   5.315807   4.845334
    25  H    2.855646   4.183461   2.289881   3.564717   3.842059
    26  H    1.285519   3.571578   2.419534   4.397185   3.911897
    27  H    2.917369   5.284669   3.269682   5.821665   5.612209
    28  O    3.496566   5.191895   2.968142   4.776501   4.934032
    29  H    2.887309   4.888644   2.890346   5.019330   4.850656
    30  H    4.140802   5.587458   3.858425   5.319218   5.198357
                   11         12         13         14         15
    11  C    0.000000
    12  H    1.098293   0.000000
    13  H    1.098185   1.785336   0.000000
    14  O    3.374937   3.897588   2.709455   0.000000
    15  H    4.113935   4.741673   4.505659   4.011190   0.000000
    16  O    1.434354   2.097152   2.100899   4.536281   4.642608
    17  H    1.969543   2.401529   2.314567   4.957325   5.568168
    18  O    5.439647   6.019897   5.360030   3.438859   2.554228
    19  H    6.010281   6.679059   5.970119   4.194838   2.665429
    20  O    4.959233   5.873308   5.066548   4.409884   2.078679
[...]
 Alpha  occ. eigenvalues --   -1.04086  -1.03136  -1.02161  -1.01575  -1.00779
 Alpha  occ. eigenvalues --   -0.99894  -0.98021  -0.77485  -0.75938  -0.69388
 Alpha  occ. eigenvalues --   -0.63593  -0.61386  -0.56563  -0.55974  -0.54567
 Alpha  occ. eigenvalues --   -0.54417  -0.53845  -0.51944  -0.50572  -0.48373
 Alpha  occ. eigenvalues --   -0.46636  -0.45012  -0.44307  -0.43301  -0.42346
 Alpha  occ. eigenvalues --   -0.41956  -0.41586  -0.40738  -0.38173  -0.37918
 Alpha  occ. eigenvalues --   -0.35965  -0.35023  -0.34723  -0.32915  -0.32153
 Alpha  occ. eigenvalues --   -0.30989  -0.30423  -0.29254  -0.28848  -0.27143
 Alpha  occ. eigenvalues --   -0.26400  -0.26181  -0.25728
 Alpha virt. eigenvalues --    0.03692   0.05885   0.06891   0.08818   0.09603
 Alpha virt. eigenvalues --    0.11085   0.11571   0.12888   0.13979   0.14568
 Alpha virt. eigenvalues --    0.15272   0.16750   0.17227   0.18364   0.19317
 Alpha virt. eigenvalues --    0.20434   0.21239   0.21734   0.23874   0.25704
 Alpha virt. eigenvalues --    0.27700   0.28603   0.29307   0.30760   0.31939
 Alpha virt. eigenvalues --    0.32364   0.33386   0.36176   0.52115   0.52428
 Alpha virt. eigenvalues --    0.54733   0.55034   0.56865   0.58730   0.59895
 Alpha virt. eigenvalues --    0.60502   0.62946   0.64382   0.65690   0.67884
 Alpha virt. eigenvalues --    0.69890   0.70886   0.71734   0.73106   0.74542
 Alpha virt. eigenvalues --    0.76259   0.76620   0.78435   0.80390   0.81452
 Alpha virt. eigenvalues --    0.82015   0.83314   0.83662   0.84321   0.84954
 Alpha virt. eigenvalues --    0.86048   0.87190   0.87837   0.89663   0.90350
 Alpha virt. eigenvalues --    0.91823   0.92626   0.93477   0.95909   0.96676
 Alpha virt. eigenvalues --    0.97515   0.98026   0.98464   1.00405   1.03121
 Alpha virt. eigenvalues --    1.03794   1.06306   1.07019   1.07292   1.08867
 Alpha virt. eigenvalues --    1.09993   1.12693   1.13565   1.14738   1.16305
 Alpha virt. eigenvalues --    1.17864   1.21230   1.22023   1.26247   1.26758
 Alpha virt. eigenvalues --    1.30835   1.33177   1.35445   1.35937   1.39634
 Alpha virt. eigenvalues --    1.41517   1.43723   1.46678   1.48163   1.53999
 Alpha virt. eigenvalues --    1.55133   1.57540   1.58380   1.59785   1.61904
 Alpha virt. eigenvalues --    1.64119   1.65698   1.66708   1.68358   1.68639
 Alpha virt. eigenvalues --    1.70962   1.71663   1.72391   1.73428   1.74188
 Alpha virt. eigenvalues --    1.76288   1.77276   1.78140   1.79684   1.80112
 Alpha virt. eigenvalues --    1.81741   1.83613   1.85090   1.85877   1.86164
 Alpha virt. eigenvalues --    1.88500   1.89315   1.91668   1.93877   1.95584
 Alpha virt. eigenvalues --    1.97907   1.99877   2.03246   2.04537   2.05847
 Alpha virt. eigenvalues --    2.06619   2.08225   2.09654   2.12777   2.15730
 Alpha virt. eigenvalues --    2.18030   2.21899   2.24059   2.28615   2.30402
 Alpha virt. eigenvalues --    2.31705   2.34835   2.36175   2.40408   2.41815
 Alpha virt. eigenvalues --    2.42835   2.45768   2.48311   2.51497   2.51721
 Alpha virt. eigenvalues --    2.53545   2.55095   2.56737   2.57325   2.60875
 Alpha virt. eigenvalues --    2.62451   2.66480   2.70957   2.71496   2.74707
 Alpha virt. eigenvalues --    2.76190   2.80395   2.84370   2.90315   2.91659
 Alpha virt. eigenvalues --    2.94863   2.96617   3.02428   3.05995   3.11161
 Alpha virt. eigenvalues --    3.74687   3.77503   3.79449   3.87208   3.89635
 Alpha virt. eigenvalues --    3.97411   4.00901   4.14578   4.25581   4.37499
 Alpha virt. eigenvalues --    4.46482   4.51082   4.67212   4.83105
          Condensed to atoms (all electrons):
               1          2          3          4          5          6
     1  H    0.601463   0.363135  -0.008029   0.002356   0.000514  -0.032499
     2  C    0.363135   4.939805  -0.029236  -0.013351  -0.014690   0.151283
     3  C   -0.008029  -0.029236   4.948233  -0.029849   0.327444  -0.006454
     4  C    0.002356  -0.013351  -0.029849   4.793619   0.304715   0.122890
     5  C    0.000514  -0.014690   0.327444   0.304715   4.915744  -0.024646
     6  O   -0.032499   0.151283  -0.006454   0.122890  -0.024646   8.536679
     7  C   -0.042982   0.296460   0.284402  -0.005761  -0.016858  -0.026061
     8  H   -0.000196   0.003974   0.002705   0.359569  -0.048937  -0.036426
     9  H    0.000017   0.000948  -0.042304  -0.058726   0.351156   0.002521
    10  H    0.006944  -0.056544  -0.053071  -0.001008  -0.005098   0.002275
    11  C   -0.056733   0.346821   0.004007  -0.000956  -0.000283  -0.030055
    12  H   -0.006359  -0.034651  -0.000080  -0.000218  -0.000024   0.001345
    13  H    0.005872  -0.029566  -0.000269   0.000866  -0.000009   0.000010
    14  O   -0.000163   0.006052   0.000462   0.274890  -0.042048  -0.054214
    15  H    0.003952  -0.001310   0.346962  -0.003132  -0.047152   0.003818
    16  O    0.004289  -0.045960   0.000214   0.000020  -0.000003   0.001106
    17  H   -0.000274   0.005226   0.000006  -0.000002   0.000000  -0.000081
    18  O    0.000007   0.000042  -0.034309  -0.032699   0.225054   0.000679
    19  H   -0.000002  -0.000020  -0.006607   0.006960  -0.027558  -0.000157
    20  O   -0.000079   0.002942   0.232498   0.002965  -0.044140   0.000126
    21  H    0.000016   0.000781  -0.030726  -0.000267   0.006347  -0.000022
    22  O    0.005037  -0.040591  -0.032474   0.000079   0.001969   0.001516
    23  H    0.000510  -0.005380   0.005300   0.000012  -0.000165  -0.000005
    24  O    0.000061   0.004804   0.000007   0.006906   0.000052  -0.078784
    25  H    0.000015  -0.000406  -0.000153  -0.019942   0.003188   0.003962
    26  H   -0.001007  -0.006936   0.000144  -0.005157   0.000797   0.082720
    27  H    0.000020  -0.000024  -0.000001  -0.000149   0.000006   0.003275
    28  O   -0.000000  -0.000023   0.000000   0.005234  -0.000042  -0.000848
    29  H    0.000001  -0.000229  -0.000002   0.000098   0.000086   0.002426
    30  H    0.000000  -0.000006   0.000000  -0.000158   0.000002   0.000019
               7          8          9         10         11         12
     1  H   -0.042982  -0.000196   0.000017   0.006944  -0.056733  -0.006359
     2  C    0.296460   0.003974   0.000948  -0.056544   0.346821  -0.034651
     3  C    0.284402   0.002705  -0.042304  -0.053071   0.004007  -0.000080
     4  C   -0.005761   0.359569  -0.058726  -0.001008  -0.000956  -0.000218
     5  C   -0.016858  -0.048937   0.351156  -0.005098  -0.000283  -0.000024
     6  O   -0.026061  -0.036426   0.002521   0.002275  -0.030055   0.001345
     7  C    5.024793   0.000083  -0.004351   0.355405  -0.039029   0.005850
     8  H    0.000083   0.588198   0.003882   0.000152  -0.000109   0.000004
     9  H   -0.004351   0.003882   0.610894   0.006882   0.000040  -0.000000
    10  H    0.355405   0.000152   0.006882   0.640916  -0.006513   0.000181
    11  C   -0.039029  -0.000109   0.000040  -0.006513   4.984593   0.358283
    12  H    0.005850   0.000004  -0.000000   0.000181   0.358283   0.597425
    13  H   -0.012049   0.000109   0.000004   0.004651   0.350581  -0.048077
    14  O   -0.000247  -0.037736   0.006192   0.003800  -0.003043   0.000110
    15  H   -0.055313  -0.000004   0.007651   0.007567   0.000291   0.000005
    16  O    0.008303   0.000001  -0.000000   0.000809   0.201230  -0.033235
    17  H   -0.000003  -0.000000   0.000000  -0.000092  -0.018758  -0.002160
    18  O    0.004161   0.006837  -0.036563   0.000010  -0.000000  -0.000000
    19  H    0.000509  -0.000350  -0.003483  -0.000018   0.000000  -0.000000
    20  O   -0.029311  -0.000067   0.000934   0.000548  -0.000043   0.000000
    21  H   -0.015723   0.000006  -0.000129   0.000430  -0.000019   0.000000
    22  O    0.212370   0.000002  -0.000136  -0.040844   0.000093  -0.000214
    23  H   -0.023474  -0.000000   0.000007  -0.002969  -0.003045   0.000233
    24  O   -0.000107   0.001862   0.000002   0.000007  -0.000955   0.006559
    25  H   -0.000023  -0.004230   0.000183   0.000037   0.000176  -0.000046
    26  H    0.001361  -0.001532  -0.000052  -0.000122  -0.001766   0.001901
    27  H    0.000004   0.000265  -0.000000  -0.000000  -0.000061  -0.000030
    28  O    0.000002   0.002381  -0.000000   0.000001  -0.000200   0.000010
    29  H    0.000005  -0.000771  -0.000003  -0.000003   0.000310   0.000141
    30  H   -0.000000  -0.000090  -0.000000  -0.000001   0.000036  -0.000025
              13         14         15         16         17         18
     1  H    0.005872  -0.000163   0.003952   0.004289  -0.000274   0.000007
     2  C   -0.029566   0.006052  -0.001310  -0.045960   0.005226   0.000042
     3  C   -0.000269   0.000462   0.346962   0.000214   0.000006  -0.034309
     4  C    0.000866   0.274890  -0.003132   0.000020  -0.000002  -0.032699
     5  C   -0.000009  -0.042048  -0.047152  -0.000003   0.000000   0.225054
     6  O    0.000010  -0.054214   0.003818   0.001106  -0.000081   0.000679
     7  C   -0.012049  -0.000247  -0.055313   0.008303  -0.000003   0.004161
     8  H    0.000109  -0.037736  -0.000004   0.000001  -0.000000   0.006837
     9  H    0.000004   0.006192   0.007651  -0.000000   0.000000  -0.036563
    10  H    0.004651   0.003800   0.007567   0.000809  -0.000092   0.000010
    11  C    0.350581  -0.003043   0.000291   0.201230  -0.018758  -0.000000
    12  H   -0.048077   0.000110   0.000005  -0.033235  -0.002160  -0.000000
    13  H    0.607804   0.009277   0.000008  -0.031152  -0.005294   0.000000
    14  O    0.009277   8.350873   0.000069   0.000020  -0.000001   0.000717
    15  H    0.000008   0.000069   0.647127  -0.000011   0.000001   0.002354
    16  O   -0.031152   0.000020  -0.000011   8.274991   0.235529   0.000000
    17  H   -0.005294  -0.000001   0.000001   0.235529   0.379265  -0.000000
    18  O    0.000000   0.000717   0.002354   0.000000  -0.000000   8.275306
    19  H    0.000000  -0.000134  -0.000508   0.000000  -0.000000   0.238039
    20  O   -0.000002  -0.000016  -0.045615  -0.000000   0.000000  -0.000841
    21  H   -0.000000   0.000002  -0.000333   0.000004  -0.000000  -0.000120
    22  O    0.000103   0.000012  -0.000500  -0.009676   0.000439  -0.000011
    23  H    0.000386  -0.000001  -0.000252   0.033944  -0.001145   0.000001
    24  O   -0.000073  -0.001605   0.000004   0.000016   0.000001   0.000000
    25  H    0.000376   0.174495   0.000005  -0.000002  -0.000000  -0.000077
    26  H   -0.000142   0.003206  -0.000071  -0.000042  -0.000001  -0.000024
    27  H    0.000015  -0.000002  -0.000001  -0.000001  -0.000000  -0.000000
    28  O    0.000683  -0.083140  -0.000000   0.000000   0.000000   0.000000
    29  H    0.000042   0.007654   0.000000   0.000001  -0.000000  -0.000000
    30  H    0.000156   0.004003   0.000000  -0.000000  -0.000000  -0.000000
              19         20         21         22         23         24
     1  H   -0.000002  -0.000079   0.000016   0.005037   0.000510   0.000061
     2  C   -0.000020   0.002942   0.000781  -0.040591  -0.005380   0.004804
     3  C   -0.006607   0.232498  -0.030726  -0.032474   0.005300   0.000007
     4  C    0.006960   0.002965  -0.000267   0.000079   0.000012   0.006906
     5  C   -0.027558  -0.044140   0.006347   0.001969  -0.000165   0.000052
     6  O   -0.000157   0.000126  -0.000022   0.001516  -0.000005  -0.078784
     7  C    0.000509  -0.029311  -0.015723   0.212370  -0.023474  -0.000107
     8  H   -0.000350  -0.000067   0.000006   0.000002  -0.000000   0.001862
     9  H   -0.003483   0.000934  -0.000129  -0.000136   0.000007   0.000002
    10  H   -0.000018   0.000548   0.000430  -0.040844  -0.002969   0.000007
    11  C    0.000000  -0.000043  -0.000019   0.000093  -0.003045  -0.000955
    12  H   -0.000000   0.000000   0.000000  -0.000214   0.000233   0.006559
    13  H    0.000000  -0.000002  -0.000000   0.000103   0.000386  -0.000073
    14  O   -0.000134  -0.000016   0.000002   0.000012  -0.000001  -0.001605
    15  H   -0.000508  -0.045615  -0.000333  -0.000500  -0.000252   0.000004
    16  O    0.000000  -0.000000   0.000004  -0.009676   0.033944   0.000016
    17  H   -0.000000   0.000000  -0.000000   0.000439  -0.001145   0.000001
    18  O    0.238039  -0.000841  -0.000120  -0.000011   0.000001   0.000000
    19  H    0.376427   0.009060  -0.000316  -0.000001   0.000000  -0.000000
    20  O    0.009060   8.307706   0.236667  -0.007919   0.000176   0.000000
    21  H   -0.000316   0.236667   0.360343   0.027605  -0.000743  -0.000000
    22  O   -0.000001  -0.007919   0.027605   8.325152   0.231745   0.000000
    23  H    0.000000   0.000176  -0.000743   0.231745   0.343167  -0.000000
    24  O   -0.000000   0.000000  -0.000000   0.000000  -0.000000   8.480673
    25  H    0.000006   0.000001  -0.000000  -0.000000   0.000000   0.002542
    26  H    0.000002   0.000000   0.000000  -0.000012   0.000000   0.163880
    27  H    0.000000  -0.000000   0.000000  -0.000000   0.000000   0.233609
    28  O   -0.000000  -0.000000   0.000000   0.000000  -0.000000  -0.082180
    29  H    0.000000   0.000000  -0.000000  -0.000000   0.000000   0.099734
    30  H    0.000000  -0.000000  -0.000000  -0.000000   0.000000   0.003362
              25         26         27         28         29         30
     1  H    0.000015  -0.001007   0.000020  -0.000000   0.000001   0.000000
     2  C   -0.000406  -0.006936  -0.000024  -0.000023  -0.000229  -0.000006
     3  C   -0.000153   0.000144  -0.000001   0.000000  -0.000002   0.000000
     4  C   -0.019942  -0.005157  -0.000149   0.005234   0.000098  -0.000158
     5  C    0.003188   0.000797   0.000006  -0.000042   0.000086   0.000002
     6  O    0.003962   0.082720   0.003275  -0.000848   0.002426   0.000019
     7  C   -0.000023   0.001361   0.000004   0.000002   0.000005  -0.000000
     8  H   -0.004230  -0.001532   0.000265   0.002381  -0.000771  -0.000090
     9  H    0.000183  -0.000052  -0.000000  -0.000000  -0.000003  -0.000000
    10  H    0.000037  -0.000122  -0.000000   0.000001  -0.000003  -0.000001
    11  C    0.000176  -0.001766  -0.000061  -0.000200   0.000310   0.000036
    12  H   -0.000046   0.001901  -0.000030   0.000010   0.000141  -0.000025
    13  H    0.000376  -0.000142   0.000015   0.000683   0.000042   0.000156
    14  O    0.174495   0.003206  -0.000002  -0.083140   0.007654   0.004003
    15  H    0.000005  -0.000071  -0.000001  -0.000000   0.000000   0.000000
    16  O   -0.000002  -0.000042  -0.000001   0.000000   0.000001  -0.000000
    17  H   -0.000000  -0.000001  -0.000000   0.000000  -0.000000  -0.000000
    18  O   -0.000077  -0.000024  -0.000000   0.000000  -0.000000  -0.000000
    19  H    0.000006   0.000002   0.000000  -0.000000   0.000000   0.000000
    20  O    0.000001   0.000000  -0.000000  -0.000000   0.000000  -0.000000
    21  H   -0.000000   0.000000   0.000000   0.000000  -0.000000  -0.000000
    22  O   -0.000000  -0.000012  -0.000000   0.000000  -0.000000  -0.000000
    23  H    0.000000   0.000000   0.000000  -0.000000   0.000000   0.000000
    24  O    0.002542   0.163880   0.233609  -0.082180   0.099734   0.003362
    25  H    0.284923  -0.000602  -0.000081   0.117790  -0.010670  -0.006355
    26  H   -0.000602   0.304674  -0.004203   0.006937  -0.008482  -0.000168
    27  H   -0.000081  -0.004203   0.370681   0.003753  -0.006628  -0.000126
    28  O    0.117790   0.006937   0.003753   8.453250   0.174364   0.233916
    29  H   -0.010670  -0.008482  -0.006628   0.174364   0.304032  -0.006540
    30  H   -0.006355  -0.000168  -0.000126   0.233916  -0.006540   0.375729
 Mulliken charges:
               1
     1  H    0.154115
     2  C    0.156653
     3  C    0.121180
     4  C    0.290195
     5  C    0.134580
     6  O   -0.626400
     7  C    0.077583
     8  H    0.160419
     9  H    0.154438
    10  H    0.135667
    11  C   -0.084891
    12  H    0.153072
    13  H    0.145689
    14  O   -0.619483
    15  H    0.134389
    16  O   -0.640394
    17  H    0.407345
    18  O   -0.648562
    19  H    0.408152
    20  O   -0.665589
    21  H    0.416200
    22  O   -0.673744
    23  H    0.421698
    24  O   -0.840378
    25  H    0.454891
    26  H    0.464697
    27  H    0.399680
    28  O   -0.831888
    29  H    0.444437
    30  H    0.396246
 Sum of Mulliken charges =  -0.00000
 Mulliken charges with hydrogens summed into heavy atoms:
               1
     2  C    0.310769
     3  C    0.255569
     4  C    0.450614
     5  C    0.289018
     6  O   -0.626400
     7  C    0.213250
    11  C    0.213870
    14  O   -0.164592
    16  O   -0.233048
    18  O   -0.240410
    20  O   -0.249389
    22  O   -0.252045
    24  O    0.024000
    28  O    0.008795
 APT charges:
               1
     1  H    0.449239
     2  C   -0.333656
     3  C   -0.162025
     4  C   -0.290214
     5  C   -0.228091
     6  O   -0.401943
     7  C   -0.153795
     8  H    0.479207
     9  H    0.396730
    10  H    0.285769
    11  C   -0.444449
    12  H    0.468714
    13  H    0.258538
    14  O   -0.504224
    15  H    0.333346
    16  O   -1.078925
    17  H    0.892031
    18  O   -0.904837
    19  H    0.790993
    20  O   -0.806479
    21  H    0.667011
    22  O   -0.808372
    23  H    0.625707
    24  O   -1.074762
    25  H    0.558366
    26  H    0.235224
    27  H    0.829659
    28  O   -1.152032
    29  H    0.289625
    30  H    0.783646
 Sum of APT charges =  -0.00000
 APT charges with hydrogens summed into heavy atoms:
               1
     2  C    0.115583
     3  C    0.171321
     4  C    0.188994
     5  C    0.168639
     6  O   -0.401943
     7  C    0.131974
    11  C    0.282804
    14  O    0.054142
    16  O   -0.186894
    18  O   -0.113844
    20  O   -0.139469
    22  O   -0.182665
    24  O   -0.009878
    28  O   -0.078761
 Electronic spatial extent (au):  <R**2>=           3143.7652
 Charge=             -0.0000 electrons
 Dipole moment (field-independent basis, Debye):
    X=             -2.4585    Y=              3.1707    Z=             -0.3723  Tot=              4.0294
 Quadrupole moment (field-independent basis, Debye-Ang):
   XX=            -79.0943   YY=            -80.6669   ZZ=            -79.9122
   XY=             -4.9957   XZ=              0.4133   YZ=             -7.5128
 Traceless Quadrupole moment (field-independent basis, Debye-Ang):
   XX=              0.7968   YY=             -0.7757   ZZ=             -0.0211
   XY=             -4.9957   XZ=              0.4133   YZ=             -7.5128
 Octapole moment (field-independent basis, Debye-Ang**2):
  XXX=            -27.9482  YYY=             42.4580  ZZZ=              5.7533  XYY=              2.1812
  XXY=              3.1280  XXZ=              0.5052  XZZ=            -22.2211  YZZ=              6.1140
  YYZ=            -20.2271  XYZ=             10.8269
 Hexadecapole moment (field-independent basis, Debye-Ang**3):
 XXXX=          -1747.6119 YYYY=          -1272.6240 ZZZZ=           -303.3428 XXXY=            -14.7456
 XXXZ=             33.1236 YYYX=            -73.5439 YYYZ=            -81.0777 ZZZX=            -14.6320
 ZZZY=            -15.8876 XXYY=           -544.3554 XXZZ=           -287.9965 YYZZ=           -273.9027
 XXYZ=            -56.0802 YYXZ=              2.0433 ZZXY=              8.9702
 N-N= 1.114319336710D+03 E-N=-4.201749553743D+03  KE= 8.329950660868D+02
  Exact polarizability:   0.000   0.000   0.000   0.000   0.000   0.000
 Approx polarizability: 133.978   2.044 130.427   1.656  -0.370 125.208

 This type of calculation cannot be archived.


 KEEP CLOSE TO NATURES HEART, YOURSELF;
 AND BREAK CLEAR AWAY, ONCE IN A WHILE, AND
 CLIMB A MOUNTAIN OR SPEND A WEEK IN THE
 WOODS.  WASH YOUR SPIRIT CLEAN...
                                         -- JOHN MUIR
 Job cpu time:       0 days  1 hours  4 minutes 34.1 seconds.
 File lengths (MBytes):  RWF=    220 Int=      0 D2E=      0 Chk=      9 Scr=      1
 Normal termination of Gaussian 09 at Sat Jan 14 00:59:19 2017.
