 Entering Gaussian System, Link 0=g09
 Initial command:
 /global/software/gaussian/g09.e01/l1.exe "/scratch/10461034.yak.local/Gau-24236.inp" -scrdir="/scratch/10461034.yak.local/"
 Entering Link 1 = /global/software/gaussian/g09.e01/l1.exe PID=     24237.
  
 Copyright (c) 1988,1990,1992,1993,1995,1998,2003,2009,2015,
            Gaussian, Inc.  All Rights Reserved.
  
 This is part of the Gaussian(R) 09 program.  It is based on
 the Gaussian(R) 03 system (copyright 2003, Gaussian, Inc.),
 the Gaussian(R) 98 system (copyright 1998, Gaussian, Inc.),
 the Gaussian(R) 94 system (copyright 1995, Gaussian, Inc.),
 the Gaussian 92(TM) system (copyright 1992, Gaussian, Inc.),
 the Gaussian 90(TM) system (copyright 1990, Gaussian, Inc.),
 the Gaussian 88(TM) system (copyright 1988, Gaussian, Inc.),
 the Gaussian 86(TM) system (copyright 1986, Carnegie Mellon
 University), and the Gaussian 82(TM) system (copyright 1983,
 Carnegie Mellon University). Gaussian is a federally registered
 trademark of Gaussian, Inc.
  
 This software contains proprietary and confidential information,
 including trade secrets, belonging to Gaussian, Inc.
  
 This software is provided under written license and may be
 used, copied, transmitted, or stored only in accord with that
 written license.
  
 The following legend is applicable only to US Government
 contracts under FAR:
  
                    RESTRICTED RIGHTS LEGEND
  
 Use, reproduction and disclosure by the US Government is
 subject to restrictions as set forth in subparagraphs (a)
 and (c) of the Commercial Computer Software - Restricted
 Rights clause in FAR 52.227-19.
  
 Gaussian, Inc.
 340 Quinnipiac St., Bldg. 40, Wallingford CT 06492
  
  
 ---------------------------------------------------------------
 Warning -- This program may not be used in any manner that
 competes with the business of Gaussian, Inc. or will provide
 assistance to any competitor of Gaussian, Inc.  The licensee
 of this program is prohibited from giving any competitor of
 Gaussian, Inc. access to this program.  By using this program,
 the user acknowledges that Gaussian, Inc. is engaged in the
 business of creating and licensing software in the field of
 computational chemistry and represents and warrants to the
 licensee that it is not a competitor of Gaussian, Inc. and that
 it will not use this program in any manner prohibited above.
 ---------------------------------------------------------------
  

 Cite this work as:
 Gaussian 09, Revision E.01,
 M. J. Frisch, G. W. Trucks, H. B. Schlegel, G. E. Scuseria, 
 M. A. Robb, J. R. Cheeseman, G. Scalmani, V. Barone, B. Mennucci, 
 G. A. Petersson, H. Nakatsuji, M. Caricato, X. Li, H. P. Hratchian, 
 A. F. Izmaylov, J. Bloino, G. Zheng, J. L. Sonnenberg, M. Hada, 
 M. Ehara, K. Toyota, R. Fukuda, J. Hasegawa, M. Ishida, T. Nakajima, 
 Y. Honda, O. Kitao, H. Nakai, T. Vreven, J. A. Montgomery, Jr., 
 J. E. Peralta, F. Ogliaro, M. Bearpark, J. J. Heyd, E. Brothers, 
 K. N. Kudin, V. N. Staroverov, T. Keith, R. Kobayashi, J. Normand, 
 K. Raghavachari, A. Rendell, J. C. Burant, S. S. Iyengar, J. Tomasi, 
 M. Cossi, N. Rega, J. M. Millam, M. Klene, J. E. Knox, J. B. Cross, 
 V. Bakken, C. Adamo, J. Jaramillo, R. Gomperts, R. E. Stratmann, 
 O. Yazyev, A. J. Austin, R. Cammi, C. Pomelli, J. W. Ochterski, 
 R. L. Martin, K. Morokuma, V. G. Zakrzewski, G. A. Voth, 
 P. Salvador, J. J. Dannenberg, S. Dapprich, A. D. Daniels, 
 O. Farkas, J. B. Foresman, J. V. Ortiz, J. Cioslowski, 
 and D. J. Fox, Gaussian, Inc., Wallingford CT, 2013.
 
 ******************************************
 Gaussian 09:  ES64L-G09RevE.01 30-Nov-2015
                13-Jan-2017 
 ******************************************
 -------------------------------------
 # b3lyp/6-31g(d) irc=(calcfc,reverse)
 -------------------------------------
 1/10=4,14=-1,18=10,22=2,26=3,38=1,44=3/1,23;
 2/12=2,17=6,18=5,29=1,40=1/2;
 3/5=1,6=6,7=1,11=2,16=1,25=1,30=1,71=2,74=-5,140=1/1,2,3;
 4//1;
 5/5=2,38=5/2;
 8/6=4,10=90,11=11/1;
 11/6=1,8=1,9=11,15=111,16=1/1,2,10;
 10/6=1,13=1/2;
 6/7=2,8=2,9=2,10=2,28=1/1;
 7/10=1,18=20,25=1/1,2,3,16;
 1/10=4,14=-1,18=10,22=2,26=3,44=3/23(2);
 2/29=1/2;
 99/5=20/99;
 2/29=1/2;
 3/5=1,6=6,7=1,11=2,16=1,25=1,30=1,71=2,74=-5,140=1/1,2,3;
 4/5=5,16=3,69=1/1;
 5/5=2,38=5/2;
 8/6=4,10=90,11=11/1;
 11/6=1,8=1,9=11,15=111,16=1/1,2,10;
 10/6=1,13=1/2;
 7/10=1,18=20,25=1/1,2,3,16;
 1/14=-1,18=10,22=2,26=3,44=3/23(-8);
 2/29=1/2;
 6/7=2,8=2,9=2,10=2,19=2,28=1/1;
 99/5=20,9=1/99;
 ---------------------------------
 glo_2w_alpha_ts_boat1_B3LYP_631Gd
 ---------------------------------
 Symbolic Z-matrix:
 Charge =  0 Multiplicity = 1
 1                     1.40971  -0.94505  -1.28728 
 6                     1.27842  -0.8195   -0.20061 
 6                     0.22488   1.43175  -0.30135 
 6                    -1.00228  -0.1645    1.33801 
 6                    -0.88729   1.24638   0.73217 
 8                    -0.02502  -1.23631   0.16401 
 6                     1.49898   0.68193   0.07285 
 1                    -0.63531   1.90174   1.58611 
 1                     1.73066   0.85344   1.13875 
 6                     2.30927  -1.68988   0.51865 
 1                     2.16268  -2.74363   0.24366 
 1                     2.16438  -1.59748   1.60543 
 1                    -0.14099   1.03186  -1.26086 
 8                     3.61263  -1.23001   0.13179 
 1                     4.27633  -1.67634   0.67749 
 8                    -2.14138   1.6093    0.18547 
 1                    -2.00153   2.45735  -0.26687 
 8                     0.44833   2.83219  -0.41055 
 1                     1.29855   2.92455  -0.87541 
 8                     2.54459   1.20822  -0.7366 
 1                     3.32099   0.64416  -0.5661 
 1                    -0.29014  -0.33238   2.15633 
 8                    -2.13304  -0.72116   1.45051 
 8                    -1.51193  -1.48127  -1.74741 
 1                    -1.50615  -2.40125  -2.05444 
 1                    -2.62261  -1.20126  -1.21882 
 1                    -0.78682  -1.40711  -0.87124 
 8                    -3.53156  -0.89197  -0.54118 
 1                    -4.0386   -1.69296  -0.32735 
 1                    -2.97406  -0.64473   0.39403 
 
 IRC-IRC-IRC-IRC-IRC-IRC-IRC-IRC-IRC-IRC-IRC-IRC-IRC-IRC-IRC-IRC-IRC-IRC
 ------------------------------------------------------------------------
 INPUT DATA FOR L123
 ------------------------------------------------------------------------
 GENERAL PARAMETERS:
 Rxn path following direction = Reverse
 Maximum points per path      =  10
 Step size                    =   0.100 bohr
 Integration scheme           = HPC                                 
    Redo corrector integration= Yes                                 
    DWI Weight Power          =  2
    DWI will use Hessian update vectors when possible.
    Max correction cycles     =  20
 Initial Hessian              = CalcFC
 Hessian evaluation           = All updating
 Hessian updating method      = Bofill                              
 ------------------------------------------------------------------------
 IRC-IRC-IRC-IRC-IRC-IRC-IRC-IRC-IRC-IRC-IRC-IRC-IRC-IRC-IRC-IRC-IRC-IRC
                          Input orientation:                          
 ---------------------------------------------------------------------
 Center     Atomic      Atomic             Coordinates (Angstroms)
 Number     Number       Type             X           Y           Z
 ---------------------------------------------------------------------
      1          1           0        1.409710   -0.945045   -1.287276
      2          6           0        1.278419   -0.819495   -0.200613
      3          6           0        0.224877    1.431746   -0.301349
      4          6           0       -1.002276   -0.164502    1.338014
      5          6           0       -0.887290    1.246376    0.732170
      6          8           0       -0.025020   -1.236305    0.164010
      7          6           0        1.498981    0.681929    0.072847
      8          1           0       -0.635309    1.901744    1.586111
      9          1           0        1.730659    0.853441    1.138746
     10          6           0        2.309269   -1.689881    0.518649
     11          1           0        2.162681   -2.743629    0.243659
     12          1           0        2.164380   -1.597475    1.605430
     13          1           0       -0.140993    1.031863   -1.260858
     14          8           0        3.612629   -1.230010    0.131789
     15          1           0        4.276328   -1.676343    0.677486
     16          8           0       -2.141379    1.609298    0.185468
     17          1           0       -2.001528    2.457351   -0.266871
     18          8           0        0.448328    2.832191   -0.410551
     19          1           0        1.298551    2.924550   -0.875408
     20          8           0        2.544594    1.208222   -0.736601
     21          1           0        3.320989    0.644156   -0.566100
     22          1           0       -0.290135   -0.332384    2.156335
     23          8           0       -2.133036   -0.721159    1.450511
     24          8           0       -1.511929   -1.481267   -1.747410
     25          1           0       -1.506154   -2.401252   -2.054439
     26          1           0       -2.622614   -1.201264   -1.218819
     27          1           0       -0.786822   -1.407106   -0.871241
     28          8           0       -3.531557   -0.891965   -0.541183
     29          1           0       -4.038603   -1.692960   -0.327352
     30          1           0       -2.974064   -0.644725    0.394027
 ---------------------------------------------------------------------
                    Distance matrix (angstroms):
                    1          2          3          4          5
     1  H    0.000000
     2  C    1.101743   0.000000
     3  C    2.832846   2.487606   0.000000
     4  C    3.649530   2.828066   2.596425   0.000000
     5  C    3.762539   3.134996   1.529522   1.539755   0.000000
     6  O    2.061435   1.416204   2.719835   1.866032   2.688870
     7  C    2.122486   1.541980   1.524988   2.928033   2.539212
     8  H    4.532401   3.776226   2.126811   2.113194   1.105539
     9  H    3.036963   2.190233   2.162334   2.923157   2.678313
    10  C    2.150663   1.528909   3.842088   3.736907   4.345709
    11  H    2.479038   2.163698   4.635286   4.226874   5.045900
    12  H    3.059892   2.156843   4.071076   3.486063   4.261779
    13  H    2.512676   2.562494   1.102009   2.987848   2.138957
    14  O    2.635868   2.393230   4.330060   4.887498   5.171288
    15  H    3.551420   3.239244   5.199287   5.530427   5.933652
    16  O    4.615612   4.212257   2.422330   2.402558   1.415392
    17  H    4.924842   4.636827   2.451517   3.232379   1.925116
    18  O    3.995049   3.750725   1.422358   3.760572   2.367382
    19  H    3.893040   3.804422   1.926339   4.442441   3.190372
    20  O    2.495549   2.449922   2.370758   4.332284   3.733172
    21  H    2.588173   2.539281   3.205667   4.792723   4.444973
    22  H    3.888867   2.872776   3.068811   1.097715   2.208466
    23  O    4.482929   3.791293   3.641946   1.265362   2.437025
    24  O    3.005866   3.258307   3.686900   3.393149   3.738787
    25  H    3.348334   3.700334   4.556497   4.094592   4.631779
    26  H    4.041036   4.049759   3.985310   3.199651   3.578917
    27  H    2.282836   2.249500   3.067147   2.543874   3.101933
    28  O    4.997559   4.822562   4.423568   3.233859   3.631264
    29  H    5.582557   5.389780   5.285993   3.785355   4.437686
    30  H    4.704726   4.297412   3.876661   2.238230   2.836411
                    6          7          8          9         10
     6  O    0.000000
     7  C    2.451634   0.000000
     8  H    3.498882   2.886713   0.000000
     9  H    2.898199   1.104188   2.626191   0.000000
    10  C    2.404247   2.545739   4.765478   2.681007   0.000000
    11  H    2.657895   3.493440   5.586628   3.731854   1.098860
    12  H    2.646055   2.826172   4.481424   2.532370   1.100284
    13  H    2.681098   2.142601   3.017660   3.048445   4.071648
    14  O    3.637797   2.850700   5.474296   2.982707   1.435231
    15  H    4.354180   3.693331   6.144305   3.618425   1.973508
    16  O    3.546391   3.758313   2.077396   4.058662   5.550122
    17  H    4.211334   3.939682   2.368290   4.298547   6.033204
    18  O    4.136041   2.441551   2.454926   2.821373   4.977514
    19  H    4.488312   2.443094   3.293178   2.921134   4.925233
    20  O    3.659198   1.423200   3.998468   2.074918   3.167022
    21  H    3.907041   1.931164   4.676092   2.340822   2.765499
    22  H    2.203796   2.927574   2.331443   2.554462   3.358826
    23  O    2.522735   4.130153   3.023441   4.183862   4.641214
    24  O    2.434015   4.130173   4.829657   4.929010   4.447482
    25  H    2.910735   4.802311   5.703310   5.591638   4.656639
    26  H    2.942947   4.711938   4.630947   5.360122   5.251763
    27  H    1.296634   3.237324   4.124321   3.935458   3.405515
    28  O    3.593281   5.306646   4.551752   5.793058   5.989588
    29  H    4.069253   6.038633   5.307132   6.474410   6.403999
    30  H    3.016577   4.676676   3.657232   4.993348   5.387160
                   11         12         13         14         15
    11  H    0.000000
    12  H    1.779914   0.000000
    13  H    4.671705   4.521479   0.000000
    14  O    2.099025   2.098588   4.598392   0.000000
    15  H    2.407241   2.308165   5.532114   0.968243   0.000000
    16  O    6.121788   5.553309   2.535120   6.416631   7.226651
    17  H    6.682176   6.107529   2.545902   6.728619   7.575666
    18  O    5.869989   5.160519   2.076416   5.177684   6.013675
    19  H    5.841856   5.230003   2.408967   4.861046   5.696214
    20  O    4.089486   3.674453   2.741956   2.799960   3.649556
    21  H    3.670759   3.328392   3.552228   2.021040   2.800695
    22  H    3.935573   2.815776   3.682475   4.487325   4.984557
    23  O    4.898986   4.388589   3.793790   5.916978   6.526093
    24  O    4.365853   4.976976   2.903794   5.464029   6.278702
    25  H    4.342675   5.245333   3.778851   5.688000   6.436304
    26  H    5.236104   5.572134   3.338722   6.379908   7.170570
    27  H    3.424743   3.857426   2.552933   4.515817   5.301559
    28  O    6.038955   6.127756   3.964211   7.183771   7.941251
    29  H    6.315527   6.497827   4.846386   7.678964   8.375443
    30  H    5.551050   5.364591   3.684547   6.617843   7.328900
                   16         17         18         19         20
    16  O    0.000000
    17  H    0.971269   0.000000
    18  O    2.925284   2.482528   0.000000
    19  H    3.832553   3.388084   0.973397   0.000000
    20  O    4.792642   4.737953   2.671688   2.125482   0.000000
    21  H    5.597662   5.630844   3.614398   3.063678   0.974695
    22  H    3.328896   4.072274   4.141107   4.724723   4.333386
    23  O    2.651685   3.615193   4.770041   5.520587   5.512367
    24  O    3.699164   4.236085   4.922979   5.298151   4.970962
    25  H    4.637371   5.200656   5.823340   6.133568   5.583329
    26  H    3.178501   3.831112   5.133492   5.702263   5.721730
    27  H    3.471333   4.095705   4.439535   4.807498   4.237499
    28  O    2.952445   3.692445   5.452145   6.165017   6.431841
    29  H    3.842831   4.623680   6.373105   7.078628   7.205749
    30  H    2.411945   3.317452   4.944599   5.710204   5.930204
                   21         22         23         24         25
    21  H    0.000000
    22  H    4.626608   0.000000
    23  O    5.973039   2.011372   0.000000
    24  O    5.410177   4.248757   3.345181   0.000000
    25  H    5.898387   4.846600   3.937051   0.969883   0.000000
    26  H    6.257638   4.193695   2.755995   1.261519   1.839759
    27  H    4.601619   3.250837   2.770081   1.139716   1.704618
    28  O    7.022654   4.254004   2.439648   2.425110   2.944512
    29  H    7.725458   4.697966   2.781435   2.906107   3.146078
    30  H    6.496980   3.225951   1.352527   2.724591   3.351885
                   26         27         28         29         30
    26  H    0.000000
    27  H    1.879711   0.000000
    28  O    1.175174   2.812095   0.000000
    29  H    1.743991   3.309321   0.971809   0.000000
    30  H    1.741989   2.639348   1.116487   1.659044   0.000000
 Symmetry turned off by external request.
 Stoichiometry    C6H16O8
 Framework group  C1[X(C6H16O8)]
 Deg. of freedom    84
 Full point group                 C1      NOp   1
 Rotational constants (GHZ):      0.8541263      0.4717682      0.3736993
 Standard basis: 6-31G(d) (6D, 7F)
   242 basis functions,   456 primitive gaussians,   242 cartesian basis functions
    58 alpha electrons       58 beta electrons
       nuclear repulsion energy      1113.4748756297 Hartrees.
 NAtoms=   30 NActive=   30 NUniq=   30 SFac= 1.00D+00 NAtFMM=   60 NAOKFM=F Big=F
 Integral buffers will be    131072 words long.
 Raffenetti 2 integral format.
 Two-electron integral symmetry is turned off.
 One-electron integrals computed using PRISM.
 NBasis=   242 RedAO= T EigKep=  1.49D-03  NBF=   242
 NBsUse=   242 1.00D-06 EigRej= -1.00D+00 NBFU=   242
 ExpMin= 1.61D-01 ExpMax= 5.48D+03 ExpMxC= 8.25D+02 IAcc=1 IRadAn=         1 AccDes= 0.00D+00
 Harris functional with IExCor=  402 and IRadAn=       1 diagonalized for initial guess.
 HarFok:  IExCor=  402 AccDes= 0.00D+00 IRadAn=         1 IDoV= 1 UseB2=F ITyADJ=14
 ICtDFT=  3500011 ScaDFX=  1.000000  1.000000  1.000000  1.000000
 FoFCou: FMM=F IPFlag=           0 FMFlag=      100000 FMFlg1=           0
         NFxFlg=           0 DoJE=T BraDBF=F KetDBF=T FulRan=T
         wScrn=  0.000000 ICntrl=     500 IOpCl=  0 I1Cent=   200000004 NGrid=           0
         NMat0=    1 NMatS0=      1 NMatT0=    0 NMatD0=    1 NMtDS0=    0 NMtDT0=    0
 Symmetry not used in FoFCou.
 Requested convergence on RMS density matrix=1.00D-08 within 128 cycles.
 Requested convergence on MAX density matrix=1.00D-06.
 Requested convergence on             energy=1.00D-06.
 No special actions if energy rises.
 Integral accuracy reduced to 1.0D-05 until final iterations.
 Initial convergence to 1.0D-05 achieved.  Increase integral accuracy.
 SCF Done:  E(RB3LYP) =  -839.955053859     A.U. after   14 cycles
            NFock= 14  Conv=0.77D-08     -V/T= 2.0086
 DoSCS=F DFT=T ScalE2(SS,OS)=  1.000000  1.000000
 Range of M.O.s used for correlation:     1   242
 NBasis=   242 NAE=    58 NBE=    58 NFC=     0 NFV=     0
 NROrb=    242 NOA=    58 NOB=    58 NVA=   184 NVB=   184
 Symmetrizing basis deriv contribution to polar:
 IMax=3 JMax=2 DiffMx= 0.00D+00
 G2DrvN: will do    31 centers at a time, making    1 passes.
 Calling FoFCou, ICntrl=  3107 FMM=F I1Cent=   0 AccDes= 0.00D+00.
 End of G2Drv F.D. properties file   721 does not exist.
 End of G2Drv F.D. properties file   722 does not exist.
 End of G2Drv F.D. properties file   788 does not exist.
          IDoAtm=111111111111111111111111111111
          Differentiating once with respect to nuclear coordinates.
          There are    93 degrees of freedom in the 1st order CPHF.  IDoFFX=6 NUNeed=     0.
     87 vectors produced by pass  0 Test12= 1.15D-14 1.08D-09 XBig12= 1.39D-01 6.82D-02.
 AX will form    87 AO Fock derivatives at one time.
     87 vectors produced by pass  1 Test12= 1.15D-14 1.08D-09 XBig12= 2.73D-02 2.26D-02.
     87 vectors produced by pass  2 Test12= 1.15D-14 1.08D-09 XBig12= 2.54D-04 2.32D-03.
     87 vectors produced by pass  3 Test12= 1.15D-14 1.08D-09 XBig12= 6.17D-07 9.82D-05.
     87 vectors produced by pass  4 Test12= 1.15D-14 1.08D-09 XBig12= 7.72D-10 2.76D-06.
     70 vectors produced by pass  5 Test12= 1.15D-14 1.08D-09 XBig12= 5.98D-13 7.44D-08.
      3 vectors produced by pass  6 Test12= 1.15D-14 1.08D-09 XBig12= 5.00D-16 1.89D-09.
 InvSVY:  IOpt=1 It=  1 EMax= 3.89D-16
 Solved reduced A of dimension   508 with    93 vectors.
 End of Minotr F.D. properties file   721 does not exist.
 End of Minotr F.D. properties file   722 does not exist.
 End of Minotr F.D. properties file   788 does not exist.

 **********************************************************************

            Population analysis using the SCF density.

 **********************************************************************

 Alpha  occ. eigenvalues --  -19.17099 -19.16963 -19.15444 -19.14170 -19.13804
 Alpha  occ. eigenvalues --  -19.13624 -19.12781 -19.11622 -10.27727 -10.23934
 Alpha  occ. eigenvalues --  -10.23193 -10.23169 -10.23148 -10.22752  -1.04783
 Alpha  occ. eigenvalues --   -1.04019  -1.03074  -1.01922  -1.00593  -1.00375
 Alpha  occ. eigenvalues --   -0.99376  -0.96851  -0.76991  -0.74284  -0.68506
 Alpha  occ. eigenvalues --   -0.62524  -0.59763  -0.56992  -0.55394  -0.54461
 Alpha  occ. eigenvalues --   -0.53874  -0.52319  -0.50713  -0.50596  -0.48108
 Alpha  occ. eigenvalues --   -0.45925  -0.45108  -0.43907  -0.43248  -0.43023
 Alpha  occ. eigenvalues --   -0.41436  -0.40761  -0.40025  -0.38207  -0.37165
 Alpha  occ. eigenvalues --   -0.36620  -0.34821  -0.34485  -0.32846  -0.31734
 Alpha  occ. eigenvalues --   -0.30836  -0.29011  -0.28780  -0.26448  -0.26370
 Alpha  occ. eigenvalues --   -0.25944  -0.24652  -0.24140
 Alpha virt. eigenvalues --    0.03221   0.05002   0.05495   0.08256   0.09142
 Alpha virt. eigenvalues --    0.09530   0.11819   0.12469   0.14281   0.14966
 Alpha virt. eigenvalues --    0.16415   0.16691   0.17428   0.18185   0.20485
 Alpha virt. eigenvalues --    0.21111   0.21537   0.22212   0.24724   0.27190
 Alpha virt. eigenvalues --    0.28196   0.28657   0.28898   0.29920   0.32748
 Alpha virt. eigenvalues --    0.32983   0.35073   0.39856   0.53216   0.54428
 Alpha virt. eigenvalues --    0.55480   0.56846   0.57944   0.59292   0.60910
 Alpha virt. eigenvalues --    0.62183   0.64322   0.64548   0.65433   0.66452
 Alpha virt. eigenvalues --    0.67369   0.67977   0.70395   0.73092   0.74749
 Alpha virt. eigenvalues --    0.75815   0.76144   0.76925   0.79501   0.79875
 Alpha virt. eigenvalues --    0.81069   0.82438   0.82920   0.83665   0.84431
 Alpha virt. eigenvalues --    0.85815   0.86676   0.88266   0.88499   0.89619
 Alpha virt. eigenvalues --    0.91539   0.92500   0.93817   0.94815   0.96861
 Alpha virt. eigenvalues --    0.97104   0.98834   1.01287   1.01745   1.02652
 Alpha virt. eigenvalues --    1.03348   1.04395   1.07342   1.08312   1.09710
 Alpha virt. eigenvalues --    1.11012   1.13752   1.15606   1.16462   1.16768
 Alpha virt. eigenvalues --    1.19315   1.23916   1.24993   1.28286   1.29563
 Alpha virt. eigenvalues --    1.30579   1.33176   1.35284   1.36020   1.39191
 Alpha virt. eigenvalues --    1.42533   1.43682   1.47678   1.50044   1.51683
 Alpha virt. eigenvalues --    1.53473   1.55284   1.57146   1.58932   1.61441
 Alpha virt. eigenvalues --    1.62199   1.65148   1.66865   1.67995   1.68575
 Alpha virt. eigenvalues --    1.70285   1.71125   1.72357   1.73035   1.75661
 Alpha virt. eigenvalues --    1.76463   1.77164   1.78505   1.80485   1.81172
 Alpha virt. eigenvalues --    1.82795   1.83437   1.85869   1.86970   1.87914
 Alpha virt. eigenvalues --    1.88907   1.89904   1.92183   1.93121   1.94938
 Alpha virt. eigenvalues --    1.97432   1.99365   2.02750   2.04978   2.07225
 Alpha virt. eigenvalues --    2.08038   2.11151   2.11984   2.13578   2.16819
 Alpha virt. eigenvalues --    2.20048   2.21662   2.27305   2.28572   2.30464
 Alpha virt. eigenvalues --    2.31998   2.33942   2.36017   2.37805   2.42783
 Alpha virt. eigenvalues --    2.44783   2.45908   2.47646   2.49382   2.50792
 Alpha virt. eigenvalues --    2.51424   2.53229   2.56283   2.58037   2.60505
 Alpha virt. eigenvalues --    2.63166   2.66191   2.67071   2.69999   2.75597
 Alpha virt. eigenvalues --    2.77439   2.80014   2.83618   2.88569   2.91434
 Alpha virt. eigenvalues --    2.93804   2.98062   3.00378   3.03020   3.12170
 Alpha virt. eigenvalues --    3.75856   3.77055   3.80135   3.85589   3.91876
 Alpha virt. eigenvalues --    3.99513   4.09450   4.22962   4.27153   4.35826
 Alpha virt. eigenvalues --    4.43194   4.50433   4.65278   4.78797
          Condensed to atoms (all electrons):
               1          2          3          4          5          6
     1  H    0.643477   0.351295  -0.009497   0.001509   0.000026  -0.033326
     2  C    0.351295   4.957535  -0.025190  -0.001789  -0.010829   0.159988
     3  C   -0.009497  -0.025190   4.983667  -0.023711   0.315366   0.001555
     4  C    0.001509  -0.001789  -0.023711   4.706745   0.260812   0.080520
     5  C    0.000026  -0.010829   0.315366   0.260812   5.056104  -0.028518
     6  O   -0.033326   0.159988   0.001555   0.080520  -0.028518   8.589758
     7  C   -0.052949   0.286836   0.277905  -0.011037  -0.011429  -0.039965
     8  H    0.000011   0.000878  -0.046520  -0.045815   0.327284   0.002179
     9  H    0.007527  -0.057509  -0.056188  -0.000797  -0.004891   0.002847
    10  C   -0.056059   0.351372   0.004542  -0.000671  -0.000391  -0.041881
    11  H   -0.007183  -0.034699  -0.000103  -0.000020   0.000004   0.004257
    12  H    0.006877  -0.032655  -0.000200   0.000133  -0.000014   0.003599
    13  H    0.006077  -0.000875   0.347687  -0.001689  -0.051118   0.003508
    14  O    0.004388  -0.044859   0.000136   0.000017   0.000001   0.001187
    15  H   -0.000233   0.005484   0.000008  -0.000001  -0.000000  -0.000093
    16  O   -0.000004   0.000033  -0.035023  -0.040240   0.239758  -0.000021
    17  H   -0.000001  -0.000034  -0.006887   0.006382  -0.029612  -0.000055
    18  O   -0.000092   0.002751   0.217148   0.002096  -0.042983   0.000095
    19  H    0.000050   0.000647  -0.028622  -0.000176   0.006032  -0.000016
    20  O    0.005516  -0.034454  -0.030676   0.000154   0.001938   0.001593
    21  H    0.000815  -0.006081   0.005112  -0.000001  -0.000144   0.000011
    22  H   -0.000197   0.001218   0.001549   0.363055  -0.080829  -0.031620
    23  O   -0.000082   0.001639   0.000775   0.389585  -0.045078  -0.037690
    24  O    0.005076   0.004016  -0.001173   0.004457  -0.000378  -0.094879
    25  H   -0.000330  -0.000151   0.000050  -0.000137  -0.000006   0.004322
    26  H   -0.000101   0.000001  -0.000129  -0.000943  -0.000288   0.003456
    27  H   -0.007651  -0.005215  -0.000197  -0.004436   0.000673   0.111323
    28  O    0.000007  -0.000010  -0.000012   0.013074   0.000321  -0.000717
    29  H   -0.000001   0.000002  -0.000000  -0.000347  -0.000018   0.000009
    30  H   -0.000004  -0.000070   0.000399  -0.022052  -0.008325   0.001628
               7          8          9         10         11         12
     1  H   -0.052949   0.000011   0.007527  -0.056059  -0.007183   0.006877
     2  C    0.286836   0.000878  -0.057509   0.351372  -0.034699  -0.032655
     3  C    0.277905  -0.046520  -0.056188   0.004542  -0.000103  -0.000200
     4  C   -0.011037  -0.045815  -0.000797  -0.000671  -0.000020   0.000133
     5  C   -0.011429   0.327284  -0.004891  -0.000391   0.000004  -0.000014
     6  O   -0.039965   0.002179   0.002847  -0.041881   0.004257   0.003599
     7  C    5.066752  -0.004116   0.349787  -0.051128   0.006576  -0.012383
     8  H   -0.004116   0.652094   0.006467   0.000046  -0.000001  -0.000014
     9  H    0.349787   0.006467   0.678279  -0.005806   0.000073   0.004959
    10  C   -0.051128   0.000046  -0.005806   4.950818   0.358875   0.355311
    11  H    0.006576  -0.000001   0.000073   0.358875   0.624139  -0.050994
    12  H   -0.012383  -0.000014   0.004959   0.355311  -0.050994   0.631015
    13  H   -0.058489   0.008332   0.007746   0.000336  -0.000000   0.000007
    14  O    0.010312  -0.000000   0.000332   0.203791  -0.034528  -0.034476
    15  H   -0.000142   0.000000  -0.000066  -0.017718  -0.002666  -0.005384
    16  O    0.004141  -0.039525  -0.000018   0.000000  -0.000000   0.000000
    17  H    0.000746  -0.002093  -0.000015   0.000000  -0.000000  -0.000000
    18  O   -0.029064   0.001184   0.000576  -0.000046   0.000000  -0.000001
    19  H   -0.016166  -0.000167   0.000645  -0.000019   0.000001   0.000000
    20  O    0.206020  -0.000163  -0.042932   0.000864  -0.000257   0.000053
    21  H   -0.024755   0.000006  -0.001925  -0.003344   0.000323   0.000494
    22  H    0.001187   0.002052   0.001707   0.000365  -0.000027   0.001426
    23  O    0.000029   0.001096   0.000029  -0.000016   0.000004  -0.000031
    24  O   -0.000487  -0.000001   0.000000  -0.000122  -0.000006   0.000004
    25  H    0.000014   0.000000   0.000000   0.000012   0.000007  -0.000001
    26  H    0.000014   0.000035   0.000001   0.000003  -0.000000  -0.000000
    27  H    0.002955  -0.000033  -0.000117   0.000797   0.000235  -0.000096
    28  O    0.000001  -0.000022  -0.000000  -0.000000   0.000000  -0.000000
    29  H    0.000000   0.000002   0.000000  -0.000000   0.000000   0.000000
    30  H   -0.000009   0.000240   0.000002   0.000001  -0.000000   0.000000
              13         14         15         16         17         18
     1  H    0.006077   0.004388  -0.000233  -0.000004  -0.000001  -0.000092
     2  C   -0.000875  -0.044859   0.005484   0.000033  -0.000034   0.002751
     3  C    0.347687   0.000136   0.000008  -0.035023  -0.006887   0.217148
     4  C   -0.001689   0.000017  -0.000001  -0.040240   0.006382   0.002096
     5  C   -0.051118   0.000001  -0.000000   0.239758  -0.029612  -0.042983
     6  O    0.003508   0.001187  -0.000093  -0.000021  -0.000055   0.000095
     7  C   -0.058489   0.010312  -0.000142   0.004141   0.000746  -0.029064
     8  H    0.008332  -0.000000   0.000000  -0.039525  -0.002093   0.001184
     9  H    0.007746   0.000332  -0.000066  -0.000018  -0.000015   0.000576
    10  C    0.000336   0.203791  -0.017718   0.000000   0.000000  -0.000046
    11  H   -0.000000  -0.034528  -0.002666  -0.000000  -0.000000   0.000000
    12  H    0.000007  -0.034476  -0.005384   0.000000  -0.000000  -0.000001
    13  H    0.641172  -0.000011   0.000001   0.001836  -0.000720  -0.044932
    14  O   -0.000011   8.272872   0.234329  -0.000000   0.000000  -0.000000
    15  H    0.000001   0.234329   0.380795   0.000000  -0.000000   0.000000
    16  O    0.001836  -0.000000   0.000000   8.259491   0.239016  -0.001724
    17  H   -0.000720   0.000000  -0.000000   0.239016   0.371437   0.011823
    18  O   -0.044932  -0.000000   0.000000  -0.001724   0.011823   8.324036
    19  H   -0.000161   0.000005  -0.000000  -0.000103  -0.000415   0.235276
    20  O   -0.000190  -0.012204   0.000541  -0.000012  -0.000003  -0.009044
    21  H   -0.000236   0.038856  -0.001315   0.000001   0.000000   0.000236
    22  H    0.000077  -0.000021  -0.000001   0.002551  -0.000234  -0.000138
    23  O    0.000099   0.000000  -0.000000  -0.002011   0.000045  -0.000013
    24  O    0.005055   0.000000  -0.000000  -0.000160   0.000007   0.000001
    25  H   -0.000092  -0.000000   0.000000   0.000005  -0.000000  -0.000000
    26  H    0.000341  -0.000000   0.000000   0.001872  -0.000043  -0.000001
    27  H   -0.001952  -0.000010   0.000001   0.000360  -0.000011  -0.000004
    28  O   -0.000006   0.000000  -0.000000  -0.001190   0.000147   0.000000
    29  H    0.000001   0.000000  -0.000000   0.000210  -0.000008  -0.000000
    30  H    0.000026  -0.000000   0.000000   0.008463  -0.000335  -0.000004
              19         20         21         22         23         24
     1  H    0.000050   0.005516   0.000815  -0.000197  -0.000082   0.005076
     2  C    0.000647  -0.034454  -0.006081   0.001218   0.001639   0.004016
     3  C   -0.028622  -0.030676   0.005112   0.001549   0.000775  -0.001173
     4  C   -0.000176   0.000154  -0.000001   0.363055   0.389585   0.004457
     5  C    0.006032   0.001938  -0.000144  -0.080829  -0.045078  -0.000378
     6  O   -0.000016   0.001593   0.000011  -0.031620  -0.037690  -0.094879
     7  C   -0.016166   0.206020  -0.024755   0.001187   0.000029  -0.000487
     8  H   -0.000167  -0.000163   0.000006   0.002052   0.001096  -0.000001
     9  H    0.000645  -0.042932  -0.001925   0.001707   0.000029   0.000000
    10  C   -0.000019   0.000864  -0.003344   0.000365  -0.000016  -0.000122
    11  H    0.000001  -0.000257   0.000323  -0.000027   0.000004  -0.000006
    12  H    0.000000   0.000053   0.000494   0.001426  -0.000031   0.000004
    13  H   -0.000161  -0.000190  -0.000236   0.000077   0.000099   0.005055
    14  O    0.000005  -0.012204   0.038856  -0.000021   0.000000   0.000000
    15  H   -0.000000   0.000541  -0.001315  -0.000001  -0.000000  -0.000000
    16  O   -0.000103  -0.000012   0.000001   0.002551  -0.002011  -0.000160
    17  H   -0.000415  -0.000003   0.000000  -0.000234   0.000045   0.000007
    18  O    0.235276  -0.009044   0.000236  -0.000138  -0.000013   0.000001
    19  H    0.357359   0.028665  -0.000691   0.000012   0.000001  -0.000000
    20  O    0.028665   8.331465   0.231134  -0.000002  -0.000000   0.000002
    21  H   -0.000691   0.231134   0.336890  -0.000003  -0.000000   0.000000
    22  H    0.000012  -0.000002  -0.000003   0.647584  -0.040518  -0.000061
    23  O    0.000001  -0.000000  -0.000000  -0.040518   8.266902  -0.002032
    24  O   -0.000000   0.000002   0.000000  -0.000061  -0.002032   8.529454
    25  H    0.000000  -0.000000  -0.000000   0.000003   0.000069   0.226869
    26  H   -0.000000  -0.000000  -0.000000   0.000087   0.005381   0.130040
    27  H    0.000001  -0.000050  -0.000003   0.001266   0.005590   0.123562
    28  O   -0.000000   0.000000   0.000000  -0.000261  -0.086209  -0.099311
    29  H   -0.000000  -0.000000  -0.000000   0.000016   0.004750   0.004792
    30  H    0.000000   0.000000  -0.000000   0.002956   0.130620   0.005119
              25         26         27         28         29         30
     1  H   -0.000330  -0.000101  -0.007651   0.000007  -0.000001  -0.000004
     2  C   -0.000151   0.000001  -0.005215  -0.000010   0.000002  -0.000070
     3  C    0.000050  -0.000129  -0.000197  -0.000012  -0.000000   0.000399
     4  C   -0.000137  -0.000943  -0.004436   0.013074  -0.000347  -0.022052
     5  C   -0.000006  -0.000288   0.000673   0.000321  -0.000018  -0.008325
     6  O    0.004322   0.003456   0.111323  -0.000717   0.000009   0.001628
     7  C    0.000014   0.000014   0.002955   0.000001   0.000000  -0.000009
     8  H    0.000000   0.000035  -0.000033  -0.000022   0.000002   0.000240
     9  H    0.000000   0.000001  -0.000117  -0.000000   0.000000   0.000002
    10  C    0.000012   0.000003   0.000797  -0.000000  -0.000000   0.000001
    11  H    0.000007  -0.000000   0.000235   0.000000   0.000000  -0.000000
    12  H   -0.000001  -0.000000  -0.000096  -0.000000   0.000000   0.000000
    13  H   -0.000092   0.000341  -0.001952  -0.000006   0.000001   0.000026
    14  O   -0.000000  -0.000000  -0.000010   0.000000   0.000000  -0.000000
    15  H    0.000000   0.000000   0.000001  -0.000000  -0.000000   0.000000
    16  O    0.000005   0.001872   0.000360  -0.001190   0.000210   0.008463
    17  H   -0.000000  -0.000043  -0.000011   0.000147  -0.000008  -0.000335
    18  O   -0.000000  -0.000001  -0.000004   0.000000  -0.000000  -0.000004
    19  H    0.000000  -0.000000   0.000001  -0.000000  -0.000000   0.000000
    20  O   -0.000000  -0.000000  -0.000050   0.000000  -0.000000   0.000000
    21  H   -0.000000  -0.000000  -0.000003   0.000000  -0.000000  -0.000000
    22  H    0.000003   0.000087   0.001266  -0.000261   0.000016   0.002956
    23  O    0.000069   0.005381   0.005590  -0.086209   0.004750   0.130620
    24  O    0.226869   0.130040   0.123562  -0.099311   0.004792   0.005119
    25  H    0.377710  -0.005712  -0.003551   0.004678  -0.000290  -0.000193
    26  H   -0.005712   0.282769  -0.005967   0.136096  -0.004753  -0.008096
    27  H   -0.003551  -0.005967   0.305462   0.005676  -0.000041  -0.000202
    28  O    0.004678   0.136096   0.005676   8.470625   0.230921   0.128001
    29  H   -0.000290  -0.004753  -0.000041   0.230921   0.367181  -0.007682
    30  H   -0.000193  -0.008096  -0.000202   0.128001  -0.007682   0.282228
 Mulliken charges:
               1
     1  H    0.135055
     2  C    0.130726
     3  C    0.108230
     4  C    0.325323
     5  C    0.106532
     6  O   -0.663050
     7  C    0.098847
     8  H    0.136564
     9  H    0.109287
    10  C   -0.049931
    11  H    0.135990
    12  H    0.132371
    13  H    0.138172
    14  O   -0.640116
    15  H    0.406461
    16  O   -0.637706
    17  H    0.410865
    18  O   -0.667177
    19  H    0.417842
    20  O   -0.677959
    21  H    0.424619
    22  H    0.126801
    23  O   -0.592935
    24  O   -0.839843
    25  H    0.396724
    26  H    0.465937
    27  H    0.471634
    28  O   -0.801808
    29  H    0.405258
    30  H    0.487287
 Sum of Mulliken charges =  -0.00000
 Mulliken charges with hydrogens summed into heavy atoms:
               1
     2  C    0.265781
     3  C    0.246402
     4  C    0.452124
     5  C    0.243096
     6  O   -0.663050
     7  C    0.208135
    10  C    0.218429
    14  O   -0.233655
    16  O   -0.226841
    18  O   -0.249335
    20  O   -0.253340
    23  O   -0.592935
    24  O    0.028515
    28  O    0.556674
 APT charges:
               1
     1  H    0.346718
     2  C   -0.270068
     3  C   -0.064228
     4  C   -0.388742
     5  C   -0.322118
     6  O   -0.501556
     7  C   -0.231120
     8  H    0.430648
     9  H    0.337989
    10  C   -0.475851
    11  H    0.467809
    12  H    0.323779
    13  H    0.256512
    14  O   -1.183091
    15  H    1.006877
    16  O   -0.802962
    17  H    0.699571
    18  O   -0.841825
    19  H    0.666649
    20  O   -0.860880
    21  H    0.690101
    22  H    0.381204
    23  O   -0.188688
    24  O   -1.171346
    25  H    0.815070
    26  H    0.373015
    27  H    0.381196
    28  O   -1.137777
    29  H    0.916641
    30  H    0.346473
 Sum of APT charges =  -0.00000
 APT charges with hydrogens summed into heavy atoms:
               1
     2  C    0.076650
     3  C    0.192284
     4  C   -0.007537
     5  C    0.108530
     6  O   -0.501556
     7  C    0.106869
    10  C    0.315737
    14  O   -0.176214
    16  O   -0.103391
    18  O   -0.175176
    20  O   -0.170779
    23  O   -0.188688
    24  O    0.024919
    28  O    0.498352
 Electronic spatial extent (au):  <R**2>=           3138.4912
 Charge=              0.0000 electrons
 Dipole moment (field-independent basis, Debye):
    X=              2.2092    Y=             -4.0792    Z=              0.0180  Tot=              4.6391
 Quadrupole moment (field-independent basis, Debye-Ang):
   XX=            -72.9101   YY=            -74.9173   ZZ=            -84.0963
   XY=              1.9937   XZ=              9.5880   YZ=              3.2016
 Traceless Quadrupole moment (field-independent basis, Debye-Ang):
   XX=              4.3978   YY=              2.3906   ZZ=             -6.7884
   XY=              1.9937   XZ=              9.5880   YZ=              3.2016
 Octapole moment (field-independent basis, Debye-Ang**2):
  XXX=             22.8921  YYY=            -35.9207  ZZZ=             -6.7948  XYY=            -20.3604
  XXY=            -58.1862  XXZ=              9.2481  XZZ=              7.1209  YZZ=             -4.3146
  YYZ=            -22.1796  XYZ=            -18.5652
 Hexadecapole moment (field-independent basis, Debye-Ang**3):
 XXXX=          -1740.9802 YYYY=          -1007.9242 ZZZZ=           -454.5071 XXXY=             55.1327
 XXXZ=            101.4694 YYYX=             32.7925 YYYZ=             21.3577 ZZZX=             22.0539
 ZZZY=             19.8749 XXYY=           -378.9279 XXZZ=           -436.1034 YYZZ=           -221.1003
 XXYZ=            -22.3452 YYXZ=             46.9564 ZZXY=              3.0197
 N-N= 1.113474875630D+03 E-N=-4.200504504445D+03  KE= 8.327954376784D+02
  Exact polarizability:   0.000   0.000   0.000   0.000   0.000   0.000
 Approx polarizability: 156.672   3.029 128.223  -5.755   1.138 127.729
 Calling FoFJK, ICntrl=    100147 FMM=F ISym2X=0 I1Cent= 0 IOpClX= 0 NMat=1 NMatS=1 NMatT=0.
 -------------------------------------------------------------------
 Center     Atomic                   Forces (Hartrees/Bohr)
 Number     Number              X              Y              Z
 -------------------------------------------------------------------
      1        1           0.000003626    0.000002458   -0.000007176
      2        6          -0.000009547    0.000000709    0.000006780
      3        6           0.000007458    0.000007644    0.000011607
      4        6          -0.000000819   -0.000014918    0.000013421
      5        6          -0.000015083   -0.000003387    0.000003783
      6        8           0.000006158    0.000001572   -0.000001976
      7        6          -0.000001140   -0.000000775    0.000015480
      8        1          -0.000004005   -0.000001106    0.000007525
      9        1           0.000005537   -0.000000840   -0.000002675
     10        6          -0.000006206   -0.000002412   -0.000003048
     11        1          -0.000002487   -0.000000729   -0.000003453
     12        1          -0.000006032   -0.000004007    0.000000108
     13        1          -0.000003550    0.000002319   -0.000002284
     14        8          -0.000007298    0.000008574   -0.000000627
     15        1           0.000006224   -0.000017852    0.000002657
     16        8          -0.000001779    0.000003097    0.000009347
     17        1          -0.000004338   -0.000010580    0.000003126
     18        8          -0.000009672    0.000000906    0.000024013
     19        1           0.000007913    0.000004355    0.000002480
     20        8           0.000001693    0.000009074    0.000005150
     21        1           0.000004458    0.000000401   -0.000000449
     22        1          -0.000011675   -0.000001743   -0.000012430
     23        8           0.000013626   -0.000003919   -0.000010187
     24        8           0.000010332    0.000042809   -0.000027895
     25        1          -0.000000811   -0.000026776    0.000009905
     26        1           0.000007466   -0.000000760   -0.000007696
     27        1           0.000004614    0.000004883   -0.000004792
     28        8          -0.000016981    0.000038647   -0.000035736
     29        1           0.000024643   -0.000021274    0.000003847
     30        1          -0.000002326   -0.000016369    0.000001195
 -------------------------------------------------------------------
 Cartesian Forces:  Max     0.000042809 RMS     0.000011550
 IRC-IRC-IRC-IRC-IRC-IRC-IRC-IRC-IRC-IRC-IRC-IRC-IRC-IRC-IRC-IRC-IRC-IRC
          ******** Start new reaction path calculation ********
 Supplied step size of   0.1000 bohr.
    Integration on MW PES will use step size of   0.1065 sqrt(amu)*bohr.
 Point Number:   0          Path Number:   1
 Calculating another point on the path.
 IRC-IRC-IRC-IRC-IRC-IRC-IRC-IRC-IRC-IRC-IRC-IRC-IRC-IRC-IRC-IRC-IRC-IRC
                          Input orientation:                          
 ---------------------------------------------------------------------
 Center     Atomic      Atomic             Coordinates (Angstroms)
 Number     Number       Type             X           Y           Z
 ---------------------------------------------------------------------
      1          1           0        1.417228   -0.967014   -1.291919
      2          6           0        1.285156   -0.841792   -0.205625
      3          6           0        0.231033    1.409588   -0.305583
      4          6           0       -0.998388   -0.185745    1.336086
      5          6           0       -0.881262    1.224217    0.727846
      6          8           0       -0.018870   -1.259644    0.157377
      7          6           0        1.505104    0.659791    0.068596
      8          1           0       -0.628867    1.879490    1.581837
      9          1           0        1.736874    0.831125    1.134396
     10          6           0        2.315444   -1.712144    0.514352
     11          1           0        2.168917   -2.765881    0.239376
     12          1           0        2.170458   -1.619654    1.601091
     13          1           0       -0.134765    1.009859   -1.265228
     14          8           0        3.618744   -1.252174    0.127507
     15          1           0        4.282408   -1.698416    0.673334
     16          8           0       -2.135138    1.587188    0.181132
     17          1           0       -1.995453    2.435350   -0.271043
     18          8           0        0.454568    2.809997   -0.414842
     19          1           0        1.304695    2.902496   -0.879835
     20          8           0        2.550779    1.185975   -0.740901
     21          1           0        3.327372    0.622253   -0.570228
     22          1           0       -0.279951   -0.355309    2.149730
     23          8           0       -2.125192   -0.742966    1.447549
     24          8           0       -1.506823   -1.502877   -1.750732
     25          1           0       -1.503999   -2.423028   -2.057811
     26          1           0       -2.586183   -1.232522   -1.238606
     27          1           0       -0.763737   -1.424956   -0.853377
     28          8           0       -3.525957   -0.914254   -0.545895
     29          1           0       -4.033324   -1.714144   -0.329350
     30          1           0       -2.985879   -0.666438    0.370520
 ---------------------------------------------------------------------
                    Distance matrix (angstroms):
                    1          2          3          4          5
     1  H    0.000000
     2  C    1.101435   0.000000
     3  C    2.833400   2.487947   0.000000
     4  C    3.654038   2.832286   2.598392   0.000000
     5  C    3.763510   3.135782   1.529555   1.540021   0.000000
     6  O    2.061182   1.416635   2.720585   1.871382   2.690487
     7  C    2.122550   1.542182   1.524947   2.930688   2.539278
     8  H    4.532943   3.776755   2.126638   2.112377   1.105616
     9  H    3.036854   2.190515   2.162340   2.925126   2.678515
    10  C    2.150494   1.528847   3.842170   3.739869   4.345886
    11  H    2.479077   2.163603   4.635399   4.229858   5.046096
    12  H    3.059869   2.157093   4.071005   3.488253   4.261826
    13  H    2.513448   2.562722   1.102049   2.990342   2.139054
    14  O    2.634911   2.392702   4.330027   4.890383   5.171361
    15  H    3.550553   3.238810   5.199193   5.533012   5.933654
    16  O    4.616615   4.212830   2.422230   2.401959   1.415220
    17  H    4.925918   4.637493   2.451657   3.232204   1.925109
    18  O    3.995221   3.750895   1.422340   3.761821   2.367462
    19  H    3.893018   3.804555   1.926471   4.444292   3.190559
    20  O    2.494779   2.449523   2.370807   4.334983   3.733308
    21  H    2.587519   2.539096   3.205815   4.795737   4.445218
    22  H    3.885814   2.869481   3.066680   1.098599   2.208672
    23  O    4.483706   3.791203   3.641258   1.261985   2.436215
    24  O    3.007945   3.258763   3.686605   3.394376   3.737876
    25  H    3.352631   3.702741   4.557366   4.096293   4.631423
    26  H    4.012560   4.025790   3.973410   3.200918   3.579002
    27  H    2.271263   2.226572   3.053569   2.526748   3.087425
    28  O    4.999441   4.823675   4.424135   3.234375   3.631788
    29  H    5.585093   5.390968   5.286115   3.784246   4.437017
    30  H    4.716080   4.313286   3.887869   2.261306   2.851609
                    6          7          8          9         10
     6  O    0.000000
     7  C    2.452470   0.000000
     8  H    3.500764   2.886416   0.000000
     9  H    2.899745   1.104084   2.626025   0.000000
    10  C    2.404414   2.545864   4.765326   2.680936   0.000000
    11  H    2.657421   3.493572   5.586526   3.731780   1.098838
    12  H    2.647088   2.826147   4.481139   2.532216   1.100262
    13  H    2.681022   2.142616   3.017644   3.048471   4.071821
    14  O    3.637744   2.850711   5.473993   2.982515   1.435205
    15  H    4.354277   3.693273   6.143893   3.618135   1.973426
    16  O    3.547338   3.758203   2.077563   4.058672   5.550163
    17  H    4.212292   3.939780   2.368481   4.298728   6.033439
    18  O    4.136853   2.441459   2.454873   2.821415   4.977551
    19  H    4.488992   2.443238   3.293180   2.921384   4.925472
    20  O    3.659379   1.423233   3.998278   2.074873   3.167039
    21  H    3.907465   1.931364   4.675881   2.340738   2.765813
    22  H    2.203509   2.923690   2.332075   2.550708   3.354331
    23  O    2.523507   4.128957   3.022300   4.182270   4.639979
    24  O    2.431882   4.130229   4.828792   4.928803   4.447935
    25  H    2.909661   4.804173   5.703030   5.593117   4.659348
    26  H    2.922431   4.693427   4.633638   5.345896   5.227700
    27  H    1.266404   3.216184   4.107045   3.910779   3.381496
    28  O    3.593542   5.307240   4.552514   5.793714   5.990218
    29  H    4.069313   6.038883   5.306333   6.474267   6.404583
    30  H    3.033227   4.692438   3.674853   5.013043   5.405388
                   11         12         13         14         15
    11  H    0.000000
    12  H    1.779917   0.000000
    13  H    4.671937   4.521523   0.000000
    14  O    2.099006   2.098577   4.598405   0.000000
    15  H    2.407208   2.308088   5.532106   0.968251   0.000000
    16  O    6.121886   5.553222   2.535105   6.416542   7.226504
    17  H    6.682463   6.107599   2.546093   6.728736   7.575712
    18  O    5.870044   5.160433   2.076287   5.177585   6.013507
    19  H    5.842090   5.230142   2.408869   4.861157   5.696271
    20  O    4.089491   3.674388   2.741913   2.799866   3.649426
    21  H    3.671094   3.328547   3.552416   2.021189   2.800722
    22  H    3.931572   2.811419   3.680584   4.482586   4.979839
    23  O    4.898085   4.386885   3.793857   5.915623   6.524540
    24  O    4.366552   4.977022   2.903807   5.464620   6.279294
    25  H    4.345679   5.247343   3.779907   5.691134   6.439466
    26  H    5.210240   5.553322   3.322413   6.353564   7.144937
    27  H    3.404798   3.830381   2.548244   4.494232   5.279129
    28  O    6.039599   6.128318   3.964824   7.184317   7.941788
    29  H    6.316438   6.497879   4.847145   7.679601   8.375979
    30  H    5.567475   5.386162   3.689782   6.634998   7.347427
                   16         17         18         19         20
    16  O    0.000000
    17  H    0.971264   0.000000
    18  O    2.925240   2.482669   0.000000
    19  H    3.832511   3.388190   0.973391   0.000000
    20  O    4.792592   4.738136   2.671677   2.125670   0.000000
    21  H    5.597737   5.631102   3.614329   3.063755   0.974684
    22  H    3.330224   4.073189   4.139530   4.722569   4.329473
    23  O    2.652080   3.615534   4.769403   5.519985   5.511336
    24  O    3.698024   4.235312   4.922656   5.298151   4.971300
    25  H    4.636058   5.199798   5.824078   6.134949   5.585730
    26  H    3.189022   3.839065   5.125106   5.689114   5.699581
    27  H    3.467558   4.093678   4.428476   4.796452   4.220856
    28  O    2.952991   3.692944   5.452688   6.165573   6.432396
    29  H    3.842199   4.623269   6.373095   7.078901   7.206281
    30  H    2.416290   3.318680   4.953693   5.719240   5.943171
                   21         22         23         24         25
    21  H    0.000000
    22  H    4.622400   0.000000
    23  O    5.972077   2.012026   0.000000
    24  O    5.411026   4.246850   3.344973   0.000000
    25  H    5.901591   4.845323   3.936500   0.970043   0.000000
    26  H    6.233543   4.191543   2.769044   1.224902   1.805415
    27  H    4.583493   3.224414   2.759154   1.167688   1.730548
    28  O    7.023501   4.256215   2.442397   2.423842   2.941190
    29  H    7.726358   4.698944   2.782360   2.906573   3.144452
    30  H    6.511749   3.253373   1.380808   2.717894   3.343407
                   26         27         28         29         30
    26  H    0.000000
    27  H    1.872630   0.000000
    28  O    1.210090   2.825814   0.000000
    29  H    1.775647   3.323919   0.971667   0.000000
    30  H    1.751997   2.647866   1.092206   1.638489   0.000000
 Symmetry turned off by external request.
 Stoichiometry    C6H16O8
 Framework group  C1[X(C6H16O8)]
 Deg. of freedom    84
 Full point group                 C1      NOp   1
 Rotational constants (GHZ):      0.8540202      0.4717404      0.3736901
 Standard basis: 6-31G(d) (6D, 7F)
   242 basis functions,   456 primitive gaussians,   242 cartesian basis functions
    58 alpha electrons       58 beta electrons
       nuclear repulsion energy      1113.4746338572 Hartrees.
 NAtoms=   30 NActive=   30 NUniq=   30 SFac= 1.00D+00 NAtFMM=   60 NAOKFM=F Big=F
 Integral buffers will be    131072 words long.
 Raffenetti 2 integral format.
 Two-electron integral symmetry is turned off.
 One-electron integrals computed using PRISM.
 NBasis=   242 RedAO= T EigKep=  1.49D-03  NBF=   242
 NBsUse=   242 1.00D-06 EigRej= -1.00D+00 NBFU=   242
 Initial guess from the checkpoint file:  "/scratch/10461034.yak.local/Gau-24237.chk"
 B after Tr=     0.011977   -0.041921   -0.008203
         Rot=    1.000000    0.000007    0.000048   -0.000018 Ang=   0.01 deg.
 ExpMin= 1.61D-01 ExpMax= 5.48D+03 ExpMxC= 8.25D+02 IAcc=1 IRadAn=         1 AccDes= 0.00D+00
 Harris functional with IExCor=  402 and IRadAn=       1 diagonalized for initial guess.
 HarFok:  IExCor=  402 AccDes= 0.00D+00 IRadAn=         1 IDoV= 1 UseB2=F ITyADJ=14
 ICtDFT=  3500011 ScaDFX=  1.000000  1.000000  1.000000  1.000000
 FoFCou: FMM=F IPFlag=           0 FMFlag=      100000 FMFlg1=           0
         NFxFlg=           0 DoJE=T BraDBF=F KetDBF=T FulRan=T
         wScrn=  0.000000 ICntrl=     500 IOpCl=  0 I1Cent=   200000004 NGrid=           0
         NMat0=    1 NMatS0=      1 NMatT0=    0 NMatD0=    1 NMtDS0=    0 NMtDT0=    0
 Symmetry not used in FoFCou.
 Requested convergence on RMS density matrix=1.00D-08 within 128 cycles.
 Requested convergence on MAX density matrix=1.00D-06.
 Requested convergence on             energy=1.00D-06.
 No special actions if energy rises.
 Integral accuracy reduced to 1.0D-05 until final iterations.
 Initial convergence to 1.0D-05 achieved.  Increase integral accuracy.
 SCF Done:  E(RB3LYP) =  -839.955355212     A.U. after   11 cycles
            NFock= 11  Conv=0.77D-08     -V/T= 2.0086
 DoSCS=F DFT=T ScalE2(SS,OS)=  1.000000  1.000000
 Range of M.O.s used for correlation:     1   242
 NBasis=   242 NAE=    58 NBE=    58 NFC=     0 NFV=     0
 NROrb=    242 NOA=    58 NOB=    58 NVA=   184 NVB=   184
 Symmetrizing basis deriv contribution to polar:
 IMax=3 JMax=2 DiffMx= 0.00D+00
 Calling FoFJK, ICntrl=      2147 FMM=F ISym2X=0 I1Cent= 0 IOpClX= 0 NMat=1 NMatS=1 NMatT=0.
 -------------------------------------------------------------------
 Center     Atomic                   Forces (Hartrees/Bohr)
 Number     Number              X              Y              Z
 -------------------------------------------------------------------
      1        1           0.000123233    0.000020313   -0.000037715
      2        6           0.000628765   -0.000128192   -0.000853251
      3        6          -0.000060126    0.000023984    0.000072992
      4        6          -0.002643812    0.001110201    0.002781087
      5        6          -0.000248390    0.000018224   -0.000035732
      6        8          -0.000059044   -0.001823913   -0.003553802
      7        6          -0.000106562    0.000044236    0.000062242
      8        1           0.000020535   -0.000008720    0.000009546
      9        1           0.000006265   -0.000016675   -0.000008636
     10        6          -0.000050371   -0.000116337   -0.000005420
     11        1          -0.000000063   -0.000008750   -0.000002506
     12        1          -0.000019566   -0.000004752   -0.000005136
     13        1          -0.000002945    0.000018232   -0.000009536
     14        8          -0.000169114    0.000020344    0.000011841
     15        1          -0.000007599   -0.000008496    0.000016616
     16        8           0.000049982    0.000098887   -0.000058817
     17        1          -0.000019088    0.000006491    0.000014579
     18        8           0.000036017   -0.000039179    0.000024759
     19        1           0.000000426    0.000017010   -0.000011836
     20        8          -0.000043371   -0.000116720   -0.000007020
     21        1           0.000023055    0.000028464    0.000015535
     22        1           0.000361305   -0.000075104   -0.000247859
     23        8           0.002495678    0.000534040    0.002039316
     24        8          -0.001826546    0.000707381    0.000760403
     25        1          -0.000404408    0.000049908    0.000088428
     26        1           0.003231545   -0.000966222   -0.001824395
     27        1           0.002093092    0.000477126    0.002640406
     28        8          -0.002014045   -0.000222843   -0.000937012
     29        1          -0.000066755    0.000124862    0.000221962
     30        1          -0.001328092    0.000236198   -0.001161041
 -------------------------------------------------------------------
 Cartesian Forces:  Max     0.003553802 RMS     0.000961557
 IRC-IRC-IRC-IRC-IRC-IRC-IRC-IRC-IRC-IRC-IRC-IRC-IRC-IRC-IRC-IRC-IRC-IRC
 Pt  1 Step number   1 out of a maximum of  20
 Modified Bulirsch-Stoer Extrapolation Cycles:
    EPS =    0.000010000000000
 Maximum DWI energy   std dev =  0.000002115 at pt    46
 Maximum DWI gradient std dev =  0.106947901 at pt     1
 CORRECTOR INTEGRATION CONVERGENCE:
   Recorrection delta-x convergence threshold:    0.010000
   Delta-x Convergence Met
 Point Number:   1          Path Number:   1
   CHANGE IN THE REACTION COORDINATE =    0.10637
   NET REACTION COORDINATE UP TO THIS POINT =    0.10637
  # OF POINTS ALONG THE PATH =   1
  # OF STEPS =   1

 Calculating another point on the path.
 IRC-IRC-IRC-IRC-IRC-IRC-IRC-IRC-IRC-IRC-IRC-IRC-IRC-IRC-IRC-IRC-IRC-IRC
                          Input orientation:                          
 ---------------------------------------------------------------------
 Center     Atomic      Atomic             Coordinates (Angstroms)
 Number     Number       Type             X           Y           Z
 ---------------------------------------------------------------------
      1          1           0        1.418227   -0.966860   -1.292226
      2          6           0        1.285751   -0.841865   -0.206347
      3          6           0        0.230988    1.409619   -0.305540
      4          6           0       -1.000530   -0.184782    1.338255
      5          6           0       -0.881484    1.224251    0.727798
      6          8           0       -0.018967   -1.260763    0.155238
      7          6           0        1.505026    0.659842    0.068645
      8          1           0       -0.628628    1.879290    1.581961
      9          1           0        1.736929    0.830947    1.134350
     10          6           0        2.315404   -1.712252    0.514349
     11          1           0        2.168919   -2.765957    0.239342
     12          1           0        2.170290   -1.619718    1.601046
     13          1           0       -0.134810    1.010027   -1.265276
     14          8           0        3.618624   -1.252164    0.127520
     15          1           0        4.282248   -1.698456    0.673400
     16          8           0       -2.135085    1.587240    0.181127
     17          1           0       -1.995663    2.435474   -0.270960
     18          8           0        0.454591    2.809963   -0.414820
     19          1           0        1.304624    2.902684   -0.879931
     20          8           0        2.550743    1.185889   -0.740903
     21          1           0        3.327608    0.622598   -0.570062
     22          1           0       -0.276458   -0.356262    2.147477
     23          8           0       -2.123721   -0.742653    1.448748
     24          8           0       -1.507780   -1.502441   -1.750261
     25          1           0       -1.508207   -2.422770   -2.057094
     26          1           0       -2.555154   -1.241867   -1.255786
     27          1           0       -0.744066   -1.420303   -0.827950
     28          8           0       -3.527081   -0.914289   -0.546238
     29          1           0       -4.034185   -1.713321   -0.327152
     30          1           0       -3.000058   -0.665634    0.356325
 ---------------------------------------------------------------------
                    Distance matrix (angstroms):
                    1          2          3          4          5
     1  H    0.000000
     2  C    1.101049   0.000000
     3  C    2.833855   2.488281   0.000000
     4  C    3.658068   2.836306   2.600156   0.000000
     5  C    3.764324   3.136618   1.529622   1.540196   0.000000
     6  O    2.060839   1.417219   2.721348   1.876361   2.692036
     7  C    2.122655   1.542344   1.524911   2.933106   2.539384
     8  H    4.533336   3.777245   2.126545   2.111421   1.105716
     9  H    3.036767   2.190737   2.162407   2.926938   2.678817
    10  C    2.150408   1.528778   3.842277   3.742647   4.346114
    11  H    2.479112   2.163505   4.635505   4.232668   5.046316
    12  H    3.059877   2.157344   4.070976   3.490300   4.261930
    13  H    2.514106   2.562973   1.102077   2.992559   2.139102
    14  O    2.634165   2.392092   4.329978   4.893032   5.171454
    15  H    3.549865   3.238317   5.199150   5.535430   5.933743
    16  O    4.617382   4.213408   2.422125   2.401296   1.414965
    17  H    4.926815   4.638190   2.451846   3.231966   1.925091
    18  O    3.995350   3.751017   1.422288   3.762863   2.367521
    19  H    3.893105   3.804697   1.926621   4.445957   3.190768
    20  O    2.494169   2.449028   2.370836   4.337416   3.733462
    21  H    2.587206   2.538920   3.205999   4.798574   4.445546
    22  H    3.882827   2.866495   3.064822   1.099330   2.208974
    23  O    4.484261   3.791264   3.640666   1.258963   2.435494
    24  O    3.009678   3.259425   3.686546   3.395947   3.737361
    25  H    3.356890   3.705500   4.558502   4.098136   4.631325
    26  H    3.983053   4.001735   3.961809   3.203644   3.580156
    27  H    2.257581   2.200259   3.038437   2.506936   3.071303
    28  O    5.001532   4.825363   4.425106   3.235267   3.632589
    29  H    5.587250   5.392194   5.286295   3.783263   4.436414
    30  H    4.725431   4.326179   3.896716   2.278929   2.863218
                    6          7          8          9         10
     6  O    0.000000
     7  C    2.453320   0.000000
     8  H    3.502451   2.886115   0.000000
     9  H    2.901221   1.103985   2.625879   0.000000
    10  C    2.404598   2.546016   4.765113   2.680839   0.000000
    11  H    2.656977   3.493708   5.586342   3.731672   1.098809
    12  H    2.648028   2.826168   4.480777   2.532068   1.100241
    13  H    2.681001   2.142670   3.017654   3.048554   4.072029
    14  O    3.637706   2.850707   5.473623   2.982253   1.435165
    15  H    4.354368   3.693273   6.143489   3.617872   1.973312
    16  O    3.548203   3.758074   2.077749   4.058707   5.550184
    17  H    4.213211   3.939927   2.368849   4.299029   6.033709
    18  O    4.137636   2.441345   2.454923   2.821492   4.977590
    19  H    4.489740   2.443419   3.293283   2.921697   4.925783
    20  O    3.659588   1.423242   3.998113   2.074813   3.167059
    21  H    3.908026   1.931615   4.675712   2.340659   2.766230
    22  H    2.203052   2.920222   2.332708   2.547474   3.350159
    23  O    2.524202   4.127891   3.021198   4.180871   4.638864
    24  O    2.430206   4.130483   4.828325   4.928876   4.448508
    25  H    2.909039   4.806333   5.702991   5.594899   4.662312
    26  H    2.902342   4.675005   4.637449   5.332100   5.203555
    27  H    1.232023   3.192068   4.087581   3.882536   3.353708
    28  O    3.594298   5.308302   4.553499   5.794828   5.991346
    29  H    4.069335   6.039157   5.305600   6.474184   6.405108
    30  H    3.046559   4.704831   3.688158   5.028333   5.419827
                   11         12         13         14         15
    11  H    0.000000
    12  H    1.779916   0.000000
    13  H    4.672162   4.521598   0.000000
    14  O    2.098981   2.098582   4.598441   0.000000
    15  H    2.407100   2.308050   5.532156   0.968276   0.000000
    16  O    6.121941   5.553107   2.535025   6.416405   7.226361
    17  H    6.682742   6.107713   2.546240   6.728869   7.575841
    18  O    5.870071   5.160369   2.076159   5.177461   6.013403
    19  H    5.842369   5.230368   2.408861   4.861308   5.696453
    20  O    4.089469   3.674357   2.741914   2.799755   3.649357
    21  H    3.671512   3.328824   3.552712   2.021396   2.800861
    22  H    3.927782   2.807398   3.678817   4.478229   4.975559
    23  O    4.897262   4.385312   3.793887   5.914370   6.523125
    24  O    4.367277   4.977269   2.903920   5.465228   6.279887
    25  H    4.348867   5.249592   3.781176   5.694493   6.442794
    26  H    5.184122   5.534806   3.305931   6.326861   7.119010
    27  H    3.381623   3.799112   2.543413   4.469257   5.253119
    28  O    6.040713   6.129314   3.965792   7.185346   7.942799
    29  H    6.317235   6.497862   4.847868   7.680161   8.376419
    30  H    5.580624   5.402972   3.694195   6.648558   7.362014
                   16         17         18         19         20
    16  O    0.000000
    17  H    0.971248   0.000000
    18  O    2.925171   2.482878   0.000000
    19  H    3.832471   3.388367   0.973387   0.000000
    20  O    4.792516   4.738367   2.671666   2.125919   0.000000
    21  H    5.597841   5.631447   3.614262   3.063867   0.974680
    22  H    3.331400   4.074101   4.138210   4.720779   4.325972
    23  O    2.652431   3.615838   4.768821   5.519491   5.510396
    24  O    3.697282   4.234800   4.922512   5.298323   4.971673
    25  H    4.634953   5.199079   5.825044   6.136628   5.588368
    26  H    3.200785   3.847824   5.116944   5.675955   5.677085
    27  H    3.463883   4.091913   4.416175   4.784146   4.201855
    28  O    2.953703   3.693499   5.453534   6.166524   6.433396
    29  H    3.841697   4.622903   6.373138   7.079263   7.206795
    30  H    2.419569   3.319513   4.960750   5.726388   5.953440
                   21         22         23         24         25
    21  H    0.000000
    22  H    4.618709   0.000000
    23  O    5.971305   2.012436   0.000000
    24  O    5.411990   4.245261   3.345193   0.000000
    25  H    5.905136   4.844179   3.936061   0.970130   0.000000
    26  H    6.209133   4.190340   2.783855   1.187180   1.769951
    27  H    4.562727   3.194371   2.747000   1.200277   1.760581
    28  O    7.024909   4.258408   2.445168   2.423461   2.938375
    29  H    7.727323   4.699565   2.783144   2.907306   3.142703
    30  H    6.523580   3.274436   1.402600   2.713825   3.337325
                   26         27         28         29         30
    26  H    0.000000
    27  H    1.869471   0.000000
    28  O    1.247159   2.842636   0.000000
    29  H    1.808912   3.340890   0.971393   0.000000
    30  H    1.768866   2.657355   1.074338   1.623024   0.000000
 Symmetry turned off by external request.
 Stoichiometry    C6H16O8
 Framework group  C1[X(C6H16O8)]
 Deg. of freedom    84
 Full point group                 C1      NOp   1
 Rotational constants (GHZ):      0.8538792      0.4716914      0.3736727
 Standard basis: 6-31G(d) (6D, 7F)
   242 basis functions,   456 primitive gaussians,   242 cartesian basis functions
    58 alpha electrons       58 beta electrons
       nuclear repulsion energy      1113.4818419977 Hartrees.
 NAtoms=   30 NActive=   30 NUniq=   30 SFac= 1.00D+00 NAtFMM=   60 NAOKFM=F Big=F
 Integral buffers will be    131072 words long.
 Raffenetti 2 integral format.
 Two-electron integral symmetry is turned off.
 One-electron integrals computed using PRISM.
 NBasis=   242 RedAO= T EigKep=  1.49D-03  NBF=   242
 NBsUse=   242 1.00D-06 EigRej= -1.00D+00 NBFU=   242
 Initial guess from the checkpoint file:  "/scratch/10461034.yak.local/Gau-24237.chk"
 B after Tr=     0.000290   -0.000028   -0.000047
         Rot=    1.000000    0.000007    0.000045   -0.000021 Ang=   0.01 deg.
 ExpMin= 1.61D-01 ExpMax= 5.48D+03 ExpMxC= 8.25D+02 IAcc=1 IRadAn=         1 AccDes= 0.00D+00
 Harris functional with IExCor=  402 and IRadAn=       1 diagonalized for initial guess.
 HarFok:  IExCor=  402 AccDes= 0.00D+00 IRadAn=         1 IDoV= 1 UseB2=F ITyADJ=14
 ICtDFT=  3500011 ScaDFX=  1.000000  1.000000  1.000000  1.000000
 FoFCou: FMM=F IPFlag=           0 FMFlag=      100000 FMFlg1=           0
         NFxFlg=           0 DoJE=T BraDBF=F KetDBF=T FulRan=T
         wScrn=  0.000000 ICntrl=     500 IOpCl=  0 I1Cent=   200000004 NGrid=           0
         NMat0=    1 NMatS0=      1 NMatT0=    0 NMatD0=    1 NMtDS0=    0 NMtDT0=    0
 Symmetry not used in FoFCou.
 Requested convergence on RMS density matrix=1.00D-08 within 128 cycles.
 Requested convergence on MAX density matrix=1.00D-06.
 Requested convergence on             energy=1.00D-06.
 No special actions if energy rises.
 Integral accuracy reduced to 1.0D-05 until final iterations.
 Initial convergence to 1.0D-05 achieved.  Increase integral accuracy.
 SCF Done:  E(RB3LYP) =  -839.956283281     A.U. after   11 cycles
            NFock= 11  Conv=0.79D-08     -V/T= 2.0086
 DoSCS=F DFT=T ScalE2(SS,OS)=  1.000000  1.000000
 Range of M.O.s used for correlation:     1   242
 NBasis=   242 NAE=    58 NBE=    58 NFC=     0 NFV=     0
 NROrb=    242 NOA=    58 NOB=    58 NVA=   184 NVB=   184
 Symmetrizing basis deriv contribution to polar:
 IMax=3 JMax=2 DiffMx= 0.00D+00
 Calling FoFJK, ICntrl=      2147 FMM=F ISym2X=0 I1Cent= 0 IOpClX= 0 NMat=1 NMatS=1 NMatT=0.
 -------------------------------------------------------------------
 Center     Atomic                   Forces (Hartrees/Bohr)
 Number     Number              X              Y              Z
 -------------------------------------------------------------------
      1        1           0.000196581    0.000024495   -0.000058961
      2        6           0.001453665   -0.000177183   -0.001777577
      3        6          -0.000125472    0.000062228    0.000098637
      4        6          -0.005242185    0.002375216    0.005393771
      5        6          -0.000525427    0.000078924   -0.000111302
      6        8          -0.000048994   -0.003636415   -0.006683423
      7        6          -0.000196012    0.000126960    0.000111009
      8        1           0.000054840   -0.000028906    0.000013304
      9        1           0.000006272   -0.000034932   -0.000014327
     10        6          -0.000087461   -0.000263674   -0.000000437
     11        1           0.000002877   -0.000015897    0.000000187
     12        1          -0.000028533   -0.000005339   -0.000008119
     13        1          -0.000006741    0.000027998   -0.000012964
     14        8          -0.000388194    0.000032236    0.000039444
     15        1          -0.000030830    0.000006808    0.000018775
     16        8           0.000167116    0.000180260   -0.000046987
     17        1          -0.000037958    0.000030024    0.000015015
     18        8           0.000084519   -0.000108376    0.000055479
     19        1          -0.000016377    0.000032851   -0.000032879
     20        8          -0.000113691   -0.000288139   -0.000005167
     21        1           0.000045803    0.000067029    0.000031804
     22        1           0.000706611   -0.000171009   -0.000464621
     23        8           0.004777457    0.001017259    0.003898041
     24        8          -0.003121907    0.000978589    0.000387291
     25        1          -0.000835490    0.000154083    0.000125388
     26        1           0.006134144   -0.001846841   -0.003609102
     27        1           0.004483699    0.000973544    0.005642441
     28        8          -0.004572382   -0.000213178   -0.001149892
     29        1          -0.000198250    0.000255050    0.000444726
     30        1          -0.002537679    0.000366334   -0.002299555
 -------------------------------------------------------------------
 Cartesian Forces:  Max     0.006683423 RMS     0.001882847
 IRC-IRC-IRC-IRC-IRC-IRC-IRC-IRC-IRC-IRC-IRC-IRC-IRC-IRC-IRC-IRC-IRC-IRC
 Pt  2 Step number   1 out of a maximum of  20
 Modified Bulirsch-Stoer Extrapolation Cycles:
    EPS =    0.000010000000000
 Maximum DWI energy   std dev =  0.000005211 at pt    50
 Maximum DWI gradient std dev =  0.053955568 at pt    55
 CORRECTOR INTEGRATION CONVERGENCE:
   Recorrection delta-x convergence threshold:    0.010000
   Delta-x Convergence Met
 Point Number:   2          Path Number:   1
   CHANGE IN THE REACTION COORDINATE =    0.10643
   NET REACTION COORDINATE UP TO THIS POINT =    0.21280
  # OF POINTS ALONG THE PATH =   2
  # OF STEPS =   1

 Calculating another point on the path.
 IRC-IRC-IRC-IRC-IRC-IRC-IRC-IRC-IRC-IRC-IRC-IRC-IRC-IRC-IRC-IRC-IRC-IRC
                          Input orientation:                          
 ---------------------------------------------------------------------
 Center     Atomic      Atomic             Coordinates (Angstroms)
 Number     Number       Type             X           Y           Z
 ---------------------------------------------------------------------
      1          1           0        1.419015   -0.966788   -1.292496
      2          6           0        1.286403   -0.841913   -0.207084
      3          6           0        0.230939    1.409647   -0.305515
      4          6           0       -1.002614   -0.183766    1.340388
      5          6           0       -0.881713    1.224294    0.727741
      6          8           0       -0.018981   -1.261869    0.153285
      7          6           0        1.504950    0.659903    0.068689
      8          1           0       -0.628332    1.879103    1.582057
      9          1           0        1.736975    0.830768    1.134299
     10          6           0        2.315374   -1.712366    0.514353
     11          1           0        2.168929   -2.766037    0.239351
     12          1           0        2.170160   -1.619743    1.601012
     13          1           0       -0.134870    1.010147   -1.265310
     14          8           0        3.618493   -1.252153    0.127531
     15          1           0        4.282090   -1.698422    0.673485
     16          8           0       -2.135020    1.587294    0.181129
     17          1           0       -1.995874    2.435595   -0.270917
     18          8           0        0.454617    2.809922   -0.414794
     19          1           0        1.304504    2.902857   -0.880125
     20          8           0        2.550702    1.185793   -0.740899
     21          1           0        3.327854    0.622946   -0.569917
     22          1           0       -0.273152   -0.357221    2.145271
     23          8           0       -2.122333   -0.742360    1.449889
     24          8           0       -1.508603   -1.502171   -1.750295
     25          1           0       -1.512372   -2.422483   -2.056773
     26          1           0       -2.525566   -1.250854   -1.273410
     27          1           0       -0.722048   -1.415541   -0.800012
     28          8           0       -3.528572   -0.914274   -0.546448
     29          1           0       -4.035360   -1.712356   -0.324923
     30          1           0       -3.012059   -0.664382    0.345022
 ---------------------------------------------------------------------
                    Distance matrix (angstroms):
                    1          2          3          4          5
     1  H    0.000000
     2  C    1.100590   0.000000
     3  C    2.834272   2.488617   0.000000
     4  C    3.661897   2.840322   2.601848   0.000000
     5  C    3.765043   3.137489   1.529695   1.540320   0.000000
     6  O    2.060385   1.417835   2.722123   1.881238   2.693569
     7  C    2.122812   1.542487   1.524877   2.935452   2.539498
     8  H    4.533627   3.777719   2.126420   2.110431   1.105817
     9  H    3.036716   2.190933   2.162478   2.928669   2.679120
    10  C    2.150360   1.528705   3.842397   3.745397   4.346363
    11  H    2.479158   2.163425   4.635625   4.235456   5.046551
    12  H    3.059895   2.157604   4.070949   3.492342   4.262051
    13  H    2.514671   2.563199   1.102100   2.994674   2.139132
    14  O    2.633555   2.391423   4.329922   4.895621   5.171547
    15  H    3.549305   3.237769   5.199073   5.537784   5.933808
    16  O    4.618016   4.214011   2.422011   2.400599   1.414684
    17  H    4.927606   4.638909   2.452032   3.231705   1.925077
    18  O    3.995493   3.751122   1.422233   3.763822   2.367569
    19  H    3.893239   3.804815   1.926759   4.447552   3.190980
    20  O    2.493708   2.448469   2.370859   4.339759   3.733613
    21  H    2.587091   2.538697   3.206196   4.801355   4.445896
    22  H    3.879851   2.863688   3.063050   1.100018   2.209282
    23  O    4.484662   3.791432   3.640118   1.256100   2.434823
    24  O    3.011173   3.260292   3.686743   3.398019   3.737280
    25  H    3.360982   3.708463   4.559743   4.100293   4.631440
    26  H    3.954843   3.979372   3.951380   3.207803   3.582348
    27  H    2.242337   2.171288   3.022317   2.485417   3.054219
    28  O    5.003795   4.827462   4.426350   3.236395   3.633578
    29  H    5.589479   5.393767   5.286641   3.782511   4.435933
    30  H    4.733639   4.337409   3.904078   2.293385   2.872620
                    6          7          8          9         10
     6  O    0.000000
     7  C    2.454126   0.000000
     8  H    3.504055   2.885762   0.000000
     9  H    2.902568   1.103883   2.625675   0.000000
    10  C    2.404689   2.546187   4.764876   2.680749   0.000000
    11  H    2.656478   3.493860   5.586130   3.731558   1.098769
    12  H    2.648834   2.826182   4.480383   2.531891   1.100225
    13  H    2.681026   2.142717   3.017629   3.048624   4.072220
    14  O    3.637578   2.850699   5.473201   2.981988   1.435113
    15  H    4.354354   3.693235   6.142999   3.617564   1.973193
    16  O    3.549102   3.757935   2.077945   4.058720   5.550207
    17  H    4.214178   3.940074   2.369254   4.299333   6.033994
    18  O    4.138417   2.441216   2.454917   2.821557   4.977632
    19  H    4.490489   2.443618   3.293368   2.922070   4.926126
    20  O    3.659766   1.423232   3.997882   2.074744   3.167075
    21  H    3.908561   1.931880   4.675503   2.340607   2.766666
    22  H    2.202499   2.916913   2.333347   2.544404   3.346158
    23  O    2.524909   4.126892   3.020194   4.179544   4.637821
    24  O    2.429061   4.130953   4.828297   4.929226   4.449226
    25  H    2.908882   4.808631   5.703179   5.596860   4.665468
    26  H    2.884190   4.658035   4.642178   5.319726   5.181099
    27  H    1.194443   3.165697   4.066659   3.851528   3.322889
    28  O    3.595508   5.309687   4.554654   5.796212   5.992825
    29  H    4.069757   6.039667   5.304996   6.474308   6.405950
    30  H    3.058148   4.715238   3.698882   5.041008   5.432171
                   11         12         13         14         15
    11  H    0.000000
    12  H    1.779919   0.000000
    13  H    4.672372   4.521647   0.000000
    14  O    2.098949   2.098556   4.598450   0.000000
    15  H    2.407016   2.307975   5.532162   0.968289   0.000000
    16  O    6.121997   5.552992   2.534933   6.416248   7.226178
    17  H    6.683033   6.107841   2.546381   6.728994   7.575937
    18  O    5.870101   5.160280   2.076069   5.177324   6.013241
    19  H    5.842672   5.230613   2.408841   4.861483   5.696621
    20  O    4.089450   3.674288   2.741926   2.799629   3.649230
[...]
 Alpha  occ. eigenvalues --  -10.24490 -10.23949 -10.23543 -10.23371  -1.05338
 Alpha  occ. eigenvalues --   -1.04299  -1.03277  -1.02492  -1.00925  -1.00877
 Alpha  occ. eigenvalues --   -0.99884  -0.97863  -0.78204  -0.75325  -0.69128
 Alpha  occ. eigenvalues --   -0.63177  -0.60638  -0.57031  -0.55732  -0.54724
 Alpha  occ. eigenvalues --   -0.53789  -0.52310  -0.50869  -0.50357  -0.48662
 Alpha  occ. eigenvalues --   -0.46672  -0.45143  -0.44379  -0.43571  -0.42698
 Alpha  occ. eigenvalues --   -0.42138  -0.41354  -0.40195  -0.38437  -0.37213
 Alpha  occ. eigenvalues --   -0.35884  -0.35370  -0.34708  -0.33128  -0.32200
 Alpha  occ. eigenvalues --   -0.30388  -0.29760  -0.28996  -0.28385  -0.26711
 Alpha  occ. eigenvalues --   -0.26520  -0.25600  -0.24020
 Alpha virt. eigenvalues --    0.02382   0.04292   0.06402   0.07729   0.08985
 Alpha virt. eigenvalues --    0.10508   0.11388   0.12111   0.13696   0.14358
 Alpha virt. eigenvalues --    0.15699   0.16122   0.16717   0.17802   0.19880
 Alpha virt. eigenvalues --    0.20316   0.21052   0.21632   0.24881   0.26337
 Alpha virt. eigenvalues --    0.28064   0.29071   0.29298   0.30083   0.32238
 Alpha virt. eigenvalues --    0.33732   0.35380   0.39245   0.52377   0.53956
 Alpha virt. eigenvalues --    0.54850   0.56911   0.57571   0.58787   0.60427
 Alpha virt. eigenvalues --    0.62885   0.64339   0.65538   0.66292   0.67008
 Alpha virt. eigenvalues --    0.67516   0.69962   0.72410   0.73370   0.74972
 Alpha virt. eigenvalues --    0.75618   0.76663   0.78732   0.79334   0.79986
 Alpha virt. eigenvalues --    0.81427   0.82194   0.82608   0.83861   0.84724
 Alpha virt. eigenvalues --    0.85163   0.87459   0.87866   0.88690   0.89690
 Alpha virt. eigenvalues --    0.91101   0.92292   0.93693   0.94549   0.96343
 Alpha virt. eigenvalues --    0.97934   0.99609   1.00888   1.01567   1.02223
 Alpha virt. eigenvalues --    1.03967   1.04467   1.06858   1.08201   1.10140
 Alpha virt. eigenvalues --    1.12275   1.13753   1.15447   1.16082   1.17008
 Alpha virt. eigenvalues --    1.18704   1.23473   1.24619   1.26332   1.28564
 Alpha virt. eigenvalues --    1.31013   1.32648   1.34747   1.36058   1.37143
 Alpha virt. eigenvalues --    1.42237   1.42453   1.45658   1.48755   1.50891
 Alpha virt. eigenvalues --    1.52725   1.53810   1.56633   1.58049   1.60403
 Alpha virt. eigenvalues --    1.61401   1.64520   1.65952   1.67361   1.68662
 Alpha virt. eigenvalues --    1.70849   1.72169   1.72894   1.74145   1.75092
 Alpha virt. eigenvalues --    1.75752   1.77558   1.77942   1.80180   1.81379
 Alpha virt. eigenvalues --    1.82374   1.84277   1.85387   1.85749   1.87997
 Alpha virt. eigenvalues --    1.88380   1.89115   1.90706   1.93547   1.95438
 Alpha virt. eigenvalues --    1.96822   1.98705   2.02126   2.04573   2.06562
 Alpha virt. eigenvalues --    2.07376   2.10211   2.10768   2.13269   2.16554
 Alpha virt. eigenvalues --    2.18839   2.20899   2.27080   2.28150   2.29724
 Alpha virt. eigenvalues --    2.31940   2.34286   2.37011   2.39974   2.42192
 Alpha virt. eigenvalues --    2.43899   2.45184   2.46998   2.47771   2.49532
 Alpha virt. eigenvalues --    2.50941   2.53178   2.55639   2.56056   2.60227
 Alpha virt. eigenvalues --    2.62034   2.66522   2.67864   2.70420   2.76037
 Alpha virt. eigenvalues --    2.78080   2.79659   2.84625   2.88798   2.91049
 Alpha virt. eigenvalues --    2.93965   2.98082   3.01634   3.03291   3.11080
 Alpha virt. eigenvalues --    3.75326   3.77483   3.80343   3.85409   3.91017
 Alpha virt. eigenvalues --    3.98683   4.09750   4.22561   4.27608   4.33786
 Alpha virt. eigenvalues --    4.42500   4.50248   4.64333   4.77145
          Condensed to atoms (all electrons):
               1          2          3          4          5          6
     1  H    0.610096   0.353501  -0.008167   0.000523   0.000119  -0.027005
     2  C    0.353501   4.970665  -0.025708  -0.001324  -0.009451   0.169601
     3  C   -0.008167  -0.025708   4.989458  -0.021061   0.312644   0.003183
     4  C    0.000523  -0.001324  -0.021061   4.712809   0.258095   0.039790
     5  C    0.000119  -0.009451   0.312644   0.258095   5.083456  -0.022651
     6  O   -0.027005   0.169601   0.003183   0.039790  -0.022651   8.564378
     7  C   -0.051733   0.289851   0.271347  -0.007547  -0.012614  -0.044587
     8  H    0.000008   0.000840  -0.045592  -0.047603   0.325054   0.001757
     9  H    0.007082  -0.057612  -0.054638  -0.001244  -0.005022   0.002942
    10  C   -0.048752   0.356235   0.004168  -0.000446  -0.000325  -0.043419
    11  H   -0.006983  -0.034989  -0.000100   0.000036  -0.000000   0.004401
    12  H    0.006449  -0.033462  -0.000167  -0.000199  -0.000037   0.003040
    13  H    0.005353  -0.000515   0.350450  -0.001750  -0.051074   0.003390
    14  O    0.003652  -0.047033   0.000162   0.000017  -0.000001   0.001206
    15  H   -0.000170   0.005669   0.000007  -0.000001  -0.000000  -0.000096
    16  O   -0.000004   0.000015  -0.035281  -0.041964   0.240304  -0.000036
    17  H   -0.000001  -0.000030  -0.007119   0.006442  -0.028750  -0.000040
    18  O   -0.000064   0.002715   0.217609   0.001908  -0.042898   0.000086
    19  H    0.000052   0.000650  -0.027925  -0.000155   0.005964  -0.000017
    20  O    0.005829  -0.035264  -0.030706   0.000116   0.001933   0.001655
    21  H    0.000540  -0.006046   0.005077  -0.000004  -0.000140   0.000011
    22  H   -0.000099   0.001011   0.001662   0.352212  -0.095793  -0.027697
    23  O   -0.000073   0.001497   0.000609   0.439299  -0.053014  -0.036311
    24  O    0.003810   0.001099  -0.001304   0.001890   0.000021  -0.082275
    25  H   -0.000234  -0.000016   0.000053  -0.000045  -0.000015   0.003835
    26  H   -0.000106   0.000014  -0.000148  -0.000279  -0.000302   0.005110
    27  H   -0.006039  -0.004414  -0.001088  -0.001297   0.000455   0.137858
    28  O    0.000005  -0.000008  -0.000029   0.010374   0.000558  -0.000555
    29  H   -0.000000   0.000001  -0.000000  -0.000242  -0.000012  -0.000008
    30  H   -0.000003  -0.000041   0.000347  -0.015854  -0.007547   0.000960
               7          8          9         10         11         12
     1  H   -0.051733   0.000008   0.007082  -0.048752  -0.006983   0.006449
     2  C    0.289851   0.000840  -0.057612   0.356235  -0.034989  -0.033462
     3  C    0.271347  -0.045592  -0.054638   0.004168  -0.000100  -0.000167
     4  C   -0.007547  -0.047603  -0.001244  -0.000446   0.000036  -0.000199
     5  C   -0.012614   0.325054  -0.005022  -0.000325  -0.000000  -0.000037
     6  O   -0.044587   0.001757   0.002942  -0.043419   0.004401   0.003040
     7  C    5.065769  -0.004175   0.351644  -0.052965   0.006465  -0.012185
     8  H   -0.004175   0.652508   0.006514   0.000040  -0.000000  -0.000013
     9  H    0.351644   0.006514   0.669670  -0.004878   0.000089   0.004641
    10  C   -0.052965   0.000040  -0.004878   4.928340   0.359388   0.358438
    11  H    0.006465  -0.000000   0.000089   0.359388   0.616859  -0.050317
    12  H   -0.012185  -0.000013   0.004641   0.358438  -0.050317   0.623444
    13  H   -0.058738   0.008233   0.007546   0.000351   0.000001   0.000004
    14  O    0.010775  -0.000000   0.000271   0.211125  -0.033999  -0.034729
    15  H   -0.000194   0.000000  -0.000050  -0.018229  -0.002740  -0.005177
    16  O    0.004199  -0.038616  -0.000014  -0.000000  -0.000000   0.000000
    17  H    0.000730  -0.002440  -0.000016   0.000000  -0.000000  -0.000000
    18  O   -0.028444   0.000748   0.000608  -0.000047   0.000000  -0.000001
    19  H   -0.016291  -0.000155   0.000631  -0.000019   0.000001   0.000000
    20  O    0.207269  -0.000179  -0.042330   0.000832  -0.000254   0.000071
    21  H   -0.024097   0.000006  -0.002112  -0.003121   0.000317   0.000464
    22  H    0.001284   0.003850   0.002464  -0.000048  -0.000036   0.002075
    23  O    0.000023   0.000992   0.000029  -0.000014   0.000004  -0.000034
    24  O   -0.000293  -0.000001  -0.000001  -0.000099  -0.000003   0.000002
    25  H    0.000006   0.000000   0.000000   0.000004   0.000005  -0.000000
    26  H    0.000013   0.000028   0.000001   0.000006  -0.000000  -0.000000
    27  H    0.003612  -0.000028  -0.000159   0.000551   0.000262  -0.000097
    28  O    0.000000  -0.000020  -0.000000  -0.000000   0.000000  -0.000000
    29  H    0.000000   0.000002   0.000000  -0.000000   0.000000   0.000000
    30  H   -0.000003   0.000237   0.000002   0.000000   0.000000   0.000000
              13         14         15         16         17         18
     1  H    0.005353   0.003652  -0.000170  -0.000004  -0.000001  -0.000064
     2  C   -0.000515  -0.047033   0.005669   0.000015  -0.000030   0.002715
     3  C    0.350450   0.000162   0.000007  -0.035281  -0.007119   0.217609
     4  C   -0.001750   0.000017  -0.000001  -0.041964   0.006442   0.001908
     5  C   -0.051074  -0.000001  -0.000000   0.240304  -0.028750  -0.042898
     6  O    0.003390   0.001206  -0.000096  -0.000036  -0.000040   0.000086
     7  C   -0.058738   0.010775  -0.000194   0.004199   0.000730  -0.028444
     8  H    0.008233  -0.000000   0.000000  -0.038616  -0.002440   0.000748
     9  H    0.007546   0.000271  -0.000050  -0.000014  -0.000016   0.000608
    10  C    0.000351   0.211125  -0.018229  -0.000000   0.000000  -0.000047
    11  H    0.000001  -0.033999  -0.002740  -0.000000  -0.000000   0.000000
    12  H    0.000004  -0.034729  -0.005177   0.000000  -0.000000  -0.000001
    13  H    0.631770  -0.000011   0.000001   0.002131  -0.000800  -0.044379
    14  O   -0.000011   8.265775   0.235602  -0.000000   0.000000  -0.000000
    15  H    0.000001   0.235602   0.377128   0.000000  -0.000000   0.000000
    16  O    0.002131  -0.000000   0.000000   8.250239   0.238863  -0.001763
    17  H   -0.000800   0.000000  -0.000000   0.238863   0.371049   0.011702
    18  O   -0.044379  -0.000000   0.000000  -0.001763   0.011702   8.320471
    19  H   -0.000193   0.000005  -0.000000  -0.000102  -0.000408   0.235314
    20  O   -0.000312  -0.012179   0.000540  -0.000012  -0.000002  -0.009028
    21  H   -0.000240   0.038261  -0.001262   0.000001   0.000000   0.000239
    22  H    0.000131  -0.000020  -0.000001   0.002726  -0.000251  -0.000170
    23  O    0.000150   0.000000  -0.000000  -0.000833  -0.000017  -0.000013
    24  O    0.004870   0.000000  -0.000000  -0.000171   0.000005   0.000002
    25  H   -0.000101  -0.000000   0.000000   0.000005  -0.000000  -0.000000
    26  H    0.000385  -0.000000   0.000000   0.001537  -0.000031  -0.000001
    27  H   -0.001245  -0.000002  -0.000000   0.000328  -0.000011  -0.000007
    28  O    0.000002   0.000000  -0.000000  -0.001262   0.000161   0.000000
    29  H    0.000000   0.000000  -0.000000   0.000180  -0.000009  -0.000000
    30  H    0.000031  -0.000000   0.000000   0.009215  -0.000367  -0.000004
              19         20         21         22         23         24
     1  H    0.000052   0.005829   0.000540  -0.000099  -0.000073   0.003810
     2  C    0.000650  -0.035264  -0.006046   0.001011   0.001497   0.001099
     3  C   -0.027925  -0.030706   0.005077   0.001662   0.000609  -0.001304
     4  C   -0.000155   0.000116  -0.000004   0.352212   0.439299   0.001890
     5  C    0.005964   0.001933  -0.000140  -0.095793  -0.053014   0.000021
     6  O   -0.000017   0.001655   0.000011  -0.027697  -0.036311  -0.082275
     7  C   -0.016291   0.207269  -0.024097   0.001284   0.000023  -0.000293
     8  H   -0.000155  -0.000179   0.000006   0.003850   0.000992  -0.000001
     9  H    0.000631  -0.042330  -0.002112   0.002464   0.000029  -0.000001
    10  C   -0.000019   0.000832  -0.003121  -0.000048  -0.000014  -0.000099
    11  H    0.000001  -0.000254   0.000317  -0.000036   0.000004  -0.000003
    12  H    0.000000   0.000071   0.000464   0.002075  -0.000034   0.000002
    13  H   -0.000193  -0.000312  -0.000240   0.000131   0.000150   0.004870
    14  O    0.000005  -0.012179   0.038261  -0.000020   0.000000   0.000000
    15  H   -0.000000   0.000540  -0.001262  -0.000001  -0.000000  -0.000000
    16  O   -0.000102  -0.000012   0.000001   0.002726  -0.000833  -0.000171
    17  H   -0.000408  -0.000002   0.000000  -0.000251  -0.000017   0.000005
    18  O    0.235314  -0.009028   0.000239  -0.000170  -0.000013   0.000002
    19  H    0.356290   0.028285  -0.000672   0.000014   0.000001  -0.000000
    20  O    0.028285   8.327730   0.231236   0.000006  -0.000000   0.000001
    21  H   -0.000672   0.231236   0.335996  -0.000002  -0.000000   0.000000
    22  H    0.000014   0.000006  -0.000002   0.679899  -0.040378  -0.000026
    23  O    0.000001  -0.000000  -0.000000  -0.040378   8.178133  -0.001450
    24  O   -0.000000   0.000001   0.000000  -0.000026  -0.001450   8.459433
    25  H    0.000000  -0.000000  -0.000000   0.000003   0.000066   0.231063
    26  H   -0.000000  -0.000000   0.000000   0.000057   0.002709   0.165158
    27  H    0.000001  -0.000048  -0.000001   0.001806   0.005724   0.118582
    28  O   -0.000000   0.000000   0.000000  -0.000218  -0.059580  -0.080755
    29  H   -0.000000  -0.000000   0.000000   0.000011   0.003593   0.004269
    30  H    0.000000   0.000000  -0.000000   0.002196   0.092437   0.006215
              25         26         27         28         29         30
     1  H   -0.000234  -0.000106  -0.006039   0.000005  -0.000000  -0.000003
     2  C   -0.000016   0.000014  -0.004414  -0.000008   0.000001  -0.000041
     3  C    0.000053  -0.000148  -0.001088  -0.000029  -0.000000   0.000347
     4  C   -0.000045  -0.000279  -0.001297   0.010374  -0.000242  -0.015854
     5  C   -0.000015  -0.000302   0.000455   0.000558  -0.000012  -0.007547
     6  O    0.003835   0.005110   0.137858  -0.000555  -0.000008   0.000960
     7  C    0.000006   0.000013   0.003612   0.000000   0.000000  -0.000003
     8  H    0.000000   0.000028  -0.000028  -0.000020   0.000002   0.000237
     9  H    0.000000   0.000001  -0.000159  -0.000000   0.000000   0.000002
    10  C    0.000004   0.000006   0.000551  -0.000000  -0.000000   0.000000
    11  H    0.000005  -0.000000   0.000262   0.000000   0.000000   0.000000
    12  H   -0.000000  -0.000000  -0.000097  -0.000000   0.000000   0.000000
    13  H   -0.000101   0.000385  -0.001245   0.000002   0.000000   0.000031
    14  O   -0.000000  -0.000000  -0.000002   0.000000   0.000000  -0.000000
    15  H    0.000000   0.000000  -0.000000  -0.000000  -0.000000   0.000000
    16  O    0.000005   0.001537   0.000328  -0.001262   0.000180   0.009215
    17  H   -0.000000  -0.000031  -0.000011   0.000161  -0.000009  -0.000367
    18  O   -0.000000  -0.000001  -0.000007   0.000000  -0.000000  -0.000004
    19  H    0.000000  -0.000000   0.000001  -0.000000  -0.000000   0.000000
    20  O   -0.000000  -0.000000  -0.000048   0.000000  -0.000000   0.000000
    21  H   -0.000000   0.000000  -0.000001   0.000000   0.000000  -0.000000
    22  H    0.000003   0.000057   0.001806  -0.000218   0.000011   0.002196
    23  O    0.000066   0.002709   0.005724  -0.059580   0.003593   0.092437
    24  O    0.231063   0.165158   0.118582  -0.080755   0.004269   0.006215
    25  H    0.381450  -0.006328  -0.005782   0.004148  -0.000228  -0.000265
    26  H   -0.006328   0.290806  -0.006662   0.112903  -0.006704  -0.009316
    27  H   -0.005782  -0.006662   0.288690   0.003015   0.000043  -0.000116
    28  O    0.004148   0.112903   0.003015   8.425122   0.234628   0.171042
    29  H   -0.000228  -0.006704   0.000043   0.234628   0.388510  -0.012081
    30  H   -0.000265  -0.009316  -0.000116   0.171042  -0.012081   0.293924
 Mulliken charges:
               1
     1  H    0.152412
     2  C    0.102549
     3  C    0.102257
     4  C    0.317503
     5  C    0.101041
     6  O   -0.658506
     7  C    0.100878
     8  H    0.138005
     9  H    0.113942
    10  C   -0.047119
    11  H    0.141594
    12  H    0.137790
    13  H    0.144556
    14  O   -0.638877
    15  H    0.408974
    16  O   -0.629686
    17  H    0.411339
    18  O   -0.664580
    19  H    0.418730
    20  O   -0.675189
    21  H    0.425549
    22  H    0.113335
    23  O   -0.533548
    24  O   -0.830043
    25  H    0.392376
    26  H    0.451148
    27  H    0.466067
    28  O   -0.819532
    29  H    0.388047
    30  H    0.468989
 Sum of Mulliken charges =  -0.00000
 Mulliken charges with hydrogens summed into heavy atoms:
               1
     2  C    0.254961
     3  C    0.246814
     4  C    0.430838
     5  C    0.239046
     6  O   -0.192439
     7  C    0.214820
    10  C    0.232264
    14  O   -0.229903
    16  O   -0.218347
    18  O   -0.245850
    20  O   -0.249640
    23  O   -0.533548
    24  O    0.013481
    28  O    0.037503
 APT charges:
               1
     1  H    0.368084
     2  C   -0.303053
     3  C   -0.073989
     4  C   -0.455222
     5  C   -0.318007
     6  O   -0.477255
     7  C   -0.225997
     8  H    0.426644
     9  H    0.342611
    10  C   -0.487913
    11  H    0.477586
    12  H    0.329200
    13  H    0.263698
    14  O   -1.185399
    15  H    1.015101
    16  O   -0.800324
    17  H    0.700920
    18  O   -0.841973
    19  H    0.670842
    20  O   -0.865411
    21  H    0.697648
    22  H    0.346419
    23  O   -0.065826
    24  O   -1.271280
    25  H    0.812268
    26  H    0.465239
    27  H    0.467477
    28  O   -1.129026
    29  H    0.883297
    30  H    0.233642
 Sum of APT charges =  -0.00000
 APT charges with hydrogens summed into heavy atoms:
               1
     2  C    0.065031
     3  C    0.189709
     4  C   -0.108803
     5  C    0.108638
     6  O   -0.009778
     7  C    0.116614
    10  C    0.318873
    14  O   -0.170298
    16  O   -0.099405
    18  O   -0.171131
    20  O   -0.167763
    23  O   -0.065826
    24  O    0.006227
    28  O   -0.012087
 Electronic spatial extent (au):  <R**2>=           3154.4848
 Charge=              0.0000 electrons
 Dipole moment (field-independent basis, Debye):
    X=              3.7240    Y=             -3.7641    Z=              0.4351  Tot=              5.3128
 Quadrupole moment (field-independent basis, Debye-Ang):
   XX=            -76.2805   YY=            -74.3174   ZZ=            -84.0446
   XY=             -0.1847   XZ=              8.1850   YZ=              2.5898
 Traceless Quadrupole moment (field-independent basis, Debye-Ang):
   XX=              1.9337   YY=              3.8968   ZZ=             -5.8304
   XY=             -0.1847   XZ=              8.1850   YZ=              2.5898
 Octapole moment (field-independent basis, Debye-Ang**2):
  XXX=             41.9686  YYY=            -30.5189  ZZZ=             -5.1699  XYY=            -18.2190
  XXY=            -51.0836  XXZ=             14.4585  XZZ=              7.0244  YZZ=             -2.0431
  YYZ=            -21.1865  XYZ=            -17.7933
 Hexadecapole moment (field-independent basis, Debye-Ang**3):
 XXXX=          -1804.4100 YYYY=          -1001.7275 ZZZZ=           -462.0552 XXXY=             29.2758
 XXXZ=             84.8686 YYYX=             30.9871 YYYZ=             19.2467 ZZZX=             19.7722
 ZZZY=             18.0244 XXYY=           -381.8376 XXZZ=           -438.0548 YYZZ=           -221.6277
 XXYZ=            -27.5140 YYXZ=             46.6322 ZZXY=              2.6631
 N-N= 1.111523638008D+03 E-N=-4.196462181753D+03  KE= 8.330829639680D+02
  Exact polarizability:   0.000   0.000   0.000   0.000   0.000   0.000
 Approx polarizability: 151.883   6.067 127.654  -4.422  -1.703 122.620

 This type of calculation cannot be archived.


 IT CANNOT BE MY BEAUTY, FOR I HAVE NONE; AND IT CANNOT BE MY WIT,
 FOR HE HAS NOT ENOUGH TO KNOW THAT I HAVE ANY.
 -- CATHARINE SEDLEY, PUZZLED ABOUT WHY SHE WAS MISTRESS TO JAMES II
 Job cpu time:       0 days  1 hours  6 minutes 22.7 seconds.
 File lengths (MBytes):  RWF=    220 Int=      0 D2E=      0 Chk=      9 Scr=      1
 Normal termination of Gaussian 09 at Sat Jan 14 01:00:00 2017.
