 Entering Gaussian System, Link 0=g09
 Initial command:
 /global/software/gaussian/g09.e01/l1.exe "/scratch/10461041.yak.local/Gau-16066.inp" -scrdir="/scratch/10461041.yak.local/"
 Entering Link 1 = /global/software/gaussian/g09.e01/l1.exe PID=     16067.
  
 Copyright (c) 1988,1990,1992,1993,1995,1998,2003,2009,2015,
            Gaussian, Inc.  All Rights Reserved.
  
 This is part of the Gaussian(R) 09 program.  It is based on
 the Gaussian(R) 03 system (copyright 2003, Gaussian, Inc.),
 the Gaussian(R) 98 system (copyright 1998, Gaussian, Inc.),
 the Gaussian(R) 94 system (copyright 1995, Gaussian, Inc.),
 the Gaussian 92(TM) system (copyright 1992, Gaussian, Inc.),
 the Gaussian 90(TM) system (copyright 1990, Gaussian, Inc.),
 the Gaussian 88(TM) system (copyright 1988, Gaussian, Inc.),
 the Gaussian 86(TM) system (copyright 1986, Carnegie Mellon
 University), and the Gaussian 82(TM) system (copyright 1983,
 Carnegie Mellon University). Gaussian is a federally registered
 trademark of Gaussian, Inc.
  
 This software contains proprietary and confidential information,
 including trade secrets, belonging to Gaussian, Inc.
  
 This software is provided under written license and may be
 used, copied, transmitted, or stored only in accord with that
 written license.
  
 The following legend is applicable only to US Government
 contracts under FAR:
  
                    RESTRICTED RIGHTS LEGEND
  
 Use, reproduction and disclosure by the US Government is
 subject to restrictions as set forth in subparagraphs (a)
 and (c) of the Commercial Computer Software - Restricted
 Rights clause in FAR 52.227-19.
  
 Gaussian, Inc.
 340 Quinnipiac St., Bldg. 40, Wallingford CT 06492
  
  
 ---------------------------------------------------------------
 Warning -- This program may not be used in any manner that
 competes with the business of Gaussian, Inc. or will provide
 assistance to any competitor of Gaussian, Inc.  The licensee
 of this program is prohibited from giving any competitor of
 Gaussian, Inc. access to this program.  By using this program,
 the user acknowledges that Gaussian, Inc. is engaged in the
 business of creating and licensing software in the field of
 computational chemistry and represents and warrants to the
 licensee that it is not a competitor of Gaussian, Inc. and that
 it will not use this program in any manner prohibited above.
 ---------------------------------------------------------------
  

 Cite this work as:
 Gaussian 09, Revision E.01,
 M. J. Frisch, G. W. Trucks, H. B. Schlegel, G. E. Scuseria, 
 M. A. Robb, J. R. Cheeseman, G. Scalmani, V. Barone, B. Mennucci, 
 G. A. Petersson, H. Nakatsuji, M. Caricato, X. Li, H. P. Hratchian, 
 A. F. Izmaylov, J. Bloino, G. Zheng, J. L. Sonnenberg, M. Hada, 
 M. Ehara, K. Toyota, R. Fukuda, J. Hasegawa, M. Ishida, T. Nakajima, 
 Y. Honda, O. Kitao, H. Nakai, T. Vreven, J. A. Montgomery, Jr., 
 J. E. Peralta, F. Ogliaro, M. Bearpark, J. J. Heyd, E. Brothers, 
 K. N. Kudin, V. N. Staroverov, T. Keith, R. Kobayashi, J. Normand, 
 K. Raghavachari, A. Rendell, J. C. Burant, S. S. Iyengar, J. Tomasi, 
 M. Cossi, N. Rega, J. M. Millam, M. Klene, J. E. Knox, J. B. Cross, 
 V. Bakken, C. Adamo, J. Jaramillo, R. Gomperts, R. E. Stratmann, 
 O. Yazyev, A. J. Austin, R. Cammi, C. Pomelli, J. W. Ochterski, 
 R. L. Martin, K. Morokuma, V. G. Zakrzewski, G. A. Voth, 
 P. Salvador, J. J. Dannenberg, S. Dapprich, A. D. Daniels, 
 O. Farkas, J. B. Foresman, J. V. Ortiz, J. Cioslowski, 
 and D. J. Fox, Gaussian, Inc., Wallingford CT, 2013.
 
 ******************************************
 Gaussian 09:  ES64L-G09RevE.01 30-Nov-2015
                13-Jan-2017 
 ******************************************
 -------------------------------------
 # b3lyp/6-31g(d) irc=(calcfc,reverse)
 -------------------------------------
 1/10=4,14=-1,18=10,22=2,26=3,38=1,44=3/1,23;
 2/12=2,17=6,18=5,29=1,40=1/2;
 3/5=1,6=6,7=1,11=2,16=1,25=1,30=1,71=2,74=-5,140=1/1,2,3;
 4//1;
 5/5=2,38=5/2;
 8/6=4,10=90,11=11/1;
 11/6=1,8=1,9=11,15=111,16=1/1,2,10;
 10/6=1,13=1/2;
 6/7=2,8=2,9=2,10=2,28=1/1;
 7/10=1,18=20,25=1/1,2,3,16;
 1/10=4,14=-1,18=10,22=2,26=3,44=3/23(2);
 2/29=1/2;
 99/5=20/99;
 2/29=1/2;
 3/5=1,6=6,7=1,11=2,16=1,25=1,30=1,71=2,74=-5,140=1/1,2,3;
 4/5=5,16=3,69=1/1;
 5/5=2,38=5/2;
 8/6=4,10=90,11=11/1;
 11/6=1,8=1,9=11,15=111,16=1/1,2,10;
 10/6=1,13=1/2;
 7/10=1,18=20,25=1/1,2,3,16;
 1/14=-1,18=10,22=2,26=3,44=3/23(-8);
 2/29=1/2;
 6/7=2,8=2,9=2,10=2,19=2,28=1/1;
 99/5=20,9=1/99;
 ---------------------------------
 glo_1w_alpha_ts_boat1_B3LYP_631Gd
 ---------------------------------
 Symbolic Z-matrix:
 Charge =  0 Multiplicity = 1
 1                    -0.27116   1.30111   1.16753 
 6                    -0.08725   1.22552   0.0849 
 6                     0.66733  -1.23655   0.31172 
 6                    -1.56106  -0.95467  -0.90943 
 6                    -0.8448   -1.53126   0.30798 
 8                    -1.25516   0.82678  -0.61628 
 6                     1.02934   0.19378  -0.15188 
 1                    -0.95046  -2.62311   0.22905 
 1                     1.21427   0.14586  -1.23638 
 6                     0.27013   2.61235  -0.46536 
 1                    -0.58226   3.28727  -0.31299 
 1                     0.44921   2.52298  -1.54572 
 1                     1.01358  -1.31834   1.35782 
 8                     1.4359    3.11142   0.21368 
 1                     1.73418   3.91559  -0.23705 
 8                    -1.48735  -1.0555    1.4983 
 1                    -1.18159  -1.60477   2.23569 
 8                     1.25874  -2.22283  -0.50784 
 1                     2.23619  -2.08394  -0.49915 
 8                     2.23205   0.57004   0.53813 
 1                     2.33119   1.53988   0.43419 
 1                    -0.96538  -1.06557  -1.82433 
 8                    -2.82955  -1.04418  -1.02764 
 8                    -3.37056   0.70104   0.52792 
 1                    -3.3646   -0.2206   -0.13125 
 1                    -2.36313   0.98684   0.05091 
 1                    -3.08692   0.31514   1.37934 
 8                     3.90968  -1.45012  -0.22519 
 1                     3.5342   -0.58984   0.07465 
 1                     4.26054  -1.85672   0.58156 
 
 IRC-IRC-IRC-IRC-IRC-IRC-IRC-IRC-IRC-IRC-IRC-IRC-IRC-IRC-IRC-IRC-IRC-IRC
 ------------------------------------------------------------------------
 INPUT DATA FOR L123
 ------------------------------------------------------------------------
 GENERAL PARAMETERS:
 Rxn path following direction = Reverse
 Maximum points per path      =  10
 Step size                    =   0.100 bohr
 Integration scheme           = HPC                                 
    Redo corrector integration= Yes                                 
    DWI Weight Power          =  2
    DWI will use Hessian update vectors when possible.
    Max correction cycles     =  20
 Initial Hessian              = CalcFC
 Hessian evaluation           = All updating
 Hessian updating method      = Bofill                              
 ------------------------------------------------------------------------
 IRC-IRC-IRC-IRC-IRC-IRC-IRC-IRC-IRC-IRC-IRC-IRC-IRC-IRC-IRC-IRC-IRC-IRC
                          Input orientation:                          
 ---------------------------------------------------------------------
 Center     Atomic      Atomic             Coordinates (Angstroms)
 Number     Number       Type             X           Y           Z
 ---------------------------------------------------------------------
      1          1           0       -0.271159    1.301110    1.167529
      2          6           0       -0.087249    1.225523    0.084896
      3          6           0        0.667332   -1.236552    0.311723
      4          6           0       -1.561064   -0.954669   -0.909433
      5          6           0       -0.844797   -1.531258    0.307975
      6          8           0       -1.255157    0.826779   -0.616277
      7          6           0        1.029337    0.193775   -0.151879
      8          1           0       -0.950462   -2.623114    0.229053
      9          1           0        1.214265    0.145861   -1.236377
     10          6           0        0.270128    2.612351   -0.465356
     11          1           0       -0.582264    3.287271   -0.312990
     12          1           0        0.449208    2.522975   -1.545720
     13          1           0        1.013585   -1.318343    1.357815
     14          8           0        1.435903    3.111419    0.213683
     15          1           0        1.734181    3.915589   -0.237046
     16          8           0       -1.487354   -1.055499    1.498297
     17          1           0       -1.181591   -1.604765    2.235686
     18          8           0        1.258741   -2.222835   -0.507844
     19          1           0        2.236194   -2.083942   -0.499146
     20          8           0        2.232048    0.570041    0.538127
     21          1           0        2.331188    1.539880    0.434193
     22          1           0       -0.965384   -1.065572   -1.824329
     23          8           0       -2.829552   -1.044176   -1.027642
     24          8           0       -3.370561    0.701043    0.527919
     25          1           0       -3.364598   -0.220601   -0.131248
     26          1           0       -2.363126    0.986844    0.050906
     27          1           0       -3.086925    0.315138    1.379340
     28          8           0        3.909684   -1.450120   -0.225192
     29          1           0        3.534199   -0.589840    0.074648
     30          1           0        4.260544   -1.856719    0.581564
 ---------------------------------------------------------------------
                    Distance matrix (angstroms):
                    1          2          3          4          5
     1  H    0.000000
     2  C    1.100741   0.000000
     3  C    2.837763   2.585083   0.000000
     4  C    3.326585   2.813194   2.556644   0.000000
     5  C    3.014996   2.867662   1.540584   1.525639   0.000000
     6  O    2.091699   1.419383   2.968919   1.831141   2.565731
     7  C    2.158314   1.538613   1.546548   2.933085   2.588355
     8  H    4.091665   3.946888   2.132287   2.110141   1.099792
     9  H    3.052843   2.146013   2.146349   3.003416   3.072049
    10  C    2.163021   1.534206   3.946603   4.034117   4.360114
    11  H    2.496710   2.157350   4.734631   4.394070   4.865464
    12  H    3.061634   2.151761   4.199014   4.066948   4.641922
    13  H    2.923749   3.050150   1.104939   3.449854   2.145013
    14  O    2.664789   2.427588   4.416465   5.174579   5.173484
    15  H    3.581860   3.264615   5.289978   5.918628   6.051142
    16  O    2.672479   3.026724   2.466457   2.410967   1.433908
    17  H    3.227066   3.719410   2.693646   3.233945   1.958291
    18  O    4.191140   3.748894   1.412165   3.117823   2.359812
    19  H    4.530254   4.085591   1.958802   3.982808   3.232555
    20  O    2.682658   2.452389   2.400703   4.336804   3.733015
    21  H    2.714222   2.463669   3.239134   4.814326   4.419808
    22  H    3.877415   3.108919   2.694014   1.097346   2.185892
    23  O    4.106643   3.729544   3.749547   1.277124   2.441388
    24  O    3.221098   3.354324   4.483926   2.842823   3.378021
    25  H    3.683991   3.588734   4.181488   2.096941   2.874045
    26  H    2.392057   2.288611   3.767651   2.309768   2.951651
    27  H    2.990910   3.391525   4.200237   3.029710   3.095826
    28  O    5.195035   4.819823   3.293438   5.535589   4.784970
    29  H    4.387577   4.050992   2.948452   5.202232   4.485122
    30  H    5.554419   5.352588   3.656309   6.076832   5.123015
                    6          7          8          9         10
     6  O    0.000000
     7  C    2.415631   0.000000
     8  H    3.564994   3.464041   0.000000
     9  H    2.635568   1.101195   3.807985   0.000000
    10  C    2.353198   2.554247   5.420529   2.751262   0.000000
    11  H    2.568811   3.491838   5.946598   3.734785   1.097864
    12  H    2.577946   2.775701   5.620598   2.516282   1.098747
    13  H    3.694019   2.136803   2.614194   2.985632   4.396253
    14  O    3.626323   2.968430   6.211267   3.308524   1.438469
    15  H    4.315171   3.788926   7.083727   3.934441   1.973324
    16  O    2.840477   3.258451   2.087259   4.027462   4.516392
    17  H    3.748535   3.717985   2.262086   4.567279   5.214133
    18  O    3.953680   2.453435   2.363010   2.478600   4.935401
    19  H    4.547037   2.600979   3.312968   2.561224   5.091338
    20  O    3.682277   1.436732   4.518864   2.089181   3.004520
    21  H    3.804454   1.962217   5.304887   2.445733   2.491456
    22  H    2.263703   2.891705   2.577312   2.562055   4.111011
    23  O    2.479599   4.146144   2.757409   4.220452   4.826424
    24  O    2.408304   4.480909   4.122647   4.943844   4.230167
    25  H    2.404579   4.413479   3.424900   4.724573   4.620441
    26  H    1.303207   3.489826   3.880612   3.893851   3.137328
    27  H    2.756744   4.393515   3.810638   5.036950   4.466531
    28  O    5.657985   3.317253   5.020286   3.291646   5.459644
    29  H    5.042035   2.634331   4.926482   2.764441   4.604323
    30  H    6.249715   3.896558   5.278845   4.073702   6.082109
                   11         12         13         14         15
    11  H    0.000000
    12  H    1.779805   0.000000
    13  H    5.152670   4.848171   0.000000
    14  O    2.093157   2.101269   4.594582   0.000000
    15  H    2.401347   2.302858   5.518776   0.968925   0.000000
    16  O    4.791618   5.081514   2.518634   5.249654   6.172635
    17  H    5.548600   5.830675   2.381490   5.760396   6.714941
    18  O    5.812791   4.924961   2.087796   5.385745   6.162761
    19  H    6.068632   5.050972   2.351429   5.304749   6.026200
    20  O    4.003510   3.366733   2.392182   2.682855   3.470080
    21  H    3.478485   2.903167   3.280030   1.822058   2.539876
    22  H    4.623653   3.867346   3.755829   5.231341   5.883798
    23  O    4.931781   4.872703   4.531586   6.083088   6.786160
    24  O    3.894907   4.712754   4.897692   5.386163   6.080861
    25  H    4.481024   4.906430   4.752981   5.853729   6.566339
    26  H    2.931869   3.580242   4.292328   4.355793   5.044640
    27  H    4.239208   5.092618   4.413944   5.443704   6.230491
    28  O    6.529026   5.431774   3.303130   5.207671   5.789973
    29  H    5.668114   4.672513   2.920741   4.256935   4.861698
    30  H    7.121352   6.183311   3.381591   5.726808   6.353910
                   16         17         18         19         20
    16  O    0.000000
    17  H    0.968982   0.000000
    18  O    3.595596   3.723464   0.000000
    19  H    4.348826   4.403427   0.987310   0.000000
    20  O    4.171122   4.389125   3.137123   2.849487   0.000000
    21  H    4.738098   5.047156   4.024376   3.743292   0.980418
    22  H    3.363391   4.101365   2.831806   3.611549   4.298837
    23  O    2.860418   3.698560   4.286440   5.198289   5.538693
    24  O    2.752007   3.608990   5.572459   6.344029   5.604150
    25  H    2.622311   3.504826   5.052329   5.914073   5.691715
    26  H    2.651996   3.589669   4.871567   5.557520   4.639691
    27  H    2.109840   2.837191   5.374717   6.133506   5.391112
    28  O    5.679275   5.656935   2.775694   1.810345   2.734624
    29  H    5.240192   5.285720   2.860713   2.060679   1.804365
    30  H    5.875431   5.693543   3.214292   2.305983   3.163202
                   21         22         23         24         25
    21  H    0.000000
    22  H    4.770397   0.000000
    23  O    5.953784   2.027385   0.000000
    24  O    5.763885   3.799852   2.399635   0.000000
    25  H    5.988405   3.055606   1.329689   1.133122   0.000000
    26  H    4.742293   3.111688   2.346457   1.150717   1.579256
    27  H    5.634647   4.082988   2.776245   0.976878   1.626651
    28  O    3.444784   5.145037   6.798972   7.628673   7.378057
    29  H    2.472289   4.907003   6.474472   7.039002   6.911739
    30  H    3.909094   5.807285   7.315684   8.048527   7.831205
                   26         27         28         29         30
    26  H    0.000000
    27  H    1.655237   0.000000
    28  O    6.735219   7.392104   0.000000
    29  H    6.104501   6.808854   0.985380   0.000000
    30  H    7.227756   7.703162   0.969165   1.545808   0.000000
 Symmetry turned off by external request.
 Stoichiometry    C6H16O8
 Framework group  C1[X(C6H16O8)]
 Deg. of freedom    84
 Full point group                 C1      NOp   1
 Rotational constants (GHZ):      0.7770194      0.5082693      0.3533181
 Standard basis: 6-31G(d) (6D, 7F)
   242 basis functions,   456 primitive gaussians,   242 cartesian basis functions
    58 alpha electrons       58 beta electrons
       nuclear repulsion energy      1113.6187367356 Hartrees.
 NAtoms=   30 NActive=   30 NUniq=   30 SFac= 1.00D+00 NAtFMM=   60 NAOKFM=F Big=F
 Integral buffers will be    131072 words long.
 Raffenetti 2 integral format.
 Two-electron integral symmetry is turned off.
 One-electron integrals computed using PRISM.
 NBasis=   242 RedAO= T EigKep=  1.42D-03  NBF=   242
 NBsUse=   242 1.00D-06 EigRej= -1.00D+00 NBFU=   242
 ExpMin= 1.61D-01 ExpMax= 5.48D+03 ExpMxC= 8.25D+02 IAcc=1 IRadAn=         1 AccDes= 0.00D+00
 Harris functional with IExCor=  402 and IRadAn=       1 diagonalized for initial guess.
 HarFok:  IExCor=  402 AccDes= 0.00D+00 IRadAn=         1 IDoV= 1 UseB2=F ITyADJ=14
 ICtDFT=  3500011 ScaDFX=  1.000000  1.000000  1.000000  1.000000
 FoFCou: FMM=F IPFlag=           0 FMFlag=      100000 FMFlg1=           0
         NFxFlg=           0 DoJE=T BraDBF=F KetDBF=T FulRan=T
         wScrn=  0.000000 ICntrl=     500 IOpCl=  0 I1Cent=   200000004 NGrid=           0
         NMat0=    1 NMatS0=      1 NMatT0=    0 NMatD0=    1 NMtDS0=    0 NMtDT0=    0
 Symmetry not used in FoFCou.
 Requested convergence on RMS density matrix=1.00D-08 within 128 cycles.
 Requested convergence on MAX density matrix=1.00D-06.
 Requested convergence on             energy=1.00D-06.
 No special actions if energy rises.
 Integral accuracy reduced to 1.0D-05 until final iterations.
 Initial convergence to 1.0D-05 achieved.  Increase integral accuracy.
 SCF Done:  E(RB3LYP) =  -839.957879400     A.U. after   14 cycles
            NFock= 14  Conv=0.72D-08     -V/T= 2.0086
 DoSCS=F DFT=T ScalE2(SS,OS)=  1.000000  1.000000
 Range of M.O.s used for correlation:     1   242
 NBasis=   242 NAE=    58 NBE=    58 NFC=     0 NFV=     0
 NROrb=    242 NOA=    58 NOB=    58 NVA=   184 NVB=   184
 Symmetrizing basis deriv contribution to polar:
 IMax=3 JMax=2 DiffMx= 0.00D+00
 G2DrvN: will do    31 centers at a time, making    1 passes.
 Calling FoFCou, ICntrl=  3107 FMM=F I1Cent=   0 AccDes= 0.00D+00.
 End of G2Drv F.D. properties file   721 does not exist.
 End of G2Drv F.D. properties file   722 does not exist.
 End of G2Drv F.D. properties file   788 does not exist.
          IDoAtm=111111111111111111111111111111
          Differentiating once with respect to nuclear coordinates.
          There are    93 degrees of freedom in the 1st order CPHF.  IDoFFX=6 NUNeed=     0.
     87 vectors produced by pass  0 Test12= 1.15D-14 1.08D-09 XBig12= 1.48D-01 8.53D-02.
 AX will form    87 AO Fock derivatives at one time.
     87 vectors produced by pass  1 Test12= 1.15D-14 1.08D-09 XBig12= 3.48D-02 2.47D-02.
     87 vectors produced by pass  2 Test12= 1.15D-14 1.08D-09 XBig12= 4.24D-04 2.32D-03.
     87 vectors produced by pass  3 Test12= 1.15D-14 1.08D-09 XBig12= 9.79D-07 1.37D-04.
     87 vectors produced by pass  4 Test12= 1.15D-14 1.08D-09 XBig12= 1.21D-09 3.63D-06.
     70 vectors produced by pass  5 Test12= 1.15D-14 1.08D-09 XBig12= 9.67D-13 9.30D-08.
      1 vectors produced by pass  6 Test12= 1.15D-14 1.08D-09 XBig12= 7.73D-16 2.16D-09.
 InvSVY:  IOpt=1 It=  1 EMax= 6.11D-16
 Solved reduced A of dimension   506 with    93 vectors.
 End of Minotr F.D. properties file   721 does not exist.
 End of Minotr F.D. properties file   722 does not exist.
 End of Minotr F.D. properties file   788 does not exist.

 **********************************************************************

            Population analysis using the SCF density.

 **********************************************************************

 Alpha  occ. eigenvalues --  -19.18332 -19.17515 -19.17099 -19.15892 -19.14594
 Alpha  occ. eigenvalues --  -19.14583 -19.12622 -19.11166 -10.28149 -10.24962
 Alpha  occ. eigenvalues --  -10.24532 -10.24492 -10.24232 -10.23872  -1.06218
 Alpha  occ. eigenvalues --   -1.05296  -1.03839  -1.03043  -1.00610  -1.00119
 Alpha  occ. eigenvalues --   -0.99734  -0.98625  -0.77443  -0.75635  -0.69764
 Alpha  occ. eigenvalues --   -0.63444  -0.61118  -0.57855  -0.55712  -0.54991
 Alpha  occ. eigenvalues --   -0.53204  -0.52625  -0.51916  -0.49911  -0.49747
 Alpha  occ. eigenvalues --   -0.47058  -0.46497  -0.45519  -0.44276  -0.42990
 Alpha  occ. eigenvalues --   -0.41346  -0.40880  -0.40435  -0.39672  -0.37867
 Alpha  occ. eigenvalues --   -0.37705  -0.36445  -0.35957  -0.34153  -0.32713
 Alpha  occ. eigenvalues --   -0.30355  -0.30163  -0.29170  -0.28669  -0.27387
 Alpha  occ. eigenvalues --   -0.26662  -0.25673  -0.23919
 Alpha virt. eigenvalues --    0.01602   0.04573   0.05713   0.07156   0.09914
 Alpha virt. eigenvalues --    0.10347   0.10793   0.12705   0.14440   0.14790
 Alpha virt. eigenvalues --    0.15726   0.15972   0.17067   0.18370   0.19746
 Alpha virt. eigenvalues --    0.20420   0.21673   0.22276   0.23710   0.24416
 Alpha virt. eigenvalues --    0.24782   0.25745   0.27160   0.28163   0.29783
 Alpha virt. eigenvalues --    0.31149   0.33447   0.37256   0.51862   0.53353
 Alpha virt. eigenvalues --    0.54841   0.56070   0.56594   0.58253   0.58713
 Alpha virt. eigenvalues --    0.60815   0.61498   0.62500   0.63343   0.66276
 Alpha virt. eigenvalues --    0.67027   0.68298   0.70743   0.73093   0.73926
 Alpha virt. eigenvalues --    0.76123   0.76907   0.77731   0.78873   0.79840
 Alpha virt. eigenvalues --    0.80296   0.82340   0.83723   0.84611   0.85113
 Alpha virt. eigenvalues --    0.85874   0.87127   0.87327   0.89191   0.89922
 Alpha virt. eigenvalues --    0.90500   0.91562   0.92543   0.94083   0.95624
 Alpha virt. eigenvalues --    0.96472   0.96964   0.97971   1.00237   1.03182
 Alpha virt. eigenvalues --    1.03819   1.06690   1.07102   1.07914   1.09337
 Alpha virt. eigenvalues --    1.10636   1.12096   1.13961   1.15704   1.16715
 Alpha virt. eigenvalues --    1.20220   1.21471   1.24450   1.26042   1.27569
 Alpha virt. eigenvalues --    1.28686   1.30871   1.33475   1.37164   1.38649
 Alpha virt. eigenvalues --    1.40901   1.41018   1.44817   1.49997   1.50545
 Alpha virt. eigenvalues --    1.52475   1.54498   1.57030   1.59729   1.61330
 Alpha virt. eigenvalues --    1.62353   1.63584   1.65076   1.68621   1.69204
 Alpha virt. eigenvalues --    1.69549   1.71546   1.72478   1.73752   1.74737
 Alpha virt. eigenvalues --    1.75278   1.76448   1.77503   1.80069   1.80306
 Alpha virt. eigenvalues --    1.82036   1.82766   1.83934   1.85661   1.86753
 Alpha virt. eigenvalues --    1.89091   1.89692   1.90440   1.94372   1.94961
 Alpha virt. eigenvalues --    1.95691   1.99277   2.00401   2.04515   2.04744
 Alpha virt. eigenvalues --    2.05830   2.08122   2.09712   2.13096   2.14776
 Alpha virt. eigenvalues --    2.16509   2.19773   2.22430   2.23812   2.25676
 Alpha virt. eigenvalues --    2.31109   2.33102   2.34812   2.37419   2.37789
 Alpha virt. eigenvalues --    2.42000   2.44495   2.45923   2.49494   2.49691
 Alpha virt. eigenvalues --    2.51238   2.54084   2.55970   2.57519   2.60200
 Alpha virt. eigenvalues --    2.61242   2.63336   2.64864   2.67280   2.70730
 Alpha virt. eigenvalues --    2.74910   2.76747   2.82105   2.83898   2.90336
 Alpha virt. eigenvalues --    2.93316   2.98048   3.00606   3.04775   3.08887
 Alpha virt. eigenvalues --    3.73893   3.76388   3.82131   3.83504   3.89824
 Alpha virt. eigenvalues --    4.01054   4.06654   4.14967   4.27653   4.35357
 Alpha virt. eigenvalues --    4.47678   4.55076   4.61177   4.80313
          Condensed to atoms (all electrons):
               1          2          3          4          5          6
     1  H    0.648504   0.357266  -0.006479   0.000717  -0.003065  -0.035829
     2  C    0.357266   4.925614  -0.024932  -0.008405  -0.008400   0.156834
     3  C   -0.006479  -0.024932   4.982823  -0.018856   0.250040  -0.003812
     4  C    0.000717  -0.008405  -0.018856   4.734954   0.240415   0.082400
     5  C   -0.003065  -0.008400   0.250040   0.240415   5.227954  -0.029630
     6  O   -0.035829   0.156834  -0.003812   0.082400  -0.029630   8.583706
     7  C   -0.058941   0.298536   0.330985  -0.015755  -0.019310  -0.030259
     8  H    0.000003   0.000422  -0.051442  -0.030812   0.347980   0.002377
     9  H    0.007481  -0.045229  -0.053841   0.001982  -0.002353   0.002943
    10  C   -0.061210   0.337920   0.003651   0.000819   0.000034  -0.044105
    11  H   -0.006548  -0.034780  -0.000114  -0.000104   0.000009   0.002820
    12  H    0.007134  -0.031392  -0.000094   0.000034   0.000005   0.005634
    13  H    0.002550   0.000890   0.333033   0.004443  -0.049712   0.000073
    14  O    0.005219  -0.035838  -0.000050  -0.000007   0.000006   0.001279
    15  H   -0.000232   0.004861   0.000009   0.000001  -0.000000  -0.000098
    16  O    0.007604   0.003248  -0.036348  -0.037284   0.182777  -0.002060
    17  H   -0.000003  -0.000021  -0.003428   0.006204  -0.021016   0.000057
    18  O    0.000009   0.004182   0.223953   0.000072  -0.044398  -0.000002
    19  H    0.000002   0.000055  -0.020524  -0.000063   0.004213  -0.000003
    20  O    0.004502  -0.023190  -0.042017   0.000118   0.002607   0.001238
    21  H    0.000301  -0.012178   0.004163  -0.000007  -0.000181   0.000042
    22  H   -0.000105   0.001874   0.006335   0.380139  -0.098851  -0.020233
    23  O   -0.000012   0.001593   0.003028   0.360527  -0.048863  -0.043268
    24  O    0.002386   0.004351  -0.000039   0.029671  -0.003265  -0.091661
    25  H   -0.000191  -0.000128   0.000259  -0.029752  -0.004561   0.005436
    26  H   -0.003477  -0.003651  -0.000172  -0.011667   0.000930   0.110743
    27  H    0.000066  -0.000047   0.000214  -0.001761  -0.001977   0.004519
    28  O    0.000000   0.000005   0.004171  -0.000000   0.000078   0.000000
    29  H   -0.000026   0.000643  -0.000441  -0.000003   0.000033  -0.000007
    30  H    0.000000  -0.000004   0.000505  -0.000000   0.000012  -0.000000
               7          8          9         10         11         12
     1  H   -0.058941   0.000003   0.007481  -0.061210  -0.006548   0.007134
     2  C    0.298536   0.000422  -0.045229   0.337920  -0.034780  -0.031392
     3  C    0.330985  -0.051442  -0.053841   0.003651  -0.000114  -0.000094
     4  C   -0.015755  -0.030812   0.001982   0.000819  -0.000104   0.000034
     5  C   -0.019310   0.347980  -0.002353   0.000034   0.000009   0.000005
     6  O   -0.030259   0.002377   0.002943  -0.044105   0.002820   0.005634
     7  C    5.003867   0.005273   0.348223  -0.026637   0.005211  -0.012649
     8  H    0.005273   0.586070  -0.000366   0.000020  -0.000000  -0.000001
     9  H    0.348223  -0.000366   0.637643  -0.013407  -0.000060   0.006904
    10  C   -0.026637   0.000020  -0.013407   4.980918   0.365613   0.351096
    11  H    0.005211  -0.000000  -0.000060   0.365613   0.598306  -0.047883
    12  H   -0.012649  -0.000001   0.006904   0.351096  -0.047883   0.614817
    13  H   -0.059890  -0.002851   0.007822  -0.000307   0.000007  -0.000002
    14  O    0.003942  -0.000000   0.000167   0.185671  -0.033654  -0.033472
    15  H   -0.000013   0.000000  -0.000038  -0.015527  -0.002368  -0.005340
    16  O   -0.001778  -0.028218  -0.000023   0.000241  -0.000000  -0.000004
    17  H   -0.000367  -0.006015   0.000012  -0.000009   0.000000   0.000000
    18  O   -0.044702   0.008594   0.003430  -0.000057   0.000000  -0.000005
    19  H   -0.000871  -0.000067   0.000498  -0.000002   0.000000   0.000000
    20  O    0.193185  -0.000061  -0.040269   0.001093  -0.000229   0.000187
    21  H   -0.018893   0.000005  -0.000635  -0.004156   0.000891   0.000087
    22  H   -0.002619   0.001970   0.001963  -0.000078   0.000007  -0.000028
    23  O    0.000062  -0.000935   0.000007  -0.000047   0.000004  -0.000001
    24  O   -0.000140  -0.000048   0.000003  -0.000183  -0.000070   0.000010
    25  H    0.000025  -0.000026  -0.000001  -0.000008   0.000006  -0.000000
    26  H    0.002366  -0.000180  -0.000055  -0.001497   0.001657  -0.000117
    27  H    0.000018   0.000188   0.000001   0.000002   0.000008  -0.000001
    28  O    0.001714   0.000001   0.000436  -0.000002  -0.000000   0.000000
    29  H   -0.005076  -0.000004  -0.001240  -0.000010   0.000001  -0.000006
    30  H   -0.000388  -0.000000  -0.000011   0.000000   0.000000   0.000000
              13         14         15         16         17         18
     1  H    0.002550   0.005219  -0.000232   0.007604  -0.000003   0.000009
     2  C    0.000890  -0.035838   0.004861   0.003248  -0.000021   0.004182
     3  C    0.333033  -0.000050   0.000009  -0.036348  -0.003428   0.223953
     4  C    0.004443  -0.000007   0.000001  -0.037284   0.006204   0.000072
     5  C   -0.049712   0.000006  -0.000000   0.182777  -0.021016  -0.044398
     6  O    0.000073   0.001279  -0.000098  -0.002060   0.000057  -0.000002
     7  C   -0.059890   0.003942  -0.000013  -0.001778  -0.000367  -0.044702
     8  H   -0.002851  -0.000000   0.000000  -0.028218  -0.006015   0.008594
     9  H    0.007822   0.000167  -0.000038  -0.000023   0.000012   0.003430
    10  C   -0.000307   0.185671  -0.015527   0.000241  -0.000009  -0.000057
    11  H    0.000007  -0.033654  -0.002368  -0.000000   0.000000   0.000000
    12  H   -0.000002  -0.033472  -0.005340  -0.000004   0.000000  -0.000005
    13  H    0.682077   0.000002  -0.000000   0.002594   0.006793  -0.035795
    14  O    0.000002   8.277401   0.234071  -0.000000   0.000000   0.000000
    15  H   -0.000000   0.234071   0.373549   0.000000  -0.000000  -0.000000
    16  O    0.002594  -0.000000   0.000000   8.304116   0.235496   0.001449
    17  H    0.006793   0.000000  -0.000000   0.235496   0.376407  -0.000087
    18  O   -0.035795   0.000000  -0.000000   0.001449  -0.000087   8.372316
    19  H   -0.003015   0.000000  -0.000000  -0.000084  -0.000011   0.203189
    20  O    0.002708  -0.023626   0.000895  -0.000046  -0.000011   0.000490
    21  H    0.000045   0.058154  -0.001964   0.000004   0.000000  -0.000117
    22  H    0.000260   0.000000  -0.000000   0.002760  -0.000232   0.006145
    23  O   -0.000079   0.000000  -0.000000   0.001883  -0.000342  -0.000004
    24  O    0.000002   0.000000  -0.000000  -0.009363   0.000579  -0.000000
    25  H   -0.000002   0.000000  -0.000000   0.003215  -0.000187  -0.000002
    26  H    0.000015   0.000019  -0.000003  -0.000111  -0.000017   0.000003
    27  H   -0.000006  -0.000000   0.000000   0.029237  -0.001064  -0.000001
    28  O    0.000816  -0.000000   0.000000   0.000000  -0.000000  -0.026287
    29  H    0.000066   0.000022  -0.000006  -0.000000   0.000000   0.004070
    30  H    0.000144   0.000000  -0.000000  -0.000000  -0.000000   0.001390
              19         20         21         22         23         24
     1  H    0.000002   0.004502   0.000301  -0.000105  -0.000012   0.002386
     2  C    0.000055  -0.023190  -0.012178   0.001874   0.001593   0.004351
     3  C   -0.020524  -0.042017   0.004163   0.006335   0.003028  -0.000039
     4  C   -0.000063   0.000118  -0.000007   0.380139   0.360527   0.029671
     5  C    0.004213   0.002607  -0.000181  -0.098851  -0.048863  -0.003265
     6  O   -0.000003   0.001238   0.000042  -0.020233  -0.043268  -0.091661
     7  C   -0.000871   0.193185  -0.018893  -0.002619   0.000062  -0.000140
     8  H   -0.000067  -0.000061   0.000005   0.001970  -0.000935  -0.000048
     9  H    0.000498  -0.040269  -0.000635   0.001963   0.000007   0.000003
    10  C   -0.000002   0.001093  -0.004156  -0.000078  -0.000047  -0.000183
    11  H    0.000000  -0.000229   0.000891   0.000007   0.000004  -0.000070
    12  H    0.000000   0.000187   0.000087  -0.000028  -0.000001   0.000010
    13  H   -0.003015   0.002708   0.000045   0.000260  -0.000079   0.000002
    14  O    0.000000  -0.023626   0.058154   0.000000   0.000000   0.000000
    15  H   -0.000000   0.000895  -0.001964  -0.000000  -0.000000  -0.000000
    16  O   -0.000084  -0.000046   0.000004   0.002760   0.001883  -0.009363
    17  H   -0.000011  -0.000011   0.000000  -0.000232  -0.000342   0.000579
    18  O    0.203189   0.000490  -0.000117   0.006145  -0.000004  -0.000000
    19  H    0.321742   0.001092  -0.000040  -0.000003   0.000002  -0.000000
    20  O    0.001092   8.361339   0.216534  -0.000007  -0.000000   0.000000
    21  H   -0.000040   0.216534   0.323966  -0.000003  -0.000000   0.000000
    22  H   -0.000003  -0.000007  -0.000003   0.600340  -0.041559  -0.000458
    23  O    0.000002  -0.000000  -0.000000  -0.041559   8.320749  -0.098526
    24  O   -0.000000   0.000000   0.000000  -0.000458  -0.098526   8.463082
    25  H    0.000000  -0.000000  -0.000000   0.003837   0.132875   0.141835
    26  H    0.000000  -0.000024   0.000001   0.001125   0.012769   0.138596
    27  H    0.000000  -0.000000  -0.000000   0.000106   0.005501   0.227039
    28  O    0.077860  -0.024098   0.000410   0.000001   0.000000   0.000000
    29  H   -0.008781   0.060664  -0.000900  -0.000001   0.000000  -0.000000
    30  H   -0.004018   0.001165  -0.000016  -0.000000  -0.000000  -0.000000
              25         26         27         28         29         30
     1  H   -0.000191  -0.003477   0.000066   0.000000  -0.000026   0.000000
     2  C   -0.000128  -0.003651  -0.000047   0.000005   0.000643  -0.000004
     3  C    0.000259  -0.000172   0.000214   0.004171  -0.000441   0.000505
     4  C   -0.029752  -0.011667  -0.001761  -0.000000  -0.000003  -0.000000
     5  C   -0.004561   0.000930  -0.001977   0.000078   0.000033   0.000012
     6  O    0.005436   0.110743   0.004519   0.000000  -0.000007  -0.000000
     7  C    0.000025   0.002366   0.000018   0.001714  -0.005076  -0.000388
     8  H   -0.000026  -0.000180   0.000188   0.000001  -0.000004  -0.000000
     9  H   -0.000001  -0.000055   0.000001   0.000436  -0.001240  -0.000011
    10  C   -0.000008  -0.001497   0.000002  -0.000002  -0.000010   0.000000
    11  H    0.000006   0.001657   0.000008  -0.000000   0.000001   0.000000
    12  H   -0.000000  -0.000117  -0.000001   0.000000  -0.000006   0.000000
    13  H   -0.000002   0.000015  -0.000006   0.000816   0.000066   0.000144
    14  O    0.000000   0.000019  -0.000000  -0.000000   0.000022   0.000000
    15  H   -0.000000  -0.000003   0.000000   0.000000  -0.000006  -0.000000
    16  O    0.003215  -0.000111   0.029237   0.000000  -0.000000  -0.000000
    17  H   -0.000187  -0.000017  -0.001064  -0.000000   0.000000  -0.000000
    18  O   -0.000002   0.000003  -0.000001  -0.026287   0.004070   0.001390
    19  H    0.000000   0.000000   0.000000   0.077860  -0.008781  -0.004018
    20  O   -0.000000  -0.000024  -0.000000  -0.024098   0.060664   0.001165
    21  H   -0.000000   0.000001  -0.000000   0.000410  -0.000900  -0.000016
    22  H    0.003837   0.001125   0.000106   0.000001  -0.000001  -0.000000
    23  O    0.132875   0.012769   0.005501   0.000000   0.000000  -0.000000
    24  O    0.141835   0.138596   0.227039   0.000000  -0.000000  -0.000000
    25  H    0.310116  -0.018931  -0.007518  -0.000000   0.000000   0.000000
    26  H   -0.018931   0.312708  -0.009639  -0.000000   0.000000   0.000000
    27  H   -0.007518  -0.009639   0.330277  -0.000000   0.000000   0.000000
    28  O   -0.000000  -0.000000  -0.000000   8.324805   0.208492   0.239971
    29  H    0.000000   0.000000   0.000000   0.208492   0.327879  -0.015114
    30  H    0.000000   0.000000   0.000000   0.239971  -0.015114   0.383016
 Mulliken charges:
               1
     1  H    0.132373
     2  C    0.129901
     3  C    0.119421
     4  C    0.311981
     5  C    0.078488
     6  O   -0.659135
     7  C    0.104881
     8  H    0.168122
     9  H    0.138013
    10  C   -0.059839
    11  H    0.151267
    12  H    0.145085
    13  H    0.107319
    14  O   -0.639307
    15  H    0.412205
    16  O   -0.659303
    17  H    0.407260
    18  O   -0.677837
    19  H    0.428829
    20  O   -0.694239
    21  H    0.434489
    22  H    0.157314
    23  O   -0.605362
    24  O   -0.803801
    25  H    0.463705
    26  H    0.468608
    27  H    0.424841
    28  O   -0.808373
    29  H    0.429744
    30  H    0.393350
 Sum of Mulliken charges =  -0.00000
 Mulliken charges with hydrogens summed into heavy atoms:
               1
     2  C    0.262274
     3  C    0.226740
     4  C    0.469295
     5  C    0.246611
     6  O   -0.659135
     7  C    0.242894
    10  C    0.236513
    14  O   -0.227101
    16  O   -0.252043
    18  O   -0.249008
    20  O   -0.259750
    23  O   -0.605362
    24  O    0.553352
    28  O    0.014721
 APT charges:
               1
     1  H    0.315419
     2  C   -0.226672
     3  C   -0.235561
     4  C   -0.379494
     5  C   -0.369866
     6  O   -0.496200
     7  C   -0.163290
     8  H    0.530533
     9  H    0.338784
    10  C   -0.556842
    11  H    0.507522
    12  H    0.358418
    13  H    0.336451
    14  O   -1.157410
    15  H    0.988582
    16  O   -0.907298
    17  H    0.744401
    18  O   -0.749062
    19  H    0.580998
    20  O   -0.810639
    21  H    0.605458
    22  H    0.358727
    23  O   -0.191049
    24  O   -0.624281
    25  H    0.356208
    26  H    0.324433
    27  H    0.444545
    28  O   -0.913504
    29  H    0.169328
    30  H    0.821361
 Sum of APT charges =  -0.00000
 APT charges with hydrogens summed into heavy atoms:
               1
     2  C    0.088747
     3  C    0.100890
     4  C   -0.020767
     5  C    0.160666
     6  O   -0.496200
     7  C    0.175494
    10  C    0.309098
    14  O   -0.168828
    16  O   -0.162897
    18  O   -0.168064
    20  O   -0.205181
    23  O   -0.191049
    24  O    0.500905
    28  O    0.077185
 Electronic spatial extent (au):  <R**2>=           3202.1532
 Charge=             -0.0000 electrons
 Dipole moment (field-independent basis, Debye):
    X=              2.8086    Y=              2.7984    Z=              3.5509  Tot=              5.3225
 Quadrupole moment (field-independent basis, Debye-Ang):
   XX=            -94.1010   YY=            -73.3829   ZZ=            -80.2333
   XY=              5.6186   XZ=             -2.7956   YZ=            -12.5084
 Traceless Quadrupole moment (field-independent basis, Debye-Ang):
   XX=            -11.5286   YY=              9.1895   ZZ=              2.3391
   XY=              5.6186   XZ=             -2.7956   YZ=            -12.5084
 Octapole moment (field-independent basis, Debye-Ang**2):
  XXX=             54.9481  YYY=             58.6510  ZZZ=             20.5963  XYY=             26.7694
  XXY=              5.5266  XXZ=             45.2782  XZZ=             -1.5983  YZZ=             -8.3436
  YYZ=              4.4950  XYZ=            -12.9301
 Hexadecapole moment (field-independent basis, Debye-Ang**3):
 XXXX=          -2150.1734 YYYY=          -1114.4307 ZZZZ=           -289.0251 XXXY=             -1.4087
 XXXZ=             71.4081 YYYX=             90.6768 YYYZ=            -87.8751 ZZZX=            -36.2707
 ZZZY=            -25.7957 XXYY=           -515.2169 XXZZ=           -389.6219 YYZZ=           -265.3194
 XXYZ=            -81.8181 YYXZ=             -9.2346 ZZXY=             -2.1625
 N-N= 1.113618736736D+03 E-N=-4.199831356669D+03  KE= 8.327867989822D+02
  Exact polarizability:   0.000   0.000   0.000   0.000   0.000   0.000
 Approx polarizability: 146.677   4.369 140.701   2.062   5.822 125.514
 Calling FoFJK, ICntrl=    100147 FMM=F ISym2X=0 I1Cent= 0 IOpClX= 0 NMat=1 NMatS=1 NMatT=0.
 -------------------------------------------------------------------
 Center     Atomic                   Forces (Hartrees/Bohr)
 Number     Number              X              Y              Z
 -------------------------------------------------------------------
      1        1          -0.000001215   -0.000001234    0.000002329
      2        6           0.000000067   -0.000000606    0.000002239
      3        6          -0.000004369    0.000002449   -0.000003229
      4        6           0.000001262    0.000000800   -0.000004175
      5        6          -0.000000411    0.000000723   -0.000004541
      6        8          -0.000000447    0.000001009   -0.000000814
      7        6          -0.000001916   -0.000001081    0.000002135
      8        1           0.000000084   -0.000001845   -0.000002207
      9        1           0.000000629    0.000001106   -0.000001102
     10        6           0.000002238    0.000000967    0.000005983
     11        1           0.000000050    0.000000583    0.000002560
     12        1           0.000000227    0.000002279    0.000002101
     13        1           0.000000691   -0.000001421    0.000001576
     14        8          -0.000003699    0.000005226    0.000002048
     15        1          -0.000002250   -0.000004571    0.000009307
     16        8          -0.000002586   -0.000000588   -0.000005454
     17        1          -0.000000551   -0.000004080    0.000002295
     18        8           0.000063077    0.000004918    0.000001249
     19        1          -0.000052940   -0.000006573   -0.000007919
     20        8           0.000004788    0.000017282   -0.000000101
     21        1          -0.000002162   -0.000016006    0.000005304
     22        1           0.000000938    0.000001078   -0.000001500
     23        8           0.000001748    0.000001196   -0.000005701
     24        8          -0.000001163   -0.000003144   -0.000003251
     25        1           0.000000033    0.000000080   -0.000001412
     26        1          -0.000000324   -0.000000444   -0.000000283
     27        1          -0.000000959   -0.000000823   -0.000001042
     28        8          -0.000002828    0.000011654    0.000013401
     29        1           0.000006070   -0.000013655   -0.000003641
     30        1          -0.000004081    0.000004719   -0.000006151
 -------------------------------------------------------------------
 Cartesian Forces:  Max     0.000063077 RMS     0.000009787
 IRC-IRC-IRC-IRC-IRC-IRC-IRC-IRC-IRC-IRC-IRC-IRC-IRC-IRC-IRC-IRC-IRC-IRC
          ******** Start new reaction path calculation ********
 Supplied step size of   0.1000 bohr.
    Integration on MW PES will use step size of   0.1088 sqrt(amu)*bohr.
 Point Number:   0          Path Number:   1
 Calculating another point on the path.
 IRC-IRC-IRC-IRC-IRC-IRC-IRC-IRC-IRC-IRC-IRC-IRC-IRC-IRC-IRC-IRC-IRC-IRC
                          Input orientation:                          
 ---------------------------------------------------------------------
 Center     Atomic      Atomic             Coordinates (Angstroms)
 Number     Number       Type             X           Y           Z
 ---------------------------------------------------------------------
      1          1           0       -0.252765    1.313415    1.175583
      2          6           0       -0.068655    1.238526    0.093366
      3          6           0        0.685640   -1.224430    0.319637
      4          6           0       -1.545144   -0.946416   -0.902960
      5          6           0       -0.826433   -1.519129    0.315959
      6          8           0       -1.238026    0.840899   -0.606962
      7          6           0        1.047535    0.205843   -0.144069
      8          1           0       -0.931685   -2.611006    0.237309
      9          1           0        1.232663    0.157986   -1.228484
     10          6           0        0.288650    2.624701   -0.457339
     11          1           0       -0.563771    3.299599   -0.305030
     12          1           0        0.467571    2.535137   -1.537745
     13          1           0        1.032101   -1.306037    1.365699
     14          8           0        1.454333    3.123614    0.221575
     15          1           0        1.752748    3.927807   -0.229052
     16          8           0       -1.468920   -1.043295    1.506260
     17          1           0       -1.163287   -1.592571    2.243696
     18          8           0        1.277152   -2.210635   -0.499910
     19          1           0        2.254591   -2.071878   -0.491149
     20          8           0        2.250278    0.582281    0.546021
     21          1           0        2.349816    1.552069    0.441977
     22          1           0       -0.944364   -1.049676   -1.816460
     23          8           0       -2.809305   -1.033541   -1.020908
     24          8           0       -3.352196    0.713240    0.535993
     25          1           0       -3.360466   -0.183479   -0.101300
     26          1           0       -2.311484    0.995804    0.041152
     27          1           0       -3.068710    0.327580    1.387562
     28          8           0        3.928096   -1.437960   -0.217264
     29          1           0        3.552721   -0.577746    0.082601
     30          1           0        4.278967   -1.844618    0.589460
 ---------------------------------------------------------------------
                    Distance matrix (angstroms):
                    1          2          3          4          5
     1  H    0.000000
     2  C    1.100317   0.000000
     3  C    2.837941   2.585790   0.000000
     4  C    3.331279   2.818981   2.558990   0.000000
     5  C    3.015187   2.868525   1.540528   1.526535   0.000000
     6  O    2.090807   1.419857   2.970633   1.837507   2.567280
     7  C    2.158466   1.539054   1.546504   2.936937   2.588226
     8  H    4.091744   3.947713   2.131926   2.108886   1.099754
     9  H    3.053040   2.146691   2.146390   3.006972   3.072116
    10  C    2.163108   1.533762   3.946784   4.039091   4.360359
    11  H    2.496772   2.156823   4.734774   4.398779   4.865672
    12  H    3.061640   2.151572   4.199020   4.071264   4.641955
    13  H    2.923791   3.050458   1.104962   3.452293   2.145113
    14  O    2.664796   2.426827   4.416560   5.179439   5.173574
    15  H    3.581917   3.264000   5.290116   5.923537   6.051308
    16  O    2.672538   3.027163   2.466376   2.412371   1.433884
    17  H    3.227177   3.719845   2.693707   3.234930   1.958324
    18  O    4.191283   3.749651   1.412142   3.118662   2.359850
    19  H    4.530457   4.086307   1.958865   3.984249   3.232595
    20  O    2.682561   2.452143   2.400739   4.340701   3.732962
    21  H    2.714510   2.463502   3.239351   4.818920   4.420034
    22  H    3.874898   3.106473   2.692650   1.098217   2.186665
    23  O    4.107148   3.730289   3.748084   1.272637   2.440243
    24  O    3.221142   3.354622   4.483915   2.844378   3.378071
    25  H    3.678168   3.591101   4.199016   2.126059   2.894717
    26  H    2.371947   2.256529   3.740287   2.291472   2.933562
    27  H    2.991045   3.391916   4.200517   3.031635   3.096203
    28  O    5.195161   4.820175   3.293537   5.537883   4.785025
    29  H    4.387804   4.051336   2.948651   5.205331   4.485270
    30  H    5.554576   5.352915   3.656424   6.079009   5.123071
                    6          7          8          9         10
     6  O    0.000000
     7  C    2.416889   0.000000
     8  H    3.566831   3.463726   0.000000
     9  H    2.637605   1.101145   3.807922   0.000000
    10  C    2.352674   2.554392   5.420736   2.751456   0.000000
    11  H    2.567292   3.491925   5.946826   3.734927   1.097865
    12  H    2.577957   2.775662   5.620634   2.516318   1.098778
    13  H    3.695159   2.136684   2.613937   2.985528   4.396236
    14  O    3.625749   2.968597   6.211216   3.308589   1.438281
    15  H    4.314689   3.789137   7.083766   3.934578   1.973266
    16  O    2.840635   3.258293   2.087241   4.027462   4.516522
    17  H    3.748815   3.717989   2.261955   4.567391   5.214316
    18  O    3.955937   2.453307   2.362785   2.478541   4.935527
    19  H    4.549292   2.601051   3.312653   2.561307   5.091554
    20  O    3.683003   1.436844   4.518548   2.089123   3.004363
    21  H    3.805081   1.962577   5.304840   2.445800   2.491528
    22  H    2.263492   2.888059   2.579899   2.558048   4.107138
    23  O    2.480684   4.144892   2.756258   4.219043   4.826766
    24  O    2.406733   4.480800   4.122948   4.943948   4.230385
    25  H    2.410352   4.425366   3.450582   4.741726   4.618299
    26  H    1.263471   3.455626   3.866704   3.856798   3.108456
    27  H    2.755545   4.393653   3.811200   5.037288   4.466799
    28  O    5.659848   3.317391   5.019975   3.291652   5.459709
    29  H    5.043739   2.634644   4.926254   2.764583   4.604493
    30  H    6.251450   3.896744   5.278471   4.073734   6.082206
                   11         12         13         14         15
    11  H    0.000000
    12  H    1.779791   0.000000
    13  H    5.152672   4.848021   0.000000
    14  O    2.093090   2.101240   4.594465   0.000000
    15  H    2.401391   2.303017   5.518667   0.968938   0.000000
    16  O    4.791743   5.081451   2.518709   5.249662   6.172706
    17  H    5.548761   5.830692   2.381745   5.760496   6.715081
    18  O    5.812888   4.924924   2.087785   5.385736   6.162794
    19  H    6.068820   5.051078   2.351357   5.304859   6.026339
    20  O    4.003371   3.366567   2.391981   2.682754   3.469988
    21  H    3.478631   2.903200   3.280001   1.822148   2.539863
    22  H    4.620116   3.862917   3.754767   5.227207   5.879593
    23  O    4.932647   4.872422   4.530623   6.083117   6.786334
    24  O    3.895111   4.712783   4.897750   5.386231   6.081052
    25  H    4.471559   4.910001   4.765172   5.850076   6.562312
    26  H    2.912356   3.547620   4.269949   4.329146   5.018728
    27  H    4.239397   5.092742   4.414276   5.443827   6.230693
    28  O    6.529092   5.431796   3.303024   5.207691   5.789969
    29  H    5.668295   4.672656   2.920663   4.257067   4.861794
    30  H    7.121460   6.183364   3.381531   5.726887   6.353946
                   16         17         18         19         20
    16  O    0.000000
    17  H    0.968983   0.000000
    18  O    3.595596   3.723589   0.000000
    19  H    4.348811   4.403522   0.987278   0.000000
    20  O    4.170969   4.389135   3.137089   2.849614   0.000000
    21  H    4.738286   5.047459   4.024388   3.743365   0.980419
    22  H    3.363877   4.102137   2.831301   3.610355   4.295386
    23  O    2.860648   3.698585   4.284404   5.196329   5.537646
    24  O    2.752011   3.608925   5.572523   6.344129   5.604014
    25  H    2.627067   3.508866   5.076983   5.936910   5.699636
    26  H    2.648468   3.587373   4.842759   5.526578   4.608207
    27  H    2.110146   2.837355   5.375091   6.133881   5.391169
    28  O    5.679267   5.657067   2.775684   1.810382   2.734786
    29  H    5.240268   5.285918   2.860745   2.060767   1.804654
    30  H    5.875444   5.693694   3.214279   2.305961   3.163432
                   21         22         23         24         25
    21  H    0.000000
    22  H    4.766680   0.000000
    23  O    5.953313   2.027601   0.000000
    24  O    5.764150   3.799943   2.402065   0.000000
    25  H    5.992878   3.087008   1.368234   1.100143   0.000000
    26  H    4.711455   3.082812   2.343936   1.186504   1.584728
    27  H    5.635063   4.083557   2.778609   0.976867   1.600941
    28  O    3.444683   5.142865   6.797203   7.628743   7.396642
    29  H    2.472295   4.904378   6.473087   7.039183   6.926862
    30  H    3.909073   5.805478   7.314009   8.048612   7.848405
                   26         27         28         29         30
    26  H    0.000000
    27  H    1.683074   0.000000
    28  O    6.702414   7.392422   0.000000
    29  H    6.071794   6.809250   0.985289   0.000000
    30  H    7.197408   7.703491   0.969167   1.545737   0.000000
 Symmetry turned off by external request.
 Stoichiometry    C6H16O8
 Framework group  C1[X(C6H16O8)]
 Deg. of freedom    84
 Full point group                 C1      NOp   1
 Rotational constants (GHZ):      0.7767186      0.5082981      0.3532894
 Standard basis: 6-31G(d) (6D, 7F)
   242 basis functions,   456 primitive gaussians,   242 cartesian basis functions
    58 alpha electrons       58 beta electrons
       nuclear repulsion energy      1113.5989461317 Hartrees.
 NAtoms=   30 NActive=   30 NUniq=   30 SFac= 1.00D+00 NAtFMM=   60 NAOKFM=F Big=F
 Integral buffers will be    131072 words long.
 Raffenetti 2 integral format.
 Two-electron integral symmetry is turned off.
 One-electron integrals computed using PRISM.
 NBasis=   242 RedAO= T EigKep=  1.43D-03  NBF=   242
 NBsUse=   242 1.00D-06 EigRej= -1.00D+00 NBFU=   242
 Initial guess from the checkpoint file:  "/scratch/10461041.yak.local/Gau-16067.chk"
 B after Tr=     0.034952    0.023194    0.015017
         Rot=    1.000000    0.000009   -0.000015    0.000036 Ang=   0.00 deg.
 ExpMin= 1.61D-01 ExpMax= 5.48D+03 ExpMxC= 8.25D+02 IAcc=1 IRadAn=         1 AccDes= 0.00D+00
 Harris functional with IExCor=  402 and IRadAn=       1 diagonalized for initial guess.
 HarFok:  IExCor=  402 AccDes= 0.00D+00 IRadAn=         1 IDoV= 1 UseB2=F ITyADJ=14
 ICtDFT=  3500011 ScaDFX=  1.000000  1.000000  1.000000  1.000000
 FoFCou: FMM=F IPFlag=           0 FMFlag=      100000 FMFlg1=           0
         NFxFlg=           0 DoJE=T BraDBF=F KetDBF=T FulRan=T
         wScrn=  0.000000 ICntrl=     500 IOpCl=  0 I1Cent=   200000004 NGrid=           0
         NMat0=    1 NMatS0=      1 NMatT0=    0 NMatD0=    1 NMtDS0=    0 NMtDT0=    0
 Symmetry not used in FoFCou.
 Requested convergence on RMS density matrix=1.00D-08 within 128 cycles.
 Requested convergence on MAX density matrix=1.00D-06.
 Requested convergence on             energy=1.00D-06.
 No special actions if energy rises.
 Integral accuracy reduced to 1.0D-05 until final iterations.
 Initial convergence to 1.0D-05 achieved.  Increase integral accuracy.
 SCF Done:  E(RB3LYP) =  -839.958201581     A.U. after   11 cycles
            NFock= 11  Conv=0.93D-08     -V/T= 2.0086
 DoSCS=F DFT=T ScalE2(SS,OS)=  1.000000  1.000000
 Range of M.O.s used for correlation:     1   242
 NBasis=   242 NAE=    58 NBE=    58 NFC=     0 NFV=     0
 NROrb=    242 NOA=    58 NOB=    58 NVA=   184 NVB=   184
 Symmetrizing basis deriv contribution to polar:
 IMax=3 JMax=2 DiffMx= 0.00D+00
 Calling FoFJK, ICntrl=      2147 FMM=F ISym2X=0 I1Cent= 0 IOpClX= 0 NMat=1 NMatS=1 NMatT=0.
 -------------------------------------------------------------------
 Center     Atomic                   Forces (Hartrees/Bohr)
 Number     Number              X              Y              Z
 -------------------------------------------------------------------
      1        1          -0.000012582    0.000010521    0.000009502
      2        6           0.000270550    0.001064280    0.000729383
      3        6          -0.000122410   -0.000054454   -0.000022913
      4        6          -0.002987152   -0.004963885   -0.001865843
      5        6          -0.000067344   -0.000058136    0.000085047
      6        8          -0.001964155    0.003254990    0.002186725
      7        6          -0.000256530   -0.000124795   -0.000145752
      8        1           0.000044427   -0.000010251    0.000035883
      9        1           0.000000566   -0.000002124   -0.000004953
     10        6           0.000153257    0.000251481    0.000118271
     11        1           0.000010573    0.000017254    0.000006378
     12        1          -0.000003377    0.000002594    0.000006990
     13        1           0.000010892    0.000014314   -0.000004408
     14        8           0.000040733    0.000051202   -0.000052865
     15        1           0.000014064    0.000001032    0.000016488
     16        8           0.000066709    0.000063965    0.000049279
     17        1          -0.000008706   -0.000004231    0.000011439
     18        8           0.000082185    0.000071851    0.000012906
     19        1          -0.000051980   -0.000018035   -0.000000378
     20        8          -0.000292895    0.000150656   -0.000055536
     21        1           0.000024599   -0.000012947   -0.000009515
     22        1           0.000258163    0.000401496    0.000008687
     23        8           0.003068597   -0.002586630   -0.002004932
     24        8          -0.000911352    0.000869984    0.001575573
     25        1          -0.001518674    0.001632968    0.001523993
     26        1           0.004167771   -0.000083708   -0.002188619
     27        1          -0.000052644    0.000077209   -0.000024674
     28        8           0.000016471    0.000008441    0.000014513
     29        1           0.000021430   -0.000022848   -0.000001122
     30        1          -0.000001187   -0.000002193   -0.000009547
 -------------------------------------------------------------------
 Cartesian Forces:  Max     0.004963885 RMS     0.001117056
 IRC-IRC-IRC-IRC-IRC-IRC-IRC-IRC-IRC-IRC-IRC-IRC-IRC-IRC-IRC-IRC-IRC-IRC
 Pt  1 Step number   1 out of a maximum of  20
 Modified Bulirsch-Stoer Extrapolation Cycles:
    EPS =    0.000010000000000
 Maximum DWI energy   std dev =  0.000002080 at pt     1
 Maximum DWI gradient std dev =  0.131965080 at pt     1
 CORRECTOR INTEGRATION CONVERGENCE:
   Recorrection delta-x convergence threshold:    0.010000
   Delta-x Convergence Met
 Point Number:   1          Path Number:   1
   CHANGE IN THE REACTION COORDINATE =    0.10852
   NET REACTION COORDINATE UP TO THIS POINT =    0.10852
  # OF POINTS ALONG THE PATH =   1
  # OF STEPS =   1

 Calculating another point on the path.
 IRC-IRC-IRC-IRC-IRC-IRC-IRC-IRC-IRC-IRC-IRC-IRC-IRC-IRC-IRC-IRC-IRC-IRC
                          Input orientation:                          
 ---------------------------------------------------------------------
 Center     Atomic      Atomic             Coordinates (Angstroms)
 Number     Number       Type             X           Y           Z
 ---------------------------------------------------------------------
      1          1           0       -0.253102    1.313452    1.175644
      2          6           0       -0.068370    1.239429    0.094017
      3          6           0        0.685547   -1.224485    0.319609
      4          6           0       -1.547459   -0.950478   -0.904393
      5          6           0       -0.826506   -1.519174    0.316080
      6          8           0       -1.239243    0.842869   -0.605687
      7          6           0        1.047329    0.205739   -0.144188
      8          1           0       -0.931228   -2.611097    0.237535
      9          1           0        1.232671    0.157969   -1.228531
     10          6           0        0.288772    2.624929   -0.457243
     11          1           0       -0.563681    3.299768   -0.304958
     12          1           0        0.467536    2.535164   -1.537687
     13          1           0        1.032155   -1.305896    1.365633
     14          8           0        1.454349    3.123629    0.221542
     15          1           0        1.752873    3.927894   -0.228891
     16          8           0       -1.468839   -1.043288    1.506261
     17          1           0       -1.163370   -1.592664    2.243718
     18          8           0        1.277174   -2.210589   -0.499909
     19          1           0        2.254559   -2.072004   -0.491128
     20          8           0        2.250075    0.582368    0.545982
     21          1           0        2.350082    1.552093    0.441872
     22          1           0       -0.941985   -1.045932   -1.816575
     23          8           0       -2.807521   -1.035100   -1.022166
     24          8           0       -3.352685    0.713725    0.536712
     25          1           0       -3.373728   -0.163888   -0.083688
     26          1           0       -2.273254    0.993017    0.020898
     27          1           0       -3.069300    0.328124    1.387875
     28          8           0        3.928104   -1.437962   -0.217261
     29          1           0        3.552932   -0.577828    0.082641
     30          1           0        4.279008   -1.844687    0.589409
 ---------------------------------------------------------------------
                    Distance matrix (angstroms):
                    1          2          3          4          5
     1  H    0.000000
     2  C    1.099782   0.000000
     3  C    2.838130   2.586534   0.000000
     4  C    3.335760   2.824929   2.561167   0.000000
     5  C    3.015197   2.869491   1.540506   1.527332   0.000000
     6  O    2.089752   1.420490   2.972363   1.843994   2.568901
     7  C    2.158727   1.539493   1.546459   2.940692   2.588133
     8  H    4.091698   3.948630   2.131523   2.107462   1.099742
     9  H    3.053313   2.147417   2.146453   3.010455   3.072270
    10  C    2.163312   1.533312   3.947014   4.044158   4.360672
    11  H    2.496817   2.156272   4.734926   4.403604   4.865899
    12  H    3.061710   2.151415   4.199052   4.075655   4.642053
    13  H    2.923862   3.050712   1.104958   3.454526   2.145151
    14  O    2.665040   2.425931   4.416646   5.184296   5.173669
    15  H    3.582173   3.263287   5.290279   5.928491   6.051508
    16  O    2.672368   3.027630   2.466243   2.413721   1.433733
    17  H    3.227209   3.720348   2.693742   3.235821   1.958231
    18  O    4.191430   3.750448   1.412102   3.119301   2.359949
    19  H    4.530762   4.087051   1.958923   3.985467   3.232672
    20  O    2.682695   2.451773   2.400773   4.344475   3.732919
    21  H    2.715131   2.463264   3.239600   4.823496   4.420318
    22  H    3.872289   3.104262   2.691472   1.098993   2.187580
    23  O    4.107447   3.731260   3.746699   1.268380   2.439190
    24  O    3.221074   3.355454   4.484542   2.846963   3.378772
    25  H    3.675154   3.595313   4.214882   2.151171   2.912895
    26  H    2.348858   2.219816   3.709589   2.271589   2.913987
    27  H    2.991134   3.392658   4.201269   3.034026   3.096995
    28  O    5.195474   4.820490   3.293627   5.539999   4.785119
    29  H    4.388336   4.051714   2.948935   5.208368   4.485544
    30  H    5.554956   5.353213   3.656557   6.081018   5.123177
                    6          7          8          9         10
     6  O    0.000000
     7  C    2.418125   0.000000
     8  H    3.568722   3.463375   0.000000
     9  H    2.639580   1.101106   3.807826   0.000000
    10  C    2.352149   2.554582   5.420985   2.751676   0.000000
    11  H    2.565770   3.492021   5.947077   3.735073   1.097850
    12  H    2.577903   2.775647   5.620673   2.516360   1.098806
    13  H    3.696288   2.136547   2.613624   2.985431   4.396235
    14  O    3.625136   2.968754   6.211144   3.308624   1.438061
    15  H    4.314176   3.789381   7.083810   3.934746   1.973184
    16  O    2.840885   3.258090   2.087275   4.027439   4.516676
    17  H    3.749225   3.718002   2.261829   4.567521   5.214594
    18  O    3.958175   2.453163   2.362471   2.478495   4.935685
    19  H    4.551512   2.601132   3.312221   2.561405   5.091822
    20  O    3.683686   1.436935   4.518191   2.089048   3.004202
    21  H    3.805737   1.962982   5.304800   2.445902   2.491662
    22  H    2.263224   2.884601   2.582484   2.554271   4.103385
    23  O    2.481877   4.143717   2.755193   4.217719   4.827212
    24  O    2.405908   4.481272   4.124004   4.944739   4.230940
    25  H    2.417037   4.436894   3.472437   4.757433   4.618544
    26  H    1.218332   3.416626   3.851961   3.814432   3.075017
    27  H    2.754698   4.394181   3.812303   5.038004   4.467261
    28  O    5.661673   3.317524   5.019581   3.291660   5.459800
    29  H    5.045505   2.635048   4.926040   2.764811   4.604766
    30  H    6.253185   3.896944   5.278045   4.073784   6.082346
                   11         12         13         14         15
    11  H    0.000000
    12  H    1.779789   0.000000
    13  H    5.152641   4.847866   0.000000
    14  O    2.093006   2.101185   4.594331   0.000000
    15  H    2.401406   2.303201   5.518560   0.968943   0.000000
    16  O    4.791865   5.081387   2.518672   5.249640   6.172750
    17  H    5.548988   5.830767   2.381932   5.760648   6.715269
    18  O    5.812984   4.924903   2.087762   5.385699   6.162849
    19  H    6.069026   5.051211   2.351331   5.304982   6.026545
    20  O    4.003197   3.366383   2.391798   2.682620   3.469897
    21  H    3.478813   2.903284   3.279995   1.822253   2.539884
    22  H    4.616623   3.858598   3.753832   5.223177   5.875538
    23  O    4.933587   4.872222   4.529683   6.083204   6.786589
    24  O    3.895455   4.713265   4.898245   5.386515   6.081427
    25  H    4.465674   4.914703   4.776664   5.849039   6.560930
    26  H    2.889623   3.509892   4.244885   4.298231   4.988547
    27  H    4.239632   5.093049   4.415025   5.444132   6.231022
    28  O    6.529159   5.431831   3.302956   5.207699   5.790007
    29  H    5.668553   4.672885   2.920697   4.257244   4.861975
    30  H    7.121584   6.183443   3.381549   5.726971   6.354028
                   16         17         18         19         20
    16  O    0.000000
    17  H    0.969004   0.000000
    18  O    3.595538   3.723650   0.000000
    19  H    4.348737   4.403566   0.987200   0.000000
    20  O    4.170757   4.389155   3.137041   2.849791   0.000000
    21  H    4.738468   5.047820   4.024407   3.743487   0.980412
    22  H    3.364345   4.102914   2.831024   3.609366   4.292118
    23  O    2.860958   3.698663   4.282436   5.194403   5.536657
    24  O    2.752453   3.609211   5.573310   6.344914   5.604308
    25  H    2.632468   3.513390   5.098344   5.956889   5.707937
    26  H    2.645738   3.585878   4.810392   5.491595   4.572183
    27  H    2.110986   2.838038   5.375930   6.134716   5.391584
    28  O    5.679198   5.657160   2.775657   1.810461   2.734969
    29  H    5.240375   5.286176   2.860830   2.060958   1.805042
    30  H    5.875424   5.693833   3.214266   2.305999   3.163709
                   21         22         23         24         25
    21  H    0.000000
    22  H    4.763194   0.000000
    23  O    5.952969   2.027666   0.000000
    24  O    5.764842   3.800767   2.405347   0.000000
    25  H    5.998567   3.113562   1.400121   1.074963   0.000000
    26  H    4.676005   3.050557   2.342367   1.228511   1.600128
    27  H    5.635842   4.084360   2.781223   0.976460   1.581218
    28  O    3.444567   5.140939   6.795500   7.629425   7.413357
    29  H    2.472339   4.902083   6.471867   7.040017   6.941011
    30  H    3.909046   5.803924   7.312421   8.049286   7.864001
                   26         27         28         29         30
    26  H    0.000000
    27  H    1.715925   0.000000
    28  O    6.665075   7.393185   0.000000
    29  H    6.034552   6.810165   0.985153   0.000000
    30  H    7.162955   7.704303   0.969163   1.545618   0.000000
 Symmetry turned off by external request.
 Stoichiometry    C6H16O8
 Framework group  C1[X(C6H16O8)]
 Deg. of freedom    84
 Full point group                 C1      NOp   1
 Rotational constants (GHZ):      0.7763710      0.5083105      0.3532500
 Standard basis: 6-31G(d) (6D, 7F)
   242 basis functions,   456 primitive gaussians,   242 cartesian basis functions
    58 alpha electrons       58 beta electrons
       nuclear repulsion energy      1113.5757563312 Hartrees.
 NAtoms=   30 NActive=   30 NUniq=   30 SFac= 1.00D+00 NAtFMM=   60 NAOKFM=F Big=F
 Integral buffers will be    131072 words long.
 Raffenetti 2 integral format.
 Two-electron integral symmetry is turned off.
 One-electron integrals computed using PRISM.
 NBasis=   242 RedAO= T EigKep=  1.43D-03  NBF=   242
 NBsUse=   242 1.00D-06 EigRej= -1.00D+00 NBFU=   242
 Initial guess from the checkpoint file:  "/scratch/10461041.yak.local/Gau-16067.chk"
 B after Tr=     0.000224    0.000176   -0.000015
         Rot=    1.000000    0.000009   -0.000005    0.000033 Ang=   0.00 deg.
 ExpMin= 1.61D-01 ExpMax= 5.48D+03 ExpMxC= 8.25D+02 IAcc=1 IRadAn=         1 AccDes= 0.00D+00
 Harris functional with IExCor=  402 and IRadAn=       1 diagonalized for initial guess.
 HarFok:  IExCor=  402 AccDes= 0.00D+00 IRadAn=         1 IDoV= 1 UseB2=F ITyADJ=14
 ICtDFT=  3500011 ScaDFX=  1.000000  1.000000  1.000000  1.000000
 FoFCou: FMM=F IPFlag=           0 FMFlag=      100000 FMFlg1=           0
         NFxFlg=           0 DoJE=T BraDBF=F KetDBF=T FulRan=T
         wScrn=  0.000000 ICntrl=     500 IOpCl=  0 I1Cent=   200000004 NGrid=           0
         NMat0=    1 NMatS0=      1 NMatT0=    0 NMatD0=    1 NMtDS0=    0 NMtDT0=    0
 Symmetry not used in FoFCou.
 Requested convergence on RMS density matrix=1.00D-08 within 128 cycles.
 Requested convergence on MAX density matrix=1.00D-06.
 Requested convergence on             energy=1.00D-06.
 No special actions if energy rises.
 Integral accuracy reduced to 1.0D-05 until final iterations.
 Initial convergence to 1.0D-05 achieved.  Increase integral accuracy.
 SCF Done:  E(RB3LYP) =  -839.959139690     A.U. after   11 cycles
            NFock= 11  Conv=0.93D-08     -V/T= 2.0086
 DoSCS=F DFT=T ScalE2(SS,OS)=  1.000000  1.000000
 Range of M.O.s used for correlation:     1   242
 NBasis=   242 NAE=    58 NBE=    58 NFC=     0 NFV=     0
 NROrb=    242 NOA=    58 NOB=    58 NVA=   184 NVB=   184
 Symmetrizing basis deriv contribution to polar:
 IMax=3 JMax=2 DiffMx= 0.00D+00
 Calling FoFJK, ICntrl=      2147 FMM=F ISym2X=0 I1Cent= 0 IOpClX= 0 NMat=1 NMatS=1 NMatT=0.
 -------------------------------------------------------------------
 Center     Atomic                   Forces (Hartrees/Bohr)
 Number     Number              X              Y              Z
 -------------------------------------------------------------------
      1        1          -0.000070559    0.000009706    0.000009607
      2        6           0.000675165    0.002127546    0.001538493
      3        6          -0.000223194   -0.000133296   -0.000063860
      4        6          -0.005422282   -0.009705944   -0.003498123
      5        6          -0.000178613   -0.000128623    0.000272904
      6        8          -0.003078190    0.006136136    0.003585821
      7        6          -0.000486861   -0.000245813   -0.000286631
      8        1           0.000092737   -0.000019659    0.000059581
      9        1          -0.000001083   -0.000003767   -0.000008570
     10        6           0.000289869    0.000549059    0.000219121
     11        1           0.000018931    0.000032593    0.000009117
     12        1          -0.000007208    0.000001650    0.000007781
     13        1           0.000011815    0.000030330   -0.000012933
     14        8           0.000062983    0.000043536   -0.000108402
     15        1           0.000025201    0.000015383    0.000021092
     16        8           0.000246897    0.000044111    0.000018211
     17        1          -0.000012652   -0.000015431    0.000009589
     18        8           0.000047952    0.000151788    0.000004550
     19        1           0.000004012   -0.000025307    0.000012836
     20        8          -0.000641144    0.000273512   -0.000122499
     21        1           0.000055125    0.000006033   -0.000027017
     22        1           0.000445565    0.000733710    0.000012821
     23        8           0.005631804   -0.004867716   -0.003851607
     24        8          -0.002824297    0.002065151    0.003812129
     25        1          -0.002610809    0.002748884    0.002558094
     26        1           0.008041791    0.000054793   -0.004153566
     27        1          -0.000167644    0.000166166   -0.000021126
     28        8           0.000025114   -0.000012256    0.000005510
     29        1           0.000040297   -0.000016452    0.000006625
     30        1           0.000009276   -0.000015824   -0.000009548
 -------------------------------------------------------------------
 Cartesian Forces:  Max     0.009705944 RMS     0.002122574
 IRC-IRC-IRC-IRC-IRC-IRC-IRC-IRC-IRC-IRC-IRC-IRC-IRC-IRC-IRC-IRC-IRC-IRC
 Pt  2 Step number   1 out of a maximum of  20
 Modified Bulirsch-Stoer Extrapolation Cycles:
    EPS =    0.000010000000000
 Maximum DWI energy   std dev =  0.000006565 at pt    36
 Maximum DWI gradient std dev =  0.077282493 at pt    55
 CORRECTOR INTEGRATION CONVERGENCE:
   Recorrection delta-x convergence threshold:    0.010000
   Delta-x Convergence Met
 Point Number:   2          Path Number:   1
   CHANGE IN THE REACTION COORDINATE =    0.10859
   NET REACTION COORDINATE UP TO THIS POINT =    0.21711
  # OF POINTS ALONG THE PATH =   2
  # OF STEPS =   1

 Calculating another point on the path.
 IRC-IRC-IRC-IRC-IRC-IRC-IRC-IRC-IRC-IRC-IRC-IRC-IRC-IRC-IRC-IRC-IRC-IRC
                          Input orientation:                          
 ---------------------------------------------------------------------
 Center     Atomic      Atomic             Coordinates (Angstroms)
 Number     Number       Type             X           Y           Z
 ---------------------------------------------------------------------
      1          1           0       -0.253658    1.313443    1.175660
      2          6           0       -0.068010    1.240377    0.094728
      3          6           0        0.685453   -1.224549    0.319572
      4          6           0       -1.549677   -0.954704   -0.905839
      5          6           0       -0.826604   -1.519232    0.316239
      6          8           0       -1.240158    0.844851   -0.604631
      7          6           0        1.047121    0.205633   -0.144310
      8          1           0       -0.930705   -2.611222    0.237778
      9          1           0        1.232666    0.157954   -1.228588
     10          6           0        0.288899    2.625185   -0.457149
     11          1           0       -0.563589    3.299948   -0.304907
     12          1           0        0.467499    2.535172   -1.537639
     13          1           0        1.032171   -1.305736    1.365551
     14          8           0        1.454363    3.123635    0.221506
     15          1           0        1.752991    3.927975   -0.228765
     16          8           0       -1.468731   -1.043295    1.506243
     17          1           0       -1.163414   -1.592789    2.243719
     18          8           0        1.277190   -2.210533   -0.499912
     19          1           0        2.254604   -2.072156   -0.491047
     20          8           0        2.249850    0.582459    0.545938
     21          1           0        2.350388    1.552135    0.441721
     22          1           0       -0.939793   -1.042221   -1.816693
     23          8           0       -2.805788   -1.036656   -1.023430
     24          8           0       -3.353732    0.714453    0.537956
     25          1           0       -3.386010   -0.148570   -0.069793
     26          1           0       -2.232038    0.992217   -0.000626
     27          1           0       -3.070234    0.328812    1.388200
     28          8           0        3.928109   -1.437967   -0.217260
     29          1           0        3.553181   -0.577897    0.082688
     30          1           0        4.279076   -1.844778    0.589348
 ---------------------------------------------------------------------
                    Distance matrix (angstroms):
                    1          2          3          4          5
     1  H    0.000000
     2  C    1.099189   0.000000
     3  C    2.838348   2.587300   0.000000
     4  C    3.340178   2.831051   2.563251   0.000000
     5  C    3.015115   2.870536   1.540508   1.528071   0.000000
     6  O    2.088587   1.421082   2.973978   1.850655   2.570587
     7  C    2.159072   1.539920   1.546418   2.944430   2.588071
     8  H    4.091578   3.949623   2.131084   2.105953   1.099743
     9  H    3.053641   2.148154   2.146522   3.013902   3.072465
    10  C    2.163585   1.532855   3.947278   4.049356   4.361040
    11  H    2.496866   2.155722   4.735098   4.408577   4.866158
    12  H    3.061810   2.151253   4.199076   4.080123   4.642172
    13  H    2.923954   3.050915   1.104933   3.456642   2.145153
    14  O    2.665434   2.424944   4.416735   5.189221   5.173780
    15  H    3.582572   3.262495   5.290446   5.933515   6.051727
    16  O    2.672060   3.028127   2.466079   2.415065   1.433510
    17  H    3.227164   3.720874   2.693743   3.236675   1.958068
    18  O    4.191592   3.751259   1.412045   3.119785   2.360074
    19  H    4.531177   4.087854   1.959024   3.986641   3.232844
    20  O    2.682991   2.451311   2.400804   4.348210   3.732886
    21  H    2.716007   2.462975   3.239892   4.828112   4.420669
    22  H    3.869640   3.102224   2.690409   1.099670   2.188551
    23  O    4.107594   3.732370   3.745360   1.264262   2.438188
    24  O    3.221167   3.356935   4.485804   2.850481   3.380071
    25  H    3.674271   3.600745   4.229201   2.172772   2.928872
    26  H    2.323967   2.180296   3.678088   2.252893   2.895345
    27  H    2.991283   3.393725   4.202390   3.036794   3.098103
    28  O    5.195927   4.820771   3.293715   5.542006   4.785240
    29  H    4.389051   4.052072   2.949260   5.211365   4.485886
    30  H    5.555519   5.353502   3.656718   6.082941   5.123332
                    6          7          8          9         10
     6  O    0.000000
     7  C    2.419120   0.000000
     8  H    3.570694   3.463013   0.000000
     9  H    2.641213   1.101072   3.807721   0.000000
    10  C    2.351458   2.554800   5.421284   2.751917   0.000000
    11  H    2.564192   3.492129   5.947370   3.735217   1.097824
    12  H    2.577554   2.775623   5.620717   2.516378   1.098844
    13  H    3.697312   2.136385   2.613245   2.985322   4.396229
    14  O    3.624335   2.968907   6.211071   3.308654   1.437822
    15  H    4.313452   3.789620   7.083854   3.934901   1.973065
    16  O    2.841325   3.257861   2.087311   4.027387   4.516848
    17  H    3.749810   3.717993   2.261672   4.567627   5.214902
    18  O    3.960225   2.453007   2.362105   2.478443   4.935861
    19  H    4.553591   2.601262   3.311793   2.561585   5.092167
    20  O    3.684130   1.437010   4.517798   2.088974   3.004038
    21  H    3.806195   1.963417   5.304782   2.446013   2.491815
    22  H    2.262821   2.881290   2.585092   2.550660   4.099746
    23  O    2.483276   4.142589   2.754240   4.216431   4.827716
    24  O    2.406181   4.482399   4.125686   4.946253   4.232008
    25  H    2.424380   4.447883   3.491099   4.771680   4.620467
    26  H    1.170625   3.375240   3.838629   3.769358   3.038111
    27  H    2.754424   4.395040   3.813772   5.039020   4.467932
    28  O    5.663241   3.317655   5.019130   3.291681   5.459909
    29  H    5.047050   2.635485   4.925820   2.765088   4.605073
    30  H    6.254729   3.897174   5.277580   4.073873   6.082535
                   11         12         13         14         15
    11  H    0.000000
    12  H    1.779790   0.000000
    13  H    5.152592   4.847674   0.000000
    14  O    2.092923   2.101137   4.594172   0.000000
    15  H    2.401407   2.303375   5.518438   0.968961   0.000000
    16  O    4.792004   5.081302   2.518566   5.249603   6.172785
    17  H    5.549248   5.830833   2.382052   5.760795   6.715462
    18  O    5.813080   4.924855   2.087738   5.385647   6.162888
    19  H    6.069297   5.051393   2.351319   5.305127   6.026772
    20  O    4.003014   3.366178   2.391608   2.682468   3.469800
[...]
 Alpha  occ. eigenvalues --  -10.25316 -10.24774 -10.24561 -10.24126  -1.06459
 Alpha  occ. eigenvalues --   -1.05468  -1.03726  -1.03436  -1.00943  -1.00823
 Alpha  occ. eigenvalues --   -0.99987  -0.99524  -0.78346  -0.76068  -0.70065
 Alpha  occ. eigenvalues --   -0.63962  -0.61356  -0.57560  -0.56519  -0.55056
 Alpha  occ. eigenvalues --   -0.53127  -0.52904  -0.51661  -0.50535  -0.49613
 Alpha  occ. eigenvalues --   -0.47389  -0.46711  -0.45801  -0.43617  -0.43225
 Alpha  occ. eigenvalues --   -0.41364  -0.40884  -0.40712  -0.39288  -0.38126
 Alpha  occ. eigenvalues --   -0.37676  -0.36544  -0.35148  -0.34226  -0.33447
 Alpha  occ. eigenvalues --   -0.30641  -0.30401  -0.29545  -0.29388  -0.28375
 Alpha  occ. eigenvalues --   -0.27163  -0.25905  -0.23320
 Alpha virt. eigenvalues --    0.01178   0.04021   0.05704   0.06953   0.09764
 Alpha virt. eigenvalues --    0.10369   0.10569   0.12520   0.14429   0.14505
 Alpha virt. eigenvalues --    0.15526   0.16066   0.16595   0.18153   0.19295
 Alpha virt. eigenvalues --    0.20261   0.21652   0.22450   0.23631   0.24223
 Alpha virt. eigenvalues --    0.24535   0.25908   0.26891   0.28950   0.29822
 Alpha virt. eigenvalues --    0.30721   0.33415   0.36989   0.51254   0.53019
 Alpha virt. eigenvalues --    0.54551   0.56154   0.57375   0.58859   0.59492
 Alpha virt. eigenvalues --    0.61171   0.62100   0.63210   0.65415   0.66715
 Alpha virt. eigenvalues --    0.67665   0.69609   0.72303   0.73387   0.75448
 Alpha virt. eigenvalues --    0.76656   0.77369   0.78233   0.79187   0.80538
 Alpha virt. eigenvalues --    0.81931   0.82381   0.83416   0.84435   0.85272
 Alpha virt. eigenvalues --    0.85863   0.86830   0.87114   0.88881   0.89610
 Alpha virt. eigenvalues --    0.90441   0.91670   0.91883   0.94112   0.95520
 Alpha virt. eigenvalues --    0.96148   0.97125   0.97978   1.00647   1.02370
 Alpha virt. eigenvalues --    1.03980   1.06411   1.06717   1.08356   1.09200
 Alpha virt. eigenvalues --    1.11297   1.12107   1.14170   1.15119   1.16906
 Alpha virt. eigenvalues --    1.19785   1.20895   1.23251   1.25606   1.26943
 Alpha virt. eigenvalues --    1.27607   1.30063   1.31892   1.35011   1.37814
 Alpha virt. eigenvalues --    1.40163   1.40493   1.43828   1.48562   1.50076
 Alpha virt. eigenvalues --    1.51858   1.54762   1.55582   1.58350   1.60267
 Alpha virt. eigenvalues --    1.61840   1.62029   1.64678   1.67580   1.68807
 Alpha virt. eigenvalues --    1.71093   1.72152   1.72762   1.73504   1.74449
 Alpha virt. eigenvalues --    1.75618   1.76080   1.77508   1.79449   1.79948
 Alpha virt. eigenvalues --    1.82372   1.82782   1.84094   1.85860   1.86892
 Alpha virt. eigenvalues --    1.88429   1.89216   1.89846   1.93855   1.94458
 Alpha virt. eigenvalues --    1.95101   1.98112   2.02079   2.04044   2.04851
 Alpha virt. eigenvalues --    2.06359   2.08274   2.08865   2.12379   2.14758
 Alpha virt. eigenvalues --    2.18662   2.19558   2.22600   2.23766   2.25042
 Alpha virt. eigenvalues --    2.30482   2.32792   2.33861   2.37615   2.39576
 Alpha virt. eigenvalues --    2.41151   2.44100   2.45576   2.48575   2.49613
 Alpha virt. eigenvalues --    2.51292   2.53015   2.55144   2.57281   2.60062
 Alpha virt. eigenvalues --    2.61742   2.62952   2.64936   2.65346   2.70512
 Alpha virt. eigenvalues --    2.72237   2.77487   2.81899   2.86276   2.90132
 Alpha virt. eigenvalues --    2.93872   2.97671   3.00718   3.05059   3.08900
 Alpha virt. eigenvalues --    3.73645   3.76279   3.82428   3.83288   3.89305
 Alpha virt. eigenvalues --    4.00725   4.07353   4.14972   4.27299   4.34035
 Alpha virt. eigenvalues --    4.47454   4.54289   4.58834   4.78225
          Condensed to atoms (all electrons):
               1          2          3          4          5          6
     1  H    0.613718   0.358613  -0.006160   0.000202  -0.002961  -0.030843
     2  C    0.358613   4.945926  -0.023545  -0.006432  -0.009657   0.165114
     3  C   -0.006160  -0.023545   4.982080  -0.016692   0.246461  -0.002937
     4  C    0.000202  -0.006432  -0.016692   4.715182   0.232826   0.040410
     5  C   -0.002961  -0.009657   0.246461   0.232826   5.264877  -0.020964
     6  O   -0.030843   0.165114  -0.002937   0.040410  -0.020964   8.545790
     7  C   -0.053502   0.298633   0.329103  -0.012769  -0.021134  -0.033248
     8  H    0.000026   0.000422  -0.051580  -0.031374   0.347698   0.001905
     9  H    0.006953  -0.045806  -0.052618   0.001471  -0.002224   0.002510
    10  C   -0.055223   0.342450   0.003544   0.000434   0.000133  -0.047155
    11  H   -0.006283  -0.035095  -0.000113  -0.000050   0.000007   0.002821
    12  H    0.006734  -0.032529  -0.000080  -0.000010  -0.000000   0.005064
    13  H    0.002547   0.000839   0.333275   0.004339  -0.048524   0.000089
    14  O    0.004822  -0.038411  -0.000050  -0.000002   0.000004   0.001454
    15  H   -0.000207   0.005067   0.000009   0.000000  -0.000000  -0.000114
    16  O    0.007970   0.003697  -0.038309  -0.036670   0.185413  -0.001520
    17  H   -0.000003  -0.000045  -0.003601   0.005916  -0.020220   0.000053
    18  O    0.000012   0.004179   0.222979   0.000784  -0.044826  -0.000026
    19  H    0.000001   0.000047  -0.020247  -0.000066   0.004179  -0.000004
    20  O    0.004028  -0.023757  -0.041968   0.000067   0.002671   0.001236
    21  H    0.000103  -0.012519   0.004181  -0.000007  -0.000177   0.000039
    22  H   -0.000020   0.001893   0.008783   0.373393  -0.114561  -0.017260
    23  O   -0.000035   0.001435   0.002994   0.426705  -0.054251  -0.039159
    24  O    0.002033   0.001605  -0.000059   0.017194  -0.002246  -0.072437
    25  H   -0.000208   0.000080   0.000168  -0.016100  -0.003050   0.006473
    26  H   -0.002023  -0.003827  -0.000281  -0.006916   0.000284   0.140086
    27  H    0.000075   0.000210   0.000203  -0.001101  -0.001814   0.004617
    28  O    0.000000   0.000004   0.004141  -0.000000   0.000079   0.000000
    29  H   -0.000022   0.000642  -0.000419  -0.000002   0.000032  -0.000007
    30  H    0.000000  -0.000004   0.000504  -0.000000   0.000012  -0.000000
               7          8          9         10         11         12
     1  H   -0.053502   0.000026   0.006953  -0.055223  -0.006283   0.006734
     2  C    0.298633   0.000422  -0.045806   0.342450  -0.035095  -0.032529
     3  C    0.329103  -0.051580  -0.052618   0.003544  -0.000113  -0.000080
     4  C   -0.012769  -0.031374   0.001471   0.000434  -0.000050  -0.000010
     5  C   -0.021134   0.347698  -0.002224   0.000133   0.000007  -0.000000
     6  O   -0.033248   0.001905   0.002510  -0.047155   0.002821   0.005064
     7  C    4.997932   0.005290   0.349874  -0.033044   0.005135  -0.012133
     8  H    0.005290   0.583405  -0.000345   0.000018  -0.000000  -0.000001
     9  H    0.349874  -0.000345   0.632593  -0.012551  -0.000056   0.006684
    10  C   -0.033044   0.000018  -0.012551   4.970719   0.366388   0.353883
    11  H    0.005135  -0.000000  -0.000056   0.366388   0.593540  -0.047728
    12  H   -0.012133  -0.000001   0.006684   0.353883  -0.047728   0.612256
    13  H   -0.060357  -0.003130   0.007768  -0.000303   0.000007  -0.000002
    14  O    0.004630  -0.000000   0.000123   0.187599  -0.033220  -0.033881
    15  H   -0.000060   0.000000  -0.000034  -0.015316  -0.002481  -0.005249
    16  O   -0.001915  -0.026262  -0.000022   0.000248  -0.000000  -0.000004
    17  H   -0.000360  -0.006633   0.000011  -0.000009   0.000000   0.000000
    18  O   -0.044048   0.008925   0.003508  -0.000056   0.000000  -0.000005
    19  H   -0.000994  -0.000065   0.000456  -0.000002   0.000000   0.000000
    20  O    0.196655  -0.000062  -0.040055   0.001599  -0.000224   0.000179
    21  H   -0.018082   0.000005  -0.000780  -0.003836   0.000897   0.000027
    22  H   -0.002572   0.003170   0.002570  -0.000139   0.000005   0.000005
    23  O    0.000093  -0.001608   0.000002  -0.000042   0.000004  -0.000002
    24  O   -0.000094  -0.000054   0.000001  -0.000098  -0.000042   0.000006
    25  H    0.000028   0.000049  -0.000000  -0.000009   0.000005  -0.000001
    26  H    0.003147  -0.000181  -0.000066  -0.002864   0.001889  -0.000092
    27  H    0.000013   0.000184   0.000001  -0.000001   0.000006  -0.000001
    28  O    0.001670   0.000001   0.000423  -0.000002  -0.000000   0.000000
    29  H   -0.005104  -0.000004  -0.001188  -0.000013   0.000001  -0.000006
    30  H   -0.000385  -0.000000  -0.000011   0.000000   0.000000   0.000000
              13         14         15         16         17         18
     1  H    0.002547   0.004822  -0.000207   0.007970  -0.000003   0.000012
     2  C    0.000839  -0.038411   0.005067   0.003697  -0.000045   0.004179
     3  C    0.333275  -0.000050   0.000009  -0.038309  -0.003601   0.222979
     4  C    0.004339  -0.000002   0.000000  -0.036670   0.005916   0.000784
     5  C   -0.048524   0.000004  -0.000000   0.185413  -0.020220  -0.044826
     6  O    0.000089   0.001454  -0.000114  -0.001520   0.000053  -0.000026
     7  C   -0.060357   0.004630  -0.000060  -0.001915  -0.000360  -0.044048
     8  H   -0.003130  -0.000000   0.000000  -0.026262  -0.006633   0.008925
     9  H    0.007768   0.000123  -0.000034  -0.000022   0.000011   0.003508
    10  C   -0.000303   0.187599  -0.015316   0.000248  -0.000009  -0.000056
    11  H    0.000007  -0.033220  -0.002481  -0.000000   0.000000   0.000000
    12  H   -0.000002  -0.033881  -0.005249  -0.000004   0.000000  -0.000005
    13  H    0.680613   0.000002  -0.000000   0.002769   0.006675  -0.035626
    14  O    0.000002   8.276886   0.234092  -0.000000   0.000000   0.000000
    15  H   -0.000000   0.234092   0.372383   0.000000  -0.000000  -0.000000
    16  O    0.002769  -0.000000   0.000000   8.293575   0.234207   0.001462
    17  H    0.006675   0.000000  -0.000000   0.234207   0.378871  -0.000080
    18  O   -0.035626   0.000000  -0.000000   0.001462  -0.000080   8.371572
    19  H   -0.003090   0.000000  -0.000000  -0.000085  -0.000011   0.203066
    20  O    0.002499  -0.023732   0.000895  -0.000048  -0.000010   0.000470
    21  H    0.000042   0.057911  -0.001934   0.000004   0.000000  -0.000117
    22  H    0.000205   0.000000  -0.000000   0.002748  -0.000251   0.005384
    23  O   -0.000078   0.000000  -0.000000   0.002513  -0.000374  -0.000001
    24  O    0.000002   0.000000  -0.000000  -0.008593   0.000593  -0.000000
    25  H   -0.000001   0.000000  -0.000000   0.002224  -0.000167  -0.000001
    26  H    0.000025   0.000045  -0.000007   0.000223   0.000008   0.000007
    27  H   -0.000008  -0.000000   0.000000   0.026865  -0.000989  -0.000001
    28  O    0.000820  -0.000000   0.000000   0.000000  -0.000000  -0.026295
    29  H    0.000058   0.000022  -0.000006  -0.000001  -0.000000   0.004059
    30  H    0.000141   0.000000  -0.000000  -0.000000  -0.000000   0.001384
              19         20         21         22         23         24
     1  H    0.000001   0.004028   0.000103  -0.000020  -0.000035   0.002033
     2  C    0.000047  -0.023757  -0.012519   0.001893   0.001435   0.001605
     3  C   -0.020247  -0.041968   0.004181   0.008783   0.002994  -0.000059
     4  C   -0.000066   0.000067  -0.000007   0.373393   0.426705   0.017194
     5  C    0.004179   0.002671  -0.000177  -0.114561  -0.054251  -0.002246
     6  O   -0.000004   0.001236   0.000039  -0.017260  -0.039159  -0.072437
     7  C   -0.000994   0.196655  -0.018082  -0.002572   0.000093  -0.000094
     8  H   -0.000065  -0.000062   0.000005   0.003170  -0.001608  -0.000054
     9  H    0.000456  -0.040055  -0.000780   0.002570   0.000002   0.000001
    10  C   -0.000002   0.001599  -0.003836  -0.000139  -0.000042  -0.000098
    11  H    0.000000  -0.000224   0.000897   0.000005   0.000004  -0.000042
    12  H    0.000000   0.000179   0.000027   0.000005  -0.000002   0.000006
    13  H   -0.003090   0.002499   0.000042   0.000205  -0.000078   0.000002
    14  O    0.000000  -0.023732   0.057911   0.000000   0.000000   0.000000
    15  H   -0.000000   0.000895  -0.001934  -0.000000  -0.000000  -0.000000
    16  O   -0.000085  -0.000048   0.000004   0.002748   0.002513  -0.008593
    17  H   -0.000011  -0.000010   0.000000  -0.000251  -0.000374   0.000593
    18  O    0.203066   0.000470  -0.000117   0.005384  -0.000001  -0.000000
    19  H    0.321607   0.001127  -0.000040   0.000037   0.000002  -0.000000
    20  O    0.001127   8.357383   0.216165   0.000002  -0.000000   0.000000
    21  H   -0.000040   0.216165   0.323621  -0.000002  -0.000000  -0.000000
    22  H    0.000037   0.000002  -0.000002   0.635726  -0.043207  -0.000272
    23  O    0.000002  -0.000000  -0.000000  -0.043207   8.211611  -0.058718
    24  O   -0.000000   0.000000  -0.000000  -0.000272  -0.058718   8.386341
    25  H    0.000000  -0.000000  -0.000000   0.002313   0.083068   0.195487
    26  H   -0.000000  -0.000032   0.000002   0.001139   0.007791   0.122771
    27  H    0.000000  -0.000000  -0.000000   0.000085   0.003595   0.232730
    28  O    0.077842  -0.023727   0.000406   0.000001  -0.000000   0.000000
    29  H   -0.008749   0.059846  -0.000872  -0.000001   0.000000  -0.000000
    30  H   -0.004001   0.001138  -0.000016  -0.000000  -0.000000  -0.000000
              25         26         27         28         29         30
     1  H   -0.000208  -0.002023   0.000075   0.000000  -0.000022   0.000000
     2  C    0.000080  -0.003827   0.000210   0.000004   0.000642  -0.000004
     3  C    0.000168  -0.000281   0.000203   0.004141  -0.000419   0.000504
     4  C   -0.016100  -0.006916  -0.001101  -0.000000  -0.000002  -0.000000
     5  C   -0.003050   0.000284  -0.001814   0.000079   0.000032   0.000012
     6  O    0.006473   0.140086   0.004617   0.000000  -0.000007  -0.000000
     7  C    0.000028   0.003147   0.000013   0.001670  -0.005104  -0.000385
     8  H    0.000049  -0.000181   0.000184   0.000001  -0.000004  -0.000000
     9  H   -0.000000  -0.000066   0.000001   0.000423  -0.001188  -0.000011
    10  C   -0.000009  -0.002864  -0.000001  -0.000002  -0.000013   0.000000
    11  H    0.000005   0.001889   0.000006  -0.000000   0.000001   0.000000
    12  H   -0.000001  -0.000092  -0.000001   0.000000  -0.000006   0.000000
    13  H   -0.000001   0.000025  -0.000008   0.000820   0.000058   0.000141
    14  O    0.000000   0.000045  -0.000000  -0.000000   0.000022   0.000000
    15  H   -0.000000  -0.000007   0.000000   0.000000  -0.000006  -0.000000
    16  O    0.002224   0.000223   0.026865   0.000000  -0.000001  -0.000000
    17  H   -0.000167   0.000008  -0.000989  -0.000000  -0.000000  -0.000000
    18  O   -0.000001   0.000007  -0.000001  -0.026295   0.004059   0.001384
    19  H    0.000000  -0.000000   0.000000   0.077842  -0.008749  -0.004001
    20  O   -0.000000  -0.000032  -0.000000  -0.023727   0.059846   0.001138
    21  H   -0.000000   0.000002  -0.000000   0.000406  -0.000872  -0.000016
    22  H    0.002313   0.001139   0.000085   0.000001  -0.000001  -0.000000
    23  O    0.083068   0.007791   0.003595  -0.000000   0.000000  -0.000000
    24  O    0.195487   0.122771   0.232730   0.000000  -0.000000  -0.000000
    25  H    0.315768  -0.016567  -0.012749  -0.000000   0.000000   0.000000
    26  H   -0.016567   0.306735  -0.010763  -0.000000   0.000000  -0.000000
    27  H   -0.012749  -0.010763   0.347134  -0.000000   0.000000   0.000000
    28  O   -0.000000  -0.000000  -0.000000   8.323041   0.209192   0.240166
    29  H    0.000000   0.000000   0.000000   0.209192   0.328119  -0.015113
    30  H    0.000000  -0.000000   0.000000   0.240166  -0.015113   0.382178
 Mulliken charges:
               1
     1  H    0.149653
     2  C    0.100773
     3  C    0.120234
     4  C    0.309268
     5  C    0.061933
     6  O   -0.651987
     7  C    0.107598
     8  H    0.170201
     9  H    0.140810
    10  C   -0.056353
    11  H    0.154588
    12  H    0.146885
    13  H    0.108402
    14  O   -0.638296
    15  H    0.412962
    16  O   -0.650487
    17  H    0.406419
    18  O   -0.676711
    19  H    0.428989
    20  O   -0.692344
    21  H    0.434980
    22  H    0.140827
    23  O   -0.542338
    24  O   -0.816150
    25  H    0.443191
    26  H    0.459466
    27  H    0.411707
    28  O   -0.807761
    29  H    0.429532
    30  H    0.394009
 Sum of Mulliken charges =  -0.00000
 Mulliken charges with hydrogens summed into heavy atoms:
               1
     2  C    0.250426
     3  C    0.228636
     4  C    0.450095
     5  C    0.232134
     6  O   -0.192521
     7  C    0.248407
    10  C    0.245120
    14  O   -0.225334
    16  O   -0.244068
    18  O   -0.247721
    20  O   -0.257364
    23  O   -0.542338
    24  O    0.038748
    28  O    0.015780
 APT charges:
               1
     1  H    0.331206
     2  C   -0.259352
     3  C   -0.237503
     4  C   -0.522245
     5  C   -0.381041
     6  O   -0.529098
     7  C   -0.163578
     8  H    0.529497
     9  H    0.341817
    10  C   -0.559940
    11  H    0.511217
    12  H    0.359744
    13  H    0.339588
    14  O   -1.165459
    15  H    0.994045
    16  O   -0.899917
    17  H    0.744890
    18  O   -0.750016
    19  H    0.583926
    20  O   -0.812633
    21  H    0.609847
    22  H    0.321785
    23  O    0.003596
    24  O   -0.740152
    25  H    0.353391
    26  H    0.507671
    27  H    0.410449
    28  O   -0.915937
    29  H    0.169815
    30  H    0.824391
 Sum of APT charges =  -0.00000
 APT charges with hydrogens summed into heavy atoms:
               1
     2  C    0.071853
     3  C    0.102084
     4  C   -0.200460
     5  C    0.148456
     6  O   -0.021427
     7  C    0.178239
    10  C    0.311021
    14  O   -0.171414
    16  O   -0.155027
    18  O   -0.166090
    20  O   -0.202786
    23  O    0.003596
    24  O    0.023688
    28  O    0.078269
 Electronic spatial extent (au):  <R**2>=           3216.8638
 Charge=             -0.0000 electrons
 Dipole moment (field-independent basis, Debye):
    X=              3.5498    Y=              2.8056    Z=              3.2686  Tot=              5.5818
 Quadrupole moment (field-independent basis, Debye-Ang):
   XX=            -95.9910   YY=            -72.5521   ZZ=            -80.1486
   XY=              6.6347   XZ=             -1.4914   YZ=            -12.7495
 Traceless Quadrupole moment (field-independent basis, Debye-Ang):
   XX=            -13.0938   YY=             10.3451   ZZ=              2.7486
   XY=              6.6347   XZ=             -1.4914   YZ=            -12.7495
 Octapole moment (field-independent basis, Debye-Ang**2):
  XXX=             58.4471  YYY=             56.4021  ZZZ=             18.7906  XYY=             26.1927
  XXY=              0.7910  XXZ=             40.2227  XZZ=             -2.6239  YZZ=             -9.1820
  YYZ=              3.3334  XYZ=            -12.2541
 Hexadecapole moment (field-independent basis, Debye-Ang**3):
 XXXX=          -2167.2135 YYYY=          -1114.0415 ZZZZ=           -292.2217 XXXY=             11.9228
 XXXZ=             91.3459 YYYX=             95.3798 YYYZ=            -89.0856 ZZZX=            -33.7249
 ZZZY=            -28.3026 XXYY=           -516.7535 XXZZ=           -391.8200 YYZZ=           -267.3022
 XXYZ=            -85.1374 YYXZ=             -7.3838 ZZXY=             -2.2402
 N-N= 1.111068940366D+03 E-N=-4.194737724769D+03  KE= 8.330079486439D+02
  Exact polarizability:   0.000   0.000   0.000   0.000   0.000   0.000
 Approx polarizability: 146.404   3.205 134.177   3.500   3.758 123.889

 This type of calculation cannot be archived.


 IN THE LONG RUN, DIGGING FOR TRUTH HAS ALWAYS PROVED NOT ONLY 
 MORE INTERESTING BUT MORE PROFITABLE THAN DIGGING FOR GOLD.

                             -- GEORGE R. HARRISON
 Job cpu time:       0 days  1 hours  9 minutes 49.4 seconds.
 File lengths (MBytes):  RWF=    220 Int=      0 D2E=      0 Chk=      9 Scr=      1
 Normal termination of Gaussian 09 at Sat Jan 14 01:04:35 2017.
