 Entering Gaussian System, Link 0=g09
 Initial command:
 /global/software/gaussian/g09.e01/l1.exe "/scratch/10462953.yak.local/Gau-22846.inp" -scrdir="/scratch/10462953.yak.local/"
 Entering Link 1 = /global/software/gaussian/g09.e01/l1.exe PID=     22847.
  
 Copyright (c) 1988,1990,1992,1993,1995,1998,2003,2009,2015,
            Gaussian, Inc.  All Rights Reserved.
  
 This is part of the Gaussian(R) 09 program.  It is based on
 the Gaussian(R) 03 system (copyright 2003, Gaussian, Inc.),
 the Gaussian(R) 98 system (copyright 1998, Gaussian, Inc.),
 the Gaussian(R) 94 system (copyright 1995, Gaussian, Inc.),
 the Gaussian 92(TM) system (copyright 1992, Gaussian, Inc.),
 the Gaussian 90(TM) system (copyright 1990, Gaussian, Inc.),
 the Gaussian 88(TM) system (copyright 1988, Gaussian, Inc.),
 the Gaussian 86(TM) system (copyright 1986, Carnegie Mellon
 University), and the Gaussian 82(TM) system (copyright 1983,
 Carnegie Mellon University). Gaussian is a federally registered
 trademark of Gaussian, Inc.
  
 This software contains proprietary and confidential information,
 including trade secrets, belonging to Gaussian, Inc.
  
 This software is provided under written license and may be
 used, copied, transmitted, or stored only in accord with that
 written license.
  
 The following legend is applicable only to US Government
 contracts under FAR:
  
                    RESTRICTED RIGHTS LEGEND
  
 Use, reproduction and disclosure by the US Government is
 subject to restrictions as set forth in subparagraphs (a)
 and (c) of the Commercial Computer Software - Restricted
 Rights clause in FAR 52.227-19.
  
 Gaussian, Inc.
 340 Quinnipiac St., Bldg. 40, Wallingford CT 06492
  
  
 ---------------------------------------------------------------
 Warning -- This program may not be used in any manner that
 competes with the business of Gaussian, Inc. or will provide
 assistance to any competitor of Gaussian, Inc.  The licensee
 of this program is prohibited from giving any competitor of
 Gaussian, Inc. access to this program.  By using this program,
 the user acknowledges that Gaussian, Inc. is engaged in the
 business of creating and licensing software in the field of
 computational chemistry and represents and warrants to the
 licensee that it is not a competitor of Gaussian, Inc. and that
 it will not use this program in any manner prohibited above.
 ---------------------------------------------------------------
  

 Cite this work as:
 Gaussian 09, Revision E.01,
 M. J. Frisch, G. W. Trucks, H. B. Schlegel, G. E. Scuseria, 
 M. A. Robb, J. R. Cheeseman, G. Scalmani, V. Barone, B. Mennucci, 
 G. A. Petersson, H. Nakatsuji, M. Caricato, X. Li, H. P. Hratchian, 
 A. F. Izmaylov, J. Bloino, G. Zheng, J. L. Sonnenberg, M. Hada, 
 M. Ehara, K. Toyota, R. Fukuda, J. Hasegawa, M. Ishida, T. Nakajima, 
 Y. Honda, O. Kitao, H. Nakai, T. Vreven, J. A. Montgomery, Jr., 
 J. E. Peralta, F. Ogliaro, M. Bearpark, J. J. Heyd, E. Brothers, 
 K. N. Kudin, V. N. Staroverov, T. Keith, R. Kobayashi, J. Normand, 
 K. Raghavachari, A. Rendell, J. C. Burant, S. S. Iyengar, J. Tomasi, 
 M. Cossi, N. Rega, J. M. Millam, M. Klene, J. E. Knox, J. B. Cross, 
 V. Bakken, C. Adamo, J. Jaramillo, R. Gomperts, R. E. Stratmann, 
 O. Yazyev, A. J. Austin, R. Cammi, C. Pomelli, J. W. Ochterski, 
 R. L. Martin, K. Morokuma, V. G. Zakrzewski, G. A. Voth, 
 P. Salvador, J. J. Dannenberg, S. Dapprich, A. D. Daniels, 
 O. Farkas, J. B. Foresman, J. V. Ortiz, J. Cioslowski, 
 and D. J. Fox, Gaussian, Inc., Wallingford CT, 2013.
 
 ******************************************
 Gaussian 09:  ES64L-G09RevE.01 30-Nov-2015
                15-Jan-2017 
 ******************************************
 %NPROCS=4
 Will use up to    4 processors via shared memory.
 -----------------------------------------
 # opt=(MaxCycle=1000) freq B3LYP/6-31G(d)
 -----------------------------------------
 1/6=1000,14=-1,18=20,19=15,26=3,38=1/1,3;
 2/9=110,12=2,17=6,18=5,40=1/2;
 3/5=1,6=6,7=1,11=2,16=1,25=1,30=1,71=1,74=-5/1,2,3;
 4//1;
 5/5=2,38=5/2;
 6/7=2,8=2,9=2,10=2,28=1/1;
 7//1,2,3,16;
 1/6=1000,14=-1,18=20,19=15,26=3/3(2);
 2/9=110/2;
 99//99;
 2/9=110/2;
 3/5=1,6=6,7=1,11=2,16=1,25=1,30=1,71=1,74=-5/1,2,3;
 4/5=5,16=3,69=1/1;
 5/5=2,38=5/2;
 7//1,2,3,16;
 1/6=1000,14=-1,18=20,19=15,26=3/3(-5);
 2/9=110/2;
 6/7=2,8=2,9=2,10=2,19=2,28=1/1;
 99/9=1/99;
 -------------------------------------------------
 ./boats/6/glo_1w_alpha_ts_boat6_B3LYP_631Gd_r.out
 -------------------------------------------------
 Symbolic Z-matrix:
 Charge =  0 Multiplicity = 1
 C                    -0.45033   0.88263   0.13561 
 C                     1.49033  -0.75378   0.06909 
 C                     1.05747   0.74258  -0.04935 
 C                     0.36978  -1.7798    0.34696 
 H                     0.78812  -2.77039   0.09278 
 H                     2.15663  -0.82334   0.93182 
 H                    -0.75463   0.48151   1.10786 
 H                     1.26676   1.0516   -1.08924 
 C                    -0.9536   -1.67904  -0.44341 
 O                    -0.97977   0.06557  -0.92642 
 C                    -0.96973   2.29674   0.00164 
 H                    -0.39399   2.94281   0.67403 
 H                    -0.83249   2.64355  -1.03301 
 O                    -2.36013   2.28359   0.35981 
 H                    -2.7049    3.18363   0.26316 
 O                     0.0526   -1.70227   1.71813 
 H                    -0.91447  -1.88749   1.7347 
 O                     2.30248  -1.14818  -1.05534 
 H                     1.79082  -0.98991  -1.86565 
 O                     1.72895   1.58173   0.85874 
 H                     2.67563   1.5463    0.59332 
 O                    -3.43265  -0.06719  -0.74602 
 H                    -3.23278  -0.91302  -0.26503 
 H                    -2.01796   0.15825  -0.98687 
 H                    -3.54064   0.62748  -0.07066 
 O                     4.15297   0.86822  -0.36555 
 H                     4.82484   0.48053   0.21524 
 H                     3.71107   0.09756  -0.78397 
 O                    -1.99326  -1.90506   0.23591 
 H                    -0.90204  -1.99052  -1.49873 
 
 Add virtual bond connecting atoms H24        and O22        Dist= 2.75D+00.
 Add virtual bond connecting atoms O26        and H21        Dist= 3.57D+00.
 Add virtual bond connecting atoms H28        and O18        Dist= 3.59D+00.

 GradGradGradGradGradGradGradGradGradGradGradGradGradGradGradGradGradGrad
 Berny optimization.
 Initialization pass.
                           ----------------------------
                           !    Initial Parameters    !
                           ! (Angstroms and Degrees)  !
 --------------------------                            --------------------------
 ! Name  Definition              Value          Derivative Info.                !
 --------------------------------------------------------------------------------
 ! R1    R(1,3)                  1.5255         estimate D2E/DX2                !
 ! R2    R(1,7)                  1.0949         estimate D2E/DX2                !
 ! R3    R(1,10)                 1.4408         estimate D2E/DX2                !
 ! R4    R(1,11)                 1.5124         estimate D2E/DX2                !
 ! R5    R(2,3)                  1.5622         estimate D2E/DX2                !
 ! R6    R(2,4)                  1.5445         estimate D2E/DX2                !
 ! R7    R(2,6)                  1.0923         estimate D2E/DX2                !
 ! R8    R(2,18)                 1.442          estimate D2E/DX2                !
 ! R9    R(3,8)                  1.1048         estimate D2E/DX2                !
 ! R10   R(3,20)                 1.407          estimate D2E/DX2                !
 ! R11   R(4,5)                  1.1049         estimate D2E/DX2                !
 ! R12   R(4,9)                  1.5447         estimate D2E/DX2                !
 ! R13   R(4,16)                 1.4095         estimate D2E/DX2                !
 ! R14   R(9,29)                 1.2623         estimate D2E/DX2                !
 ! R15   R(9,30)                 1.1015         estimate D2E/DX2                !
 ! R16   R(10,24)                1.0441         estimate D2E/DX2                !
 ! R17   R(11,12)                1.0959         estimate D2E/DX2                !
 ! R18   R(11,13)                1.0998         estimate D2E/DX2                !
 ! R19   R(11,14)                1.4359         estimate D2E/DX2                !
 ! R20   R(14,15)                0.9686         estimate D2E/DX2                !
 ! R21   R(16,17)                0.9848         estimate D2E/DX2                !
 ! R22   R(18,19)                0.9713         estimate D2E/DX2                !
 ! R23   R(18,28)                1.8999         estimate D2E/DX2                !
 ! R24   R(20,21)                0.9838         estimate D2E/DX2                !
 ! R25   R(21,26)                1.8873         estimate D2E/DX2                !
 ! R26   R(22,23)                0.9933         estimate D2E/DX2                !
 ! R27   R(22,24)                1.4526         estimate D2E/DX2                !
 ! R28   R(22,25)                0.9749         estimate D2E/DX2                !
 ! R29   R(26,27)                0.969          estimate D2E/DX2                !
 ! R30   R(26,28)                0.982          estimate D2E/DX2                !
 ! A1    A(3,1,7)              110.4094         estimate D2E/DX2                !
 ! A2    A(3,1,10)             102.8127         estimate D2E/DX2                !
 ! A3    A(3,1,11)             114.4893         estimate D2E/DX2                !
 ! A4    A(7,1,10)             110.1619         estimate D2E/DX2                !
 ! A5    A(7,1,11)             109.0113         estimate D2E/DX2                !
 ! A6    A(10,1,11)            109.8004         estimate D2E/DX2                !
 ! A7    A(3,2,4)              116.6739         estimate D2E/DX2                !
 ! A8    A(3,2,6)              106.8521         estimate D2E/DX2                !
 ! A9    A(3,2,18)             111.0331         estimate D2E/DX2                !
 ! A10   A(4,2,6)              104.9606         estimate D2E/DX2                !
 ! A11   A(4,2,18)             111.5426         estimate D2E/DX2                !
 ! A12   A(6,2,18)             104.768          estimate D2E/DX2                !
 ! A13   A(1,3,2)              110.6465         estimate D2E/DX2                !
 ! A14   A(1,3,8)              106.0016         estimate D2E/DX2                !
 ! A15   A(1,3,20)             109.7968         estimate D2E/DX2                !
 ! A16   A(2,3,8)              106.6652         estimate D2E/DX2                !
 ! A17   A(2,3,20)             112.9608         estimate D2E/DX2                !
 ! A18   A(8,3,20)             110.5024         estimate D2E/DX2                !
 ! A19   A(2,4,5)              106.2293         estimate D2E/DX2                !
 ! A20   A(2,4,9)              119.0885         estimate D2E/DX2                !
 ! A21   A(2,4,16)             107.5616         estimate D2E/DX2                !
 ! A22   A(5,4,9)              105.375          estimate D2E/DX2                !
 ! A23   A(5,4,16)             110.9954         estimate D2E/DX2                !
 ! A24   A(9,4,16)             107.5398         estimate D2E/DX2                !
 ! A25   A(4,9,29)             114.7441         estimate D2E/DX2                !
 ! A26   A(4,9,30)             115.5721         estimate D2E/DX2                !
 ! A27   A(29,9,30)            120.2315         estimate D2E/DX2                !
 ! A28   A(1,10,24)            110.9615         estimate D2E/DX2                !
 ! A29   A(1,11,12)            108.448          estimate D2E/DX2                !
 ! A30   A(1,11,13)            109.5915         estimate D2E/DX2                !
 ! A31   A(1,11,14)            107.5713         estimate D2E/DX2                !
 ! A32   A(12,11,13)           109.0103         estimate D2E/DX2                !
 ! A33   A(12,11,14)           111.1665         estimate D2E/DX2                !
 ! A34   A(13,11,14)           111.0012         estimate D2E/DX2                !
 ! A35   A(11,14,15)           108.1354         estimate D2E/DX2                !
 ! A36   A(4,16,17)            103.1207         estimate D2E/DX2                !
 ! A37   A(2,18,19)            108.0146         estimate D2E/DX2                !
 ! A38   A(2,18,28)             97.2875         estimate D2E/DX2                !
 ! A39   A(19,18,28)           113.7575         estimate D2E/DX2                !
 ! A40   A(3,20,21)            105.2851         estimate D2E/DX2                !
 ! A41   A(20,21,26)           154.5889         estimate D2E/DX2                !
 ! A42   A(23,22,24)            90.9441         estimate D2E/DX2                !
 ! A43   A(23,22,25)           107.0739         estimate D2E/DX2                !
 ! A44   A(24,22,25)            96.4396         estimate D2E/DX2                !
 ! A45   A(10,24,22)           160.9108         estimate D2E/DX2                !
 ! A46   A(21,26,27)           112.456          estimate D2E/DX2                !
 ! A47   A(21,26,28)            98.4068         estimate D2E/DX2                !
 ! A48   A(27,26,28)           104.6794         estimate D2E/DX2                !
 ! A49   A(18,28,26)           155.3799         estimate D2E/DX2                !
 ! D1    D(7,1,3,2)             58.0433         estimate D2E/DX2                !
 ! D2    D(7,1,3,8)            173.3125         estimate D2E/DX2                !
 ! D3    D(7,1,3,20)           -67.3154         estimate D2E/DX2                !
 ! D4    D(10,1,3,2)           -59.4583         estimate D2E/DX2                !
 ! D5    D(10,1,3,8)            55.811          estimate D2E/DX2                !
 ! D6    D(10,1,3,20)          175.183          estimate D2E/DX2                !
 ! D7    D(11,1,3,2)          -178.4924         estimate D2E/DX2                !
 ! D8    D(11,1,3,8)           -63.2231         estimate D2E/DX2                !
 ! D9    D(11,1,3,20)           56.1489         estimate D2E/DX2                !
 ! D10   D(3,1,10,24)         -173.4346         estimate D2E/DX2                !
 ! D11   D(7,1,10,24)           68.8887         estimate D2E/DX2                !
 ! D12   D(11,1,10,24)         -51.1787         estimate D2E/DX2                !
 ! D13   D(3,1,11,12)          -52.8018         estimate D2E/DX2                !
 ! D14   D(3,1,11,13)           66.0938         estimate D2E/DX2                !
 ! D15   D(3,1,11,14)         -173.1268         estimate D2E/DX2                !
 ! D16   D(7,1,11,12)           71.4097         estimate D2E/DX2                !
 ! D17   D(7,1,11,13)         -169.6947         estimate D2E/DX2                !
 ! D18   D(7,1,11,14)          -48.9153         estimate D2E/DX2                !
 ! D19   D(10,1,11,12)        -167.8255         estimate D2E/DX2                !
 ! D20   D(10,1,11,13)         -48.93           estimate D2E/DX2                !
 ! D21   D(10,1,11,14)          71.8495         estimate D2E/DX2                !
 ! D22   D(4,2,3,1)             -0.2977         estimate D2E/DX2                !
 ! D23   D(4,2,3,8)           -115.1511         estimate D2E/DX2                !
 ! D24   D(4,2,3,20)           123.2555         estimate D2E/DX2                !
 ! D25   D(6,2,3,1)           -117.3009         estimate D2E/DX2                !
 ! D26   D(6,2,3,8)            127.8458         estimate D2E/DX2                !
 ! D27   D(6,2,3,20)             6.2524         estimate D2E/DX2                !
 ! D28   D(18,2,3,1)           129.0063         estimate D2E/DX2                !
 ! D29   D(18,2,3,8)            14.1529         estimate D2E/DX2                !
 ! D30   D(18,2,3,20)         -107.4404         estimate D2E/DX2                !
 ! D31   D(3,2,4,5)            163.057          estimate D2E/DX2                !
 ! D32   D(3,2,4,9)             44.5066         estimate D2E/DX2                !
 ! D33   D(3,2,4,16)           -78.0269         estimate D2E/DX2                !
 ! D34   D(6,2,4,5)            -78.9052         estimate D2E/DX2                !
 ! D35   D(6,2,4,9)            162.5443         estimate D2E/DX2                !
 ! D36   D(6,2,4,16)            40.0108         estimate D2E/DX2                !
 ! D37   D(18,2,4,5)            33.9965         estimate D2E/DX2                !
 ! D38   D(18,2,4,9)           -84.5539         estimate D2E/DX2                !
 ! D39   D(18,2,4,16)          152.9126         estimate D2E/DX2                !
 ! D40   D(3,2,18,19)          -57.5487         estimate D2E/DX2                !
 ! D41   D(3,2,18,28)           60.3993         estimate D2E/DX2                !
 ! D42   D(4,2,18,19)           74.4317         estimate D2E/DX2                !
 ! D43   D(4,2,18,28)         -167.6203         estimate D2E/DX2                !
 ! D44   D(6,2,18,19)         -172.5459         estimate D2E/DX2                !
 ! D45   D(6,2,18,28)          -54.5978         estimate D2E/DX2                !
 ! D46   D(1,3,20,21)         -171.5592         estimate D2E/DX2                !
 ! D47   D(2,3,20,21)           64.4198         estimate D2E/DX2                !
 ! D48   D(8,3,20,21)          -54.9826         estimate D2E/DX2                !
 ! D49   D(2,4,9,29)          -140.2066         estimate D2E/DX2                !
 ! D50   D(2,4,9,30)            73.1628         estimate D2E/DX2                !
 ! D51   D(5,4,9,29)           100.8026         estimate D2E/DX2                !
 ! D52   D(5,4,9,30)           -45.828          estimate D2E/DX2                !
 ! D53   D(16,4,9,29)          -17.6623         estimate D2E/DX2                !
 ! D54   D(16,4,9,30)         -164.2929         estimate D2E/DX2                !
 ! D55   D(2,4,16,17)          146.2386         estimate D2E/DX2                !
 ! D56   D(5,4,16,17)          -97.9476         estimate D2E/DX2                !
 ! D57   D(9,4,16,17)           16.8322         estimate D2E/DX2                !
 ! D58   D(1,10,24,22)         -87.2964         estimate D2E/DX2                !
 ! D59   D(1,11,14,15)        -179.1095         estimate D2E/DX2                !
 ! D60   D(12,11,14,15)         62.2991         estimate D2E/DX2                !
 ! D61   D(13,11,14,15)        -59.2211         estimate D2E/DX2                !
 ! D62   D(2,18,28,26)          -8.4305         estimate D2E/DX2                !
 ! D63   D(19,18,28,26)        104.9561         estimate D2E/DX2                !
 ! D64   D(3,20,21,26)         -10.6983         estimate D2E/DX2                !
 ! D65   D(20,21,26,27)       -116.1627         estimate D2E/DX2                !
 ! D66   D(20,21,26,28)         -6.3916         estimate D2E/DX2                !
 ! D67   D(23,22,24,10)        -12.4795         estimate D2E/DX2                !
 ! D68   D(23,22,24,25)       -107.2996         estimate D2E/DX2                !
 ! D69   D(25,22,24,10)         94.8201         estimate D2E/DX2                !
 ! D70   D(21,26,28,18)        -10.578          estimate D2E/DX2                !
 ! D71   D(27,26,28,18)        105.3898         estimate D2E/DX2                !
 --------------------------------------------------------------------------------
 Trust Radius=3.00D-01 FncErr=1.00D-07 GrdErr=1.00D-06
 Number of steps in this run=    180 maximum allowed number of steps=    180.
 GradGradGradGradGradGradGradGradGradGradGradGradGradGradGradGradGradGrad

                          Input orientation:                          
 ---------------------------------------------------------------------
 Center     Atomic      Atomic             Coordinates (Angstroms)
 Number     Number       Type             X           Y           Z
 ---------------------------------------------------------------------
      1          6           0       -0.450330    0.882630    0.135610
      2          6           0        1.490330   -0.753780    0.069090
      3          6           0        1.057470    0.742580   -0.049350
      4          6           0        0.369780   -1.779800    0.346960
      5          1           0        0.788120   -2.770390    0.092780
      6          1           0        2.156630   -0.823340    0.931820
      7          1           0       -0.754630    0.481510    1.107860
      8          1           0        1.266760    1.051600   -1.089240
      9          6           0       -0.953600   -1.679040   -0.443410
     10          8           0       -0.979770    0.065570   -0.926420
     11          6           0       -0.969730    2.296740    0.001640
     12          1           0       -0.393990    2.942810    0.674030
     13          1           0       -0.832490    2.643550   -1.033010
     14          8           0       -2.360130    2.283590    0.359810
     15          1           0       -2.704900    3.183630    0.263160
     16          8           0        0.052600   -1.702270    1.718130
     17          1           0       -0.914470   -1.887490    1.734700
     18          8           0        2.302480   -1.148180   -1.055340
     19          1           0        1.790820   -0.989910   -1.865650
     20          8           0        1.728950    1.581730    0.858740
     21          1           0        2.675630    1.546300    0.593320
     22          8           0       -3.432650   -0.067190   -0.746020
     23          1           0       -3.232780   -0.913020   -0.265030
     24          1           0       -2.017960    0.158250   -0.986870
     25          1           0       -3.540640    0.627480   -0.070660
     26          8           0        4.152970    0.868220   -0.365550
     27          1           0        4.824840    0.480530    0.215240
     28          1           0        3.711070    0.097560   -0.783970
     29          8           0       -1.993260   -1.905060    0.235910
     30          1           0       -0.902040   -1.990520   -1.498730
 ---------------------------------------------------------------------
                    Distance matrix (angstroms):
                    1          2          3          4          5
     1  C    0.000000
     2  C    2.539375   0.000000
     3  C    1.525544   1.562206   0.000000
     4  C    2.793883   1.544526   2.644311   0.000000
     5  H    3.857479   2.135504   3.526146   1.104936   0.000000
     6  H    3.215669   1.092290   2.150105   2.109434   2.523452
     7  H    1.094882   2.764929   2.165871   2.637573   3.739695
     8  H    2.115941   2.156643   1.104838   3.299101   4.029128
     9  C    2.674079   2.662998   3.172370   1.544724   2.124178
    10  O    1.440764   2.786354   2.319039   2.616901   3.493834
    11  C    1.512426   3.919454   2.554908   4.304847   5.364154
    12  H    2.130120   4.193017   2.733318   4.795140   5.863096
    13  H    2.147687   4.260513   2.855385   4.787045   5.762337
    14  O    2.379137   4.912858   3.771222   4.895274   5.960327
    15  H    3.223966   5.756806   4.495755   5.839205   6.905112
    16  O    3.072298   2.384541   3.179786   1.409511   2.079335
    17  H    3.232040   3.137295   3.740140   1.893863   2.524723
    18  O    3.622225   1.442041   2.477305   2.469963   2.498606
    19  H    3.540367   1.972123   2.615009   2.745710   2.830365
    20  O    2.400191   2.476912   1.407013   3.661850   4.518053
    21  H    3.228248   2.640099   1.917663   4.054698   4.737831
    22  O    3.251717   5.037017   4.615437   4.311161   5.081907
    23  H    3.335701   4.737590   4.603670   3.755566   4.443590
    24  H    2.059648   3.775573   3.267821   3.352080   4.197221
    25  H    3.107678   5.219010   4.599600   4.610942   5.505488
    26  O    4.630523   3.147928   3.114143   4.672495   4.977124
    27  H    5.291072   3.558629   3.785730   4.997399   5.184456
    28  H    4.333499   2.526693   2.827952   3.995961   4.187776
    29  O    3.187775   3.672693   4.049484   2.368962   2.916395
    30  H    3.336180   3.116251   3.661996   2.251333   2.449029
                    6          7          8          9         10
     6  H    0.000000
     7  H    3.195162   0.000000
     8  H    2.896887   3.039452   0.000000
     9  C    3.506709   2.667209   3.578196   0.000000
    10  O    3.752362   2.088538   2.458793   1.810427   0.000000
    11  C    4.513786   2.136598   2.782495   4.000644   2.416509
    12  H    4.555876   2.525127   3.073091   4.787832   3.344113
    13  H    4.981438   3.043650   2.635207   4.364296   2.584383
    14  O    5.511926   2.526797   4.095348   4.280879   2.911940
    15  H    6.335408   3.437808   4.706232   5.216498   3.756790
    16  O    2.412000   2.406854   4.115739   2.384373   3.344352
    17  H    3.347938   2.455736   4.622840   2.188412   3.301555
    18  O    2.018811   4.084268   2.431645   3.355343   3.501853
    19  H    2.826199   4.181645   2.246155   3.166940   3.110042
    20  O    2.443893   2.727767   2.071059   4.418630   3.580880
    21  H    2.449314   3.628390   2.249589   4.964770   4.226597
    22  O    5.884468   3.302989   4.842927   2.972427   2.463085
    23  H    5.521434   3.157652   4.978445   2.411072   2.543841
    24  H    4.698094   2.467467   3.405575   2.191768   1.044070
    25  H    5.963953   3.028542   4.932391   3.485936   2.757920
    26  O    2.920602   5.138581   2.981202   5.707158   5.225308
    27  H    3.054981   5.650421   3.832456   6.203864   5.930352
    28  H    2.491641   4.865071   2.641597   5.003143   4.693111
    29  O    4.344651   2.826697   4.596258   1.262321   2.502310
    30  H    4.077419   3.595410   3.758440   1.101535   2.135670
                   11         12         13         14         15
    11  C    0.000000
    12  H    1.095897   0.000000
    13  H    1.099824   1.787687   0.000000
    14  O    1.435852   2.097382   2.098381   0.000000
    15  H    1.966159   2.359473   2.340441   0.968648   0.000000
    16  O    4.470299   4.781878   5.219033   4.853182   5.795926
    17  H    4.529275   4.972697   5.310109   4.623653   5.575601
    18  O    4.867447   5.195947   4.919934   5.959834   6.751065
    19  H    4.680756   5.166203   4.558188   5.735753   6.493209
    20  O    2.920400   2.528543   3.356658   4.178769   4.751823
    21  H    3.768540   3.373325   4.019429   5.094801   5.633823
    22  O    3.494730   4.506672   3.767135   2.810574   3.480789
    23  H    3.936377   4.879343   4.358942   3.371981   4.164155
    24  H    2.578581   3.626243   2.753940   2.539232   3.344755
    25  H    3.066143   3.977024   3.510660   2.078848   2.709945
    26  O    5.330812   5.104850   5.334052   6.704468   7.265451
    27  H    6.076289   5.788739   6.184025   7.409165   8.000377
    28  H    5.231010   5.203146   5.214214   6.553353   7.196178
    29  O    4.331007   5.123618   4.862859   4.206511   5.138282
    30  H    4.542718   5.414494   4.657933   4.883463   5.755553
                   16         17         18         19         20
    16  O    0.000000
    17  H    0.984787   0.000000
    18  O    3.614016   4.321998   0.000000
    19  H    4.046275   4.592033   0.971312   0.000000
    20  O    3.785942   4.448647   3.383053   3.746927   0.000000
    21  H    4.324198   5.097301   3.180809   3.641673   0.983822
    22  O    4.570830   3.976015   5.844308   5.421220   5.651222
    23  H    3.917852   3.212954   5.596337   5.272993   5.666163
    24  H    3.881466   3.579062   4.514161   4.073982   4.412698
    25  H    4.641000   4.059700   6.185840   5.853410   5.435343
    26  O    5.268982   6.138724   2.822409   3.358973   2.807820
    27  H    5.458715   6.391866   3.260271   3.962016   3.348323
    28  H    4.783753   5.628476   1.899904   2.457638   2.971541
    29  O    2.534491   1.846745   4.549019   4.424174   5.138139
    30  H    3.367880   3.235095   3.342915   2.896091   5.024017
                   21         22         23         24         25
    21  H    0.000000
    22  O    6.458194   0.000000
    23  H    6.457115   0.993342   0.000000
    24  H    5.143294   1.452646   1.773263   0.000000
    25  H    6.318790   0.974854   1.582940   1.837980   0.000000
    26  O    1.887262   7.652541   7.598172   6.242633   7.703022
    27  H    2.428562   8.331276   8.191330   6.955059   8.371654
    28  H    2.251202   7.145720   7.036165   5.732943   7.305951
    29  O    5.817058   2.532547   1.664780   2.398551   2.983644
    30  H    5.448439   3.266459   2.848749   2.474771   3.981899
                   26         27         28         29         30
    26  O    0.000000
    27  H    0.969036   0.000000
    28  H    0.981971   1.544529   0.000000
    29  O    6.769710   7.223431   6.131070   0.000000
    30  H    5.916893   6.468457   5.113878   2.051107   0.000000
 Stoichiometry    C6H16O8
 Framework group  C1[X(C6H16O8)]
 Deg. of freedom    84
 Full point group                 C1      NOp   1
 Largest Abelian subgroup         C1      NOp   1
 Largest concise Abelian subgroup C1      NOp   1
                         Standard orientation:                         
 ---------------------------------------------------------------------
 Center     Atomic      Atomic             Coordinates (Angstroms)
 Number     Number       Type             X           Y           Z
 ---------------------------------------------------------------------
      1          6           0       -0.460715    0.864582    0.146858
      2          6           0        1.484247   -0.766443    0.074015
      3          6           0        1.047266    0.729064   -0.039992
      4          6           0        0.366727   -1.796197    0.350269
      5          1           0        0.787458   -2.784982    0.093023
      6          1           0        2.151604   -0.836521    0.935885
      7          1           0       -0.762955    0.460055    1.118339
      8          1           0        1.254676    1.041417   -1.079262
      9          6           0       -0.957717   -1.696872   -0.438497
     10          8           0       -0.989043    0.048945   -0.916818
     11          6           0       -0.984031    2.277649    0.017190
     12          1           0       -0.409340    2.923461    0.690724
     13          1           0       -0.848767    2.627585   -1.016668
     14          8           0       -2.374027    2.259820    0.376722
     15          1           0       -2.721301    3.159189    0.282824
     16          8           0        0.050731   -1.723177    1.721960
     17          1           0       -0.915823   -1.911029    1.739008
     18          8           0        2.296309   -1.155664   -1.052282
     19          1           0        1.783407   -0.996603   -1.861651
     20          8           0        1.717419    1.567582    0.869661
     21          1           0        2.663921    1.535395    0.603195
     22          8           0       -3.441375   -0.090863   -0.734306
     23          1           0       -3.238756   -0.937436   -0.255778
     24          1           0       -2.027538    0.139006   -0.975975
     25          1           0       -3.550538    0.601710   -0.056984
     26          8           0        4.142097    0.863835   -0.358969
     27          1           0        4.815590    0.476396    0.220107
     28          1           0        3.701837    0.093114   -0.779001
     29          8           0       -1.996080   -1.927487    0.241262
     30          1           0       -0.906394   -2.005395   -1.494697
 ---------------------------------------------------------------------
 Rotational constants (GHZ):      0.8541278      0.4820994      0.3633006
 Standard basis: 6-31G(d) (6D, 7F)
 There are   242 symmetry adapted cartesian basis functions of A   symmetry.
 There are   242 symmetry adapted basis functions of A   symmetry.
   242 basis functions,   456 primitive gaussians,   242 cartesian basis functions
    58 alpha electrons       58 beta electrons
       nuclear repulsion energy      1116.2634992374 Hartrees.
 NAtoms=   30 NActive=   30 NUniq=   30 SFac= 1.00D+00 NAtFMM=   60 NAOKFM=F Big=F
 Integral buffers will be    131072 words long.
 Raffenetti 2 integral format.
 Two-electron integral symmetry is turned on.
 One-electron integrals computed using PRISM.
 NBasis=   242 RedAO= T EigKep=  1.34D-03  NBF=   242
 NBsUse=   242 1.00D-06 EigRej= -1.00D+00 NBFU=   242
 ExpMin= 1.61D-01 ExpMax= 5.48D+03 ExpMxC= 8.25D+02 IAcc=1 IRadAn=         1 AccDes= 0.00D+00
 Harris functional with IExCor=  402 and IRadAn=       1 diagonalized for initial guess.
 HarFok:  IExCor=  402 AccDes= 0.00D+00 IRadAn=         1 IDoV= 1 UseB2=F ITyADJ=14
 ICtDFT=  3500011 ScaDFX=  1.000000  1.000000  1.000000  1.000000
 FoFCou: FMM=F IPFlag=           0 FMFlag=      100000 FMFlg1=           0
         NFxFlg=           0 DoJE=T BraDBF=F KetDBF=T FulRan=T
         wScrn=  0.000000 ICntrl=     500 IOpCl=  0 I1Cent=   200000004 NGrid=           0
         NMat0=    1 NMatS0=      1 NMatT0=    0 NMatD0=    1 NMtDS0=    0 NMtDT0=    0
 Petite list used in FoFCou.
 Requested convergence on RMS density matrix=1.00D-08 within 128 cycles.
 Requested convergence on MAX density matrix=1.00D-06.
 Requested convergence on             energy=1.00D-06.
 No special actions if energy rises.
 Integral accuracy reduced to 1.0D-05 until final iterations.
 Initial convergence to 1.0D-05 achieved.  Increase integral accuracy.
 SCF Done:  E(RB3LYP) =  -839.969171000     A.U. after   14 cycles
            NFock= 14  Conv=0.76D-08     -V/T= 2.0084

 **********************************************************************

            Population analysis using the SCF density.

 **********************************************************************

 Orbital symmetries:
       Occupied  (A) (A) (A) (A) (A) (A) (A) (A) (A) (A) (A) (A)
                 (A) (A) (A) (A) (A) (A) (A) (A) (A) (A) (A) (A)
                 (A) (A) (A) (A) (A) (A) (A) (A) (A) (A) (A) (A)
                 (A) (A) (A) (A) (A) (A) (A) (A) (A) (A) (A) (A)
                 (A) (A) (A) (A) (A) (A) (A) (A) (A) (A)
       Virtual   (A) (A) (A) (A) (A) (A) (A) (A) (A) (A) (A) (A)
                 (A) (A) (A) (A) (A) (A) (A) (A) (A) (A) (A) (A)
                 (A) (A) (A) (A) (A) (A) (A) (A) (A) (A) (A) (A)
                 (A) (A) (A) (A) (A) (A) (A) (A) (A) (A) (A) (A)
                 (A) (A) (A) (A) (A) (A) (A) (A) (A) (A) (A) (A)
                 (A) (A) (A) (A) (A) (A) (A) (A) (A) (A) (A) (A)
                 (A) (A) (A) (A) (A) (A) (A) (A) (A) (A) (A) (A)
                 (A) (A) (A) (A) (A) (A) (A) (A) (A) (A) (A) (A)
                 (A) (A) (A) (A) (A) (A) (A) (A) (A) (A) (A) (A)
                 (A) (A) (A) (A) (A) (A) (A) (A) (A) (A) (A) (A)
                 (A) (A) (A) (A) (A) (A) (A) (A) (A) (A) (A) (A)
                 (A) (A) (A) (A) (A) (A) (A) (A) (A) (A) (A) (A)
                 (A) (A) (A) (A) (A) (A) (A) (A) (A) (A) (A) (A)
                 (A) (A) (A) (A) (A) (A) (A) (A) (A) (A) (A) (A)
                 (A) (A) (A) (A) (A) (A) (A) (A) (A) (A) (A) (A)
                 (A) (A) (A) (A)
 The electronic state is 1-A.
 Alpha  occ. eigenvalues --  -19.18433 -19.17948 -19.17451 -19.15599 -19.15341
 Alpha  occ. eigenvalues --  -19.13509 -19.13268 -19.11864 -10.28623 -10.24925
 Alpha  occ. eigenvalues --  -10.24807 -10.24775 -10.24593 -10.23872  -1.07399
 Alpha  occ. eigenvalues --   -1.04857  -1.04074  -1.02664  -1.01789  -1.01223
 Alpha  occ. eigenvalues --   -1.00696  -0.98953  -0.78529  -0.75684  -0.69383
 Alpha  occ. eigenvalues --   -0.65563  -0.61028  -0.57144  -0.55781  -0.54645
 Alpha  occ. eigenvalues --   -0.53874  -0.53663  -0.52237  -0.50680  -0.49259
 Alpha  occ. eigenvalues --   -0.47841  -0.47425  -0.45193  -0.43234  -0.43000
 Alpha  occ. eigenvalues --   -0.42092  -0.41694  -0.39858  -0.39783  -0.38162
 Alpha  occ. eigenvalues --   -0.37314  -0.36313  -0.35030  -0.34457  -0.33325
 Alpha  occ. eigenvalues --   -0.31591  -0.30784  -0.29921  -0.29775  -0.28425
 Alpha  occ. eigenvalues --   -0.26727  -0.25541  -0.24639
 Alpha virt. eigenvalues --    0.03116   0.04301   0.04678   0.07118   0.09329
 Alpha virt. eigenvalues --    0.09998   0.12424   0.13204   0.13630   0.14444
 Alpha virt. eigenvalues --    0.15043   0.16067   0.16986   0.17739   0.18909
 Alpha virt. eigenvalues --    0.20581   0.20865   0.21527   0.23015   0.23698
 Alpha virt. eigenvalues --    0.23967   0.25296   0.26602   0.27633   0.30341
 Alpha virt. eigenvalues --    0.31357   0.32641   0.36799   0.51117   0.52815
 Alpha virt. eigenvalues --    0.54501   0.56283   0.56510   0.59088   0.59766
 Alpha virt. eigenvalues --    0.61237   0.63005   0.64059   0.64535   0.66064
 Alpha virt. eigenvalues --    0.67799   0.69939   0.73099   0.73288   0.74460
 Alpha virt. eigenvalues --    0.75868   0.78220   0.78886   0.79442   0.80111
 Alpha virt. eigenvalues --    0.81484   0.82430   0.83044   0.85013   0.85324
 Alpha virt. eigenvalues --    0.85872   0.86150   0.87492   0.88625   0.90128
 Alpha virt. eigenvalues --    0.90646   0.91379   0.93538   0.94493   0.95582
 Alpha virt. eigenvalues --    0.95994   0.97720   0.99338   1.00620   1.02283
 Alpha virt. eigenvalues --    1.04156   1.05683   1.07151   1.09951   1.10496
 Alpha virt. eigenvalues --    1.11241   1.13141   1.14141   1.14634   1.16689
 Alpha virt. eigenvalues --    1.17311   1.18165   1.20312   1.21436   1.23711
 Alpha virt. eigenvalues --    1.26231   1.28312   1.31977   1.34580   1.35545
 Alpha virt. eigenvalues --    1.39085   1.40641   1.45251   1.46063   1.48000
 Alpha virt. eigenvalues --    1.52389   1.53131   1.55394   1.58167   1.60384
 Alpha virt. eigenvalues --    1.61525   1.63686   1.65368   1.67122   1.68438
 Alpha virt. eigenvalues --    1.69477   1.71255   1.72084   1.72675   1.73865
 Alpha virt. eigenvalues --    1.74975   1.75985   1.78592   1.78893   1.80151
 Alpha virt. eigenvalues --    1.80939   1.81583   1.83825   1.86082   1.86903
 Alpha virt. eigenvalues --    1.88270   1.90056   1.91559   1.92344   1.93886
 Alpha virt. eigenvalues --    1.95697   1.96750   2.00195   2.03151   2.04489
 Alpha virt. eigenvalues --    2.06568   2.08413   2.09412   2.11251   2.13774
 Alpha virt. eigenvalues --    2.20385   2.23050   2.24563   2.25651   2.28723
 Alpha virt. eigenvalues --    2.30026   2.32845   2.34741   2.38249   2.39690
 Alpha virt. eigenvalues --    2.42535   2.44983   2.45968   2.46564   2.48992
 Alpha virt. eigenvalues --    2.52228   2.53278   2.55192   2.57176   2.59679
 Alpha virt. eigenvalues --    2.60149   2.61767   2.65171   2.67261   2.67590
 Alpha virt. eigenvalues --    2.72064   2.75435   2.82645   2.86856   2.90110
 Alpha virt. eigenvalues --    2.92257   2.94985   2.98311   3.02266   3.05544
 Alpha virt. eigenvalues --    3.71019   3.75888   3.79142   3.81308   3.89094
 Alpha virt. eigenvalues --    3.93036   4.10823   4.16819   4.29347   4.33678
 Alpha virt. eigenvalues --    4.39090   4.50643   4.63513   4.81162
          Condensed to atoms (all electrons):
               1          2          3          4          5          6
     1  C    5.005945  -0.042152   0.315489   0.006953  -0.000006   0.000482
     2  C   -0.042152   5.115312   0.302744   0.279742  -0.056695   0.355541
     3  C    0.315489   0.302744   4.924154  -0.034957   0.005261  -0.049940
     4  C    0.006953   0.279742  -0.034957   5.083911   0.350681  -0.029554
     5  H   -0.000006  -0.056695   0.005261   0.350681   0.634071  -0.005139
     6  H    0.000482   0.355541  -0.049940  -0.029554  -0.005139   0.563110
     7  H    0.341272  -0.014657  -0.035006  -0.007656   0.000519   0.000981
     8  H   -0.047189  -0.071250   0.341308   0.004133  -0.000358   0.005714
     9  C   -0.008568  -0.025328  -0.012235   0.275448  -0.047830   0.004633
    10  O    0.154144   0.005304  -0.047718  -0.015391   0.001951   0.000230
    11  C    0.351279   0.005115  -0.028407   0.000108   0.000017  -0.000211
    12  H   -0.038292   0.000216  -0.001533   0.000009  -0.000000  -0.000001
    13  H   -0.032628  -0.000162  -0.003376   0.000002  -0.000001   0.000005
    14  O   -0.045961  -0.000038   0.002063   0.000007   0.000000   0.000000
    15  H    0.005939   0.000003  -0.000213  -0.000000   0.000000  -0.000000
    16  O   -0.009454  -0.050928   0.003370   0.234295  -0.035327   0.003468
    17  H    0.000492   0.006773   0.000064  -0.052388   0.002128  -0.000556
    18  O    0.002859   0.174826  -0.032446  -0.030165   0.007124  -0.037504
    19  H   -0.000337  -0.025186  -0.006260  -0.003925  -0.000490   0.006579
    20  O   -0.044639  -0.041345   0.235167   0.002581  -0.000092   0.005071
    21  H    0.005817   0.000537  -0.024659   0.000122   0.000003   0.001532
    22  O    0.006428   0.000019   0.000012  -0.000332   0.000002   0.000000
    23  H   -0.000177  -0.000059   0.000011   0.001782  -0.000043   0.000002
    24  H   -0.015163   0.000033   0.002247   0.001900  -0.000103   0.000006
    25  H   -0.000384  -0.000008   0.000107  -0.000020   0.000000  -0.000000
    26  O    0.000072   0.006849   0.000774   0.000160   0.000001   0.003746
    27  H   -0.000004   0.000269  -0.000345   0.000010  -0.000001   0.000665
    28  H    0.000033  -0.007404   0.000840   0.000618  -0.000019  -0.003279
    29  O    0.000432   0.001928   0.000485  -0.064336  -0.000247  -0.000097
    30  H    0.003000   0.000149   0.001012  -0.080299   0.002884  -0.000254
               7          8          9         10         11         12
     1  C    0.341272  -0.047189  -0.008568   0.154144   0.351279  -0.038292
     2  C   -0.014657  -0.071250  -0.025328   0.005304   0.005115   0.000216
     3  C   -0.035006   0.341308  -0.012235  -0.047718  -0.028407  -0.001533
     4  C   -0.007656   0.004133   0.275448  -0.015391   0.000108   0.000009
     5  H    0.000519  -0.000358  -0.047830   0.001951   0.000017  -0.000000
     6  H    0.000981   0.005714   0.004633   0.000230  -0.000211  -0.000001
     7  H    0.576094   0.006994   0.001823  -0.042386  -0.047548  -0.001398
     8  H    0.006994   0.684824   0.001080   0.004095  -0.014392   0.000371
     9  C    0.001823   0.001080   4.765939   0.041835   0.001085  -0.000043
    10  O   -0.042386   0.004095   0.041835   8.585251  -0.033005   0.003478
    11  C   -0.047548  -0.014392   0.001085  -0.033005   4.917160   0.361275
    12  H   -0.001398   0.000371  -0.000043   0.003478   0.361275   0.568770
    13  H    0.006476   0.005698  -0.000001  -0.001843   0.347443  -0.043464
    14  O    0.002525  -0.000034  -0.000146   0.000545   0.231225  -0.033746
    15  H   -0.000088   0.000002   0.000007  -0.000076  -0.020880  -0.002933
    16  O    0.022508  -0.000058  -0.026618  -0.000230   0.000330  -0.000001
    17  H   -0.000073   0.000007  -0.017618   0.000473  -0.000041  -0.000001
    18  O    0.000079   0.000422   0.001919  -0.000722  -0.000048  -0.000002
    19  H    0.000101   0.008176   0.001932   0.001671  -0.000048   0.000001
    20  O    0.003032  -0.036886   0.000127   0.001207  -0.001664   0.011870
    21  H   -0.000225  -0.004569  -0.000019  -0.000106   0.000101  -0.000099
    22  O    0.000160  -0.000001   0.004686  -0.074180  -0.000341  -0.000039
    23  H    0.000001   0.000001  -0.008966   0.005633   0.000021   0.000006
    24  H    0.001867   0.000089  -0.008635   0.143208  -0.006161   0.000366
    25  H    0.000493   0.000002  -0.000144   0.005476  -0.002648   0.000216
    26  O   -0.000000   0.000763  -0.000001   0.000000  -0.000002   0.000002
    27  H    0.000000  -0.000016  -0.000000  -0.000000  -0.000000  -0.000000
    28  H   -0.000004   0.000307  -0.000017  -0.000003   0.000001  -0.000001
    29  O    0.005579  -0.000015   0.400462  -0.048885  -0.000091   0.000006
    30  H    0.000802  -0.000015   0.351072  -0.039076  -0.000181   0.000004
              13         14         15         16         17         18
     1  C   -0.032628  -0.045961   0.005939  -0.009454   0.000492   0.002859
     2  C   -0.000162  -0.000038   0.000003  -0.050928   0.006773   0.174826
     3  C   -0.003376   0.002063  -0.000213   0.003370   0.000064  -0.032446
     4  C    0.000002   0.000007  -0.000000   0.234295  -0.052388  -0.030165
     5  H   -0.000001   0.000000   0.000000  -0.035327   0.002128   0.007124
     6  H    0.000005   0.000000  -0.000000   0.003468  -0.000556  -0.037504
     7  H    0.006476   0.002525  -0.000088   0.022508  -0.000073   0.000079
     8  H    0.005698  -0.000034   0.000002  -0.000058   0.000007   0.000422
     9  C   -0.000001  -0.000146   0.000007  -0.026618  -0.017618   0.001919
    10  O   -0.001843   0.000545  -0.000076  -0.000230   0.000473  -0.000722
    11  C    0.347443   0.231225  -0.020880   0.000330  -0.000041  -0.000048
    12  H   -0.043464  -0.033746  -0.002933  -0.000001  -0.000001  -0.000002
    13  H    0.626708  -0.039289  -0.003323  -0.000005  -0.000000  -0.000004
    14  O   -0.039289   8.261806   0.236361  -0.000001  -0.000001   0.000000
    15  H   -0.003323   0.236361   0.377625   0.000000  -0.000000  -0.000000
    16  O   -0.000005  -0.000001   0.000000   8.318251   0.217787   0.001535
    17  H   -0.000000  -0.000001  -0.000000   0.217787   0.358926  -0.000112
    18  O   -0.000004   0.000000  -0.000000   0.001535  -0.000112   8.284003
    19  H    0.000006   0.000000  -0.000000  -0.000019   0.000010   0.231879
    20  O    0.000190   0.000036   0.000008  -0.000192   0.000009   0.001455
    21  H   -0.000051   0.000001  -0.000000  -0.000017   0.000000   0.000244
    22  O   -0.000035  -0.011911   0.000693  -0.000003   0.000140  -0.000000
    23  H    0.000000   0.000299  -0.000026   0.000055  -0.000545   0.000000
    24  H   -0.000052   0.005998  -0.000215  -0.000179  -0.000065   0.000003
    25  H    0.000248   0.033099  -0.001748   0.000002  -0.000017   0.000000
    26  O    0.000000   0.000000   0.000000   0.000000  -0.000000  -0.018843
    27  H    0.000000  -0.000000  -0.000000  -0.000000  -0.000000   0.000502
    28  H   -0.000001  -0.000000  -0.000000  -0.000015   0.000001   0.056956
    29  O    0.000003  -0.000021  -0.000000  -0.030727   0.066867   0.000003
    30  H   -0.000002  -0.000000  -0.000000   0.002544   0.003060   0.000929
              19         20         21         22         23         24
     1  C   -0.000337  -0.044639   0.005817   0.006428  -0.000177  -0.015163
     2  C   -0.025186  -0.041345   0.000537   0.000019  -0.000059   0.000033
     3  C   -0.006260   0.235167  -0.024659   0.000012   0.000011   0.002247
     4  C   -0.003925   0.002581   0.000122  -0.000332   0.001782   0.001900
     5  H   -0.000490  -0.000092   0.000003   0.000002  -0.000043  -0.000103
     6  H    0.006579   0.005071   0.001532   0.000000   0.000002   0.000006
     7  H    0.000101   0.003032  -0.000225   0.000160   0.000001   0.001867
     8  H    0.008176  -0.036886  -0.004569  -0.000001   0.000001   0.000089
     9  C    0.001932   0.000127  -0.000019   0.004686  -0.008966  -0.008635
    10  O    0.001671   0.001207  -0.000106  -0.074180   0.005633   0.143208
    11  C   -0.000048  -0.001664   0.000101  -0.000341   0.000021  -0.006161
    12  H    0.000001   0.011870  -0.000099  -0.000039   0.000006   0.000366
    13  H    0.000006   0.000190  -0.000051  -0.000035   0.000000  -0.000052
    14  O    0.000000   0.000036   0.000001  -0.011911   0.000299   0.005998
    15  H   -0.000000   0.000008  -0.000000   0.000693  -0.000026  -0.000215
    16  O   -0.000019  -0.000192  -0.000017  -0.000003   0.000055  -0.000179
    17  H    0.000010   0.000009   0.000000   0.000140  -0.000545  -0.000065
    18  O    0.231879   0.001455   0.000244  -0.000000   0.000000   0.000003
    19  H    0.382269  -0.000051  -0.000030   0.000001   0.000000   0.000015
    20  O   -0.000051   8.334733   0.216802   0.000000  -0.000000  -0.000020
    21  H   -0.000030   0.216802   0.322333  -0.000000   0.000000   0.000003
    22  O    0.000001   0.000000  -0.000000   8.393190   0.196506   0.126901
    23  H    0.000000  -0.000000   0.000000   0.196506   0.311615  -0.015608
    24  H    0.000015  -0.000020   0.000003   0.126901  -0.015608   0.299287
    25  H   -0.000000  -0.000000   0.000000   0.222831  -0.004706  -0.012261
    26  O    0.000840  -0.020395   0.061270   0.000000   0.000000   0.000000
    27  H   -0.000001   0.001116  -0.002681  -0.000000   0.000000  -0.000000
    28  H   -0.003175   0.002420  -0.006141   0.000000  -0.000000   0.000000
    29  O   -0.000004  -0.000000   0.000000  -0.042545   0.073316   0.006527
    30  H    0.000752   0.000001  -0.000001   0.000456  -0.001244   0.000606
              25         26         27         28         29         30
     1  C   -0.000384   0.000072  -0.000004   0.000033   0.000432   0.003000
     2  C   -0.000008   0.006849   0.000269  -0.007404   0.001928   0.000149
     3  C    0.000107   0.000774  -0.000345   0.000840   0.000485   0.001012
     4  C   -0.000020   0.000160   0.000010   0.000618  -0.064336  -0.080299
     5  H    0.000000   0.000001  -0.000001  -0.000019  -0.000247   0.002884
     6  H   -0.000000   0.003746   0.000665  -0.003279  -0.000097  -0.000254
     7  H    0.000493  -0.000000   0.000000  -0.000004   0.005579   0.000802
     8  H    0.000002   0.000763  -0.000016   0.000307  -0.000015  -0.000015
     9  C   -0.000144  -0.000001  -0.000000  -0.000017   0.400462   0.351072
    10  O    0.005476   0.000000  -0.000000  -0.000003  -0.048885  -0.039076
    11  C   -0.002648  -0.000002  -0.000000   0.000001  -0.000091  -0.000181
    12  H    0.000216   0.000002  -0.000000  -0.000001   0.000006   0.000004
    13  H    0.000248   0.000000   0.000000  -0.000001   0.000003  -0.000002
    14  O    0.033099   0.000000  -0.000000  -0.000000  -0.000021  -0.000000
    15  H   -0.001748   0.000000  -0.000000  -0.000000  -0.000000  -0.000000
    16  O    0.000002   0.000000  -0.000000  -0.000015  -0.030727   0.002544
    17  H   -0.000017  -0.000000  -0.000000   0.000001   0.066867   0.003060
    18  O    0.000000  -0.018843   0.000502   0.056956   0.000003   0.000929
    19  H   -0.000000   0.000840  -0.000001  -0.003175  -0.000004   0.000752
    20  O   -0.000000  -0.020395   0.001116   0.002420  -0.000000   0.000001
    21  H    0.000000   0.061270  -0.002681  -0.006141   0.000000  -0.000001
    22  O    0.222831   0.000000  -0.000000   0.000000  -0.042545   0.000456
    23  H   -0.004706   0.000000   0.000000  -0.000000   0.073316  -0.001244
    24  H   -0.012261   0.000000  -0.000000   0.000000   0.006527   0.000606
    25  H    0.334818  -0.000000   0.000000   0.000000   0.002193   0.000025
    26  O   -0.000000   8.320563   0.242404   0.213081   0.000000   0.000000
    27  H    0.000000   0.242404   0.374869  -0.015967  -0.000000  -0.000000
    28  H    0.000000   0.213081  -0.015967   0.332543   0.000000  -0.000001
    29  O    0.002193   0.000000  -0.000000   0.000000   8.270497  -0.048888
    30  H    0.000025   0.000000  -0.000000  -0.000001  -0.048888   0.682618
 Mulliken charges:
               1
     1  C    0.084318
     2  C    0.079850
     3  C    0.141988
     4  C    0.076562
     5  H    0.141707
     6  H    0.174769
     7  H    0.177734
     8  H    0.110797
     9  C    0.304123
    10  O   -0.650878
    11  C   -0.059494
    12  H    0.174965
    13  H    0.137455
    14  O   -0.642817
    15  H    0.408865
    16  O   -0.650371
    17  H    0.414682
    18  O   -0.644895
    19  H    0.405293
    20  O   -0.670541
    21  H    0.429831
    22  O   -0.822635
    23  H    0.442127
    24  H    0.469406
    25  H    0.422429
    26  O   -0.811286
    27  H    0.399180
    28  H    0.429227
    29  O   -0.592439
    30  H    0.120047
 Sum of Mulliken charges =  -0.00000
 Mulliken charges with hydrogens summed into heavy atoms:
               1
     1  C    0.262052
     2  C    0.254619
     3  C    0.252785
     4  C    0.218269
     9  C    0.424170
    10  O   -0.181472
    11  C    0.252927
    14  O   -0.233951
    16  O   -0.235689
    18  O   -0.239603
    20  O   -0.240710
    22  O    0.041920
    26  O    0.017122
    29  O   -0.592439
 Electronic spatial extent (au):  <R**2>=           3164.7671
 Charge=              0.0000 electrons
 Dipole moment (field-independent basis, Debye):
    X=              0.7445    Y=              2.1233    Z=             -1.6335  Tot=              2.7805
 Quadrupole moment (field-independent basis, Debye-Ang):
   XX=            -80.3262   YY=            -79.7396   ZZ=            -86.3223
   XY=            -13.1041   XZ=             -2.5047   YZ=              2.6827
 Traceless Quadrupole moment (field-independent basis, Debye-Ang):
   XX=              1.8032   YY=              2.3897   ZZ=             -4.1930
   XY=            -13.1041   XZ=             -2.5047   YZ=              2.6827
 Octapole moment (field-independent basis, Debye-Ang**2):
  XXX=             51.2309  YYY=             44.2132  ZZZ=            -15.2684  XYY=            -34.5716
  XXY=             12.8079  XXZ=             39.6933  XZZ=              3.6777  YZZ=             -2.0441
  YYZ=             -7.6928  XYZ=              2.9589
 Hexadecapole moment (field-independent basis, Debye-Ang**3):
 XXXX=          -1868.0646 YYYY=          -1060.3100 ZZZZ=           -349.1447 XXXY=           -134.6384
 XXXZ=             43.2226 YYYX=           -122.2852 YYYZ=             12.6297 ZZZX=            -34.7282
 ZZZY=             15.0754 XXYY=           -534.3515 XXZZ=           -425.3010 YYZZ=           -263.1372
 XXYZ=             16.4564 YYXZ=              3.3895 ZZXY=              5.3389
 N-N= 1.116263499237D+03 E-N=-4.204947987159D+03  KE= 8.329708721663D+02
 Calling FoFJK, ICntrl=      2127 FMM=F ISym2X=0 I1Cent= 0 IOpClX= 0 NMat=1 NMatS=1 NMatT=0.
 ***** Axes restored to original set *****
 -------------------------------------------------------------------
 Center     Atomic                   Forces (Hartrees/Bohr)
 Number     Number              X              Y              Z
 -------------------------------------------------------------------
      1        6           0.000209864    0.002454826   -0.000889657
      2        6          -0.000737316    0.000283123   -0.000472350
      3        6          -0.000185073    0.000814256    0.000136990
      4        6           0.001549170   -0.002596165    0.001352777
      5        1           0.000503372   -0.000085618    0.000338270
      6        1          -0.000058082    0.000042669   -0.000025270
      7        1          -0.000111226    0.000051402   -0.000153407
      8        1           0.000010121    0.000045604    0.000016774
      9        6           0.000970475   -0.014160626    0.002898385
     10        8           0.004175123    0.009919989   -0.005879561
     11        6           0.000928125    0.003052581    0.001756290
     12        1          -0.000081247    0.000253263    0.000209992
     13        1           0.000086829    0.000295349    0.000152671
     14        8           0.000501531    0.001203581    0.000590057
     15        1          -0.000093184   -0.000003607   -0.000099448
     16        8           0.001735663    0.000114620    0.001293159
     17        1           0.000135713    0.000044800    0.000235822
     18        8          -0.000302916    0.000071223   -0.000065283
     19        1           0.000035559    0.000111409   -0.000016172
     20        8           0.000520191   -0.000072663    0.000188995
     21        1           0.000023136    0.000008873   -0.000002590
     22        8          -0.012585648    0.005795701   -0.003312437
     23        1          -0.000887015   -0.000849771    0.000409310
     24        1           0.001327015    0.000224462   -0.000245765
     25        1          -0.000046502    0.000219892   -0.000196948
     26        8          -0.000029398    0.000048590    0.000068074
     27        1           0.000027561    0.000032305   -0.000013668
     28        1           0.000012382   -0.000008431    0.000018112
     29        8           0.002476314   -0.006939015    0.001619880
     30        1          -0.000110537   -0.000372627    0.000086998
 -------------------------------------------------------------------
 Cartesian Forces:  Max     0.014160626 RMS     0.002717287

 GradGradGradGradGradGradGradGradGradGradGradGradGradGradGradGradGradGrad
 Berny optimization.
 FormGI is forming the generalized inverse of G from B-inverse, IUseBI=4.
 Internal  Forces:  Max     0.054471872 RMS     0.011703304
 Search for a local minimum.
 Step number   1 out of a maximum of  180
 All quantities printed in internal units (Hartrees-Bohrs-Radians)
 Mixed Optimization -- RFO/linear search
 Second derivative matrix not updated -- first step.
 ITU=  0
     Eigenvalues ---    0.00230   0.00230   0.00230   0.00428   0.00445
     Eigenvalues ---    0.00540   0.00602   0.00723   0.00872   0.01153
     Eigenvalues ---    0.01218   0.01495   0.01520   0.01566   0.03077
     Eigenvalues ---    0.04124   0.04161   0.04173   0.04559   0.04908
     Eigenvalues ---    0.05183   0.05200   0.05227   0.05500   0.05525
     Eigenvalues ---    0.06103   0.06178   0.06414   0.06562   0.06995
     Eigenvalues ---    0.07389   0.07712   0.08495   0.09639   0.10888
     Eigenvalues ---    0.11096   0.12652   0.13554   0.13641   0.15715
     Eigenvalues ---    0.16000   0.16000   0.16000   0.16000   0.16000
     Eigenvalues ---    0.16000   0.16613   0.17919   0.18860   0.19254
     Eigenvalues ---    0.19540   0.19975   0.20528   0.22023   0.22069
     Eigenvalues ---    0.22475   0.25000   0.25966   0.28105   0.28122
     Eigenvalues ---    0.29839   0.31108   0.33142   0.33153   0.33513
     Eigenvalues ---    0.33702   0.34140   0.34255   0.34549   0.38200
     Eigenvalues ---    0.39481   0.40160   0.40709   0.43350   0.44080
     Eigenvalues ---    0.48878   0.49389   0.50009   0.50466   0.52397
     Eigenvalues ---    0.53110   0.53574   0.53654   0.78846
 RFO step:  Lambda=-9.18072068D-02 EMin= 2.30000000D-03
 Linear search not attempted -- first point.
 Maximum step size (   0.300) exceeded in Quadratic search.
    -- Step size scaled by   0.678
 Iteration  1 RMS(Cart)=  0.30919067 RMS(Int)=  0.01528243
 Iteration  2 RMS(Cart)=  0.09457280 RMS(Int)=  0.00146141
 Iteration  3 RMS(Cart)=  0.00302663 RMS(Int)=  0.00074990
 Iteration  4 RMS(Cart)=  0.00000463 RMS(Int)=  0.00074990
 Iteration  5 RMS(Cart)=  0.00000000 RMS(Int)=  0.00074990
 Variable       Old X    -DE/DX   Delta X   Delta X   Delta X     New X
                                 (Linear)    (Quad)   (Total)
    R1        2.88286   0.00765   0.00000   0.01329   0.01329   2.89615
    R2        2.06903  -0.00012   0.00000  -0.00019  -0.00019   2.06883
    R3        2.72265   0.00108   0.00000   0.00151   0.00151   2.72416
    R4        2.85807   0.00380   0.00000   0.00639   0.00639   2.86446
    R5        2.95214   0.03446   0.00000   0.05932   0.05928   3.01142
    R6        2.91873   0.01208   0.00000   0.02195   0.02195   2.94069
    R7        2.06413  -0.00006   0.00000  -0.00009  -0.00009   2.06404
    R8        2.72506   0.00143   0.00000   0.00296   0.00315   2.72821
    R9        2.08784  -0.00000   0.00000  -0.00000  -0.00000   2.08784
   R10        2.65887   0.00139   0.00000   0.00289   0.00305   2.66192
   R11        2.08803   0.00019   0.00000   0.00030   0.00030   2.08833
   R12        2.91911  -0.00662   0.00000  -0.01203  -0.01203   2.90707
   R13        2.66359   0.00107   0.00000   0.00137   0.00137   2.66496
   R14        2.38544   0.00007   0.00000   0.00006   0.00006   2.38550
   R15        2.08160   0.00002   0.00000   0.00003   0.00003   2.08163
   R16        1.97301   0.01279   0.00000   0.01739   0.01739   1.99039
   R17        2.07095   0.00023   0.00000   0.00037   0.00037   2.07131
   R18        2.07837  -0.00004   0.00000  -0.00006  -0.00006   2.07830
   R19        2.71337  -0.00028   0.00000  -0.00039  -0.00039   2.71298
   R20        1.83048   0.00004   0.00000   0.00004   0.00004   1.83052
   R21        1.86098  -0.00014   0.00000  -0.00015  -0.00015   1.86082
   R22        1.83551   0.00001   0.00000   0.00001   0.00001   1.83552
   R23        3.59030  -0.00236   0.00000  -0.00972  -0.00975   3.58055
   R24        1.85915  -0.00295   0.00000  -0.00259  -0.00265   1.85651
   R25        3.56641  -0.00425   0.00000  -0.01717  -0.01728   3.54912
   R26        1.87714   0.00074   0.00000   0.00087   0.00087   1.87801
   R27        2.74510   0.01185   0.00000   0.03679   0.03679   2.78190
   R28        1.84221   0.00002   0.00000   0.00002   0.00002   1.84223
   R29        1.83121   0.00000   0.00000   0.00000   0.00000   1.83121
   R30        1.85566  -0.00353   0.00000  -0.00368  -0.00378   1.85188
    A1        1.92701   0.00764   0.00000   0.02895   0.02781   1.95482
    A2        1.79442   0.01662   0.00000   0.04040   0.03879   1.83321
    A3        1.99822  -0.01883   0.00000  -0.05099  -0.05078   1.94744
    A4        1.92269   0.00295   0.00000   0.02531   0.02406   1.94675
    A5        1.90261   0.00234   0.00000  -0.00609  -0.00557   1.89704
    A6        1.91638  -0.00988   0.00000  -0.03365  -0.03307   1.88331
    A7        2.03634   0.04756   0.00000   0.14236   0.14365   2.17999
    A8        1.86492  -0.01005   0.00000  -0.03566  -0.03401   1.83091
    A9        1.93789  -0.00920   0.00000  -0.02194  -0.02256   1.91534
   A10        1.83191  -0.01644   0.00000  -0.05864  -0.05821   1.77370
   A11        1.94679  -0.02351   0.00000  -0.04977  -0.05250   1.89429
   A12        1.82855   0.00799   0.00000   0.00793   0.00548   1.83403
   A13        1.93115   0.05447   0.00000   0.15223   0.15280   2.08394
   A14        1.85008  -0.01800   0.00000  -0.05253  -0.05538   1.79470
   A15        1.91632  -0.02407   0.00000  -0.05407  -0.05437   1.86194
   A16        1.86166  -0.00317   0.00000   0.00131   0.00178   1.86344
   A17        1.97154  -0.01475   0.00000  -0.04351  -0.04275   1.92879
   A18        1.92863   0.00625   0.00000  -0.00192  -0.00433   1.92430
   A19        1.85405  -0.01093   0.00000  -0.03375  -0.03314   1.82091
   A20        2.07849   0.03772   0.00000   0.09422   0.09444   2.17292
   A21        1.87730  -0.01204   0.00000  -0.01943  -0.02066   1.85665
   A22        1.83914  -0.01218   0.00000  -0.03502  -0.03421   1.80493
   A23        1.93724   0.00543   0.00000   0.00064  -0.00020   1.93703
   A24        1.87692  -0.00811   0.00000  -0.00923  -0.01017   1.86675
   A25        2.00266  -0.00747   0.00000  -0.01882  -0.01906   1.98360
   A26        2.01711   0.00158   0.00000  -0.00116  -0.00140   2.01571
   A27        2.09843   0.00189   0.00000  -0.00155  -0.00185   2.09658
   A28        1.93664  -0.00302   0.00000  -0.00812  -0.00812   1.92852
   A29        1.89277  -0.00034   0.00000  -0.00081  -0.00081   1.89197
   A30        1.91273  -0.00019   0.00000   0.00022   0.00022   1.91295
   A31        1.87747   0.00186   0.00000   0.00423   0.00423   1.88170
   A32        1.90259   0.00003   0.00000  -0.00059  -0.00059   1.90200
   A33        1.94022  -0.00099   0.00000  -0.00288  -0.00288   1.93734
   A34        1.93734  -0.00035   0.00000  -0.00010  -0.00011   1.93723
   A35        1.88732   0.00010   0.00000   0.00028   0.00028   1.88760
   A36        1.79980   0.00044   0.00000   0.00119   0.00119   1.80098
   A37        1.88521  -0.00226   0.00000  -0.00343  -0.00371   1.88150
   A38        1.69799   0.00467   0.00000   0.02257   0.02299   1.72098
   A39        1.98544   0.01153   0.00000   0.02551   0.02494   2.01038
   A40        1.83757   0.00174   0.00000   0.01603   0.01633   1.85390
   A41        2.69809   0.00569   0.00000   0.00952   0.00935   2.70743
   A42        1.58727   0.00197   0.00000   0.00537   0.00536   1.59264
   A43        1.86879   0.00002   0.00000   0.00047   0.00046   1.86925
   A44        1.68319  -0.00004   0.00000  -0.00010  -0.00010   1.68309
   A45        2.80842   0.02620   0.00000   0.05198   0.05198   2.86040
   A46        1.96273   0.00207   0.00000   0.00130   0.00138   1.96411
   A47        1.71752  -0.00224   0.00000  -0.01171  -0.01212   1.70540
   A48        1.82700  -0.00444   0.00000  -0.00753  -0.00726   1.81974
   A49        2.71189   0.00007   0.00000  -0.00127  -0.00140   2.71049
    D1        1.01305  -0.00339   0.00000  -0.02953  -0.02868   0.98436
    D2        3.02487   0.00990   0.00000   0.01836   0.01724   3.04211
    D3       -1.17488  -0.00581   0.00000  -0.04284  -0.04104  -1.21592
    D4       -1.03774  -0.01919   0.00000  -0.09360  -0.09388  -1.13163
    D5        0.97408  -0.00590   0.00000  -0.04571  -0.04796   0.92612
    D6        3.05752  -0.02161   0.00000  -0.10691  -0.10624   2.95128
    D7       -3.11528  -0.00831   0.00000  -0.05279  -0.05233   3.11557
    D8       -1.10345   0.00498   0.00000  -0.00489  -0.00641  -1.10986
    D9        0.97998  -0.01073   0.00000  -0.06610  -0.06469   0.91530
   D10       -3.02700   0.02358   0.00000   0.11474   0.11535  -2.91166
   D11        1.20234   0.00455   0.00000   0.04833   0.04792   1.25026
   D12       -0.89324   0.00605   0.00000   0.06124   0.06104  -0.83220
   D13       -0.92156   0.00165   0.00000   0.00109   0.00133  -0.92024
   D14        1.15355   0.00137   0.00000   0.00002   0.00026   1.15381
   D15       -3.02163   0.00196   0.00000   0.00257   0.00281  -3.01882
   D16        1.24633  -0.00013   0.00000  -0.00260  -0.00242   1.24391
   D17       -2.96173  -0.00041   0.00000  -0.00366  -0.00349  -2.96522
   D18       -0.85373   0.00017   0.00000  -0.00111  -0.00094  -0.85467
   D19       -2.92911  -0.00113   0.00000   0.00399   0.00357  -2.92554
   D20       -0.85399  -0.00140   0.00000   0.00292   0.00250  -0.85149
   D21        1.25401  -0.00082   0.00000   0.00547   0.00505   1.25906
   D22       -0.00520   0.00111   0.00000  -0.03666  -0.03657  -0.04176
   D23       -2.00977  -0.00334   0.00000  -0.05210  -0.05390  -2.06366
   D24        2.15121   0.00006   0.00000  -0.02397  -0.02465   2.12656
   D25       -2.04729   0.00083   0.00000  -0.02155  -0.02083  -2.06811
   D26        2.23133  -0.00361   0.00000  -0.03699  -0.03816   2.19317
   D27        0.10912  -0.00022   0.00000  -0.00886  -0.00891   0.10021
   D28        2.25158   0.00155   0.00000  -0.00025   0.00118   2.25277
   D29        0.24702  -0.00290   0.00000  -0.01569  -0.01615   0.23087
   D30       -1.87519   0.00050   0.00000   0.01244   0.01310  -1.86209
   D31        2.84588   0.00515   0.00000   0.03747   0.03763   2.88351
   D32        0.77679   0.00582   0.00000   0.05026   0.05102   0.82781
   D33       -1.36183  -0.00034   0.00000   0.01073   0.01130  -1.35052
   D34       -1.37716   0.00795   0.00000   0.03215   0.03047  -1.34669
   D35        2.83693   0.00862   0.00000   0.04494   0.04386   2.88079
   D36        0.69832   0.00246   0.00000   0.00541   0.00414   0.70246
   D37        0.59335  -0.00237   0.00000  -0.01308  -0.01257   0.58079
   D38       -1.47574  -0.00170   0.00000  -0.00028   0.00083  -1.47492
   D39        2.66883  -0.00786   0.00000  -0.03981  -0.03889   2.62994
   D40       -1.00441  -0.01222   0.00000  -0.03884  -0.03820  -1.04261
   D41        1.05417   0.00176   0.00000  -0.00207  -0.00164   1.05253
   D42        1.29908   0.02504   0.00000   0.09561   0.09474   1.39381
   D43       -2.92553   0.03903   0.00000   0.13238   0.13129  -2.79423
   D44       -3.01149  -0.00051   0.00000   0.00885   0.00860  -3.00289
   D45       -0.95291   0.01348   0.00000   0.04563   0.04516  -0.90775
   D46       -2.99427   0.04386   0.00000   0.13789   0.13772  -2.85655
   D47        1.12434   0.00165   0.00000   0.01162   0.01163   1.13597
   D48       -0.95963   0.01119   0.00000   0.04035   0.03962  -0.92001
   D49       -2.44707  -0.00656   0.00000  -0.04904  -0.04947  -2.49654
   D50        1.27693  -0.00094   0.00000  -0.01472  -0.01526   1.26167
   D51        1.75934  -0.00621   0.00000  -0.03613  -0.03581   1.72352
   D52       -0.79985  -0.00059   0.00000  -0.00181  -0.00160  -0.80145
   D53       -0.30827  -0.00236   0.00000  -0.01459  -0.01431  -0.32257
   D54       -2.86745   0.00326   0.00000   0.01973   0.01990  -2.84755
   D55        2.55234   0.01687   0.00000   0.04982   0.04940   2.60175
   D56       -1.70951  -0.00029   0.00000  -0.00153  -0.00155  -1.71106
   D57        0.29378  -0.01657   0.00000  -0.04822  -0.04779   0.24599
   D58       -1.52361   0.00128   0.00000   0.00903   0.00903  -1.51458
   D59       -3.12605  -0.00012   0.00000  -0.00050  -0.00050  -3.12656
   D60        1.08732  -0.00028   0.00000  -0.00046  -0.00046   1.08687
   D61       -1.03360   0.00061   0.00000   0.00235   0.00235  -1.03126
   D62       -0.14714   0.00163   0.00000   0.01104   0.01029  -0.13685
   D63        1.83183   0.00535   0.00000   0.02761   0.02770   1.85953
   D64       -0.18672   0.00214   0.00000   0.00624   0.00664  -0.18008
   D65       -2.02742  -0.00487   0.00000  -0.02074  -0.02049  -2.04792
   D66       -0.11156  -0.01032   0.00000  -0.03457  -0.03415  -0.14571
   D67       -0.21781   0.00001   0.00000   0.00046   0.00046  -0.21735
   D68       -1.87273  -0.00026   0.00000  -0.00113  -0.00113  -1.87386
   D69        1.65492   0.00027   0.00000   0.00159   0.00159   1.65651
   D70       -0.18462  -0.00339   0.00000  -0.00291  -0.00310  -0.18772
   D71        1.83940  -0.00327   0.00000  -0.00796  -0.00797   1.83143
         Item               Value     Threshold  Converged?
 Maximum Force            0.054472     0.000450     NO 
 RMS     Force            0.011703     0.000300     NO 
 Maximum Displacement     1.928039     0.001800     NO 
 RMS     Displacement     0.395575     0.001200     NO 
 Predicted change in Energy=-5.109044D-02
 GradGradGradGradGradGradGradGradGradGradGradGradGradGradGradGradGradGrad

                          Input orientation:                          
 ---------------------------------------------------------------------
 Center     Atomic      Atomic             Coordinates (Angstroms)
 Number     Number       Type             X           Y           Z
 ---------------------------------------------------------------------
      1          6           0       -0.596590    0.921003    0.119774
      2          6           0        1.468288   -0.817132    0.082742
      3          6           0        0.906954    0.669420   -0.037878
      4          6           0        0.605789   -2.071006    0.407516
      5          1           0        1.254633   -2.925425    0.142546
      6          1           0        2.149735   -0.791724    0.935960
      7          1           0       -0.977217    0.546061    1.075327
      8          1           0        1.104040    1.001526   -1.073023
      9          6           0       -0.729403   -2.411153   -0.276666
     10          8           0       -1.208139    0.243505   -0.996067
     11          6           0       -0.929730    2.395602    0.009109
     12          1           0       -0.296269    2.947238    0.713269
     13          1           0       -0.718767    2.745952   -1.011817
     14          8           0       -2.319312    2.557332    0.331578
     15          1           0       -2.540913    3.496695    0.249030
     16          8           0        0.359335   -2.035456    1.795593
     17          1           0       -0.522843   -2.465082    1.878221
     18          8           0        2.303330   -1.116964   -1.056160
     19          1           0        1.759544   -1.024432   -1.855655
     20          8           0        1.557300    1.518491    0.878833
     21          1           0        2.498291    1.555210    0.598943
     22          8           0       -3.675439    0.653383   -0.981143
     23          1           0       -3.724400   -0.218877   -0.507428
     24          1           0       -2.212636    0.541701   -1.103048
     25          1           0       -3.675361    1.350224   -0.299399
     26          8           0        4.002058    1.028176   -0.395159
     27          1           0        4.714062    0.682123    0.163704
     28          1           0        3.612158    0.230924   -0.810742
     29          8           0       -1.580438   -2.925334    0.501078
     30          1           0       -0.652978   -2.757692   -1.319490
 ---------------------------------------------------------------------
                    Distance matrix (angstroms):
                    1          2          3          4          5
     1  C    0.000000
     2  C    2.699298   0.000000
     3  C    1.532578   1.593576   0.000000
     4  C    3.237381   1.556144   2.792672   0.000000
     5  H    4.268789   2.119935   3.616123   1.105097   0.000000
     6  H    3.337948   1.092244   2.151234   2.073545   2.446098
     7  H    1.094779   2.970525   2.191927   3.130642   4.231129
     8  H    2.078795   2.185403   1.104836   3.446840   4.113542
     9  C    3.358283   2.738599   3.496372   1.538357   2.092036
    10  O    1.441561   3.074418   2.360752   3.258427   4.171787
    11  C    1.515807   4.009685   2.520976   4.739951   5.753484
    12  H    2.132618   4.204963   2.683360   5.107835   6.100754
    13  H    2.150782   4.321671   2.811319   5.193462   6.114849
    14  O    2.385415   5.078863   3.756262   5.475719   6.547476
    15  H    3.229750   5.891557   4.468063   6.397354   7.460639
    16  O    3.530272   2.376542   3.313285   1.410234   2.079944
    17  H    3.816169   3.147076   3.942189   1.895278   2.526640
    18  O    3.734390   1.443708   2.485545   2.436020   2.409812
    19  H    3.638462   1.971088   2.626853   2.747438   2.803840
    20  O    2.360594   2.469173   1.408626   3.743261   4.514656
    21  H    3.195327   2.637304   1.929382   4.094832   4.672373
    22  O    3.280693   5.454557   4.678497   5.261139   6.194849
    23  H    3.387610   5.260249   4.739092   4.797712   5.704265
    24  H    2.061739   4.098992   3.298901   4.129354   5.059093
    25  H    3.136681   5.594694   4.639990   5.525649   6.540745
    26  O    4.628629   3.170732   3.136243   4.667318   4.844423
    27  H    5.316203   3.576222   3.812462   4.951472   4.998250
    28  H    4.365275   2.548119   2.847407   3.977599   4.053297
    29  O    3.988441   3.730182   4.404527   2.349089   2.857652
    30  H    3.950628   3.198718   3.977564   2.244679   2.409287
                    6          7          8          9         10
     6  H    0.000000
     7  H    3.403957   0.000000
     8  H    2.888812   3.025638   0.000000
     9  C    3.518870   3.261044   3.955006   0.000000
    10  O    4.009956   2.106072   2.434479   2.791762   0.000000
    11  C    4.527826   2.135387   2.692708   4.819408   2.391530
    12  H    4.473518   2.521989   2.989565   5.466254   3.326186
    13  H    4.953513   3.043434   2.523766   5.209250   2.549897
    14  O    5.617280   2.529741   4.014072   5.252010   2.889835
    15  H    6.392541   3.440080   4.610788   6.201660   3.729584
    16  O    2.343368   2.994894   4.243442   2.370813   3.929886
    17  H    3.290997   3.149298   4.834662   2.165436   4.008442
    18  O    2.024331   4.250986   2.434457   3.388216   3.766285
    19  H    2.828342   4.306619   2.268635   3.257462   3.339715
    20  O    2.385652   2.721765   2.069405   4.691086   3.576100
    21  H    2.396491   3.650271   2.246324   5.188134   4.242906
    22  O    6.300498   3.394258   4.793022   4.308920   2.501158
    23  H    6.075935   3.261481   5.012296   3.718781   2.604637
    24  H    4.996585   2.504316   3.348534   3.406205   1.053271
    25  H    6.328176   3.133135   4.854149   4.777776   2.792376
    26  O    2.918049   5.214206   2.976360   5.850619   5.303108
    27  H    3.056857   5.765434   3.829330   6.276431   6.050613
    28  H    2.497090   4.971814   2.636906   5.110280   4.823875
    29  O    4.319214   3.569905   5.010434   1.262350   3.524428
    30  H    4.099669   4.093295   4.156871   1.101550   3.069200
                   11         12         13         14         15
    11  C    0.000000
    12  H    1.096091   0.000000
    13  H    1.099791   1.787440   0.000000
    14  O    1.435647   2.095333   2.098102   0.000000
    15  H    1.966183   2.357084   2.339565   0.968671   0.000000
    16  O    4.948484   5.140865   5.648515   5.514725   6.434904
    17  H    5.223541   5.540908   5.962011   5.553741   6.501511
    18  O    4.891380   5.138729   4.904810   6.065896   6.815868
    19  H    4.733516   5.157509   4.590194   5.852357   6.585150
    20  O    2.776880   2.346156   3.203389   4.050531   4.594049
    21  H    3.578476   3.124161   3.789707   4.927985   5.411597
    22  O    3.399242   4.421719   3.622388   2.680921   3.299227
    23  H    3.861670   4.823533   4.251876   3.222660   3.972196
    24  H    2.513900   3.571846   2.664337   2.476349   3.266170
    25  H    2.954062   3.872237   3.346198   1.922007   2.488992
    26  O    5.133792   4.836013   5.061345   6.544172   7.022750
    27  H    5.900194   5.525955   5.929323   7.280998   7.782271
    28  H    5.097719   4.997677   5.012256   6.472975   7.046180
    29  O    5.383105   6.015083   5.932522   5.534826   6.498346
    30  H    5.328997   6.066760   5.512630   5.809663   6.718773
                   16         17         18         19         20
    16  O    0.000000
    17  H    0.984705   0.000000
    18  O    3.571448   4.291302   0.000000
    19  H    4.039105   4.607233   0.971318   0.000000
    20  O    3.860843   4.603762   3.353562   3.739623   0.000000
    21  H    4.347412   5.189080   3.149268   3.636667   0.982421
    22  O    5.587443   5.276328   6.235819   5.754900   5.620451
    23  H    5.027998   4.581127   6.118922   5.704408   5.730316
    24  H    4.653912   4.558959   4.811166   4.335597   4.369713
    25  H    5.668386   5.407121   6.511871   6.131812   5.366310
    26  O    5.239720   6.151897   2.814999   3.372701   2.800054
    27  H    5.386274   6.345836   3.245983   3.964759   3.343062
    28  H    4.744504   5.621139   1.894745   2.469806   2.955492
    29  O    2.496072   1.796347   4.558383   4.508115   5.453043
    30  H    3.354124   3.213707   3.391326   3.018596   5.291851
                   21         22         23         24         25
    21  H    0.000000
    22  O    6.436218   0.000000
    23  H    6.564551   0.993801   0.000000
    24  H    5.110461   1.472116   1.794066   0.000000
    25  H    6.242037   0.974866   1.583591   1.854489   0.000000
    26  O    1.878115   7.708943   7.827253   6.273770   7.684767
    27  H    2.421023   8.467303   8.512923   7.042977   8.428715
    28  H    2.231960   7.301820   7.356589   5.840398   7.390686
    29  O    6.059776   4.403773   3.597022   3.872109   4.828030
    30  H    5.675562   4.570031   4.066775   3.655869   5.200997
                   26         27         28         29         30
    26  O    0.000000
    27  H    0.969036   0.000000
    28  H    0.979970   1.538609   0.000000
    29  O    6.899112   7.262802   6.216582   0.000000
    30  H    6.070959   6.545021   5.232784   2.050062   0.000000
 Stoichiometry    C6H16O8
 Framework group  C1[X(C6H16O8)]
 Deg. of freedom    84
 Full point group                 C1      NOp   1
 Largest Abelian subgroup         C1      NOp   1
 Largest concise Abelian subgroup C1      NOp   1
                         Standard orientation:                         
 ---------------------------------------------------------------------
 Center     Atomic      Atomic             Coordinates (Angstroms)
 Number     Number       Type             X           Y           Z
 ---------------------------------------------------------------------
      1          6           0       -0.821248    0.756228    0.215637
      2          6           0        1.605771   -0.400446   -0.024975
      3          6           0        0.688790    0.902657   -0.001471
      4          6           0        1.096689   -1.851862    0.211270
      5          1           0        1.923931   -2.493019   -0.143452
      6          1           0        2.298476   -0.271586    0.809621
      7          1           0       -1.052456    0.224565    1.144302
[...]
 112969,0.00027269,-0.00014205,0.00005705,-0.00061992,-0.00033826,-0.00
 029242,0.00031848,0.00008389,0.00046102,0.00274990,-0.00204545,0.00094
 825,-0.00247649,0.00223334,0.00155886,0.00010518,0.00012270,0.00026903
 ,0.00007084,0.00016466,-0.00001429,0.00427210,-0.01340898,-0.00045337,
 -0.00629363,-0.00065953,0.00261140,0.04659913,0.04403932,-0.04062345,-
 0.00572780,-0.01006653,0.00008107,-0.00038693,-0.00056418,0.00202046,-
 0.00297843,-0.00627444,0.00025651,0.00021361,-0.00021313,0.00009792,0.
 00004084,0.00007027,0.00006659,0.00003441,0.00006983,-0.00027469,0.001
 15225,0.00070397,0.00004316,-0.00015611,0.00034910,-0.00253877,0.00151
 278,0.00063635,-0.01329828,-0.01861688,-0.04952955,-0.00099279,-0.0006
 7461,0.00034575,0.00009111,0.00018376,-0.00005249,0.00022179,0.0001806
 6,-0.00012934,0.00039189,0.00019931,-0.00052449,0.00036936,0.00026883,
 0.00040609,0.00013028,-0.00010675,0.00013668,-0.00013431,0.00011672,-0
 .00022100,0.00161195,-0.00111592,0.00047988,-0.00194028,0.00238894,0.0
 0071476,-0.00250125,-0.00004291,-0.00031716,-0.00017995,-0.00013620,-0
 .00069345,-0.00722570,-0.00006794,-0.00903056,0.00525588,0.00161395,-0
 .00174275,0.05153975,0.02507437,0.07686537,-0.00173102,-0.00016785,-0.
 00020855,0.00007779,0.00045247,-0.00000219,-0.00047374,0.00009361,-0.0
 0064998,-0.00009723,0.00005750,-0.00015525,0.00001291,-0.00007512,0.00
 001732,0.00004857,-0.00016698,0.00002306,-0.00025692,0.00050478,-0.000
 68317,0.00017684,-0.00004084,0.00007007,0.00056084,0.00068682,-0.00008
 070,0.00070227,-0.00240099,-0.00088121,-0.00356089,-0.00086863,-0.0003
 1054,0.00054982,0.00017812,0.00015630,0.00035408,0.00009525,-0.0001238
 8,-0.00437124,0.00235796,-0.00040004,0.00307532,0.00166942,0.00121102,
 -0.00007088,-0.00032165,0.00011226,0.00009535,0.00019947,-0.00006893,0
 .00035734,-0.00042478,-0.00006306,-0.00046864,0.00045028,0.00024061,0.
 00030471,-0.00013493,0.00033428,-0.00002384,0.00000301,-0.00005681,-0.
 01130344,0.00443045,0.00071893,-0.00093146,0.00270693,0.00242744,-0.00
 372442,0.00726906,0.00614995,0.02151143,0.00045444,0.00340710,0.001470
 57,0.00046910,0.00042782,0.00003108,-0.00016168,-0.00040738,0.00009186
 ,-0.00032043,-0.00019153,0.00012118,-0.00006201,-0.00006815,-0.0000541
 8,-0.00003902,-0.00019481,-0.00000922,-0.00005937,-0.00016758,0.000362
 05,-0.00013423,-0.00001756,-0.00000419,0.00197646,0.00005168,-0.000311
 81,-0.00491863,-0.00305803,-0.00136811,-0.00722110,0.00350450,0.001492
 17,0.00212444,0.00002107,-0.00002054,0.00138958,0.00000573,-0.00010669
 ,0.00643232,-0.00447871,-0.00068552,0.00161675,-0.00036022,0.00015283,
 -0.00023377,-0.00018719,-0.00022209,0.00025458,0.00008205,0.00026846,-
 0.00036448,-0.00023987,-0.00010809,0.00036293,0.00003342,-0.00004883,0
 .00001558,-0.00059097,-0.00020479,-0.00000140,0.00008311,-0.00006981,0
 .00753133,-0.32997354,-0.16245150,0.00102893,-0.02714686,-0.02525549,0
 .00798125,0.00341456,-0.00181570,-0.01644365,0.35527268,-0.00016649,0.
 00052710,0.00239788,0.00006904,0.00014538,0.00014403,-0.00000361,0.000
 07574,-0.00024647,-0.00016434,-0.00010055,0.00017441,0.00000547,-0.000
 03102,-0.00002622,-0.00001390,-0.00006241,-0.00000412,-0.00024557,0.00
 036891,-0.00052059,0.00011762,-0.00001057,0.00000956,0.00043999,-0.000
 00014,0.00000839,-0.00245350,0.00015389,-0.00125044,-0.00162890,0.0011
 7564,-0.00030348,0.00020156,-0.00003206,-0.00011234,0.00091882,0.00020
 477,-0.00006837,-0.00069553,-0.00170944,-0.00399079,0.00186679,0.00097
 157,0.00060998,-0.00002200,-0.00014599,-0.00018601,0.00000943,0.000160
 38,0.00013272,-0.00015692,-0.00001746,-0.00019100,0.00021774,-0.000078
 21,-0.00000388,-0.00003887,-0.00013982,-0.00012579,-0.00000712,0.00001
 053,-0.00003662,0.00685277,-0.22037166,-0.18837937,-0.00148576,0.03277
 280,0.01696349,0.00485280,-0.00276795,-0.00113805,-0.00756681,0.188456
 93,0.17690248,0.00022052,-0.00054194,0.00070398,0.00015429,-0.00061461
 ,-0.00276874,-0.00039117,0.00053130,-0.00213239,-0.00060255,0.00030675
 ,-0.00082397,-0.00001886,-0.00007158,-0.00007377,-0.00136121,0.0000390
 4,-0.00009063,-0.00039914,0.00005369,-0.00004713,-0.00093893,-0.001122
 66,0.00106740,0.00113917,-0.00002517,0.00026757,-0.00111339,0.00032845
 ,-0.00010766,0.00028573,-0.00041843,-0.00003322,-0.00000815,0.00000131
 ,0.00003376,-0.00001384,0.00000540,-0.00003197,-0.00053032,0.00031142,
 0.00000608,0.00002338,-0.00003463,-0.00000617,-0.00040874,-0.00033614,
 0.00087122,0.00005987,-0.00000114,-0.00009820,-0.00935037,-0.00638201,
 0.00023043,0.00069222,-0.00111942,0.00107062,-0.00022786,0.00059616,0.
 00158653,-0.00023876,-0.00026458,-0.00102684,-0.00070238,-0.00001364,-
 0.00006293,0.00029555,-0.00000182,0.00004103,0.00064749,0.00014959,0.0
 0019897,0.00024238,-0.00006287,0.00001487,0.62754184,0.00006366,0.0001
 9035,-0.00053698,0.00096432,-0.00145682,-0.00113054,-0.00028834,-0.002
 10028,0.00045768,-0.00074181,0.00019496,-0.00079600,0.00010968,0.00022
 693,-0.00007531,-0.00079105,-0.00014732,-0.00099144,0.00020037,-0.0000
 0939,0.00006050,0.00048183,0.00046677,-0.00056134,0.00109102,-0.000234
 40,0.00034771,-0.00065586,0.00078951,0.00019018,-0.00022264,-0.0002155
 5,0.00008505,-0.00001592,0.00003741,0.00005187,-0.00001402,0.00005430,
 -0.00009719,0.00002754,0.00022501,-0.00002585,-0.00003779,-0.00000882,
 0.00002302,-0.00046725,0.00000703,0.00069746,0.00007567,-0.00010983,-0
 .00003582,-0.00618795,0.00159717,-0.00063085,-0.00037146,-0.00205418,0
 .00122948,0.00014693,0.00127168,0.00009059,-0.00030757,-0.00089196,0.0
 0038656,-0.00027536,0.00015919,-0.00002143,0.00019269,-0.00011648,0.00
 003399,0.00021494,0.00001094,0.00014539,0.00003442,-0.00013798,-0.0000
 2075,-0.02631563,0.34773158,-0.00027408,-0.00031150,-0.00047483,-0.001
 32890,0.00050700,-0.00441533,-0.00026231,0.00030405,-0.00101931,0.0010
 1875,0.00020105,0.00130711,-0.00003827,0.00003323,-0.00001194,0.001277
 55,-0.00060472,0.00133450,-0.00001046,-0.00000718,0.00008074,0.0006043
 9,-0.00017265,-0.00003330,-0.00054744,0.00028179,-0.00085992,0.0001120
 6,-0.00003140,0.00061667,0.00000730,0.00026387,-0.00015271,-0.00004561
 ,0.00008115,0.00004512,0.00001587,-0.00006922,0.00006781,0.00021352,-0
 .00015191,0.00014677,0.00002124,0.00000316,-0.00006528,-0.00002326,-0.
 00006756,0.00014140,-0.00008631,-0.00001195,0.00006222,-0.00287262,-0.
 00108346,0.00386309,0.00053776,0.00005225,-0.00012376,0.00063301,-0.00
 004067,0.00072066,-0.00086784,0.00061630,0.00086305,0.00013576,-0.0000
 3325,0.00010278,-0.00011496,0.00004150,-0.00005113,-0.00010904,0.00005
 361,-0.00004015,-0.00006461,0.00000475,-0.00004166,0.09026458,0.175064
 93,0.11712338,-0.00002161,-0.00011360,0.00016937,-0.00039360,0.0002509
 4,-0.00012898,0.00017963,0.00056297,-0.00044456,0.00015462,-0.00005194
 ,0.00021711,-0.00003034,-0.00006280,0.00000889,-0.00013208,-0.00008486
 ,0.00038599,-0.00005014,0.00001152,-0.00002327,-0.00048482,-0.00023605
 ,0.00033426,-0.00025201,0.00003644,-0.00006788,0.00013348,-0.00010867,
 -0.00006595,0.00000437,0.00002632,0.00000150,0.00000228,-0.00000167,-0
 .00000829,0.00000192,-0.00000060,0.00000767,0.00003791,-0.00003785,-0.
 00000600,-0.00000179,0.00000490,0.00000167,0.00009099,0.00000147,-0.00
 014848,-0.00001715,0.00001347,0.00002051,-0.00017695,-0.00115591,-0.00
 014586,0.00001642,0.00012888,-0.00005978,0.00001086,-0.00020666,0.0000
 8775,-0.00004843,0.00014306,0.00007388,0.00007824,-0.00002310,0.000001
 06,-0.00004633,0.00002004,-0.00000580,-0.00006261,-0.00000334,-0.00002
 137,-0.00001899,0.00002037,0.00000456,-0.38763735,0.16814421,0.0203280
 6,0.41645986,-0.00003593,0.00003173,-0.00014006,-0.00002042,-0.0000858
 1,-0.00049867,-0.00004338,-0.00016053,0.00054626,0.00003364,0.00014341
 ,0.00017703,-0.00001329,-0.00003237,-0.00000392,-0.00001966,0.00019053
 ,0.00009824,0.00004118,-0.00000671,0.00001647,-0.00023136,0.00008397,-
 0.00015771,-0.00021092,-0.00001161,-0.00006786,0.00011081,-0.00004404,
 0.00005456,-0.00004085,0.00007220,0.00000814,-0.00000193,0.00000592,-0
 .00000318,-0.00000186,-0.00000257,0.00000639,0.00008761,-0.00005702,0.
 00000549,-0.00000051,0.00000762,-0.00000268,0.00006084,-0.00001711,-0.
 00009248,-0.00002271,-0.00000341,0.00002442,-0.00108571,-0.00149000,0.
 00024480,0.00005871,0.00004405,-0.00011191,-0.00000353,-0.00008430,-0.
 00023330,0.00001608,0.00003487,0.00018093,0.00009631,-0.00001484,0.000
 01478,-0.00005065,0.00001232,-0.00000869,-0.00008375,0.00000152,-0.000
 02491,-0.00003439,0.00001606,-0.00000465,0.22259496,-0.14481927,-0.038
 15376,-0.19223345,0.13376673,0.00003183,0.00016145,-0.00017090,0.00045
 776,-0.00008035,0.00032150,0.00010050,-0.00037764,0.00047044,-0.000124
 75,-0.00005351,0.00001180,0.00003277,0.00004564,0.00000644,0.00019477,
 -0.00009012,-0.00017039,0.00009632,-0.00001061,0.00001885,-0.00005367,
 0.00032411,-0.00042393,0.00011884,-0.00000674,0.00011039,-0.00004244,0
 .00005962,-0.00005342,-0.00003692,-0.00000487,0.00003643,0.00000353,-0
 .00000847,-0.00000349,-0.00000097,0.00001049,-0.00001338,0.00000771,0.
 00000991,-0.00002964,-0.00000547,0.00000053,0.00001867,-0.00007072,0.0
 0002335,-0.00005368,0.00002396,-0.00001096,0.00001435,-0.00050775,-0.0
 0069173,-0.00042018,0.00002834,-0.00004950,0.00008934,-0.00001185,0.00
 017290,-0.00020595,-0.00000809,-0.00015875,0.00043576,-0.00000127,0.00
 001907,-0.00001723,0.00001539,-0.00001969,0.00001175,-0.00000092,-0.00
 001230,0.00002350,-0.00000479,-0.00000698,0.00000512,0.04935562,-0.048
 20926,-0.01821713,-0.02853495,0.03754047,0.01624315,-0.00016944,0.0003
 9528,0.00037963,-0.00257351,-0.00130030,0.01050681,-0.00056384,0.00101
 584,0.00105653,0.00020008,-0.00052162,-0.00026451,-0.00000572,-0.00005
 272,0.00010480,0.00012016,0.00014454,-0.00125358,0.00010410,-0.0000339
 1,-0.00009359,-0.00012685,0.00124546,0.00054838,-0.00126276,-0.0001269
 1,0.00025139,0.00141860,-0.00064414,-0.00030802,-0.00012069,0.00029448
 ,-0.00001306,0.00002998,-0.00005738,-0.00006393,0.00001909,-0.00000579
 ,0.00005073,0.00031286,-0.00027677,-0.00002782,-0.00001309,0.00002948,
 0.00000256,0.00077149,0.00049363,-0.00122337,-0.00004897,0.00007213,-0
 .00000524,0.00302392,0.00363653,-0.00273507,-0.00252953,0.00090639,-0.
 00162247,-0.00002966,-0.00130029,-0.00183020,0.00065418,0.00028031,-0.
 00011974,0.00068652,-0.00003534,0.00001709,-0.00028176,0.00003350,-0.0
 0002965,-0.00063664,-0.00019279,-0.00028038,-0.00018640,0.00011238,0.0
 0001527,-0.22648488,-0.13414969,-0.10920047,-0.02801406,-0.02914992,-0
 .02094460,0.25497124,0.00004376,-0.00010130,0.00082403,-0.00186099,0.0
 0095811,0.00546076,0.00087666,0.00219508,-0.00174824,0.00021884,-0.000
 43138,-0.00008962,-0.00009529,-0.00025461,0.00008953,-0.00006281,0.000
 22335,0.00003413,-0.00026138,0.00001786,-0.00008051,0.00073585,-0.0013
 5908,-0.00007133,-0.00082887,0.00005047,0.00008402,0.00076732,-0.00086
 776,-0.00033805,0.00019128,0.00007147,-0.00014392,0.00001275,-0.000053
 38,-0.00002515,0.00001674,-0.00005546,0.00007126,-0.00011026,-0.000116
 71,0.00002335,0.00002036,0.00000149,-0.00002199,0.00054986,0.00012952,
 -0.00074396,-0.00004813,0.00010931,-0.00003141,0.00164355,-0.00611387,
 0.00051250,0.00101831,0.00288868,-0.00210512,-0.00008097,-0.00102554,0
 .00035766,0.00011627,0.00036706,-0.00029223,0.00018820,-0.00013204,-0.
 00000311,-0.00013007,0.00009640,-0.00001635,-0.00013059,-0.00006225,-0
 .00013889,-0.00000077,0.00011509,0.00002620,-0.18774375,-0.20094637,-0
 .13668699,0.02500092,0.01241125,0.01141722,0.15942353,0.19214406,0.000
 17142,0.00018515,0.00071806,0.00518710,0.00263138,0.00075105,0.0001805
 0,-0.00029297,-0.00092397,-0.00055205,-0.00039155,-0.00151312,-0.00002
 174,-0.00007362,0.00002201,-0.00023929,0.00096536,-0.00199616,-0.00014
 071,0.00000652,-0.00007532,0.00044159,-0.00082956,0.00032493,0.0003795
 5,-0.00024106,0.00064317,-0.00018928,0.00010327,-0.00042538,-0.0000143
 0,-0.00027792,0.00004131,0.00002116,-0.00003490,-0.00001605,-0.0000055
 8,0.00005211,-0.00003768,-0.00020453,0.00016119,-0.00007983,-0.0000193
 3,-0.00000135,0.00003329,0.00009093,0.00014385,-0.00003790,0.00004766,
 0.00002575,-0.00008548,-0.00020812,0.00050021,-0.00627260,-0.00137293,
 -0.00117661,0.00069167,-0.00021514,0.00021022,0.00018497,-0.00002909,-
 0.00037479,-0.00034908,-0.00016162,0.00001119,-0.00007916,0.00010424,-
 0.00001881,0.00003676,0.00013604,-0.00001049,0.00005462,0.00007394,-0.
 00000553,0.00002997,-0.13870150,-0.12590510,-0.10133096,0.00805987,0.0
 0059665,0.00202518,0.12767729,0.12396317,0.10787262,-0.00136040,-0.000
 11438,0.00205126,0.00062989,0.00681083,-0.01171209,-0.00245253,0.00190
 563,0.00169345,-0.06748224,-0.00637447,0.01726862,-0.00295247,-0.00104
 590,-0.00341818,-0.00163155,-0.00318427,0.00146861,-0.00039816,-0.0007
 1629,-0.00141461,0.00060802,-0.00104187,0.00003399,-0.58205744,0.01103
 300,0.26281878,0.00454767,-0.00217957,0.00039687,-0.00106732,0.0006136
 9,-0.00035545,0.00018999,0.00005511,0.00001499,0.00016323,0.00028116,-
 0.00009013,0.00194947,0.00033722,0.00026552,0.00015537,0.00007184,-0.0
 0000784,0.00029035,0.00067637,0.00459940,-0.00170627,-0.00033416,0.000
 28079,0.00012382,-0.00148029,0.00353468,-0.00104042,0.00155424,-0.0003
 4224,0.00058421,-0.00157469,-0.00116277,0.00018657,0.00070746,0.000346
 45,-0.00024198,0.00726265,-0.00292817,0.00368011,-0.00516559,0.0009817
 3,-0.00549633,-0.00219881,0.00127500,-0.00097463,-0.00176280,-0.000971
 89,-0.00100838,-0.00097594,0.00060455,0.00022074,0.00017985,-0.0001054
 1,0.00097689,0.00065473,-0.00048729,0.66186800,0.00138724,0.00020698,-
 0.00092417,0.00205707,-0.00260835,0.00383842,0.00051958,-0.00082813,0.
 00051997,-0.00404653,0.02715294,-0.00032186,-0.00458300,-0.00139660,-0
 .00300380,0.00056525,0.00108647,-0.00051489,-0.00094238,-0.00148962,0.
 00155217,-0.00048106,0.00011275,-0.00011289,0.00866376,-0.06539084,-0.
 01578481,-0.00265474,-0.00140476,0.00114021,-0.00029916,-0.00005907,0.
 00074071,-0.00003021,-0.00002230,-0.00005398,0.00008402,-0.00039192,0.
 00000353,-0.00018296,-0.00031382,-0.00014946,-0.00015598,-0.00001582,0
 .00002330,-0.00100207,0.00123352,0.00042536,-0.00035818,-0.00552784,0.
 00071704,-0.00059636,0.00040138,-0.00010169,0.00025051,-0.00097006,-0.
 00006851,-0.00040009,0.00030851,-0.00003690,-0.00001275,-0.00012743,-0
 .00002200,0.00280264,-0.00300152,0.00260967,-0.00308020,-0.00003080,-0
 .00075595,0.00116754,0.00056869,-0.00103055,-0.00007771,0.00079057,0.0
 0037358,-0.00001231,0.00016702,-0.00008157,-0.00002970,0.00000621,0.00
 000877,0.00001679,-0.00011253,0.00005241,-0.00676102,0.03622164,0.0004
 9077,-0.00122044,-0.00449045,-0.00378662,-0.00081160,-0.00148523,0.000
 41161,0.00006462,-0.00078685,0.00351160,-0.00184979,0.00596127,-0.0019
 5751,0.00114301,0.00048301,0.00015161,-0.00014974,0.00043531,-0.000661
 50,-0.00016260,0.00107956,-0.00030130,0.00008236,0.00013326,0.26473089
 ,-0.01777546,-0.25200497,0.00039304,0.00521751,0.00080865,-0.00014364,
 0.00007900,0.00077585,-0.00010246,0.00026008,0.00009271,0.00004549,-0.
 00037558,0.00005127,-0.00008704,0.00011093,0.00030506,0.00001200,-0.00
 002248,-0.00007901,-0.01552756,-0.00056517,0.00792902,0.00408066,0.001
 62371,0.00599498,0.00186408,0.00162481,0.00103953,-0.00089802,-0.00149
 028,0.00006836,0.00011680,-0.00000784,0.00106627,-0.00000123,0.0000500
 8,-0.00008043,-0.00149514,0.00118910,0.00206775,-0.00062790,0.00102870
 ,-0.00436215,0.00153440,-0.00067769,-0.00033288,-0.00020650,0.00032676
 ,-0.00070315,0.00026821,0.00018379,0.00019852,-0.00004653,-0.00002223,
 -0.00004181,-0.00045033,-0.00025376,-0.00010998,-0.29714458,0.01578925
 ,0.25229686,-0.00012468,-0.00015155,-0.00032561,0.00020119,0.00023622,
 -0.00187748,-0.00012969,0.00001407,-0.00010556,0.01011647,-0.00574318,
 -0.02013639,0.00081558,0.00111115,0.00114053,-0.00012658,-0.00014235,0
 .00011668,-0.00011627,-0.00007969,-0.00001313,0.00001625,-0.00011898,0
 .00002836,-0.06384242,-0.00192001,-0.00784693,-0.00004375,0.00090875,-
 0.00021053,0.00002950,-0.00001094,0.00002312,-0.00001723,0.00002542,0.
 00001086,-0.00000405,-0.00000082,0.00000681,-0.00005303,0.00000029,-0.
 00000914,0.00000739,-0.00000301,-0.00000019,-0.00393237,-0.00174876,-0
 .00518696,-0.00216693,0.00004414,-0.00000214,0.00005810,0.00034440,0.0
 0178208,-0.00069972,-0.00122867,0.00027589,0.00001898,-0.00000673,0.00
 025180,0.00001042,0.00004413,-0.00003132,-0.00014285,-0.00028962,-0.00
 032945,0.00005569,0.00000145,0.00057158,0.00033317,0.00037945,0.000209
 58,0.00012409,0.00001500,0.00003447,0.00013383,0.00007100,0.00007179,-
 0.00000310,0.00000424,-0.00001276,-0.00024129,-0.00012506,-0.00000878,
 -0.00630421,0.00819200,0.04582667,0.06602750,-0.00004194,0.00008753,0.
 00053536,0.00248948,-0.00069773,0.00146039,-0.00007489,-0.00036924,0.0
 0005204,0.00355819,0.01473692,-0.00553786,-0.00331958,-0.00014800,-0.0
 0109961,0.00034336,0.00044977,-0.00015604,-0.00006908,-0.00011978,-0.0
 0017208,0.00001977,-0.00011328,-0.00003124,-0.00392850,-0.06470514,-0.
 05200528,-0.00009401,-0.00330489,0.00082607,0.00002320,-0.00006123,-0.
 00009476,0.00001813,-0.00002223,-0.00002379,-0.00000901,0.00004523,-0.
 00000479,-0.00003897,0.00001687,-0.00000427,-0.00000179,0.00000117,-0.
 00000457,-0.00150360,0.00207422,-0.00065560,0.00060071,0.00039299,0.00
 055777,0.00044134,0.00037698,0.00038741,-0.00080961,-0.00131580,0.0002
 1773,-0.00008790,0.00006210,0.00008537,-0.00000092,-0.00003351,-0.0000
 5007,0.00004349,-0.00014145,0.00024204,-0.00035556,0.00057905,-0.00025
 990,-0.00001122,-0.00056594,-0.00010528,-0.00003124,-0.00000508,0.0000
 6926,0.00016426,0.00011880,-0.00000085,-0.00001532,0.00000118,-0.00000
 204,-0.00025269,-0.00014693,0.00002586,0.00276624,0.01543470,-0.003389
 04,0.00017766,0.03737269,-0.00016162,-0.00020418,-0.00168229,-0.000718
 75,0.00049434,-0.00298506,-0.00028668,0.00030870,-0.00000183,0.0046685
 6,-0.00604619,-0.00969238,-0.00047440,0.00075417,0.00028362,-0.0002867
 7,-0.00041373,0.00037302,-0.00008907,0.00016772,0.00023388,-0.00001782
 ,-0.00016710,0.00006368,-0.01113622,-0.05328737,-0.29159324,0.00027755
 ,0.00361747,0.00099963,0.00001822,0.00013480,0.00033406,-0.00006365,0.
 00014237,0.00004383,0.00001322,-0.00009872,0.00001229,0.00002902,-0.00
 001681,0.00007967,0.00001260,-0.00000832,-0.00002141,-0.00299267,-0.00
 035719,-0.00071109,0.00149841,0.00007741,0.00142383,0.00144891,0.00140
 041,0.00137780,-0.00031630,-0.00049525,0.00037215,0.00011348,-0.000152
 43,0.00024024,0.00002565,0.00010169,0.00001382,-0.00028676,-0.00005721
 ,0.00031363,-0.00007824,0.00042711,-0.00037943,0.00067407,-0.00052640,
 0.00001398,-0.00000819,-0.00002960,-0.00004968,0.00002425,-0.00001032,
 0.00016358,0.00000558,0.00001138,-0.00002153,-0.00014446,-0.00007319,-
 0.00009691,0.02250595,-0.00483135,-0.01631030,-0.01425384,0.05913778,0
 .31720246\\-0.00000475,-0.00001834,-0.00002750,0.00000045,0.00001026,-
 0.00000533,0.00001592,-0.00000539,0.00002277,0.00000734,0.00000088,0.0
 0001374,0.00000615,0.00000303,-0.00000183,0.00000075,0.00000199,-0.000
 00543,0.00000038,-0.00000092,0.00001092,-0.00000332,0.00000537,-0.0000
 0798,-0.00000088,0.00000084,0.00000715,0.00000697,-0.00000012,0.000026
 03,0.00002911,0.00000652,0.00000223,-0.00000301,-0.00000192,0.00000048
 ,-0.00001072,-0.00000092,0.00000216,-0.00002731,-0.00000791,0.00001410
 ,-0.00000104,-0.00000107,0.00000094,0.00000604,0.00000047,-0.00000253,
 0.00000735,0.00000391,0.00000545,-0.00000412,0.00000087,-0.00001099,-0
 .00000341,0.00000210,-0.00000901,0.00000718,0.00001036,-0.00003395,0.0
 0000263,-0.00001052,-0.00000058,-0.00002285,-0.00000281,0.00000797,0.0
 0001193,-0.00000128,0.00001415,0.00000024,-0.00000717,0.00000064,-0.00
 000325,-0.00000784,0.00001348,-0.00000940,0.00002775,0.00000370,-0.000
 00538,-0.00000184,-0.00002272,-0.00000643,-0.00001168,-0.00002297,0.00
 000714,0.00000474,0.00000050,-0.00000372,0.00000067,0.00000441\\\@


 The most important thing in communication is to hear what isn't being said.
 -- Peter F. Drucker
 Job cpu time:       0 days  0 hours 36 minutes 43.2 seconds.
 File lengths (MBytes):  RWF=    220 Int=      0 D2E=      0 Chk=      6 Scr=      1
 Normal termination of Gaussian 09 at Sun Jan 15 14:31:43 2017.
