 Entering Gaussian System, Link 0=g09
 Initial command:
 /global/software/gaussian/g09.e01/l1.exe "/scratch/10462955.yak.local/Gau-31117.inp" -scrdir="/scratch/10462955.yak.local/"
 Entering Link 1 = /global/software/gaussian/g09.e01/l1.exe PID=     31118.
  
 Copyright (c) 1988,1990,1992,1993,1995,1998,2003,2009,2015,
            Gaussian, Inc.  All Rights Reserved.
  
 This is part of the Gaussian(R) 09 program.  It is based on
 the Gaussian(R) 03 system (copyright 2003, Gaussian, Inc.),
 the Gaussian(R) 98 system (copyright 1998, Gaussian, Inc.),
 the Gaussian(R) 94 system (copyright 1995, Gaussian, Inc.),
 the Gaussian 92(TM) system (copyright 1992, Gaussian, Inc.),
 the Gaussian 90(TM) system (copyright 1990, Gaussian, Inc.),
 the Gaussian 88(TM) system (copyright 1988, Gaussian, Inc.),
 the Gaussian 86(TM) system (copyright 1986, Carnegie Mellon
 University), and the Gaussian 82(TM) system (copyright 1983,
 Carnegie Mellon University). Gaussian is a federally registered
 trademark of Gaussian, Inc.
  
 This software contains proprietary and confidential information,
 including trade secrets, belonging to Gaussian, Inc.
  
 This software is provided under written license and may be
 used, copied, transmitted, or stored only in accord with that
 written license.
  
 The following legend is applicable only to US Government
 contracts under FAR:
  
                    RESTRICTED RIGHTS LEGEND
  
 Use, reproduction and disclosure by the US Government is
 subject to restrictions as set forth in subparagraphs (a)
 and (c) of the Commercial Computer Software - Restricted
 Rights clause in FAR 52.227-19.
  
 Gaussian, Inc.
 340 Quinnipiac St., Bldg. 40, Wallingford CT 06492
  
  
 ---------------------------------------------------------------
 Warning -- This program may not be used in any manner that
 competes with the business of Gaussian, Inc. or will provide
 assistance to any competitor of Gaussian, Inc.  The licensee
 of this program is prohibited from giving any competitor of
 Gaussian, Inc. access to this program.  By using this program,
 the user acknowledges that Gaussian, Inc. is engaged in the
 business of creating and licensing software in the field of
 computational chemistry and represents and warrants to the
 licensee that it is not a competitor of Gaussian, Inc. and that
 it will not use this program in any manner prohibited above.
 ---------------------------------------------------------------
  

 Cite this work as:
 Gaussian 09, Revision E.01,
 M. J. Frisch, G. W. Trucks, H. B. Schlegel, G. E. Scuseria, 
 M. A. Robb, J. R. Cheeseman, G. Scalmani, V. Barone, B. Mennucci, 
 G. A. Petersson, H. Nakatsuji, M. Caricato, X. Li, H. P. Hratchian, 
 A. F. Izmaylov, J. Bloino, G. Zheng, J. L. Sonnenberg, M. Hada, 
 M. Ehara, K. Toyota, R. Fukuda, J. Hasegawa, M. Ishida, T. Nakajima, 
 Y. Honda, O. Kitao, H. Nakai, T. Vreven, J. A. Montgomery, Jr., 
 J. E. Peralta, F. Ogliaro, M. Bearpark, J. J. Heyd, E. Brothers, 
 K. N. Kudin, V. N. Staroverov, T. Keith, R. Kobayashi, J. Normand, 
 K. Raghavachari, A. Rendell, J. C. Burant, S. S. Iyengar, J. Tomasi, 
 M. Cossi, N. Rega, J. M. Millam, M. Klene, J. E. Knox, J. B. Cross, 
 V. Bakken, C. Adamo, J. Jaramillo, R. Gomperts, R. E. Stratmann, 
 O. Yazyev, A. J. Austin, R. Cammi, C. Pomelli, J. W. Ochterski, 
 R. L. Martin, K. Morokuma, V. G. Zakrzewski, G. A. Voth, 
 P. Salvador, J. J. Dannenberg, S. Dapprich, A. D. Daniels, 
 O. Farkas, J. B. Foresman, J. V. Ortiz, J. Cioslowski, 
 and D. J. Fox, Gaussian, Inc., Wallingford CT, 2013.
 
 ******************************************
 Gaussian 09:  ES64L-G09RevE.01 30-Nov-2015
                15-Jan-2017 
 ******************************************
 %NPROCS=4
 Will use up to    4 processors via shared memory.
 -----------------------------------------
 # opt=(MaxCycle=1000) freq B3LYP/6-31G(d)
 -----------------------------------------
 1/6=1000,14=-1,18=20,19=15,26=3,38=1/1,3;
 2/9=110,12=2,17=6,18=5,40=1/2;
 3/5=1,6=6,7=1,11=2,16=1,25=1,30=1,71=1,74=-5/1,2,3;
 4//1;
 5/5=2,38=5/2;
 6/7=2,8=2,9=2,10=2,28=1/1;
 7//1,2,3,16;
 1/6=1000,14=-1,18=20,19=15,26=3/3(2);
 2/9=110/2;
 99//99;
 2/9=110/2;
 3/5=1,6=6,7=1,11=2,16=1,25=1,30=1,71=1,74=-5/1,2,3;
 4/5=5,16=3,69=1/1;
 5/5=2,38=5/2;
 7//1,2,3,16;
 1/6=1000,14=-1,18=20,19=15,26=3/3(-5);
 2/9=110/2;
 6/7=2,8=2,9=2,10=2,19=2,28=1/1;
 99/9=1/99;
 ----------------------------------------------
 ./boats/6/glo_1w_beta_ts_boat6_B3LYP_631Gd.out
 ----------------------------------------------
 Symbolic Z-matrix:
 Charge =  0 Multiplicity = 1
 C                     0.87589   0.77126  -0.55851 
 C                    -1.4263   -0.3812   -0.55451 
 C                    -0.57374   0.8207   -0.05439 
 C                    -0.58655  -1.58598  -1.03249 
 H                    -1.24313  -2.46954  -1.0215 
 H                    -2.04252  -0.02248  -1.38721 
 H                     0.90279   0.76896  -1.64859 
 H                    -0.54096   0.7432    1.04421 
 C                     0.48738  -1.86689   0.00408 
 H                     1.28088  -2.55358  -0.32603 
 O                     1.50441  -0.47029  -0.15901 
 C                     1.70261   1.93107  -0.03397 
 H                     1.23017   2.85567  -0.38677 
 H                     1.66677   1.93892   1.07021 
 O                     3.03156   1.77734  -0.50855 
 H                     3.52431   2.57671  -0.27025 
 O                     0.05115  -1.9307    1.20983 
 O                    -0.00314  -1.40164  -2.31185 
 H                    -0.72127  -1.3756   -2.9629 
 O                    -2.32665  -0.8252    0.47016 
 H                    -1.72616  -1.2846    1.10482 
 O                    -1.11983   2.06149  -0.45209 
 H                    -1.97099   2.15089   0.03909 
 O                     2.05257  -0.86193   2.22314 
 H                     1.24261  -1.45253   2.11767 
 H                     1.80605  -0.17992   2.86595 
 H                     1.89548  -0.4228    0.79247 
 O                    -3.41531   1.65172   1.03869 
 H                    -4.2419    1.72745   0.53883 
 H                    -3.19232   0.69157   1.0089 
 
 Add virtual bond connecting atoms O17        and H25        Dist= 2.97D+00.
 Add virtual bond connecting atoms H27        and O24        Dist= 2.84D+00.
 Add virtual bond connecting atoms O28        and H23        Dist= 3.45D+00.
 Add virtual bond connecting atoms H30        and O20        Dist= 3.45D+00.

 GradGradGradGradGradGradGradGradGradGradGradGradGradGradGradGradGradGrad
 Berny optimization.
 Initialization pass.
                           ----------------------------
                           !    Initial Parameters    !
                           ! (Angstroms and Degrees)  !
 --------------------------                            --------------------------
 ! Name  Definition              Value          Derivative Info.                !
 --------------------------------------------------------------------------------
 ! R1    R(1,3)                  1.5356         estimate D2E/DX2                !
 ! R2    R(1,7)                  1.0904         estimate D2E/DX2                !
 ! R3    R(1,11)                 1.4478         estimate D2E/DX2                !
 ! R4    R(1,12)                 1.5178         estimate D2E/DX2                !
 ! R5    R(2,3)                  1.5561         estimate D2E/DX2                !
 ! R6    R(2,4)                  1.5444         estimate D2E/DX2                !
 ! R7    R(2,6)                  1.0963         estimate D2E/DX2                !
 ! R8    R(2,20)                 1.4345         estimate D2E/DX2                !
 ! R9    R(3,8)                  1.1018         estimate D2E/DX2                !
 ! R10   R(3,22)                 1.4128         estimate D2E/DX2                !
 ! R11   R(4,5)                  1.1009         estimate D2E/DX2                !
 ! R12   R(4,9)                  1.5188         estimate D2E/DX2                !
 ! R13   R(4,18)                 1.4181         estimate D2E/DX2                !
 ! R14   R(9,10)                 1.1001         estimate D2E/DX2                !
 ! R15   R(9,17)                 1.2838         estimate D2E/DX2                !
 ! R16   R(11,27)                1.0298         estimate D2E/DX2                !
 ! R17   R(12,13)                1.0966         estimate D2E/DX2                !
 ! R18   R(12,14)                1.1048         estimate D2E/DX2                !
 ! R19   R(12,15)                1.4195         estimate D2E/DX2                !
 ! R20   R(15,16)                0.9688         estimate D2E/DX2                !
 ! R21   R(17,25)                1.5724         estimate D2E/DX2                !
 ! R22   R(18,19)                0.9697         estimate D2E/DX2                !
 ! R23   R(20,21)                0.9871         estimate D2E/DX2                !
 ! R24   R(20,30)                1.8276         estimate D2E/DX2                !
 ! R25   R(22,23)                0.9868         estimate D2E/DX2                !
 ! R26   R(23,28)                1.826          estimate D2E/DX2                !
 ! R27   R(24,25)                1.008          estimate D2E/DX2                !
 ! R28   R(24,26)                0.9691         estimate D2E/DX2                !
 ! R29   R(24,27)                1.5048         estimate D2E/DX2                !
 ! R30   R(28,29)                0.9689         estimate D2E/DX2                !
 ! R31   R(28,30)                0.9862         estimate D2E/DX2                !
 ! A1    A(3,1,7)              110.5821         estimate D2E/DX2                !
 ! A2    A(3,1,11)             110.2946         estimate D2E/DX2                !
 ! A3    A(3,1,12)             112.0944         estimate D2E/DX2                !
 ! A4    A(7,1,11)             105.2681         estimate D2E/DX2                !
 ! A5    A(7,1,12)             109.4909         estimate D2E/DX2                !
 ! A6    A(11,1,12)            108.8724         estimate D2E/DX2                !
 ! A7    A(3,2,4)              113.834          estimate D2E/DX2                !
 ! A8    A(3,2,6)              107.4185         estimate D2E/DX2                !
 ! A9    A(3,2,20)             110.6932         estimate D2E/DX2                !
 ! A10   A(4,2,6)              109.0154         estimate D2E/DX2                !
 ! A11   A(4,2,20)             108.7174         estimate D2E/DX2                !
 ! A12   A(6,2,20)             106.9211         estimate D2E/DX2                !
 ! A13   A(1,3,2)              112.7574         estimate D2E/DX2                !
 ! A14   A(1,3,8)              107.2765         estimate D2E/DX2                !
 ! A15   A(1,3,22)             107.5034         estimate D2E/DX2                !
 ! A16   A(2,3,8)              106.4048         estimate D2E/DX2                !
 ! A17   A(2,3,22)             112.092          estimate D2E/DX2                !
 ! A18   A(8,3,22)             110.7294         estimate D2E/DX2                !
 ! A19   A(2,4,5)              107.381          estimate D2E/DX2                !
 ! A20   A(2,4,9)              108.5139         estimate D2E/DX2                !
 ! A21   A(2,4,18)             113.6717         estimate D2E/DX2                !
 ! A22   A(5,4,9)              105.4542         estimate D2E/DX2                !
 ! A23   A(5,4,18)             111.0203         estimate D2E/DX2                !
 ! A24   A(9,4,18)             110.4175         estimate D2E/DX2                !
 ! A25   A(4,9,10)             114.8782         estimate D2E/DX2                !
 ! A26   A(4,9,17)             114.2            estimate D2E/DX2                !
 ! A27   A(10,9,17)            119.7292         estimate D2E/DX2                !
 ! A28   A(1,11,27)            112.35           estimate D2E/DX2                !
 ! A29   A(1,12,13)            107.3635         estimate D2E/DX2                !
 ! A30   A(1,12,14)            109.4605         estimate D2E/DX2                !
 ! A31   A(1,12,15)            108.158          estimate D2E/DX2                !
 ! A32   A(13,12,14)           107.5522         estimate D2E/DX2                !
 ! A33   A(13,12,15)           112.7735         estimate D2E/DX2                !
 ! A34   A(14,12,15)           111.4252         estimate D2E/DX2                !
 ! A35   A(12,15,16)           107.7328         estimate D2E/DX2                !
 ! A36   A(9,17,25)            105.6444         estimate D2E/DX2                !
 ! A37   A(4,18,19)            107.7298         estimate D2E/DX2                !
 ! A38   A(2,20,21)            102.7968         estimate D2E/DX2                !
 ! A39   A(2,20,30)            104.5355         estimate D2E/DX2                !
 ! A40   A(21,20,30)           119.0023         estimate D2E/DX2                !
 ! A41   A(3,22,23)            105.8346         estimate D2E/DX2                !
 ! A42   A(22,23,28)           158.4301         estimate D2E/DX2                !
 ! A43   A(25,24,26)           106.1027         estimate D2E/DX2                !
 ! A44   A(25,24,27)            89.2906         estimate D2E/DX2                !
 ! A45   A(26,24,27)           113.4983         estimate D2E/DX2                !
 ! A46   A(17,25,24)           147.9407         estimate D2E/DX2                !
 ! A47   A(11,27,24)           154.7732         estimate D2E/DX2                !
 ! A48   A(23,28,29)           111.7765         estimate D2E/DX2                !
 ! A49   A(23,28,30)            94.0579         estimate D2E/DX2                !
 ! A50   A(29,28,30)           104.6796         estimate D2E/DX2                !
 ! A51   A(20,30,28)           157.5236         estimate D2E/DX2                !
 ! D1    D(7,1,3,2)             58.9408         estimate D2E/DX2                !
 ! D2    D(7,1,3,8)            175.7616         estimate D2E/DX2                !
 ! D3    D(7,1,3,22)           -65.1106         estimate D2E/DX2                !
 ! D4    D(11,1,3,2)           -57.085          estimate D2E/DX2                !
 ! D5    D(11,1,3,8)            59.7358         estimate D2E/DX2                !
 ! D6    D(11,1,3,22)          178.8635         estimate D2E/DX2                !
 ! D7    D(12,1,3,2)          -178.5732         estimate D2E/DX2                !
 ! D8    D(12,1,3,8)           -61.7524         estimate D2E/DX2                !
 ! D9    D(12,1,3,22)           57.3753         estimate D2E/DX2                !
 ! D10   D(3,1,11,27)          -84.8275         estimate D2E/DX2                !
 ! D11   D(7,1,11,27)          155.8664         estimate D2E/DX2                !
 ! D12   D(12,1,11,27)          38.555          estimate D2E/DX2                !
 ! D13   D(3,1,12,13)          -60.1262         estimate D2E/DX2                !
 ! D14   D(3,1,12,14)           56.3357         estimate D2E/DX2                !
 ! D15   D(3,1,12,15)          177.9104         estimate D2E/DX2                !
 ! D16   D(7,1,12,13)           62.9774         estimate D2E/DX2                !
 ! D17   D(7,1,12,14)          179.4393         estimate D2E/DX2                !
 ! D18   D(7,1,12,15)          -58.986          estimate D2E/DX2                !
 ! D19   D(11,1,12,13)         177.5726         estimate D2E/DX2                !
 ! D20   D(11,1,12,14)         -65.9656         estimate D2E/DX2                !
 ! D21   D(11,1,12,15)          55.6092         estimate D2E/DX2                !
 ! D22   D(4,2,3,1)             19.2513         estimate D2E/DX2                !
 ! D23   D(4,2,3,8)            -98.0856         estimate D2E/DX2                !
 ! D24   D(4,2,3,22)           140.7356         estimate D2E/DX2                !
 ! D25   D(6,2,3,1)           -101.5401         estimate D2E/DX2                !
 ! D26   D(6,2,3,8)            141.123          estimate D2E/DX2                !
 ! D27   D(6,2,3,22)            19.9442         estimate D2E/DX2                !
 ! D28   D(20,2,3,1)           142.063          estimate D2E/DX2                !
 ! D29   D(20,2,3,8)            24.7261         estimate D2E/DX2                !
 ! D30   D(20,2,3,22)          -96.4527         estimate D2E/DX2                !
 ! D31   D(3,2,4,5)            160.4741         estimate D2E/DX2                !
 ! D32   D(3,2,4,9)             46.9412         estimate D2E/DX2                !
 ! D33   D(3,2,4,18)           -76.3226         estimate D2E/DX2                !
 ! D34   D(6,2,4,5)            -79.6324         estimate D2E/DX2                !
 ! D35   D(6,2,4,9)            166.8347         estimate D2E/DX2                !
 ! D36   D(6,2,4,18)            43.5709         estimate D2E/DX2                !
 ! D37   D(20,2,4,5)            36.587          estimate D2E/DX2                !
 ! D38   D(20,2,4,9)           -76.9458         estimate D2E/DX2                !
 ! D39   D(20,2,4,18)          159.7903         estimate D2E/DX2                !
 ! D40   D(3,2,20,21)          -73.5239         estimate D2E/DX2                !
 ! D41   D(3,2,20,30)           51.4028         estimate D2E/DX2                !
 ! D42   D(4,2,20,21)           52.2127         estimate D2E/DX2                !
 ! D43   D(4,2,20,30)          177.1394         estimate D2E/DX2                !
 ! D44   D(6,2,20,21)          169.7716         estimate D2E/DX2                !
 ! D45   D(6,2,20,30)          -65.3017         estimate D2E/DX2                !
 ! D46   D(1,3,22,23)         -168.3321         estimate D2E/DX2                !
 ! D47   D(2,3,22,23)           67.2132         estimate D2E/DX2                !
 ! D48   D(8,3,22,23)          -51.4402         estimate D2E/DX2                !
 ! D49   D(2,4,9,10)          -167.0747         estimate D2E/DX2                !
 ! D50   D(2,4,9,17)            49.0538         estimate D2E/DX2                !
 ! D51   D(5,4,9,10)            78.1271         estimate D2E/DX2                !
 ! D52   D(5,4,9,17)           -65.7444         estimate D2E/DX2                !
 ! D53   D(18,4,9,10)          -41.8739         estimate D2E/DX2                !
 ! D54   D(18,4,9,17)          174.2546         estimate D2E/DX2                !
 ! D55   D(2,4,18,19)          -67.196          estimate D2E/DX2                !
 ! D56   D(5,4,18,19)           53.994          estimate D2E/DX2                !
 ! D57   D(9,4,18,19)          170.5866         estimate D2E/DX2                !
 ! D58   D(4,9,17,25)         -150.3149         estimate D2E/DX2                !
 ! D59   D(10,9,17,25)          67.7067         estimate D2E/DX2                !
 ! D60   D(1,11,27,24)         122.8686         estimate D2E/DX2                !
 ! D61   D(1,12,15,16)         172.6466         estimate D2E/DX2                !
 ! D62   D(13,12,15,16)         54.0711         estimate D2E/DX2                !
 ! D63   D(14,12,15,16)        -66.9992         estimate D2E/DX2                !
 ! D64   D(9,17,25,24)          32.2173         estimate D2E/DX2                !
 ! D65   D(2,20,30,28)          -2.2868         estimate D2E/DX2                !
 ! D66   D(21,20,30,28)        111.6269         estimate D2E/DX2                !
 ! D67   D(3,22,23,28)         -14.6405         estimate D2E/DX2                !
 ! D68   D(22,23,28,29)       -114.4179         estimate D2E/DX2                !
 ! D69   D(22,23,28,30)         -6.8453         estimate D2E/DX2                !
 ! D70   D(26,24,25,17)        109.3743         estimate D2E/DX2                !
 ! D71   D(27,24,25,17)         -4.9223         estimate D2E/DX2                !
 ! D72   D(25,24,27,11)        -11.472          estimate D2E/DX2                !
 ! D73   D(26,24,27,11)       -118.7543         estimate D2E/DX2                !
 ! D74   D(23,28,30,20)        -10.8472         estimate D2E/DX2                !
 ! D75   D(29,28,30,20)        102.9221         estimate D2E/DX2                !
 --------------------------------------------------------------------------------
 Trust Radius=3.00D-01 FncErr=1.00D-07 GrdErr=1.00D-06
 Number of steps in this run=    180 maximum allowed number of steps=    180.
 GradGradGradGradGradGradGradGradGradGradGradGradGradGradGradGradGradGrad

                          Input orientation:                          
 ---------------------------------------------------------------------
 Center     Atomic      Atomic             Coordinates (Angstroms)
 Number     Number       Type             X           Y           Z
 ---------------------------------------------------------------------
      1          6           0        0.875890    0.771260   -0.558510
      2          6           0       -1.426300   -0.381200   -0.554510
      3          6           0       -0.573740    0.820700   -0.054390
      4          6           0       -0.586550   -1.585980   -1.032490
      5          1           0       -1.243130   -2.469540   -1.021500
      6          1           0       -2.042520   -0.022480   -1.387210
      7          1           0        0.902790    0.768960   -1.648590
      8          1           0       -0.540960    0.743200    1.044210
      9          6           0        0.487380   -1.866890    0.004080
     10          1           0        1.280880   -2.553580   -0.326030
     11          8           0        1.504410   -0.470290   -0.159010
     12          6           0        1.702610    1.931070   -0.033970
     13          1           0        1.230170    2.855670   -0.386770
     14          1           0        1.666770    1.938920    1.070210
     15          8           0        3.031560    1.777340   -0.508550
     16          1           0        3.524310    2.576710   -0.270250
     17          8           0        0.051150   -1.930700    1.209830
     18          8           0       -0.003140   -1.401640   -2.311850
     19          1           0       -0.721270   -1.375600   -2.962900
     20          8           0       -2.326650   -0.825200    0.470160
     21          1           0       -1.726160   -1.284600    1.104820
     22          8           0       -1.119830    2.061490   -0.452090
     23          1           0       -1.970990    2.150890    0.039090
     24          8           0        2.052570   -0.861930    2.223140
     25          1           0        1.242610   -1.452530    2.117670
     26          1           0        1.806050   -0.179920    2.865950
     27          1           0        1.895480   -0.422800    0.792470
     28          8           0       -3.415310    1.651720    1.038690
     29          1           0       -4.241900    1.727450    0.538830
     30          1           0       -3.192320    0.691570    1.008900
 ---------------------------------------------------------------------
                    Distance matrix (angstroms):
                    1          2          3          4          5
     1  C    0.000000
     2  C    2.574541   0.000000
     3  C    1.535581   1.556131   0.000000
     4  C    2.814244   1.544390   2.597875   0.000000
     5  H    3.899665   2.147742   3.494147   1.100862   0.000000
     6  H    3.135902   1.096265   2.155151   2.165689   2.600167
     7  H    1.090414   2.818606   2.173544   2.853674   3.935238
     8  H    2.139384   2.145695   1.101818   3.120872   3.883542
     9  C    2.725304   2.486256   2.890075   1.518787   2.099921
    10  H    3.357473   3.478543   3.859944   2.218700   2.619421
    11  O    1.447786   2.958618   2.448736   2.525836   3.505690
    12  C    1.517817   3.925256   2.532806   4.313576   5.386833
    13  H    2.121267   4.190739   2.739648   4.842074   5.905756
    14  H    2.154449   4.194014   2.745000   4.682277   5.681310
    15  O    2.379413   4.953173   3.757607   4.967611   6.047486
    16  H    3.218209   5.773957   4.463651   5.899845   6.982657
    17  O    3.332838   2.774293   3.091754   2.356585   2.635212
    18  O    2.927181   2.480912   3.218774   1.418136   2.083984
    19  H    3.597363   2.699304   3.647592   1.946508   2.288684
    20  O    3.723320   1.434474   2.461063   2.421712   2.470409
    21  H    3.709972   1.912962   2.665357   2.440827   2.481660
    22  O    2.378848   2.463970   1.412777   3.731660   4.568333
    23  H    3.219508   2.657165   1.931438   4.126640   4.796145
    24  O    3.433579   4.477608   3.862110   4.253038   4.896298
    25  H    3.498809   3.925732   3.631053   3.645153   4.131295
    26  H    3.673808   4.710430   3.897823   4.785329   5.445377
    27  H    2.071350   3.584733   2.891455   3.293014   4.162992
    28  O    4.662688   3.259940   3.155937   4.772250   5.093872
    29  H    5.320736   3.683667   3.824853   5.177784   5.389061
    30  H    4.360442   2.591122   2.829173   4.018027   4.232550
                    6          7          8          9         10
     6  H    0.000000
     7  H    3.060972   0.000000
     8  H    2.958505   3.055528   0.000000
     9  C    3.426066   3.138724   2.991977   0.000000
    10  H    4.310169   3.596024   4.008169   1.100072   0.000000
    11  O    3.780175   2.028925   2.665302   1.735350   2.101894
    12  C    4.435495   2.144110   2.758100   3.987823   4.513894
    13  H    4.471591   2.460432   3.105984   4.796569   5.409829
    14  H    4.862596   3.056852   2.510875   4.124534   4.720270
    15  O    5.455060   2.616903   4.030311   4.473930   4.674940
    16  H    6.244436   3.469892   4.649299   5.389228   5.599640
    17  O    3.843094   4.022937   2.743677   1.283823   2.063754
    18  O    2.629850   2.443794   4.019046   2.412592   2.630429
    19  H    2.461592   2.994014   4.536381   3.241168   3.514161
    20  O    2.043260   4.178484   2.445015   3.036629   4.078663
    21  H    2.811271   4.325477   2.349542   2.539774   3.563696
    22  O    2.463481   2.682021   2.076510   4.268886   5.203669
    23  H    2.600574   3.607853   2.244291   4.710347   5.730620
    24  O    5.523501   4.355696   3.269972   2.895512   3.155226
    25  H    5.012116   4.385796   3.025668   2.282396   2.680568
    26  H    5.738088   4.700779   3.111164   3.574221   4.012331
    27  H    4.518750   2.892144   2.712779   2.165572   2.483747
    28  O    3.251536   5.162047   3.014519   5.355560   6.449900
    29  H    3.407221   5.671979   3.862786   5.964170   7.041044
    30  H    2.751954   4.882435   2.652098   4.592992   5.685293
                   11         12         13         14         15
    11  O    0.000000
    12  C    2.412768   0.000000
    13  H    3.345010   1.096610   0.000000
    14  H    2.709545   1.104789   1.775906   0.000000
    15  O    2.739746   1.419495   2.103005   2.093142   0.000000
    16  H    3.657401   1.947118   2.313974   2.377828   0.968804
    17  O    2.473557   4.380368   5.181559   4.195674   5.058185
    18  O    2.788340   4.382382   4.832357   5.038479   4.750496
    19  H    3.692565   5.038640   5.324304   5.740623   5.481660
    20  O    3.898569   4.907760   5.189807   4.893651   6.036680
    21  H    3.563278   4.836718   5.301562   4.680198   5.883395
    22  O    3.658202   2.856222   2.481429   3.177666   4.161486
    23  H    4.357549   3.680896   3.305374   3.787009   5.046281
    24  O    2.475581   3.608028   4.616115   3.053334   3.922537
    25  H    2.493312   4.036075   4.983268   3.574775   4.530942
    26  H    3.053798   3.588386   4.486271   2.780929   4.089009
    27  H    1.029808   2.502180   3.547057   2.388968   2.797132
    28  O    5.490087   5.236577   5.006188   5.090286   6.631128
    29  H    6.191698   5.975513   5.663318   5.936284   7.348654
    30  H    4.977269   5.155994   5.117582   5.017011   6.497556
                   16         17         18         19         20
    16  H    0.000000
    17  O    5.879645   0.000000
    18  O    5.695463   3.561612   0.000000
    19  H    6.395003   4.279772   0.969667   0.000000
    20  O    6.808446   2.724550   3.670226   3.829633   0.000000
    21  H    6.660928   1.894018   3.828333   4.190994   0.987132
    22  O    4.676169   4.480039   4.086438   4.275115   3.261892
    23  H    5.520447   4.703090   4.692528   4.796861   3.028106
    24  O    4.495248   2.484904   5.008330   5.903648   4.717187
    25  H    5.209903   1.572386   4.601644   5.447470   3.980885
    26  H    4.515216   2.981214   5.619198   6.464711   4.820312
    27  H    3.574846   2.418575   3.768247   4.675255   4.253492
    28  O    7.122307   4.987922   5.673802   5.695195   2.764695
    29  H    7.854290   5.680016   5.990381   5.855414   3.192009
    30  H    7.092468   4.175736   5.057645   5.114145   1.827626
                   21         22         23         24         25
    21  H    0.000000
    22  O    3.740043   0.000000
    23  H    3.605317   0.986774   0.000000
    24  O    3.963343   5.076156   5.480529   0.000000
    25  H    3.141283   4.953093   5.256649   1.007952   0.000000
    26  H    4.098586   4.959242   5.262114   0.969079   1.580166
    27  H    3.735845   4.100332   4.705428   1.504769   1.800760
    28  O    3.388152   2.767592   1.826042   6.133439   5.700595
    29  H    3.965065   3.292541   2.363488   7.011572   6.533365
    30  H    2.462534   2.882080   2.135835   5.603268   5.049271
                   26         27         28         29         30
    26  H    0.000000
    27  H    2.089571   0.000000
    28  O    5.827211   5.706904   0.000000
    29  H    6.755090   6.508098   0.968941   0.000000
    30  H    5.402947   5.212904   0.986154   1.547783   0.000000
 Stoichiometry    C6H16O8
 Framework group  C1[X(C6H16O8)]
 Deg. of freedom    84
 Full point group                 C1      NOp   1
 Largest Abelian subgroup         C1      NOp   1
 Largest concise Abelian subgroup C1      NOp   1
                         Standard orientation:                         
 ---------------------------------------------------------------------
 Center     Atomic      Atomic             Coordinates (Angstroms)
 Number     Number       Type             X           Y           Z
 ---------------------------------------------------------------------
      1          6           0        0.889142    0.748672   -0.572075
      2          6           0       -1.423022   -0.383590   -0.560159
      3          6           0       -0.557832    0.809929   -0.061660
      4          6           0       -0.595912   -1.594846   -1.043779
      5          1           0       -1.260157   -2.472641   -1.031473
      6          1           0       -2.039627   -0.018044   -1.389599
      7          1           0        0.911362    0.748027   -1.662262
      8          1           0       -0.521039    0.730239    1.036656
      9          6           0        0.479934   -1.886947   -0.012302
     10          1           0        1.265968   -2.579985   -0.346976
     11          8           0        1.508458   -0.499025   -0.177381
     12          6           0        1.728228    1.900287   -0.049117
     13          1           0        1.262406    2.829599   -0.398318
     14          1           0        1.697176    1.906535    1.055218
     15          8           0        3.053740    1.735749   -0.529651
     16          1           0        3.554490    2.530360   -0.292110
     17          8           0        0.048317   -1.949026    1.195198
     18          8           0       -0.016381   -1.413403   -2.325314
     19          1           0       -0.737031   -1.379947   -2.973234
     20          8           0       -2.322842   -0.821466    0.467607
     21          1           0       -1.723695   -1.287207    1.098906
     22          8           0       -1.094722    2.056141   -0.454909
     23          1           0       -1.942959    2.152139    0.040068
     24          8           0        2.063338   -0.899581    2.201729
     25          1           0        1.247790   -1.482883    2.098731
     26          1           0        1.825554   -0.216555    2.846746
     27          1           0        1.903991   -0.456612    0.772493
     28          8           0       -3.387314    1.663902    1.045003
     29          1           0       -4.215337    1.747734    0.548821
     30          1           0       -3.172876    0.701889    1.012628
 ---------------------------------------------------------------------
 Rotational constants (GHZ):      0.6925058      0.5249296      0.4383823
 Standard basis: 6-31G(d) (6D, 7F)
 There are   242 symmetry adapted cartesian basis functions of A   symmetry.
 There are   242 symmetry adapted basis functions of A   symmetry.
   242 basis functions,   456 primitive gaussians,   242 cartesian basis functions
    58 alpha electrons       58 beta electrons
       nuclear repulsion energy      1126.6088857769 Hartrees.
 NAtoms=   30 NActive=   30 NUniq=   30 SFac= 1.00D+00 NAtFMM=   60 NAOKFM=F Big=F
 Integral buffers will be    131072 words long.
 Raffenetti 2 integral format.
 Two-electron integral symmetry is turned on.
 One-electron integrals computed using PRISM.
 NBasis=   242 RedAO= T EigKep=  1.33D-03  NBF=   242
 NBsUse=   242 1.00D-06 EigRej= -1.00D+00 NBFU=   242
 ExpMin= 1.61D-01 ExpMax= 5.48D+03 ExpMxC= 8.25D+02 IAcc=1 IRadAn=         1 AccDes= 0.00D+00
 Harris functional with IExCor=  402 and IRadAn=       1 diagonalized for initial guess.
 HarFok:  IExCor=  402 AccDes= 0.00D+00 IRadAn=         1 IDoV= 1 UseB2=F ITyADJ=14
 ICtDFT=  3500011 ScaDFX=  1.000000  1.000000  1.000000  1.000000
 FoFCou: FMM=F IPFlag=           0 FMFlag=      100000 FMFlg1=           0
         NFxFlg=           0 DoJE=T BraDBF=F KetDBF=T FulRan=T
         wScrn=  0.000000 ICntrl=     500 IOpCl=  0 I1Cent=   200000004 NGrid=           0
         NMat0=    1 NMatS0=      1 NMatT0=    0 NMatD0=    1 NMtDS0=    0 NMtDT0=    0
 Petite list used in FoFCou.
 Requested convergence on RMS density matrix=1.00D-08 within 128 cycles.
 Requested convergence on MAX density matrix=1.00D-06.
 Requested convergence on             energy=1.00D-06.
 No special actions if energy rises.
 Integral accuracy reduced to 1.0D-05 until final iterations.
 Initial convergence to 1.0D-05 achieved.  Increase integral accuracy.
 SCF Done:  E(RB3LYP) =  -839.964567836     A.U. after   14 cycles
            NFock= 14  Conv=0.67D-08     -V/T= 2.0084

 **********************************************************************

            Population analysis using the SCF density.

 **********************************************************************

 Orbital symmetries:
       Occupied  (A) (A) (A) (A) (A) (A) (A) (A) (A) (A) (A) (A)
                 (A) (A) (A) (A) (A) (A) (A) (A) (A) (A) (A) (A)
                 (A) (A) (A) (A) (A) (A) (A) (A) (A) (A) (A) (A)
                 (A) (A) (A) (A) (A) (A) (A) (A) (A) (A) (A) (A)
                 (A) (A) (A) (A) (A) (A) (A) (A) (A) (A)
       Virtual   (A) (A) (A) (A) (A) (A) (A) (A) (A) (A) (A) (A)
                 (A) (A) (A) (A) (A) (A) (A) (A) (A) (A) (A) (A)
                 (A) (A) (A) (A) (A) (A) (A) (A) (A) (A) (A) (A)
                 (A) (A) (A) (A) (A) (A) (A) (A) (A) (A) (A) (A)
                 (A) (A) (A) (A) (A) (A) (A) (A) (A) (A) (A) (A)
                 (A) (A) (A) (A) (A) (A) (A) (A) (A) (A) (A) (A)
                 (A) (A) (A) (A) (A) (A) (A) (A) (A) (A) (A) (A)
                 (A) (A) (A) (A) (A) (A) (A) (A) (A) (A) (A) (A)
                 (A) (A) (A) (A) (A) (A) (A) (A) (A) (A) (A) (A)
                 (A) (A) (A) (A) (A) (A) (A) (A) (A) (A) (A) (A)
                 (A) (A) (A) (A) (A) (A) (A) (A) (A) (A) (A) (A)
                 (A) (A) (A) (A) (A) (A) (A) (A) (A) (A) (A) (A)
                 (A) (A) (A) (A) (A) (A) (A) (A) (A) (A) (A) (A)
                 (A) (A) (A) (A) (A) (A) (A) (A) (A) (A) (A) (A)
                 (A) (A) (A) (A) (A) (A) (A) (A) (A) (A) (A) (A)
                 (A) (A) (A) (A)
 The electronic state is 1-A.
 Alpha  occ. eigenvalues --  -19.19188 -19.16338 -19.15663 -19.15641 -19.15048
 Alpha  occ. eigenvalues --  -19.14802 -19.13137 -19.11315 -10.28808 -10.24745
 Alpha  occ. eigenvalues --  -10.24674 -10.24413 -10.24043 -10.23993  -1.07653
 Alpha  occ. eigenvalues --   -1.04097  -1.03025  -1.02504  -1.01376  -1.00947
 Alpha  occ. eigenvalues --   -1.00041  -0.99354  -0.78271  -0.75878  -0.69351
 Alpha  occ. eigenvalues --   -0.64642  -0.62294  -0.58281  -0.55272  -0.54193
 Alpha  occ. eigenvalues --   -0.53281  -0.52346  -0.52204  -0.51206  -0.48865
 Alpha  occ. eigenvalues --   -0.46994  -0.46745  -0.46112  -0.43486  -0.42042
 Alpha  occ. eigenvalues --   -0.41481  -0.40782  -0.39930  -0.39471  -0.38381
 Alpha  occ. eigenvalues --   -0.37132  -0.36457  -0.35011  -0.34348  -0.33118
 Alpha  occ. eigenvalues --   -0.30906  -0.30653  -0.29501  -0.29064  -0.27467
 Alpha  occ. eigenvalues --   -0.26797  -0.24899  -0.24706
 Alpha virt. eigenvalues --    0.03313   0.05235   0.06053   0.06710   0.07846
 Alpha virt. eigenvalues --    0.10009   0.12888   0.13090   0.13677   0.14677
 Alpha virt. eigenvalues --    0.15324   0.16638   0.17121   0.17816   0.19408
 Alpha virt. eigenvalues --    0.20285   0.21870   0.22504   0.23052   0.23843
 Alpha virt. eigenvalues --    0.24452   0.25365   0.25934   0.28571   0.30657
 Alpha virt. eigenvalues --    0.31963   0.33548   0.34667   0.51812   0.52898
 Alpha virt. eigenvalues --    0.53172   0.55840   0.57372   0.58574   0.60395
 Alpha virt. eigenvalues --    0.61912   0.62565   0.64128   0.64996   0.65511
 Alpha virt. eigenvalues --    0.68433   0.70067   0.70665   0.74188   0.75180
 Alpha virt. eigenvalues --    0.75438   0.77888   0.79141   0.79475   0.80013
 Alpha virt. eigenvalues --    0.81823   0.82114   0.83196   0.84435   0.84938
 Alpha virt. eigenvalues --    0.86462   0.87750   0.88538   0.89047   0.90554
 Alpha virt. eigenvalues --    0.90640   0.91889   0.93005   0.93754   0.94964
 Alpha virt. eigenvalues --    0.97497   0.98895   0.99959   1.01302   1.02462
 Alpha virt. eigenvalues --    1.03987   1.05878   1.08062   1.08792   1.10253
 Alpha virt. eigenvalues --    1.11422   1.12992   1.14130   1.14602   1.16593
 Alpha virt. eigenvalues --    1.18473   1.21837   1.22478   1.24992   1.28154
 Alpha virt. eigenvalues --    1.29184   1.30333   1.33617   1.35400   1.39731
 Alpha virt. eigenvalues --    1.40313   1.42567   1.43771   1.45513   1.47661
 Alpha virt. eigenvalues --    1.50517   1.51280   1.55417   1.57397   1.59532
 Alpha virt. eigenvalues --    1.60583   1.61331   1.63988   1.65024   1.68306
 Alpha virt. eigenvalues --    1.70596   1.71570   1.72225   1.73475   1.73964
 Alpha virt. eigenvalues --    1.74974   1.77554   1.77905   1.78789   1.80764
 Alpha virt. eigenvalues --    1.81896   1.82152   1.83484   1.85505   1.88579
 Alpha virt. eigenvalues --    1.89684   1.90523   1.91979   1.93297   1.95541
 Alpha virt. eigenvalues --    1.96555   1.99077   2.02213   2.03771   2.04826
 Alpha virt. eigenvalues --    2.07512   2.09628   2.12355   2.13741   2.14781
 Alpha virt. eigenvalues --    2.15366   2.21910   2.22999   2.27230   2.30698
 Alpha virt. eigenvalues --    2.31711   2.33578   2.35503   2.36562   2.39519
 Alpha virt. eigenvalues --    2.42231   2.46578   2.47102   2.48435   2.51444
 Alpha virt. eigenvalues --    2.53413   2.54618   2.56533   2.58967   2.60586
 Alpha virt. eigenvalues --    2.62605   2.64016   2.65676   2.68701   2.70099
 Alpha virt. eigenvalues --    2.72329   2.75000   2.82113   2.88536   2.91466
 Alpha virt. eigenvalues --    2.93284   2.94653   2.99102   3.04139   3.10985
 Alpha virt. eigenvalues --    3.72737   3.75848   3.78109   3.79186   3.87983
 Alpha virt. eigenvalues --    4.00284   4.09009   4.11178   4.26673   4.34013
 Alpha virt. eigenvalues --    4.46911   4.54893   4.67591   4.83056
          Condensed to atoms (all electrons):
               1          2          3          4          5          6
     1  C    4.960433  -0.033534   0.292634  -0.000697   0.000092  -0.000429
     2  C   -0.033534   5.084828   0.318865   0.264154  -0.051644   0.350311
     3  C    0.292634   0.318865   4.974947  -0.034288   0.005494  -0.050502
     4  C   -0.000697   0.264154  -0.034288   5.103690   0.360322  -0.033584
     5  H    0.000092  -0.051644   0.005494   0.360322   0.604790  -0.004661
     6  H   -0.000429   0.350311  -0.050502  -0.033584  -0.004661   0.608660
     7  H    0.360994  -0.009223  -0.041622  -0.001224   0.000155   0.001711
     8  H   -0.037941  -0.063353   0.332613   0.000323  -0.000425   0.006782
     9  C   -0.016635  -0.022111  -0.010649   0.304589  -0.045241   0.004627
    10  H    0.002694   0.005988   0.000468  -0.077001  -0.001154  -0.000167
    11  O    0.173481  -0.011006  -0.031917  -0.013125   0.002367  -0.000001
    12  C    0.350340   0.004428  -0.030895   0.000104   0.000023  -0.000299
    13  H   -0.033122   0.000081  -0.003001  -0.000004   0.000000   0.000012
    14  H   -0.041334  -0.000114  -0.002763   0.000016  -0.000000   0.000003
    15  O   -0.051328  -0.000031   0.002330  -0.000001   0.000000   0.000001
    16  H    0.006510   0.000003  -0.000224  -0.000000   0.000000  -0.000000
    17  O    0.001119   0.007659   0.001134  -0.060969   0.001118   0.000047
    18  O   -0.004774  -0.039209   0.000092   0.177077  -0.028823  -0.000064
    19  H    0.000205  -0.003566  -0.000316  -0.018785  -0.005969   0.005196
    20  O    0.003227   0.184811  -0.040765  -0.016412   0.007315  -0.035753
    21  H   -0.000027  -0.027867  -0.003107  -0.013564   0.000854   0.005236
    22  O   -0.044120  -0.041812   0.218351   0.003069  -0.000074   0.006184
    23  H    0.004873   0.001286  -0.023980   0.000032   0.000002   0.000650
    24  O    0.004117  -0.000013  -0.001101  -0.000386   0.000004  -0.000001
    25  H   -0.000411  -0.000290   0.000207   0.002727  -0.000041   0.000005
    26  H   -0.000054  -0.000003  -0.000155  -0.000012  -0.000000   0.000000
    27  H   -0.014098  -0.000274   0.001275   0.001829  -0.000092   0.000021
    28  O    0.000057   0.005482   0.001882   0.000087   0.000001   0.000850
    29  H   -0.000003   0.000317  -0.000378   0.000008  -0.000001   0.000240
    30  H    0.000071  -0.006486  -0.000383   0.000571  -0.000021  -0.001291
               7          8          9         10         11         12
     1  C    0.360994  -0.037941  -0.016635   0.002694   0.173481   0.350340
     2  C   -0.009223  -0.063353  -0.022111   0.005988  -0.011006   0.004428
     3  C   -0.041622   0.332613  -0.010649   0.000468  -0.031917  -0.030895
     4  C   -0.001224   0.000323   0.304589  -0.077001  -0.013125   0.000104
     5  H    0.000155  -0.000425  -0.045241  -0.001154   0.002367   0.000023
     6  H    0.001711   0.006782   0.004627  -0.000167  -0.000001  -0.000299
     7  H    0.553130   0.006723  -0.001904  -0.000069  -0.038697  -0.039225
     8  H    0.006723   0.673617   0.002941   0.000128  -0.000187  -0.015628
     9  C   -0.001904   0.002941   4.727592   0.370419   0.058875   0.001073
    10  H   -0.000069   0.000128   0.370419   0.632198  -0.040527  -0.000200
    11  O   -0.038697  -0.000187   0.058875  -0.040527   8.498791  -0.031392
    12  C   -0.039225  -0.015628   0.001073  -0.000200  -0.031392   4.907899
    13  H   -0.003828   0.000405  -0.000031   0.000003   0.003323   0.361855
    14  H    0.006424   0.007736  -0.000100  -0.000008  -0.005472   0.341292
    15  O    0.002609  -0.000050  -0.000014   0.000003   0.001113   0.244456
    16  H   -0.000119  -0.000003   0.000004  -0.000000   0.000074  -0.023358
    17  O   -0.000062   0.004111   0.338833  -0.044943  -0.050044  -0.000242
    18  O    0.013463  -0.000073  -0.036906   0.005629   0.001875   0.000360
    19  H   -0.000338   0.000005   0.005857  -0.000626   0.000008  -0.000015
    20  O    0.000011   0.000856  -0.001708  -0.000351  -0.000040  -0.000046
    21  H    0.000030   0.004555  -0.004736   0.001064   0.000504  -0.000001
    22  O    0.003314  -0.035298   0.000109   0.000003   0.001128  -0.001140
    23  H   -0.000267  -0.004788  -0.000002   0.000000  -0.000079   0.000170
    24  O   -0.000073   0.001559   0.006276   0.000888  -0.063913  -0.001085
    25  H    0.000024   0.000261  -0.012737  -0.002837   0.006183   0.000022
    26  H    0.000025   0.001073  -0.000207  -0.000027   0.002946  -0.000048
    27  H    0.001777   0.001726  -0.008978   0.001089   0.155149  -0.005214
    28  O    0.000000   0.000616  -0.000004  -0.000000   0.000000  -0.000002
    29  H    0.000000  -0.000024  -0.000000   0.000000  -0.000000  -0.000000
    30  H   -0.000001   0.000515   0.000014   0.000001  -0.000001  -0.000001
              13         14         15         16         17         18
     1  C   -0.033122  -0.041334  -0.051328   0.006510   0.001119  -0.004774
     2  C    0.000081  -0.000114  -0.000031   0.000003   0.007659  -0.039209
     3  C   -0.003001  -0.002763   0.002330  -0.000224   0.001134   0.000092
     4  C   -0.000004   0.000016  -0.000001  -0.000000  -0.060969   0.177077
     5  H    0.000000  -0.000000   0.000000   0.000000   0.001118  -0.028823
     6  H    0.000012   0.000003   0.000001  -0.000000   0.000047  -0.000064
     7  H   -0.003828   0.006424   0.002609  -0.000119  -0.000062   0.013463
     8  H    0.000405   0.007736  -0.000050  -0.000003   0.004111  -0.000073
     9  C   -0.000031  -0.000100  -0.000014   0.000004   0.338833  -0.036906
    10  H    0.000003  -0.000008   0.000003  -0.000000  -0.044943   0.005629
    11  O    0.003323  -0.005472   0.001113   0.000074  -0.050044   0.001875
    12  C    0.361855   0.341292   0.244456  -0.023358  -0.000242   0.000360
    13  H    0.576295  -0.048820  -0.031608  -0.004886   0.000003   0.000000
    14  H   -0.048820   0.679964  -0.045341  -0.002496  -0.000053  -0.000008
    15  O   -0.031608  -0.045341   8.249903   0.234638  -0.000000  -0.000001
    16  H   -0.004886  -0.002496   0.234638   0.391798   0.000000   0.000000
    17  O    0.000003  -0.000053  -0.000000   0.000000   8.354424   0.001459
    18  O    0.000000  -0.000008  -0.000001   0.000000   0.001459   8.293424
    19  H    0.000000   0.000000   0.000000  -0.000000  -0.000136   0.230845
    20  O   -0.000002  -0.000003   0.000000  -0.000000  -0.024389   0.001556
    21  H    0.000000  -0.000006   0.000000  -0.000000   0.065667   0.000154
    22  O    0.012265   0.000084   0.000063   0.000008   0.000043  -0.000039
    23  H    0.000028  -0.000118   0.000001  -0.000001   0.000005  -0.000004
    24  O    0.000009   0.002055  -0.000128   0.000009  -0.057178   0.000002
    25  H   -0.000001  -0.000103  -0.000001  -0.000000   0.087757  -0.000031
    26  H   -0.000005   0.001927  -0.000055  -0.000001   0.003109  -0.000000
    27  H    0.000586   0.001621   0.005286  -0.000205   0.006093   0.000001
    28  O    0.000002   0.000001   0.000000   0.000000  -0.000001   0.000000
    29  H   -0.000000  -0.000000  -0.000000  -0.000000   0.000000  -0.000000
    30  H   -0.000001  -0.000001  -0.000000  -0.000000   0.000043  -0.000008
              19         20         21         22         23         24
     1  C    0.000205   0.003227  -0.000027  -0.044120   0.004873   0.004117
     2  C   -0.003566   0.184811  -0.027867  -0.041812   0.001286  -0.000013
     3  C   -0.000316  -0.040765  -0.003107   0.218351  -0.023980  -0.001101
     4  C   -0.018785  -0.016412  -0.013564   0.003069   0.000032  -0.000386
     5  H   -0.005969   0.007315   0.000854  -0.000074   0.000002   0.000004
     6  H    0.005196  -0.035753   0.005236   0.006184   0.000650  -0.000001
     7  H   -0.000338   0.000011   0.000030   0.003314  -0.000267  -0.000073
     8  H    0.000005   0.000856   0.004555  -0.035298  -0.004788   0.001559
     9  C    0.005857  -0.001708  -0.004736   0.000109  -0.000002   0.006276
    10  H   -0.000626  -0.000351   0.001064   0.000003   0.000000   0.000888
    11  O    0.000008  -0.000040   0.000504   0.001128  -0.000079  -0.063913
    12  C   -0.000015  -0.000046  -0.000001  -0.001140   0.000170  -0.001085
    13  H    0.000000  -0.000002   0.000000   0.012265   0.000028   0.000009
    14  H    0.000000  -0.000003  -0.000006   0.000084  -0.000118   0.002055
    15  O    0.000000   0.000000   0.000000   0.000063   0.000001  -0.000128
    16  H   -0.000000  -0.000000  -0.000000   0.000008  -0.000001   0.000009
    17  O   -0.000136  -0.024389   0.065667   0.000043   0.000005  -0.057178
    18  O    0.230845   0.001556   0.000154  -0.000039  -0.000004   0.000002
    19  H    0.386844   0.000016  -0.000017  -0.000020   0.000001  -0.000000
    20  O    0.000016   8.341446   0.210811   0.000971   0.000750  -0.000005
    21  H   -0.000017   0.210811   0.333993   0.000005  -0.000012   0.000125
    22  O   -0.000020   0.000971   0.000005   8.370443   0.209349   0.000001
    23  H    0.000001   0.000750  -0.000012   0.209349   0.321266  -0.000000
    24  O   -0.000000  -0.000005   0.000125   0.000001  -0.000000   8.406890
    25  H    0.000002   0.000126  -0.000446  -0.000003   0.000000   0.177238
    26  H    0.000000   0.000002  -0.000040  -0.000001  -0.000000   0.235031
    27  H    0.000006   0.000007  -0.000020  -0.000057   0.000005   0.107616
    28  O   -0.000000  -0.023349   0.000480  -0.024994   0.072550  -0.000000
    29  H   -0.000000   0.000846  -0.000005   0.001386  -0.003133  -0.000000
    30  H   -0.000002   0.062280  -0.001110   0.003456  -0.007569   0.000000
              25         26         27         28         29         30
     1  C   -0.000411  -0.000054  -0.014098   0.000057  -0.000003   0.000071
     2  C   -0.000290  -0.000003  -0.000274   0.005482   0.000317  -0.006486
     3  C    0.000207  -0.000155   0.001275   0.001882  -0.000378  -0.000383
     4  C    0.002727  -0.000012   0.001829   0.000087   0.000008   0.000571
     5  H   -0.000041  -0.000000  -0.000092   0.000001  -0.000001  -0.000021
     6  H    0.000005   0.000000   0.000021   0.000850   0.000240  -0.001291
     7  H    0.000024   0.000025   0.001777   0.000000   0.000000  -0.000001
     8  H    0.000261   0.001073   0.001726   0.000616  -0.000024   0.000515
     9  C   -0.012737  -0.000207  -0.008978  -0.000004  -0.000000   0.000014
    10  H   -0.002837  -0.000027   0.001089  -0.000000   0.000000   0.000001
    11  O    0.006183   0.002946   0.155149   0.000000  -0.000000  -0.000001
    12  C    0.000022  -0.000048  -0.005214  -0.000002  -0.000000  -0.000001
    13  H   -0.000001  -0.000005   0.000586   0.000002  -0.000000  -0.000001
    14  H   -0.000103   0.001927   0.001621   0.000001  -0.000000  -0.000001
    15  O   -0.000001  -0.000055   0.005286   0.000000  -0.000000  -0.000000
    16  H   -0.000000  -0.000001  -0.000205   0.000000  -0.000000  -0.000000
    17  O    0.087757   0.003109   0.006093  -0.000001   0.000000   0.000043
    18  O   -0.000031  -0.000000   0.000001   0.000000  -0.000000  -0.000008
    19  H    0.000002   0.000000   0.000006  -0.000000  -0.000000  -0.000002
    20  O    0.000126   0.000002   0.000007  -0.023349   0.000846   0.062280
    21  H   -0.000446  -0.000040  -0.000020   0.000480  -0.000005  -0.001110
    22  O   -0.000003  -0.000001  -0.000057  -0.024994   0.001386   0.003456
    23  H    0.000000  -0.000000   0.000005   0.072550  -0.003133  -0.007569
    24  O    0.177238   0.235031   0.107616  -0.000000  -0.000000   0.000000
    25  H    0.320001  -0.007293  -0.014627   0.000000  -0.000000  -0.000003
    26  H   -0.007293   0.369904  -0.006109  -0.000000   0.000000  -0.000000
    27  H   -0.014627  -0.006109   0.289775  -0.000000   0.000000  -0.000000
    28  O    0.000000  -0.000000  -0.000000   8.334053   0.240344   0.207277
    29  H   -0.000000   0.000000   0.000000   0.240344   0.380396  -0.014679
    30  H   -0.000003  -0.000000  -0.000000   0.207277  -0.014679   0.325030
 Mulliken charges:
               1
     1  C    0.117663
     2  C    0.082324
     3  C    0.125753
     4  C    0.051456
     5  H    0.155609
     6  H    0.136217
     7  H    0.186264
     8  H    0.111224
     9  C    0.340754
    10  H    0.147333
    11  O   -0.619415
    12  C   -0.063228
    13  H    0.170444
    14  H    0.105616
    15  O   -0.611846
    16  H    0.398248
    17  O   -0.634604
    18  O   -0.615998
    19  H    0.400802
    20  O   -0.672206
    21  H    0.427479
    22  O   -0.682672
    23  H    0.428982
    24  O   -0.817935
    25  H    0.444271
    26  H    0.399994
    27  H    0.475816
    28  O   -0.815332
    29  H    0.394686
    30  H    0.432300
 Sum of Mulliken charges =  -0.00000
 Mulliken charges with hydrogens summed into heavy atoms:
               1
     1  C    0.303926
     2  C    0.218541
     3  C    0.236977
     4  C    0.207065
     9  C    0.488088
    11  O   -0.143599
    12  C    0.212832
    15  O   -0.213598
    17  O   -0.634604
    18  O   -0.215195
    20  O   -0.244727
    22  O   -0.253690
    24  O    0.026330
    28  O    0.011654
 Electronic spatial extent (au):  <R**2>=           2983.6217
 Charge=             -0.0000 electrons
 Dipole moment (field-independent basis, Debye):
    X=             -1.6329    Y=              1.4432    Z=             -0.4230  Tot=              2.2199
 Quadrupole moment (field-independent basis, Debye-Ang):
   XX=            -79.7280   YY=            -83.4912   ZZ=            -79.2224
   XY=              9.3844   XZ=              9.6241   YZ=              5.1750
 Traceless Quadrupole moment (field-independent basis, Debye-Ang):
   XX=              1.0859   YY=             -2.6774   ZZ=              1.5915
   XY=              9.3844   XZ=              9.6241   YZ=              5.1750
 Octapole moment (field-independent basis, Debye-Ang**2):
  XXX=            -48.6599  YYY=             12.0916  ZZZ=              5.2693  XYY=             24.6792
  XXY=             40.4863  XXZ=            -10.1130  XZZ=             -8.1087  YZZ=             -2.6078
  YYZ=             -9.0422  XYZ=              8.1618
 Hexadecapole moment (field-independent basis, Debye-Ang**3):
 XXXX=          -1368.6640 YYYY=          -1111.9889 ZZZZ=           -553.7797 XXXY=              1.9043
 XXXZ=             26.5789 YYYX=             71.3293 YYYZ=             11.5650 ZZZX=             64.1830
 ZZZY=             21.6714 XXYY=           -365.8572 XXZZ=           -413.5319 YYZZ=           -330.8561
 XXYZ=              0.3515 YYXZ=             15.8380 ZZXY=             49.5225
 N-N= 1.126608885777D+03 E-N=-4.225905295235D+03  KE= 8.329725579982D+02
 Calling FoFJK, ICntrl=      2127 FMM=F ISym2X=0 I1Cent= 0 IOpClX= 0 NMat=1 NMatS=1 NMatT=0.
 ***** Axes restored to original set *****
 -------------------------------------------------------------------
 Center     Atomic                   Forces (Hartrees/Bohr)
 Number     Number              X              Y              Z
 -------------------------------------------------------------------
      1        6           0.000423616    0.002989282   -0.001359164
      2        6           0.000472093    0.000239608   -0.000091759
      3        6           0.000710716    0.000121258    0.000018450
      4        6          -0.002458672   -0.001390659   -0.001617275
      5        1          -0.000579515    0.000156543   -0.000561224
      6        1           0.000044502    0.000069365    0.000022997
      7        1          -0.000154670    0.000556184   -0.000122165
      8        1           0.000081284   -0.000004181   -0.000005074
      9        6          -0.008288656   -0.011309733    0.001345236
     10        1          -0.000126182   -0.000284462    0.000200856
     11        8           0.005122563    0.006370170   -0.008810059
     12        6           0.000001730    0.002736650   -0.000068348
     13        1           0.000166833    0.000361159    0.000093645
     14        1           0.000008598    0.000074123   -0.000008124
     15        8          -0.000072177    0.000736988   -0.000075593
     16        1           0.000118246   -0.000064270    0.000081121
     17        8          -0.005159323   -0.004920330   -0.001511886
     18        8           0.001170624    0.000253316    0.000484892
     19        1           0.000185003    0.000090871   -0.000091757
     20        8          -0.000238447    0.000279590   -0.000403869
     21        1          -0.000115499    0.000018079    0.000018560
     22        8          -0.000332597   -0.000081863    0.000305760
     23        1          -0.000012478    0.000005187    0.000029775
     24        8           0.008646170    0.003411736    0.011462641
     25        1           0.000034000   -0.000755024    0.000869196
     26        1           0.000349680   -0.000185617    0.001036956
     27        1           0.000009309    0.000533155   -0.001288728
     28        8          -0.000021218   -0.000003636    0.000053029
     29        1           0.000004424   -0.000009387    0.000003278
     30        1           0.000010045    0.000005900   -0.000011368
 -------------------------------------------------------------------
 Cartesian Forces:  Max     0.011462641 RMS     0.002692168

 GradGradGradGradGradGradGradGradGradGradGradGradGradGradGradGradGradGrad
 Berny optimization.
 FormGI is forming the generalized inverse of G from B-inverse, IUseBI=4.
 Internal  Forces:  Max     0.013892417 RMS     0.003819142
 Search for a local minimum.
 Step number   1 out of a maximum of  180
 All quantities printed in internal units (Hartrees-Bohrs-Radians)
 Mixed Optimization -- RFO/linear search
 Second derivative matrix not updated -- first step.
 ITU=  0
     Eigenvalues ---    0.00382   0.00445   0.00513   0.00530   0.00605
     Eigenvalues ---    0.00693   0.00707   0.00841   0.01434   0.01452
     Eigenvalues ---    0.01499   0.02023   0.02725   0.02840   0.03904
     Eigenvalues ---    0.04112   0.04271   0.04544   0.04614   0.04951
     Eigenvalues ---    0.05214   0.05413   0.05441   0.05956   0.06214
     Eigenvalues ---    0.06239   0.06552   0.07020   0.07250   0.07488
     Eigenvalues ---    0.07655   0.08022   0.08539   0.09227   0.09494
     Eigenvalues ---    0.09948   0.10164   0.10920   0.11003   0.11966
     Eigenvalues ---    0.13413   0.13630   0.14338   0.15552   0.16000
     Eigenvalues ---    0.16000   0.16072   0.16926   0.17627   0.18068
     Eigenvalues ---    0.19164   0.20021   0.20563   0.21056   0.21640
     Eigenvalues ---    0.21981   0.22217   0.26071   0.27669   0.28626
     Eigenvalues ---    0.29905   0.30578   0.33158   0.33482   0.33587
     Eigenvalues ---    0.33674   0.34060   0.34099   0.34765   0.37730
     Eigenvalues ---    0.39156   0.41601   0.42398   0.42536   0.42742
     Eigenvalues ---    0.45478   0.48759   0.49246   0.50024   0.53445
     Eigenvalues ---    0.53566   0.53594   0.53622   0.69930
 RFO step:  Lambda=-1.80392857D-02 EMin= 3.82450079D-03
 Linear search not attempted -- first point.
 Iteration  1 RMS(Cart)=  0.14178633 RMS(Int)=  0.00483907
 Iteration  2 RMS(Cart)=  0.01042290 RMS(Int)=  0.00071276
 Iteration  3 RMS(Cart)=  0.00009300 RMS(Int)=  0.00071169
 Iteration  4 RMS(Cart)=  0.00000013 RMS(Int)=  0.00071169
 Variable       Old X    -DE/DX   Delta X   Delta X   Delta X     New X
                                 (Linear)    (Quad)   (Total)
    R1        2.90183   0.00464   0.00000   0.01053   0.01028   2.91211
    R2        2.06058   0.00012   0.00000   0.00033   0.00033   2.06091
    R3        2.73592   0.00071   0.00000   0.00197   0.00174   2.73766
    R4        2.86826   0.00306   0.00000   0.00944   0.00944   2.87770
    R5        2.94066   0.00995   0.00000   0.03369   0.03372   2.97438
    R6        2.91847   0.00355   0.00000   0.01472   0.01516   2.93363
    R7        2.07164  -0.00002   0.00000  -0.00006  -0.00006   2.07158
    R8        2.71076  -0.00014   0.00000   0.00308   0.00308   2.71384
    R9        2.08213  -0.00001   0.00000  -0.00002  -0.00002   2.08212
   R10        2.66976  -0.00011   0.00000   0.00279   0.00284   2.67260
   R11        2.08033   0.00022   0.00000   0.00061   0.00061   2.08094
   R12        2.87009   0.00188   0.00000   0.00497   0.00487   2.87496
   R13        2.67989   0.00024   0.00000   0.00053   0.00053   2.68042
   R14        2.07883   0.00002   0.00000   0.00007   0.00007   2.07890
   R15        2.42607   0.00045   0.00000  -0.00165  -0.00209   2.42398
   R16        1.94606   0.00681   0.00000   0.01728   0.01760   1.96366
   R17        2.07229   0.00021   0.00000   0.00057   0.00057   2.07287
   R18        2.08775  -0.00001   0.00000  -0.00004  -0.00004   2.08771
   R19        2.68246  -0.00003   0.00000  -0.00007  -0.00007   2.68239
   R20        1.83077   0.00003   0.00000   0.00005   0.00005   1.83082
   R21        2.97138   0.01261   0.00000   0.11012   0.10992   3.08130
   R22        1.83241  -0.00008   0.00000  -0.00015  -0.00015   1.83226
   R23        1.86541  -0.00007   0.00000  -0.00013  -0.00013   1.86528
   R24        3.45371  -0.00045   0.00000  -0.01013  -0.01007   3.44365
   R25        1.86473  -0.00016   0.00000  -0.00154  -0.00149   1.86324
   R26        3.45072  -0.00030   0.00000  -0.01807  -0.01800   3.43272
   R27        1.90475   0.01389   0.00000   0.03044   0.03033   1.93509
   R28        1.83129   0.00048   0.00000   0.00087   0.00087   1.83217
   R29        2.84360   0.01055   0.00000   0.09087   0.09111   2.93472
   R30        1.83103   0.00000   0.00000   0.00001   0.00001   1.83104
   R31        1.86356  -0.00049   0.00000  -0.00263  -0.00256   1.86100
    A1        1.93002   0.00118   0.00000   0.00404   0.00377   1.93379
    A2        1.92500   0.00146   0.00000   0.01518   0.01388   1.93889
    A3        1.95642  -0.00393   0.00000  -0.01995  -0.01918   1.93724
    A4        1.83727  -0.00178   0.00000  -0.00298  -0.00275   1.83452
    A5        1.91098   0.00030   0.00000  -0.00753  -0.00787   1.90311
    A6        1.90018   0.00296   0.00000   0.01249   0.01318   1.91336
    A7        1.98678   0.00988   0.00000   0.08472   0.08491   2.07169
    A8        1.87481  -0.00367   0.00000  -0.02454  -0.02482   1.84999
    A9        1.93196  -0.00003   0.00000  -0.00254  -0.00237   1.92959
   A10        1.90268  -0.00031   0.00000  -0.00772  -0.00845   1.89423
   A11        1.89748  -0.00752   0.00000  -0.04786  -0.04806   1.84942
   A12        1.86612   0.00131   0.00000  -0.00667  -0.00723   1.85889
   A13        1.96799   0.01303   0.00000   0.08219   0.08163   2.04962
   A14        1.87233  -0.00086   0.00000  -0.00212  -0.00307   1.86926
   A15        1.87629  -0.00853   0.00000  -0.04878  -0.04814   1.82815
   A16        1.85711  -0.00390   0.00000  -0.01247  -0.01322   1.84390
   A17        1.95638  -0.00104   0.00000  -0.01193  -0.01130   1.94507
   A18        1.93259   0.00152   0.00000  -0.00577  -0.00622   1.92638
   A19        1.87415  -0.00048   0.00000  -0.01901  -0.01872   1.85544
   A20        1.89392   0.00153   0.00000   0.02698   0.02645   1.92037
   A21        1.98395  -0.00020   0.00000   0.00626   0.00626   1.99021
   A22        1.84052  -0.00092   0.00000  -0.01163  -0.01112   1.82940
   A23        1.93767   0.00056   0.00000   0.00138   0.00124   1.93891
   A24        1.92715  -0.00052   0.00000  -0.00506  -0.00537   1.92178
   A25        2.00500  -0.00039   0.00000   0.01246   0.01080   2.01580
   A26        1.99317   0.00973   0.00000   0.05174   0.04918   2.04234
   A27        2.08967  -0.00526   0.00000   0.00532   0.00276   2.09243
   A28        1.96088   0.01182   0.00000   0.04982   0.05156   2.01244
   A29        1.87385   0.00017   0.00000   0.00170   0.00170   1.87555
   A30        1.91045  -0.00025   0.00000  -0.00059  -0.00060   1.90985
   A31        1.88771   0.00084   0.00000   0.00390   0.00390   1.89161
   A32        1.87714  -0.00005   0.00000  -0.00143  -0.00143   1.87571
   A33        1.96827  -0.00056   0.00000  -0.00342  -0.00342   1.96485
   A34        1.94474  -0.00016   0.00000  -0.00009  -0.00009   1.94464
   A35        1.88029   0.00016   0.00000   0.00090   0.00090   1.88119
   A36        1.84384   0.00267   0.00000   0.00439   0.00405   1.84790
   A37        1.88024   0.00037   0.00000   0.00206   0.00206   1.88230
   A38        1.79414  -0.00026   0.00000  -0.00199  -0.00201   1.79213
   A39        1.82449   0.00056   0.00000   0.03279   0.03266   1.85715
   A40        2.07698   0.00171   0.00000  -0.00085  -0.00143   2.07555
   A41        1.84716  -0.00025   0.00000   0.02898   0.02919   1.87635
   A42        2.76513   0.00149   0.00000   0.00857   0.00840   2.77353
   A43        1.85184  -0.00368   0.00000  -0.00946  -0.01122   1.84062
   A44        1.55841   0.00762   0.00000   0.09254   0.09090   1.64932
   A45        1.98092  -0.00107   0.00000   0.00674   0.00729   1.98821
   A46        2.58205   0.01098   0.00000   0.06180   0.05994   2.64199
   A47        2.70130  -0.00093   0.00000   0.01485   0.01388   2.71518
   A48        1.95087   0.00014   0.00000  -0.00090  -0.00091   1.94996
   A49        1.64162   0.00038   0.00000  -0.01214  -0.01214   1.62948
   A50        1.82700  -0.00076   0.00000  -0.00042  -0.00025   1.82675
   A51        2.74931   0.00024   0.00000   0.00116   0.00119   2.75050
    D1        1.02871   0.00090   0.00000   0.01504   0.01436   1.04307
    D2        3.06762   0.00290   0.00000   0.04456   0.04424   3.11186
    D3       -1.13640  -0.00030   0.00000   0.01071   0.01117  -1.12522
    D4       -0.99632   0.00150   0.00000   0.00720   0.00702  -0.98930
    D5        1.04259   0.00350   0.00000   0.03672   0.03690   1.07948
    D6        3.12176   0.00030   0.00000   0.00287   0.00383   3.12559
    D7       -3.11669  -0.00064   0.00000  -0.00579  -0.00629  -3.12298
    D8       -1.07778   0.00137   0.00000   0.02373   0.02358  -1.05420
    D9        1.00139  -0.00183   0.00000  -0.01012  -0.00948   0.99191
   D10       -1.48052   0.00322   0.00000   0.08964   0.08865  -1.39187
   D11        2.72038   0.00209   0.00000   0.07867   0.07846   2.79884
   D12        0.67291   0.00125   0.00000   0.08295   0.08270   0.75561
   D13       -1.04940   0.00085   0.00000   0.01325   0.01284  -1.03656
   D14        0.98324   0.00076   0.00000   0.01219   0.01177   0.99502
   D15        3.10512   0.00094   0.00000   0.01412   0.01371   3.11883
   D16        1.09916  -0.00013   0.00000  -0.00068  -0.00067   1.09850
   D17        3.13181  -0.00022   0.00000  -0.00174  -0.00174   3.13007
   D18       -1.02950  -0.00004   0.00000   0.00019   0.00020  -1.02930
   D19        3.09923  -0.00047   0.00000  -0.00146  -0.00105   3.09818
   D20       -1.15132  -0.00056   0.00000  -0.00253  -0.00212  -1.15344
   D21        0.97056  -0.00038   0.00000  -0.00059  -0.00018   0.97038
   D22        0.33600   0.00690   0.00000   0.07777   0.07678   0.41278
   D23       -1.71192   0.00323   0.00000   0.04308   0.04242  -1.66949
   D24        2.45630   0.00452   0.00000   0.06534   0.06480   2.52110
   D25       -1.77221   0.00366   0.00000   0.05148   0.05102  -1.72119
   D26        2.46306  -0.00001   0.00000   0.01678   0.01666   2.47972
   D27        0.34809   0.00127   0.00000   0.03904   0.03903   0.38713
   D28        2.47947   0.00422   0.00000   0.07500   0.07477   2.55424
   D29        0.43155   0.00055   0.00000   0.04030   0.04041   0.47197
   D30       -1.68342   0.00184   0.00000   0.06256   0.06279  -1.62063
   D31        2.80080   0.00090   0.00000   0.04139   0.04056   2.84136
   D32        0.81928   0.00147   0.00000   0.05129   0.05036   0.86964
   D33       -1.33208   0.00113   0.00000   0.03343   0.03265  -1.29943
   D34       -1.38985   0.00245   0.00000   0.05988   0.05966  -1.33018
   D35        2.91182   0.00301   0.00000   0.06978   0.06947   2.98128
   D36        0.76046   0.00268   0.00000   0.05193   0.05176   0.81221
   D37        0.63856  -0.00031   0.00000   0.02133   0.02185   0.66041
   D38       -1.34296   0.00026   0.00000   0.03124   0.03165  -1.31131
   D39        2.78887  -0.00007   0.00000   0.01338   0.01394   2.80281
   D40       -1.28323  -0.00293   0.00000  -0.03433  -0.03451  -1.31774
   D41        0.89715  -0.00087   0.00000  -0.02122  -0.02170   0.87545
   D42        0.91128   0.00428   0.00000   0.03773   0.03721   0.94849
   D43        3.09167   0.00634   0.00000   0.05084   0.05002  -3.14150
   D44        2.96307   0.00071   0.00000   0.00014   0.00021   2.96329
   D45       -1.13973   0.00277   0.00000   0.01326   0.01303  -1.12670
   D46       -2.93795   0.00807   0.00000   0.04765   0.04683  -2.89112
   D47        1.17309  -0.00169   0.00000  -0.01392  -0.01451   1.15859
   D48       -0.89780   0.00289   0.00000   0.01346   0.01324  -0.88456
   D49       -2.91600   0.00185   0.00000  -0.00975  -0.00900  -2.92500
   D50        0.85615  -0.00189   0.00000  -0.10919  -0.10969   0.74646
   D51        1.36358   0.00216   0.00000   0.00550   0.00618   1.36975
   D52       -1.14746  -0.00158   0.00000  -0.09394  -0.09451  -1.24197
   D53       -0.73084   0.00230   0.00000   0.01340   0.01396  -0.71688
   D54        3.04132  -0.00143   0.00000  -0.08603  -0.08673   2.95459
   D55       -1.17279   0.00064   0.00000   0.01934   0.01902  -1.15377
   D56        0.94237   0.00028   0.00000   0.00004  -0.00001   0.94236
   D57        2.97730  -0.00083   0.00000  -0.01657  -0.01620   2.96110
   D58       -2.62349   0.01113   0.00000   0.14316   0.14490  -2.47859
   D59        1.18171   0.00492   0.00000   0.03451   0.03540   1.21710
   D60        2.14446  -0.00680   0.00000  -0.06399  -0.06712   2.07734
   D61        3.01325   0.00017   0.00000   0.00248   0.00247   3.01572
   D62        0.94372  -0.00027   0.00000  -0.00014  -0.00013   0.94359
   D63       -1.16936   0.00031   0.00000   0.00421   0.00421  -1.16515
   D64        0.56230   0.00959   0.00000   0.15062   0.14949   0.71178
   D65       -0.03991   0.00015   0.00000   0.00191   0.00173  -0.03819
   D66        1.94826   0.00112   0.00000   0.02261   0.02236   1.97062
   D67       -0.25553   0.00027   0.00000  -0.00619  -0.00604  -0.26157
   D68       -1.99697  -0.00072   0.00000  -0.00111  -0.00095  -1.99792
   D69       -0.11947  -0.00136   0.00000  -0.00712  -0.00672  -0.12619
   D70        1.90894   0.00234   0.00000   0.01329   0.01239   1.92133
   D71       -0.08591   0.00151   0.00000  -0.02146  -0.02325  -0.10916
   D72       -0.20022  -0.00429   0.00000  -0.06349  -0.06557  -0.26579
   D73       -2.07265  -0.00356   0.00000  -0.09572  -0.09748  -2.17013
   D74       -0.18932  -0.00042   0.00000   0.00927   0.00924  -0.18008
   D75        1.79633  -0.00029   0.00000   0.00439   0.00442   1.80075
         Item               Value     Threshold  Converged?
 Maximum Force            0.013892     0.000450     NO 
 RMS     Force            0.003819     0.000300     NO 
 Maximum Displacement     0.697117     0.001800     NO 
 RMS     Displacement     0.146822     0.001200     NO 
 Predicted change in Energy=-1.123613D-02
 GradGradGradGradGradGradGradGradGradGradGradGradGradGradGradGradGradGrad

                          Input orientation:                          
 ---------------------------------------------------------------------
 Center     Atomic      Atomic             Coordinates (Angstroms)
 Number     Number       Type             X           Y           Z
 ---------------------------------------------------------------------
      1          6           0        0.952809    0.872787   -0.580515
      2          6           0       -1.384976   -0.400730   -0.569853
      3          6           0       -0.505512    0.811725   -0.086226
      4          6           0       -0.673784   -1.707353   -1.013611
      5          1           0       -1.442147   -2.496114   -1.004336
      6          1           0       -1.980664   -0.025619   -1.410193
      7          1           0        0.990973    0.919542   -1.669430
      8          1           0       -0.472292    0.735185    1.012418
      9          6           0        0.335713   -2.135170    0.041107
     10          1           0        1.039018   -2.922479   -0.268320
     11          8           0        1.673388   -0.333793   -0.228837
     12          6           0        1.673458    2.084877   -0.005661
     13          1           0        1.125225    2.978007   -0.329665
     14          1           0        1.628330    2.050087    1.097636
     15          8           0        3.014622    2.070230   -0.470343
     16          1           0        3.431948    2.900399   -0.195958
     17          8           0       -0.032092   -2.052485    1.267174
     18          8           0       -0.046207   -1.621014   -2.282704
     19          1           0       -0.740329   -1.510137   -2.950540
     20          8           0       -2.317871   -0.786167    0.451681
     21          1           0       -1.745782   -1.264744    1.098191
     22          8           0       -1.070045    2.048232   -0.476790
     23          1           0       -1.919228    2.154449    0.012877
     24          8           0        2.113932   -0.963523    2.187646
     25          1           0        1.281087   -1.551902    2.094027
     26          1           0        1.903020   -0.326545    2.887492
     27          1           0        2.011953   -0.378828    0.752552
     28          8           0       -3.368414    1.702385    1.010490
     29          1           0       -4.191803    1.790551    0.507391
     30          1           0       -3.160470    0.740219    0.981730
 ---------------------------------------------------------------------
                    Distance matrix (angstroms):
                    1          2          3          4          5
     1  C    0.000000
     2  C    2.662179   0.000000
     3  C    1.541023   1.573975   0.000000
     4  C    3.080666   1.552410   2.689631   0.000000
     5  H    4.155110   2.140719   3.558372   1.101187   0.000000
     6  H    3.178170   1.096232   2.151768   2.166436   2.560873
     7  H    1.090587   2.932119   2.181199   3.178379   4.246073
     8  H    2.141794   2.151018   1.101808   3.179841   3.930549
     9  C    3.132895   2.518397   3.067258   1.521362   2.093805
    10  H    3.809060   3.510824   4.045122   2.228381   2.622916
    11  O    1.448706   3.078045   2.465798   2.830505   3.870865
    12  C    1.522811   3.981278   2.524939   4.572365   5.629372
    13  H    2.127111   4.216001   2.722378   5.065255   6.083797
    14  H    2.158369   4.226941   2.736485   4.886251   5.874867
    15  O    2.386856   5.046980   3.758022   5.307506   6.403081
    16  H    3.225713   5.851496   4.458497   6.225510   7.316600
    17  O    3.597388   2.816603   3.203048   2.394340   2.710132
    18  O    3.180335   2.493041   3.309637   1.418416   2.085348
    19  H    3.763252   2.704445   3.694655   1.948080   2.291814
    20  O    3.809844   1.436101   2.475328   2.387192   2.410560
    21  H    3.830076   1.912869   2.693109   2.409313   2.455419
    22  O    2.341873   2.470882   1.414279   3.814396   4.589972
    23  H    3.200526   2.674685   1.952260   4.185490   4.784357
    24  O    3.518942   4.490310   3.896600   4.309604   5.018294
    25  H    3.624923   3.940729   3.678611   3.674657   4.231713
    26  H    3.790564   4.771756   3.992454   4.874952   5.571669
    27  H    2.113149   3.645321   2.908368   3.478146   4.415922
    28  O    4.678942   3.294632   3.192533   4.794197   5.039585
    29  H    5.337870   3.720274   3.859950   5.188953   5.312383
    30  H    4.401959   2.619456   2.862594   4.019403   4.167846
                    6          7          8          9         10
     6  H    0.000000
     7  H    3.129083   0.000000
     8  H    2.953481   3.060628   0.000000
     9  C    3.452837   3.561822   3.136121   0.000000
    10  H    4.337528   4.089809   4.159670   1.100108   0.000000
    11  O    3.852619   2.027769   2.699513   2.259913   2.665573
    12  C    4.447416   2.142876   2.731738   4.427251   5.054217
    13  H    4.453746   2.459730   3.063249   5.187040   5.901434
    14  H    4.860308   3.056307   2.479685   4.505939   5.190331
    15  O    5.498071   2.618597   4.017399   5.012337   5.373171
    16  H    6.271548   3.471783   4.625085   5.916066   6.295813
    17  O    3.882449   4.301540   2.833687   1.282714   2.064439
    18  O    2.654936   2.811810   4.073212   2.410460   2.632350
    19  H    2.472832   3.246843   4.562713   3.240136   3.514980
    20  O    2.039293   4.284508   2.456645   3.004978   4.043629
    21  H    2.807595   4.463257   2.372520   2.491523   3.517179
    22  O    2.449760   2.635172   2.073437   4.443560   5.403662
    23  H    2.604150   3.581121   2.259871   4.846276   5.882643
    24  O    5.530806   4.436666   3.309882   3.023648   3.320348
    25  H    5.024751   4.511742   3.078147   2.334184   2.741854
    26  H    5.800315   4.811456   3.207068   3.718801   4.176664
    27  H    4.554472   2.931581   2.734964   2.529955   2.908426
    28  O    3.282004   5.176782   3.053359   5.420986   6.515379
    29  H    3.444522   5.688442   3.899181   6.010582   7.083492
    30  H    2.774841   4.929025   2.688358   4.623411   5.710838
                   11         12         13         14         15
    11  O    0.000000
    12  C    2.428944   0.000000
    13  H    3.358373   1.096913   0.000000
    14  H    2.728451   1.104768   1.775201   0.000000
    15  O    2.763432   1.419460   2.100874   2.093030   0.000000
    16  H    3.681523   1.947711   2.311898   2.376859   0.968829
    17  O    2.846157   4.652609   5.403251   4.429090   5.412782
    18  O    2.971922   4.677158   5.132018   5.263816   5.126267
    19  H    3.823282   5.236679   5.522021   5.888418   5.750658
    20  O    4.074052   4.937891   5.160854   4.902458   6.119201
    21  H    3.783966   4.912194   5.318118   4.729982   6.020282
    22  O    3.641696   2.783903   2.388585   3.124108   4.084732
    23  H    4.376833   3.593408   3.172424   3.711167   4.958172
    24  O    2.535749   3.781184   4.780173   3.241261   4.132772
    25  H    2.652054   4.217678   5.139908   3.753358   4.764554
    26  H    3.124786   3.773326   4.677086   2.987879   4.272616
    27  H    1.039124   2.599867   3.636732   2.483119   2.915253
    28  O    5.576891   5.157454   4.859631   5.009584   6.562875
    29  H    6.281348   5.895009   5.511941   5.855740   7.277825
    30  H    5.097564   5.113698   5.009454   4.966064   6.481451
                   16         17         18         19         20
    16  H    0.000000
    17  O    6.218632   0.000000
    18  O    6.074147   3.576031   0.000000
    19  H    6.666967   4.311015   0.969589   0.000000
    20  O    6.860804   2.737404   3.651615   3.819408   0.000000
    21  H    6.769943   1.893628   3.800781   4.178920   0.987065
    22  O    4.590534   4.575438   4.215796   4.346279   3.233101
    23  H    5.406953   4.778372   4.799169   4.858069   2.999781
    24  O    4.727433   2.576533   5.008246   5.903096   4.762973
    25  H    5.449149   1.630555   4.574086   5.434660   4.029411
    26  H    4.717887   3.057606   5.675039   6.516963   4.894932
    27  H    3.697214   2.691483   3.871929   4.750559   4.359338
    28  O    7.009684   5.029510   5.738220   5.737324   2.758404
    29  H    7.736151   5.713964   6.050567   5.896142   3.186564
    30  H    7.036569   4.203263   5.092208   5.136529   1.822300
                   21         22         23         24         25
    21  H    0.000000
    22  O    3.730012   0.000000
    23  H    3.591500   0.985985   0.000000
    24  O    4.021820   5.129093   5.542359   0.000000
    25  H    3.199389   5.009779   5.320737   1.024004   0.000000
    26  H    4.170800   5.079082   5.387794   0.969541   1.586785
    27  H    3.876195   4.111036   4.734850   1.552984   1.926090
    28  O    3.382969   2.759367   1.816517   6.208774   5.777742
    29  H    3.958142   3.283349   2.354052   7.083111   6.606204
    30  H    2.456579   2.864970   2.116460   5.672414   5.120396
                   26         27         28         29         30
    26  H    0.000000
    27  H    2.138356   0.000000
    28  O    5.952118   5.774628   0.000000
    29  H    6.877052   6.576693   0.968943   0.000000
    30  H    5.514422   5.297051   0.984800   1.546558   0.000000
 Stoichiometry    C6H16O8
 Framework group  C1[X(C6H16O8)]
 Deg. of freedom    84
[...]
 .00004671,0.00099484,0.00011045,0.00016025,-0.00024556,-0.00407558,-0.
 00217442,-0.01004260,-0.00003944,0.00057843,-0.00050786,0.00005481,-0.
 00005377,-0.00012646,-0.00002278,0.00101456,-0.00015402,0.00050953,-0.
 00081555,0.00000893,0.00093735,-0.00015884,0.00073272,-0.00056089,-0.0
 0005167,0.00000557,0.08855801,0.47914667,0.00236921,-0.00533016,-0.000
 12638,0.00109032,0.00039051,-0.00041578,0.00059214,-0.00060737,0.00087
 374,0.00027421,0.00045809,0.00035055,-0.00011202,-0.00004781,-0.000206
 48,-0.00020559,0.00001559,-0.00005076,-0.00079797,0.00130992,-0.000584
 22,-0.00021972,0.00010182,-0.00096813,0.00081690,0.00155550,0.00171495
 ,-0.00023506,-0.00020645,-0.00011547,-0.00202621,0.00452759,-0.0151320
 3,-0.00099016,0.00000858,-0.00006553,0.00022177,0.00035586,-0.00001721
 ,0.00004458,0.00025391,-0.00010836,0.00077140,0.00023280,-0.00001947,-
 0.00015427,0.00009852,-0.00006607,-0.00449108,-0.00392555,-0.00202624,
 -0.00019039,-0.00020505,-0.00050170,-0.00008840,0.00009703,0.00013680,
 -0.00111978,-0.00005849,0.00053236,0.00062681,-0.00011568,-0.00038386,
 -0.00142904,0.00121540,0.00001501,0.00064744,-0.00005045,-0.00050788,-
 0.12263015,0.25725062,0.26072791,0.00020551,-0.00019047,-0.00033700,-0
 .00011460,0.00055580,0.00006934,-0.00004120,0.00048097,-0.00024662,-0.
 00026076,-0.00079728,0.00008749,-0.00016356,-0.00006658,0.00006101,0.0
 0008870,-0.00014471,0.00004478,-0.00010162,0.00010789,-0.00004251,0.00
 031312,0.00001641,0.00018833,0.00574918,0.00142520,-0.00729998,-0.0002
 4617,0.00054110,0.00094730,-0.00176404,-0.00093573,-0.00087943,0.00019
 748,0.00017939,0.00051681,-0.00002362,-0.00001984,-0.00009917,0.000002
 32,-0.00015160,-0.00016794,-0.00020069,-0.00004501,-0.00015623,0.00001
 235,-0.00004612,0.00006204,-0.00602378,0.00220520,0.00624811,-0.000064
 13,-0.00026260,0.00090086,-0.00004183,-0.00008131,0.00001724,0.0003679
 3,-0.00051729,0.00021800,-0.00083356,0.00032140,-0.00031311,0.00001106
 ,-0.00060943,0.00008722,-0.00005672,0.00012657,0.00006448,-0.21893406,
 -0.23221889,-0.04427103,0.20843996,-0.00005263,-0.00073827,-0.00006775
 ,0.00030245,0.00092696,0.00012027,0.00045149,-0.00033626,0.00158450,-0
 .00046635,-0.00056084,0.00055815,-0.00016749,-0.00005948,-0.00007812,-
 0.00006631,-0.00022808,-0.00009295,0.00001714,0.00023310,-0.00018935,0
 .00010628,-0.00003080,-0.00059200,0.00374641,0.00182359,-0.00626176,-0
 .00027113,0.00079927,0.00015503,-0.00052651,-0.00068763,-0.00205555,-0
 .00014304,-0.00009291,0.00048062,-0.00000117,0.00001329,-0.00009063,-0
 .00000134,-0.00008178,-0.00016116,0.00020012,0.00006241,-0.00024425,-0
 .00003172,-0.00003143,0.00006599,0.00072143,-0.00180864,0.00627178,0.0
 0016939,-0.00049438,0.00062015,-0.00007558,0.00001165,0.00013037,0.000
 30783,-0.00102285,-0.00001851,-0.00056264,0.00098958,0.00026988,-0.000
 65375,0.00025885,-0.00060807,0.00034228,0.00003385,0.00003829,-0.18415
 885,-0.27176097,-0.08052167,0.20564579,0.29551611,-0.00067726,0.001285
 05,-0.00067344,-0.00054435,0.00056135,0.00036706,-0.00008788,0.0004491
 2,0.00007034,-0.00004053,-0.00108534,-0.00042445,-0.00012656,-0.000096
 72,0.00017730,0.00015861,-0.00020470,-0.00000914,0.00008605,-0.0001373
 6,0.00006231,0.00012408,0.00008819,0.00009143,0.00111194,0.00077954,-0
 .01123189,0.00006666,0.00048020,0.00019317,-0.00147437,-0.00320871,-0.
 00051047,0.00043787,0.00013624,0.00089439,-0.00010036,-0.00016324,-0.0
 0017787,0.00001784,-0.00016540,-0.00032826,-0.00028195,-0.00008377,-0.
 00025401,0.00003678,-0.00008287,0.00009589,0.00147486,0.00186377,0.004
 92486,0.00000698,-0.00028889,0.00085849,0.00000277,-0.00006554,-0.0000
 1504,0.00095522,-0.00072058,-0.00023032,-0.00108502,0.00067364,0.00036
 934,0.00032092,-0.00079176,-0.00015040,-0.00019986,0.00008877,0.000268
 82,-0.01531942,-0.05670508,-0.04201916,0.03222181,0.07750733,0.0512215
 3,0.00030186,0.00022050,0.00004131,-0.00002457,-0.00014688,0.00000545,
 -0.00019543,0.00045891,-0.00105500,0.00010970,-0.00000784,-0.00012752,
 0.00000771,0.00001778,0.00000293,0.00005561,0.00003763,0.00007249,-0.0
 0009752,-0.00009037,0.00002585,-0.00007370,0.00001957,0.00028508,-0.00
 002613,-0.00006732,0.00001039,-0.00006044,-0.00005236,0.00005270,-0.00
 007568,-0.00015809,-0.00049267,0.00012605,0.00014438,0.00044052,-0.000
 01309,-0.00000295,-0.00011463,0.00005881,-0.00000332,-0.00019703,-0.00
 017815,-0.00005036,-0.00017585,0.00001712,-0.00006723,0.00010593,-0.00
 113463,0.00000603,-0.00034776,-0.00009195,0.00005818,0.00012539,0.0000
 1872,-0.00002465,-0.00005115,-0.00003038,0.00013123,0.00022035,-0.0000
 6617,-0.00023786,-0.00026631,0.00021039,-0.00040608,0.00034580,-0.0001
 3794,0.00006422,-0.00008630,-0.15338797,0.14867113,0.17503469,0.013273
 02,-0.02265974,-0.02088629,0.14202015,-0.00032777,0.00099173,-0.000037
 92,0.00007822,0.00025160,-0.00015362,-0.00000510,-0.00009580,0.0004686
 3,-0.00001098,0.00001411,-0.00004175,0.00000480,-0.00005279,0.00002970
 ,-0.00001804,-0.00005921,-0.00001159,0.00011727,-0.00022550,0.00002242
 ,0.00010893,0.00014328,-0.00008729,0.00000068,0.00014013,-0.00050840,0
 .00001971,-0.00003161,0.00007221,0.00078391,-0.00137866,0.00265319,-0.
 00019662,0.00010574,0.00119091,-0.00004103,-0.00007817,-0.00020105,-0.
 00001415,-0.00012949,-0.00043614,0.00030292,-0.00004817,-0.00047008,-0
 .00004634,-0.00007696,0.00011661,-0.00073518,0.00012000,0.00054920,0.0
 0000288,-0.00009582,0.00009731,0.00000995,0.00002823,0.00000930,-0.000
 03495,-0.00022516,0.00009204,-0.00012308,0.00012857,-0.00017082,-0.000
 09279,-0.00022954,-0.00021350,0.00016106,0.00005008,0.00009328,0.10124
 498,-0.19917527,-0.17446836,0.02593292,-0.02068249,-0.02540639,-0.1261
 2816,0.21812314,0.00046961,-0.00054702,-0.00066504,-0.00033539,-0.0004
 5302,0.00032030,-0.00026559,0.00087813,-0.00177903,0.00009217,-0.00010
 028,-0.00016907,0.00000005,0.00006458,0.00002845,0.00013815,0.00009138
 ,0.00009686,-0.00023547,0.00020030,0.00007504,-0.00045053,0.00000194,0
 .00062479,0.00031852,-0.00016925,-0.00038538,-0.00007340,0.00002968,0.
 00006194,-0.00103404,0.00146808,-0.00094196,0.00043292,0.00000060,-0.0
 0105827,0.00001887,0.00002079,0.00024126,0.00003065,0.00025882,0.00044
 710,-0.00055674,-0.00008200,0.00043694,0.00006386,0.00005081,-0.000047
 75,-0.00026044,0.00048027,0.00043088,-0.00006491,0.00012551,0.00018080
 ,0.00001313,-0.00006396,-0.00006387,0.00030004,0.00023223,-0.00004922,
 -0.00019382,-0.00022480,-0.00002910,0.00067841,-0.00063497,0.00054482,
 -0.00046562,0.00006273,0.00007197,0.14334695,-0.19692518,-0.20236952,0
 .00917167,-0.00204598,-0.00569230,-0.15298007,0.20031877,0.20926764,-0
 .00773266,0.00022670,-0.02164685,-0.00062071,-0.00038378,-0.00011939,-
 0.00037731,0.00085098,-0.00390756,0.00010681,-0.00010663,-0.00052808,-
 0.00008854,0.00004481,-0.00004527,0.00018933,0.00009626,0.00019508,-0.
 00079792,0.00154584,0.00030607,-0.00119309,0.00036736,0.00173698,-0.00
 080359,-0.00228003,-0.00428251,0.00001780,-0.00000251,0.00025927,-0.03
 432868,0.01201972,-0.06661216,0.00335873,-0.00051631,0.00135338,-0.000
 33135,-0.00022076,-0.00012802,0.00024777,0.00041276,0.00004887,-0.0013
 5656,0.00058026,-0.00040492,-0.00005229,-0.00008305,0.00010119,0.00035
 175,0.00148256,0.00125416,-0.00022931,0.00004059,0.00049817,0.00002083
 ,-0.00012243,-0.00007725,0.00038608,0.00012696,0.00013538,-0.00040914,
 -0.00011217,-0.00002709,0.00092465,-0.00120629,0.00112144,-0.00036494,
 0.00008510,0.00024722,-0.00572006,0.00191012,-0.00345318,0.00033282,-0
 .00203027,0.00388104,-0.00060992,-0.00089098,0.00177532,0.04907248,0.0
 1042713,-0.00283759,0.03908990,0.00008854,0.00017962,-0.00014526,-0.00
 017711,-0.00002476,0.00060301,0.00060250,-0.00043952,-0.00075716,-0.00
 018667,-0.00006034,-0.00009316,-0.00005687,-0.00012624,-0.00005177,0.0
 0355315,-0.00494552,0.00145603,0.00040616,0.00010322,-0.00044074,-0.00
 036518,0.00124193,-0.00584735,0.00001165,-0.00052003,-0.00040428,-0.00
 068439,-0.05013039,-0.06226851,-0.00023162,0.00095655,0.00408040,0.000
 23678,0.00058358,-0.00091510,0.00005128,-0.00083191,-0.00159127,0.0002
 1710,0.00012866,-0.00104352,-0.00028970,-0.00008472,0.00008044,0.00072
 918,0.00055706,0.00322328,-0.00049965,-0.00005966,0.00000984,-0.000284
 43,-0.00025982,0.00003174,-0.00008170,-0.00025938,0.00025589,-0.000323
 51,0.00025296,-0.00012050,-0.00036131,-0.00025329,-0.00028452,0.000137
 18,0.00001021,-0.00009777,0.00025504,-0.00932996,-0.00216136,-0.001539
 78,-0.00213676,0.00513199,0.00031381,0.00245978,-0.00307049,-0.0118703
 6,0.06582530,-0.00259931,0.00470704,-0.01071648,-0.00081044,-0.0003516
 0,-0.00017568,-0.00094394,-0.00182618,0.00354944,-0.00021022,0.0004778
 8,-0.00013550,0.00037192,0.00006065,0.00027969,0.00004294,-0.00001157,
 -0.00005407,-0.00021113,0.00030835,0.00191839,0.00049350,-0.00012938,-
 0.00054355,-0.00519124,-0.00581336,0.00596900,0.00040279,0.00015500,0.
 00017839,-0.08524402,-0.02234786,-0.41337732,0.00142063,-0.00040739,0.
 00381221,-0.00062492,-0.00130397,-0.00021491,0.00030307,0.00037311,-0.
 00082789,-0.00002258,-0.00026159,-0.00067545,0.00022997,-0.00026049,0.
 00022889,0.00090912,-0.00014808,-0.00703170,0.00026922,0.00031839,-0.0
 0004853,0.00013255,0.00000606,-0.00009035,0.00075391,0.00029742,-0.000
 60344,-0.00001759,0.00006613,0.00035070,0.00193497,-0.00060501,-0.0012
 2047,-0.00020452,-0.00020531,0.00061270,-0.00259642,-0.00015931,0.0011
 9516,0.00289180,0.00513913,0.00211859,0.00001998,-0.00349977,0.0004962
 2,0.08837244,0.02528474,0.41517090,0.00113524,0.00021814,-0.00048027,0
 .00013206,-0.00006817,-0.00085695,0.00210862,-0.00670159,0.00135810,0.
 00027000,-0.00001016,-0.00032352,-0.00000443,0.00022004,0.00005067,-0.
 00013863,-0.00013953,0.00010231,-0.00006528,-0.00005904,0.00002760,0.0
 0013859,0.00048365,-0.00040015,0.00008595,-0.00067139,0.00041771,-0.00
 009864,0.00001559,-0.00001467,-0.00133157,0.00099247,-0.00021462,0.000
 77987,0.00011943,0.00006237,0.00012144,0.00036467,-0.00006286,-0.00005
 403,0.00002450,-0.00005476,-0.00094885,-0.00011021,0.00019209,0.000088
 18,0.00001881,-0.00001715,-0.00008434,0.00055423,-0.00046241,-0.000301
 32,0.00040441,0.00048678,0.00000826,-0.00018131,-0.00021931,0.00052024
 ,0.00789617,0.00317115,-0.00001696,-0.00072258,0.00051585,-0.01560193,
 0.00117210,0.01172145,0.00144545,0.00336831,-0.00326525,-0.00036953,0.
 00031928,-0.00061898,0.00015269,-0.00018990,0.00027962,0.00015175,-0.0
 0008346,0.00032844,0.00030373,-0.00009965,0.00039809,0.38692122,0.0002
 1237,0.00064725,-0.00004725,-0.00417039,-0.00404353,0.00434223,0.00060
 846,-0.00415698,0.00111800,0.00044596,0.00115583,-0.00028056,-0.000064
 39,0.00047264,0.00014627,0.00004629,0.00005474,-0.00046799,0.00003767,
 -0.00006256,-0.00000586,-0.00045995,0.00050937,-0.00048161,-0.00125270
 ,-0.00022103,0.00047334,0.00024260,-0.00002012,-0.00006259,-0.00016081
 ,0.00095309,-0.00005271,0.00031698,-0.00038538,-0.00009905,0.00005644,
 0.00020791,-0.00009490,0.00002581,0.00001505,0.00002310,-0.00005447,0.
 00027150,0.00002058,0.00008878,-0.00001742,0.00001815,0.00155233,-0.00
 043907,-0.00017616,0.00115024,-0.00055117,-0.00111416,-0.00005810,-0.0
 0001080,0.00029075,0.01163779,-0.01046383,-0.00753080,-0.00049445,0.00
 007811,-0.00222063,-0.00536729,0.00696721,0.00142714,0.00592725,-0.009
 20042,0.00083705,0.00028123,0.00021173,0.00016085,-0.00027993,-0.00013
 889,-0.00023509,-0.00012601,-0.00012333,-0.00006135,-0.00013969,-0.000
 09049,0.00001497,-0.16889489,0.49679495,-0.00069720,-0.00031882,0.0006
 8132,-0.00102368,0.00024878,0.00041042,-0.00149351,0.00480569,-0.00230
 181,-0.00019948,0.00015245,0.00048070,-0.00001925,-0.00012520,0.000009
 59,0.00003122,0.00024522,0.00048307,-0.00009939,0.00005071,0.00002782,
 0.00053886,-0.00086978,0.00083017,-0.00021770,0.00047626,-0.00079737,0
 .00011956,-0.00002516,0.00006086,0.00111571,-0.00069461,0.00027746,-0.
 00050545,-0.00007543,-0.00030219,-0.00008394,-0.00029050,0.00004047,0.
 00007919,-0.00003250,0.00016517,0.00063639,0.00007546,0.00000501,-0.00
 005588,0.00000615,-0.00003727,0.00031891,-0.00041553,0.00085150,0.0003
 2077,-0.00035878,-0.00035895,-0.00005829,0.00017263,0.00019305,0.00259
 253,-0.00496697,0.00441860,0.00086642,-0.00123561,-0.00235951,0.012580
 45,-0.00115357,-0.00191725,-0.00655621,-0.00025520,-0.00670872,0.00017
 941,-0.00009644,0.00063082,-0.00012284,-0.00003092,-0.00037844,0.00005
 544,-0.00001517,-0.00021986,-0.00019288,0.00008080,-0.00050075,0.20299
 704,0.06150790,0.21140673,-0.00018732,-0.00003190,0.00009602,-0.000234
 76,0.00003961,-0.00005242,-0.00008748,0.00065038,-0.00041497,-0.000005
 64,0.00003639,0.00017360,-0.00000607,-0.00003707,-0.00000820,0.0000008
 6,0.00007022,0.00016619,-0.00001367,0.00000834,-0.00000256,0.00014255,
 -0.00017984,0.00015887,-0.00004156,0.00008995,-0.00016003,0.00003486,-
 0.00000455,0.00001480,0.00021318,-0.00014851,0.00005114,-0.00012972,-0
 .00002303,-0.00004386,-0.00002086,-0.00004393,0.00001300,0.00001342,-0
 .00000191,0.00002128,0.00015073,0.00001291,-0.00001320,-0.00002210,0.0
 0000472,-0.00000456,0.00005733,-0.00009976,0.00013917,0.00007487,-0.00
 009999,-0.00010572,-0.00001157,0.00005669,0.00005079,0.00049042,-0.000
 31440,0.00019107,0.00005186,0.00002225,-0.00015557,0.00111090,-0.00092
 612,0.00147015,-0.00398928,0.00146738,-0.00299000,0.00005479,-0.000035
 27,0.00012207,-0.00003503,0.00001114,-0.00006890,-0.00000824,0.0000043
 8,-0.00004752,-0.00004778,0.00001883,-0.00008918,-0.32684544,0.1341249
 3,-0.19701449,0.33580760,0.00009707,-0.00001205,-0.00005924,0.00021416
 ,-0.00010956,-0.00009734,0.00024466,-0.00020624,0.00001690,0.00007918,
 -0.00001270,-0.00017248,0.00000043,-0.00001066,-0.00000651,0.00005993,
 0.00001900,-0.00011256,-0.00000928,0.00000532,0.00000365,0.00013223,-0
 .00008242,-0.00004912,0.00012657,0.00000347,0.00000755,-0.00003046,0.0
 0000745,-0.00000338,-0.00011874,-0.00005617,-0.00000165,0.00002085,0.0
 0008252,-0.00001136,0.00000759,0.00000376,0.00001071,-0.00000443,-0.00
 000293,0.00000174,-0.00007219,-0.00005884,0.00002840,-0.00001194,0.000
 01173,-0.00001052,-0.00014198,0.00004886,0.00000537,-0.00008468,0.0000
 1404,0.00011263,0.00002988,-0.00000362,-0.00004388,-0.00026082,-0.0014
 6051,-0.00180962,-0.00009520,0.00020135,0.00023594,-0.00120760,-0.0005
 3743,0.00159665,0.00048138,0.00172668,-0.00299136,-0.00007168,-0.00000
 308,-0.00005924,0.00004494,0.00000126,0.00004120,0.00003791,0.00000821
 ,0.00003317,0.00004808,0.00000882,0.00002079,0.09059406,-0.08445476,0.
 04278262,-0.13093329,0.09540615,0.00007956,0.00000874,-0.00001562,0.00
 014962,-0.00028568,0.00043441,0.00004623,-0.00011616,0.00006739,-0.000
 00493,0.00000071,-0.00015007,0.00001198,0.00001670,0.00000123,0.000032
 85,-0.00002714,-0.00020984,0.00001197,-0.00000594,-0.00000635,-0.00010
 796,0.00006130,-0.00007128,0.00002534,-0.00005065,0.00017285,-0.000028
 29,0.00000591,-0.00001778,-0.00012014,0.00006489,-0.00004734,0.0000789
 4,0.00002115,0.00002812,0.00000810,0.00002230,0.00000264,-0.00001080,0
 .00000431,-0.00001848,-0.00009098,-0.00001404,-0.00000242,0.00001294,-
 0.00000285,0.00000922,-0.00001252,0.00006033,-0.00013206,-0.00001987,0
 .00005112,0.00001787,0.00002654,-0.00005068,-0.00002761,0.00025697,-0.
 00085928,-0.00122043,-0.00010375,0.00003742,0.00015678,0.00049220,0.00
 057431,-0.00195912,0.00079972,-0.00151000,0.00283422,-0.00005164,0.000
 02721,-0.00009709,0.00002991,-0.00001176,0.00005518,0.00002197,-0.0000
 0636,0.00004534,0.00003529,-0.00001132,0.00006113,-0.21747853,0.078109
 07,-0.14169324,0.20526154,-0.06823747,0.13672996,-0.00055717,0.0005862
 2,-0.00004395,-0.00438097,-0.00039500,0.00484110,-0.00072163,-0.000929
 99,0.00081299,0.00009085,0.00045425,0.00017780,-0.00001931,0.00016390,
 0.00006695,0.00024583,0.00011247,-0.00047559,0.00015425,-0.00000435,-0
 .00005990,-0.00067547,0.00006105,-0.00057327,-0.00075895,0.00021621,0.
 00004967,0.00019435,-0.00001575,-0.00001808,0.00041929,0.00007537,0.00
 010462,-0.00011397,-0.00037995,-0.00013260,-0.00001403,0.00001469,-0.0
 0003147,0.00003363,0.00000655,0.00003233,0.00040369,0.00025213,-0.0000
 6618,0.00001866,-0.00000770,0.00001895,0.00085495,-0.00058539,0.000088
 31,0.00081566,-0.00047849,-0.00089532,-0.00001910,0.00009813,0.0002716
 1,-0.00087999,-0.00453811,-0.00398099,-0.00084074,0.00238460,-0.000844
 50,-0.00117727,0.00225552,0.00063153,0.00170561,-0.00688975,-0.0007801
 5,0.00035232,-0.00005957,0.00042148,-0.00024076,0.00003668,-0.00029031
 ,-0.00013900,-0.00002400,-0.00021524,-0.00024891,0.00000362,-0.0001813
 9,-0.04850234,0.02476795,-0.01409171,-0.00651685,0.04082334,0.01064774
 ,0.06051733,-0.00035538,-0.00056089,-0.00033683,0.00483510,0.00737889,
 -0.00639195,-0.00271414,0.00491214,0.00084905,-0.00096487,-0.00168021,
 0.00056413,0.00013299,-0.00059692,-0.00018949,-0.00023465,-0.00009071,
 0.00095664,0.00009166,0.00007513,-0.00000612,0.00011975,-0.00023294,0.
 00014605,0.00155304,0.00016115,-0.00033216,-0.00031005,0.00001196,0.00
 006153,0.00004342,-0.00099765,0.00000138,-0.00031186,0.00043651,0.0001
 6317,-0.00006974,-0.00024955,0.00008420,-0.00003838,-0.00002755,-0.000
 05059,0.00004193,-0.00028596,-0.00003999,-0.00008041,0.00000071,-0.000
 00697,-0.00182770,0.00056638,-0.00000350,-0.00153661,0.00089716,0.0015
 3140,0.00004385,-0.00000225,-0.00037571,-0.00603459,-0.00684606,0.0059
 7330,0.00107504,-0.00203499,0.00188122,0.00586112,-0.00241036,-0.00252
 928,-0.00898113,-0.00400431,0.00435798,-0.00025925,-0.00026939,-0.0002
 7494,0.00032298,0.00022256,0.00035503,0.00004793,0.00014336,0.00006051
 ,0.00012714,0.00008266,0.00010120,0.07116598,-0.39395959,-0.09964446,-
 0.00373854,-0.01053764,-0.00787616,-0.05800463,0.40989835,0.00016324,-
 0.00035872,-0.00034501,0.00329476,-0.00034534,-0.00316157,0.00091446,-
 0.00005341,0.00123254,0.00005111,-0.00031408,-0.00045139,0.00002274,-0
 .00010518,-0.00007024,0.00003692,-0.00017134,-0.00027534,0.00007181,0.
 00002194,-0.00002989,-0.00023119,0.00019451,-0.00031504,0.00066089,-0.
 00016909,0.00040069,-0.00016900,0.00001154,-0.00003260,-0.00032599,-0.
 00005091,-0.00017073,0.00003975,0.00019349,0.00020557,0.00001687,0.000
 02126,0.00000592,-0.00003921,-0.00000433,-0.00008023,-0.00022644,-0.00
 013349,-0.00003083,-0.00000891,-0.00000587,0.00001615,-0.00097644,0.00
 048200,-0.00064762,-0.00053204,0.00032737,0.00052105,0.00005887,-0.000
 08739,-0.00019181,-0.00100603,0.00106114,-0.00826217,-0.00190781,0.002
 48238,0.00435712,-0.00065714,-0.00123638,-0.00111714,0.00059396,0.0039
 8068,0.00187958,-0.00008814,-0.00004143,-0.00039597,0.00010764,0.00012
 894,0.00032650,-0.00008570,0.00001462,0.00010002,0.00010385,-0.0000239
 9,0.00027471,0.00236016,-0.13555868,-0.06339741,-0.00675854,0.02876842
 ,0.00505241,0.00451555,0.10097134,0.06460273\\-0.00002026,0.00001405,-
 0.00000035,-0.00000363,-0.00003571,-0.00000370,0.00002226,-0.00001014,
 -0.00000206,-0.00003264,-0.00000369,0.00000026,-0.00000031,0.00000574,
 -0.00000389,0.00000152,0.00000966,0.00000446,0.00000212,0.00000161,-0.
 00000290,-0.00000193,0.00000189,0.00000138,0.00001646,0.00002294,-0.00
 001996,0.00000129,-0.00000977,-0.00000870,0.00001098,-0.00000021,0.000
 01355,0.00001139,-0.00000732,-0.00000428,0.00000089,-0.00000498,0.0000
 0123,0.00000390,-0.00000375,0.00000258,-0.00000291,-0.00000357,0.00000
 307,0.00000385,-0.00000490,-0.00000108,-0.00002689,-0.00001316,0.00005
 247,0.00000729,-0.00000512,-0.00001353,-0.00000190,0.00000478,0.000000
 05,0.00001440,0.00001806,-0.00000834,-0.00000143,0.00000080,0.00000584
 ,0.00000170,0.00001094,-0.00000781,-0.00000172,0.00000684,-0.00000287,
 0.00000361,-0.00003338,0.00002223,-0.00000722,0.00001501,-0.00000959,0
 .00000006,0.00000312,-0.00000217,0.00000065,0.00001825,-0.00001946,0.0
 0002031,0.00000259,0.00001191,0.00000834,0.00000950,-0.00000902,-0.000
 03020,-0.00001007,0.00000069\\\@


 A great many people think they are thinking when they
 are merely rearranging their prejudices.
                               -- William James
 Job cpu time:       0 days  0 hours 33 minutes 32.3 seconds.
 File lengths (MBytes):  RWF=    221 Int=      0 D2E=      0 Chk=      6 Scr=      1
 Normal termination of Gaussian 09 at Sun Jan 15 13:09:55 2017.
