 Entering Gaussian System, Link 0=g09
 Initial command:
 /global/software/gaussian/g09.e01/l1.exe "/scratch/10462950.yak.local/Gau-17155.inp" -scrdir="/scratch/10462950.yak.local/"
 Entering Link 1 = /global/software/gaussian/g09.e01/l1.exe PID=     17156.
  
 Copyright (c) 1988,1990,1992,1993,1995,1998,2003,2009,2015,
            Gaussian, Inc.  All Rights Reserved.
  
 This is part of the Gaussian(R) 09 program.  It is based on
 the Gaussian(R) 03 system (copyright 2003, Gaussian, Inc.),
 the Gaussian(R) 98 system (copyright 1998, Gaussian, Inc.),
 the Gaussian(R) 94 system (copyright 1995, Gaussian, Inc.),
 the Gaussian 92(TM) system (copyright 1992, Gaussian, Inc.),
 the Gaussian 90(TM) system (copyright 1990, Gaussian, Inc.),
 the Gaussian 88(TM) system (copyright 1988, Gaussian, Inc.),
 the Gaussian 86(TM) system (copyright 1986, Carnegie Mellon
 University), and the Gaussian 82(TM) system (copyright 1983,
 Carnegie Mellon University). Gaussian is a federally registered
 trademark of Gaussian, Inc.
  
 This software contains proprietary and confidential information,
 including trade secrets, belonging to Gaussian, Inc.
  
 This software is provided under written license and may be
 used, copied, transmitted, or stored only in accord with that
 written license.
  
 The following legend is applicable only to US Government
 contracts under FAR:
  
                    RESTRICTED RIGHTS LEGEND
  
 Use, reproduction and disclosure by the US Government is
 subject to restrictions as set forth in subparagraphs (a)
 and (c) of the Commercial Computer Software - Restricted
 Rights clause in FAR 52.227-19.
  
 Gaussian, Inc.
 340 Quinnipiac St., Bldg. 40, Wallingford CT 06492
  
  
 ---------------------------------------------------------------
 Warning -- This program may not be used in any manner that
 competes with the business of Gaussian, Inc. or will provide
 assistance to any competitor of Gaussian, Inc.  The licensee
 of this program is prohibited from giving any competitor of
 Gaussian, Inc. access to this program.  By using this program,
 the user acknowledges that Gaussian, Inc. is engaged in the
 business of creating and licensing software in the field of
 computational chemistry and represents and warrants to the
 licensee that it is not a competitor of Gaussian, Inc. and that
 it will not use this program in any manner prohibited above.
 ---------------------------------------------------------------
  

 Cite this work as:
 Gaussian 09, Revision E.01,
 M. J. Frisch, G. W. Trucks, H. B. Schlegel, G. E. Scuseria, 
 M. A. Robb, J. R. Cheeseman, G. Scalmani, V. Barone, B. Mennucci, 
 G. A. Petersson, H. Nakatsuji, M. Caricato, X. Li, H. P. Hratchian, 
 A. F. Izmaylov, J. Bloino, G. Zheng, J. L. Sonnenberg, M. Hada, 
 M. Ehara, K. Toyota, R. Fukuda, J. Hasegawa, M. Ishida, T. Nakajima, 
 Y. Honda, O. Kitao, H. Nakai, T. Vreven, J. A. Montgomery, Jr., 
 J. E. Peralta, F. Ogliaro, M. Bearpark, J. J. Heyd, E. Brothers, 
 K. N. Kudin, V. N. Staroverov, T. Keith, R. Kobayashi, J. Normand, 
 K. Raghavachari, A. Rendell, J. C. Burant, S. S. Iyengar, J. Tomasi, 
 M. Cossi, N. Rega, J. M. Millam, M. Klene, J. E. Knox, J. B. Cross, 
 V. Bakken, C. Adamo, J. Jaramillo, R. Gomperts, R. E. Stratmann, 
 O. Yazyev, A. J. Austin, R. Cammi, C. Pomelli, J. W. Ochterski, 
 R. L. Martin, K. Morokuma, V. G. Zakrzewski, G. A. Voth, 
 P. Salvador, J. J. Dannenberg, S. Dapprich, A. D. Daniels, 
 O. Farkas, J. B. Foresman, J. V. Ortiz, J. Cioslowski, 
 and D. J. Fox, Gaussian, Inc., Wallingford CT, 2013.
 
 ******************************************
 Gaussian 09:  ES64L-G09RevE.01 30-Nov-2015
                15-Jan-2017 
 ******************************************
 %NPROCS=4
 Will use up to    4 processors via shared memory.
 -----------------------------------------
 # opt=(MaxCycle=1000) freq B3LYP/6-31G(d)
 -----------------------------------------
 1/6=1000,14=-1,18=20,19=15,26=3,38=1/1,3;
 2/9=110,12=2,17=6,18=5,40=1/2;
 3/5=1,6=6,7=1,11=2,16=1,25=1,30=1,71=1,74=-5/1,2,3;
 4//1;
 5/5=2,38=5/2;
 6/7=2,8=2,9=2,10=2,28=1/1;
 7//1,2,3,16;
 1/6=1000,14=-1,18=20,19=15,26=3/3(2);
 2/9=110/2;
 99//99;
 2/9=110/2;
 3/5=1,6=6,7=1,11=2,16=1,25=1,30=1,71=1,74=-5/1,2,3;
 4/5=5,16=3,69=1/1;
 5/5=2,38=5/2;
 7//1,2,3,16;
 1/6=1000,14=-1,18=20,19=15,26=3/3(-5);
 2/9=110/2;
 6/7=2,8=2,9=2,10=2,19=2,28=1/1;
 99/9=1/99;
 ----------------------------------------------
 ./boats/6/glo_2w_beta_ts_boat6_B3LYP_631Gd.out
 ----------------------------------------------
 Symbolic Z-matrix:
 Charge =  0 Multiplicity = 1
 C                    -1.11963   0.73596  -0.1968 
 C                    -0.44379  -1.50224   0.84274 
 C                    -1.36588  -0.25933   0.95909 
 C                    -0.21007  -1.80364  -0.64947 
 H                     0.36977  -2.72791  -0.75982 
 H                    -0.96458  -2.34729   1.31865 
 H                    -1.7795    0.4718   -1.02921 
 H                    -1.18715   0.2167    1.93349 
 C                     0.68759  -0.65492  -1.19447 
 H                     0.60945  -0.5627   -2.28396 
 O                     0.24439   0.64977  -0.64568 
 C                    -1.44867   2.16572   0.21489 
 H                    -2.43581   2.13319   0.7045 
 H                    -0.71154   2.51578   0.9544 
 O                    -1.464     2.98005  -0.94464 
 H                    -1.64209   3.89115  -0.66771 
 O                     1.98186  -0.93068  -0.77467 
 O                    -1.42395  -1.94848  -1.3701 
 H                    -2.16591  -1.68184  -0.79733 
 O                     0.79896  -1.30401   1.51175 
 H                     1.49876  -1.33507   0.81363 
 O                    -2.74444  -0.6485    0.83333 
 H                    -2.98055  -1.18577   1.60716 
 O                     1.78228   1.26718   1.33184 
 H                     3.07411   1.06797   0.58537 
 H                     1.5135    0.44579   1.78861 
 H                     1.20102   1.23788   0.53412 
 O                     3.66012   0.78106  -0.18444 
 H                     2.65141  -0.16168  -0.76379 
 H                     4.39877   0.2837    0.19644 
 
 Add virtual bond connecting atoms H29        and O28        Dist= 2.83D+00.
 Add virtual bond connecting atoms O11        and H27        Dist= 3.08D+00.
 Add virtual bond connecting atoms H25        and O24        Dist= 2.84D+00.

 GradGradGradGradGradGradGradGradGradGradGradGradGradGradGradGradGradGrad
 Berny optimization.
 Initialization pass.
                           ----------------------------
                           !    Initial Parameters    !
                           ! (Angstroms and Degrees)  !
 --------------------------                            --------------------------
 ! Name  Definition              Value          Derivative Info.                !
 --------------------------------------------------------------------------------
 ! R1    R(1,3)                  1.5451         estimate D2E/DX2                !
 ! R2    R(1,7)                  1.0946         estimate D2E/DX2                !
 ! R3    R(1,11)                 1.4386         estimate D2E/DX2                !
 ! R4    R(1,12)                 1.5238         estimate D2E/DX2                !
 ! R5    R(2,3)                  1.552          estimate D2E/DX2                !
 ! R6    R(2,4)                  1.5402         estimate D2E/DX2                !
 ! R7    R(2,6)                  1.1008         estimate D2E/DX2                !
 ! R8    R(2,20)                 1.4252         estimate D2E/DX2                !
 ! R9    R(3,8)                  1.0991         estimate D2E/DX2                !
 ! R10   R(3,22)                 1.4379         estimate D2E/DX2                !
 ! R11   R(4,5)                  1.0967         estimate D2E/DX2                !
 ! R12   R(4,9)                  1.5564         estimate D2E/DX2                !
 ! R13   R(4,18)                 1.4191         estimate D2E/DX2                !
 ! R14   R(9,10)                 1.0962         estimate D2E/DX2                !
 ! R15   R(9,11)                 1.4832         estimate D2E/DX2                !
 ! R16   R(9,17)                 1.3883         estimate D2E/DX2                !
 ! R17   R(11,27)                1.6288         estimate D2E/DX2                !
 ! R18   R(12,13)                1.1024         estimate D2E/DX2                !
 ! R19   R(12,14)                1.1013         estimate D2E/DX2                !
 ! R20   R(12,15)                1.417          estimate D2E/DX2                !
 ! R21   R(15,16)                0.9688         estimate D2E/DX2                !
 ! R22   R(17,29)                1.0197         estimate D2E/DX2                !
 ! R23   R(18,19)                0.9745         estimate D2E/DX2                !
 ! R24   R(20,21)                0.989          estimate D2E/DX2                !
 ! R25   R(22,23)                0.9712         estimate D2E/DX2                !
 ! R26   R(24,25)                1.5052         estimate D2E/DX2                !
 ! R27   R(24,26)                0.9775         estimate D2E/DX2                !
 ! R28   R(24,27)                0.9875         estimate D2E/DX2                !
 ! R29   R(25,28)                1.0091         estimate D2E/DX2                !
 ! R30   R(28,29)                1.4973         estimate D2E/DX2                !
 ! R31   R(28,30)                0.9685         estimate D2E/DX2                !
 ! A1    A(3,1,7)              108.5046         estimate D2E/DX2                !
 ! A2    A(3,1,11)             110.2401         estimate D2E/DX2                !
 ! A3    A(3,1,12)             111.5846         estimate D2E/DX2                !
 ! A4    A(7,1,11)             108.6542         estimate D2E/DX2                !
 ! A5    A(7,1,12)             107.5613         estimate D2E/DX2                !
 ! A6    A(11,1,12)            110.1979         estimate D2E/DX2                !
 ! A7    A(3,2,4)              108.6336         estimate D2E/DX2                !
 ! A8    A(3,2,6)              107.5349         estimate D2E/DX2                !
 ! A9    A(3,2,20)             111.8075         estimate D2E/DX2                !
 ! A10   A(4,2,6)              109.9027         estimate D2E/DX2                !
 ! A11   A(4,2,20)             110.4679         estimate D2E/DX2                !
 ! A12   A(6,2,20)             108.4425         estimate D2E/DX2                !
 ! A13   A(1,3,2)              111.4141         estimate D2E/DX2                !
 ! A14   A(1,3,8)              110.997          estimate D2E/DX2                !
 ! A15   A(1,3,22)             105.1711         estimate D2E/DX2                !
 ! A16   A(2,3,8)              108.464          estimate D2E/DX2                !
 ! A17   A(2,3,22)             110.2611         estimate D2E/DX2                !
 ! A18   A(8,3,22)             110.5273         estimate D2E/DX2                !
 ! A19   A(2,4,5)              110.0386         estimate D2E/DX2                !
 ! A20   A(2,4,9)              106.4005         estimate D2E/DX2                !
 ! A21   A(2,4,18)             112.4679         estimate D2E/DX2                !
 ! A22   A(5,4,9)              106.3711         estimate D2E/DX2                !
 ! A23   A(5,4,18)             108.3703         estimate D2E/DX2                !
 ! A24   A(9,4,18)             113.0084         estimate D2E/DX2                !
 ! A25   A(4,9,10)             111.6546         estimate D2E/DX2                !
 ! A26   A(4,9,11)             110.3243         estimate D2E/DX2                !
 ! A27   A(4,9,17)             106.5709         estimate D2E/DX2                !
 ! A28   A(10,9,11)            105.81           estimate D2E/DX2                !
 ! A29   A(10,9,17)            112.5633         estimate D2E/DX2                !
 ! A30   A(11,9,17)            109.9633         estimate D2E/DX2                !
 ! A31   A(1,11,9)             116.8395         estimate D2E/DX2                !
 ! A32   A(1,11,27)            108.0134         estimate D2E/DX2                !
 ! A33   A(9,11,27)            114.2131         estimate D2E/DX2                !
 ! A34   A(1,12,13)            106.5989         estimate D2E/DX2                !
 ! A35   A(1,12,14)            109.5813         estimate D2E/DX2                !
 ! A36   A(1,12,15)            108.6916         estimate D2E/DX2                !
 ! A37   A(13,12,14)           108.0903         estimate D2E/DX2                !
 ! A38   A(13,12,15)           111.7596         estimate D2E/DX2                !
 ! A39   A(14,12,15)           111.9664         estimate D2E/DX2                !
 ! A40   A(12,15,16)           107.9718         estimate D2E/DX2                !
 ! A41   A(9,17,29)            117.7471         estimate D2E/DX2                !
 ! A42   A(4,18,19)            108.9581         estimate D2E/DX2                !
 ! A43   A(2,20,21)            106.3367         estimate D2E/DX2                !
 ! A44   A(3,22,23)            108.2466         estimate D2E/DX2                !
 ! A45   A(25,24,26)           110.8853         estimate D2E/DX2                !
 ! A46   A(25,24,27)            95.7757         estimate D2E/DX2                !
 ! A47   A(26,24,27)           100.9936         estimate D2E/DX2                !
 ! A48   A(24,25,28)           156.1092         estimate D2E/DX2                !
 ! A49   A(11,27,24)           160.3219         estimate D2E/DX2                !
 ! A50   A(25,28,29)            94.759          estimate D2E/DX2                !
 ! A51   A(25,28,30)           106.7914         estimate D2E/DX2                !
 ! A52   A(29,28,30)           110.0369         estimate D2E/DX2                !
 ! A53   A(17,29,28)           157.1192         estimate D2E/DX2                !
 ! D1    D(7,1,3,2)             89.4817         estimate D2E/DX2                !
 ! D2    D(7,1,3,8)           -149.5269         estimate D2E/DX2                !
 ! D3    D(7,1,3,22)           -29.9741         estimate D2E/DX2                !
 ! D4    D(11,1,3,2)           -29.3932         estimate D2E/DX2                !
 ! D5    D(11,1,3,8)            91.5982         estimate D2E/DX2                !
 ! D6    D(11,1,3,22)         -148.849          estimate D2E/DX2                !
 ! D7    D(12,1,3,2)          -152.1865         estimate D2E/DX2                !
 ! D8    D(12,1,3,8)           -31.1951         estimate D2E/DX2                !
 ! D9    D(12,1,3,22)           88.3577         estimate D2E/DX2                !
 ! D10   D(3,1,11,9)            61.5824         estimate D2E/DX2                !
 ! D11   D(3,1,11,27)          -68.7995         estimate D2E/DX2                !
 ! D12   D(7,1,11,9)           -57.2011         estimate D2E/DX2                !
 ! D13   D(7,1,11,27)          172.417          estimate D2E/DX2                !
 ! D14   D(12,1,11,9)         -174.8153         estimate D2E/DX2                !
 ! D15   D(12,1,11,27)          54.8028         estimate D2E/DX2                !
 ! D16   D(3,1,12,13)          -47.7573         estimate D2E/DX2                !
 ! D17   D(3,1,12,14)           68.9827         estimate D2E/DX2                !
 ! D18   D(3,1,12,15)         -168.3693         estimate D2E/DX2                !
 ! D19   D(7,1,12,13)           71.1374         estimate D2E/DX2                !
 ! D20   D(7,1,12,14)         -172.1225         estimate D2E/DX2                !
 ! D21   D(7,1,12,15)          -49.4746         estimate D2E/DX2                !
 ! D22   D(11,1,12,13)        -170.5748         estimate D2E/DX2                !
 ! D23   D(11,1,12,14)         -53.8347         estimate D2E/DX2                !
 ! D24   D(11,1,12,15)          68.8132         estimate D2E/DX2                !
 ! D25   D(4,2,3,1)            -33.031          estimate D2E/DX2                !
 ! D26   D(4,2,3,8)           -155.492          estimate D2E/DX2                !
 ! D27   D(4,2,3,22)            83.3552         estimate D2E/DX2                !
 ! D28   D(6,2,3,1)           -151.9323         estimate D2E/DX2                !
 ! D29   D(6,2,3,8)             85.6067         estimate D2E/DX2                !
 ! D30   D(6,2,3,22)           -35.5461         estimate D2E/DX2                !
 ! D31   D(20,2,3,1)            89.136          estimate D2E/DX2                !
 ! D32   D(20,2,3,8)           -33.325          estimate D2E/DX2                !
 ! D33   D(20,2,3,22)         -154.4779         estimate D2E/DX2                !
 ! D34   D(3,2,4,5)           -175.2579         estimate D2E/DX2                !
 ! D35   D(3,2,4,9)             69.9014         estimate D2E/DX2                !
 ! D36   D(3,2,4,18)           -54.3367         estimate D2E/DX2                !
 ! D37   D(6,2,4,5)            -57.856          estimate D2E/DX2                !
 ! D38   D(6,2,4,9)           -172.6967         estimate D2E/DX2                !
 ! D39   D(6,2,4,18)            63.0652         estimate D2E/DX2                !
 ! D40   D(20,2,4,5)            61.7644         estimate D2E/DX2                !
 ! D41   D(20,2,4,9)           -53.0763         estimate D2E/DX2                !
 ! D42   D(20,2,4,18)         -177.3144         estimate D2E/DX2                !
 ! D43   D(3,2,20,21)         -116.2458         estimate D2E/DX2                !
 ! D44   D(4,2,20,21)            4.8639         estimate D2E/DX2                !
 ! D45   D(6,2,20,21)          125.3616         estimate D2E/DX2                !
 ! D46   D(1,3,22,23)         -172.7211         estimate D2E/DX2                !
 ! D47   D(2,3,22,23)           67.0581         estimate D2E/DX2                !
 ! D48   D(8,3,22,23)          -52.8562         estimate D2E/DX2                !
 ! D49   D(2,4,9,10)          -158.8368         estimate D2E/DX2                !
 ! D50   D(2,4,9,11)           -41.472          estimate D2E/DX2                !
 ! D51   D(2,4,9,17)            77.8737         estimate D2E/DX2                !
 ! D52   D(5,4,9,10)            83.8571         estimate D2E/DX2                !
 ! D53   D(5,4,9,11)          -158.778          estimate D2E/DX2                !
 ! D54   D(5,4,9,17)           -39.4324         estimate D2E/DX2                !
 ! D55   D(18,4,9,10)          -34.9337         estimate D2E/DX2                !
 ! D56   D(18,4,9,11)           82.4312         estimate D2E/DX2                !
 ! D57   D(18,4,9,17)         -158.2231         estimate D2E/DX2                !
 ! D58   D(2,4,18,19)            9.2168         estimate D2E/DX2                !
 ! D59   D(5,4,18,19)          131.0902         estimate D2E/DX2                !
 ! D60   D(9,4,18,19)         -111.2851         estimate D2E/DX2                !
 ! D61   D(4,9,11,1)           -23.2577         estimate D2E/DX2                !
 ! D62   D(4,9,11,27)          104.1548         estimate D2E/DX2                !
 ! D63   D(10,9,11,1)           97.6637         estimate D2E/DX2                !
 ! D64   D(10,9,11,27)        -134.9237         estimate D2E/DX2                !
 ! D65   D(17,9,11,1)         -140.5238         estimate D2E/DX2                !
 ! D66   D(17,9,11,27)         -13.1113         estimate D2E/DX2                !
 ! D67   D(4,9,17,29)         -160.3385         estimate D2E/DX2                !
 ! D68   D(10,9,17,29)          76.9403         estimate D2E/DX2                !
 ! D69   D(11,9,17,29)         -40.7585         estimate D2E/DX2                !
 ! D70   D(1,11,27,24)          92.3453         estimate D2E/DX2                !
 ! D71   D(9,11,27,24)         -39.4744         estimate D2E/DX2                !
 ! D72   D(1,12,15,16)        -177.9767         estimate D2E/DX2                !
 ! D73   D(13,12,15,16)         64.6522         estimate D2E/DX2                !
 ! D74   D(14,12,15,16)        -56.7813         estimate D2E/DX2                !
 ! D75   D(9,17,29,28)         123.7256         estimate D2E/DX2                !
 ! D76   D(26,24,25,28)         82.6011         estimate D2E/DX2                !
 ! D77   D(27,24,25,28)        -21.5066         estimate D2E/DX2                !
 ! D78   D(25,24,27,11)         90.3938         estimate D2E/DX2                !
 ! D79   D(26,24,27,11)        -22.2292         estimate D2E/DX2                !
 ! D80   D(24,25,28,29)        -20.182          estimate D2E/DX2                !
 ! D81   D(24,25,28,30)       -132.7788         estimate D2E/DX2                !
 ! D82   D(25,28,29,17)        -52.629          estimate D2E/DX2                !
 ! D83   D(30,28,29,17)         57.1825         estimate D2E/DX2                !
 --------------------------------------------------------------------------------
 Trust Radius=3.00D-01 FncErr=1.00D-07 GrdErr=1.00D-06
 Number of steps in this run=    180 maximum allowed number of steps=    180.
 GradGradGradGradGradGradGradGradGradGradGradGradGradGradGradGradGradGrad

                          Input orientation:                          
 ---------------------------------------------------------------------
 Center     Atomic      Atomic             Coordinates (Angstroms)
 Number     Number       Type             X           Y           Z
 ---------------------------------------------------------------------
      1          6           0       -1.119630    0.735960   -0.196800
      2          6           0       -0.443790   -1.502240    0.842740
      3          6           0       -1.365880   -0.259330    0.959090
      4          6           0       -0.210070   -1.803640   -0.649470
      5          1           0        0.369770   -2.727910   -0.759820
      6          1           0       -0.964580   -2.347290    1.318650
      7          1           0       -1.779500    0.471800   -1.029210
      8          1           0       -1.187150    0.216700    1.933490
      9          6           0        0.687590   -0.654920   -1.194470
     10          1           0        0.609450   -0.562700   -2.283960
     11          8           0        0.244390    0.649770   -0.645680
     12          6           0       -1.448670    2.165720    0.214890
     13          1           0       -2.435810    2.133190    0.704500
     14          1           0       -0.711540    2.515780    0.954400
     15          8           0       -1.464000    2.980050   -0.944640
     16          1           0       -1.642090    3.891150   -0.667710
     17          8           0        1.981860   -0.930680   -0.774670
     18          8           0       -1.423950   -1.948480   -1.370100
     19          1           0       -2.165910   -1.681840   -0.797330
     20          8           0        0.798960   -1.304010    1.511750
     21          1           0        1.498760   -1.335070    0.813630
     22          8           0       -2.744440   -0.648500    0.833330
     23          1           0       -2.980550   -1.185770    1.607160
     24          8           0        1.782280    1.267180    1.331840
     25          1           0        3.074110    1.067970    0.585370
     26          1           0        1.513500    0.445790    1.788610
     27          1           0        1.201020    1.237880    0.534120
     28          8           0        3.660120    0.781060   -0.184440
     29          1           0        2.651410   -0.161680   -0.763790
     30          1           0        4.398770    0.283700    0.196440
 ---------------------------------------------------------------------
                    Distance matrix (angstroms):
                    1          2          3          4          5
     1  C    0.000000
     2  C    2.558699   0.000000
     3  C    1.545096   1.551971   0.000000
     4  C    2.735284   1.540181   2.511624   0.000000
     5  H    3.812309   2.175395   3.472898   1.096662   0.000000
     6  H    3.439049   1.100828   2.156363   2.176772   2.499080
     7  H    1.094585   3.030702   2.158465   2.790151   3.863946
     8  H    2.193701   2.167273   1.099093   3.421716   4.283532
     9  C    2.489164   2.479556   3.001841   1.556398   2.141779
    10  H    3.005407   3.430496   3.809375   2.209774   2.658681
    11  O    1.438566   2.705574   2.448412   2.495149   3.381933
    12  C    1.523801   3.854596   2.538022   4.247007   5.310781
    13  H    2.120595   4.147723   2.633195   4.720782   5.800500
    14  H    2.158601   4.028479   2.851213   4.634788   5.621749
    15  O    2.390355   4.932188   3.758643   4.954105   5.998140
    16  H    3.232637   5.727656   4.466459   5.872108   6.918672
    17  O    3.568033   2.970938   3.829360   2.362687   2.414351
    18  O    2.945414   2.460997   2.877799   1.419081   2.048752
    19  H    2.702054   2.384907   2.397623   1.965199   2.743236
    20  O    3.280489   1.425236   2.466439   2.436933   2.715092
    21  H    3.487994   1.949947   3.063419   2.297895   2.385449
    22  O    2.370212   2.453966   1.437949   3.155325   4.069444
    23  H    3.226506   2.668266   1.971153   3.626252   4.382401
    24  O    3.322652   3.586683   3.518535   4.162329   4.725566
    25  H    4.278957   4.364383   4.649183   4.533962   4.850948
    26  H    3.310502   2.918985   3.078332   3.738297   4.227882
    27  H    2.484267   3.210748   3.001868   3.555686   4.253557
    28  O    4.779979   4.807352   5.258398   4.677104   4.844619
    29  H    3.917650   3.736081   4.372239   3.301086   3.433866
    30  H    5.550848   5.201699   5.840180   5.129713   5.120261
                    6          7          8          9         10
     6  H    0.000000
     7  H    3.758166   0.000000
     8  H    2.646056   3.032086   0.000000
     9  C    3.451022   2.717231   3.749467   0.000000
    10  H    4.317538   2.889926   4.649959   1.096175   0.000000
    11  O    3.781874   2.067583   2.981438   1.483177   2.070583
    12  C    4.671176   2.127580   2.611639   3.808663   4.233720
    13  H    4.755670   2.489319   2.596633   4.597311   5.047011
    14  H    4.883253   3.041891   2.543736   4.077811   4.659295
    15  O    5.809686   2.529429   3.999548   4.231402   4.317876
    16  H    6.582004   3.441151   4.524908   5.135332   5.245806
    17  O    3.882046   4.022384   4.323567   1.388312   2.072890
    18  O    2.756709   2.469894   3.956992   2.482488   2.624927
    19  H    2.522576   2.200283   3.466959   3.058553   3.341432
    20  O    2.058104   4.032175   2.536741   2.785202   3.872063
    21  H    2.710660   4.172269   3.297907   2.270037   3.313984
    22  O    2.507853   2.378074   2.093818   3.986332   4.579676
    23  H    2.344462   3.337740   2.299934   4.646093   5.330772
    24  O    4.539803   4.346661   3.206713   3.357835   4.218768
    25  H    5.339730   5.149740   4.549772   3.439718   4.119064
    26  H    3.763381   4.334124   2.714219   3.285187   4.291874
    27  H    4.261309   3.451721   2.950322   2.614254   3.396118
    28  O    5.782188   5.513506   5.319789   3.452265   3.939576
    29  H    4.710502   4.483827   4.706701   2.070111   2.577079
    30  H    6.078403   6.301478   5.850157   4.072898   4.607355
                   11         12         13         14         15
    11  O    0.000000
    12  C    2.430049   0.000000
    13  H    3.347685   1.102371   0.000000
    14  H    2.637433   1.101262   1.783797   0.000000
    15  O    2.904854   1.416996   2.093143   2.094778   0.000000
    16  H    3.750445   1.947692   2.367145   2.321380   0.968767
    17  O    2.352289   4.726040   5.575935   4.703421   5.215041
    18  O    3.171600   4.409019   4.689121   5.083350   4.947022
    19  H    3.356926   4.042616   4.108868   4.775329   4.716736
    20  O    2.962990   4.332749   4.788500   4.145244   5.432128
    21  H    2.764529   4.615340   5.246101   4.442329   5.521750
    22  O    3.578558   3.159323   2.801722   3.762979   4.238759
    23  H    4.341052   3.939233   3.482389   4.390441   5.115238
    24  O    2.580094   3.534684   4.351530   2.814356   4.319099
    25  H    3.114112   4.668817   5.613208   4.069826   5.156687
    26  H    2.752820   3.769510   4.429409   3.151439   4.770601
    27  H    1.628786   2.825536   3.749286   2.338279   3.510587
    28  O    3.449230   5.308153   6.307046   4.839176   5.627616
    29  H    2.542862   4.815108   5.770798   4.629298   5.180712
    30  H    4.254650   6.142873   7.098607   5.627784   6.553201
                   16         17         18         19         20
    16  H    0.000000
    17  O    6.032785   0.000000
    18  O    5.885764   3.604164   0.000000
    19  H    5.599054   4.215300   0.974509   0.000000
    20  O    6.139907   2.601220   3.696178   3.776911   0.000000
    21  H    6.274766   1.708688   3.699619   4.018115   0.988967
    22  O    4.906803   5.000320   2.879018   2.015326   3.666828
    23  H    5.722030   5.510326   3.445114   2.586754   3.782563
    24  O    4.754969   3.050870   5.284019   5.368267   2.758678
    25  H    5.637650   2.652795   5.758071   6.077098   3.414788
    26  H    5.278424   2.946937   4.933416   4.975133   1.910241
    27  H    4.070321   2.650527   4.546362   4.651209   2.752929
    28  O    6.166007   2.468802   5.891006   6.354851   3.925661
    29  H    5.904981   1.019694   4.490972   5.051592   3.148741
    30  H    7.088896   2.873887   6.429677   6.924301   4.148433
                   21         22         23         24         25
    21  H    0.000000
    22  O    4.298431   0.000000
    23  H    4.551505   0.971195   0.000000
    24  O    2.668451   4.940601   5.364449   0.000000
    25  H    2.882435   6.071514   6.540818   1.505233   0.000000
    26  H    2.030336   4.498898   4.784496   0.977529   2.066494
    27  H    2.605158   4.383447   4.950861   0.987461   1.881479
    28  O    3.185220   6.640624   7.153793   2.462052   1.009125
    29  H    2.278969   5.648273   6.195897   2.681174   1.873752
    30  H    3.378076   7.231879   7.655314   3.017016   1.587788
                   26         27         28         29         30
    26  H    0.000000
    27  H    1.516178   0.000000
    28  O    2.934844   2.602342   0.000000
    29  H    2.859826   2.397284   1.497298   0.000000
    30  H    3.299403   3.354116   0.968525   2.042957   0.000000
 Stoichiometry    C6H16O8
 Framework group  C1[X(C6H16O8)]
 Deg. of freedom    84
 Full point group                 C1      NOp   1
 Largest Abelian subgroup         C1      NOp   1
 Largest concise Abelian subgroup C1      NOp   1
                         Standard orientation:                         
 ---------------------------------------------------------------------
 Center     Atomic      Atomic             Coordinates (Angstroms)
 Number     Number       Type             X           Y           Z
 ---------------------------------------------------------------------
      1          6           0       -1.123457    0.730818   -0.211938
      2          6           0       -0.454046   -1.509171    0.827911
      3          6           0       -1.370543   -0.262263    0.945673
      4          6           0       -0.225938   -1.813053   -0.664664
      5          1           0        0.349674   -2.739873   -0.775757
      6          1           0       -0.977011   -2.351536    1.306189
      7          1           0       -1.786852    0.468610   -1.042161
      8          1           0       -1.186975    0.213987    1.919066
      9          6           0        0.674972   -0.668681   -1.213435
     10          1           0        0.594056   -0.577226   -2.302786
     11          8           0        0.238877    0.638419   -0.664687
     12          6           0       -1.445264    2.162367    0.199252
     13          1           0       -2.431105    2.134496    0.691757
     14          1           0       -0.704517    2.510054    0.936263
     15          8           0       -1.460528    2.975589   -0.961056
     16          1           0       -1.633968    3.887711   -0.684537
     17          8           0        1.969282   -0.949481   -0.797113
     18          8           0       -1.442508   -1.953491   -1.381621
     19          1           0       -2.181668   -1.683146   -0.806971
     20          8           0        0.791468   -1.315517    1.493109
     21          1           0        1.489099   -1.350232    0.792993
     22          8           0       -2.751092   -0.645735    0.824310
     23          1           0       -2.987216   -1.181227    1.599368
     24          8           0        1.785099    1.251317    1.307733
     25          1           0        3.073902    1.045905    0.557719
     26          1           0        1.514185    0.431528    1.766115
     27          1           0        1.201405    1.223670    0.511733
     28          8           0        3.656457    0.755751   -0.213496
     29          1           0        2.642099   -0.183303   -0.788957
     30          1           0        4.394106    0.255660    0.165744
 ---------------------------------------------------------------------
 Rotational constants (GHZ):      0.7442460      0.5801242      0.4413373
 Standard basis: 6-31G(d) (6D, 7F)
 There are   242 symmetry adapted cartesian basis functions of A   symmetry.
 There are   242 symmetry adapted basis functions of A   symmetry.
   242 basis functions,   456 primitive gaussians,   242 cartesian basis functions
    58 alpha electrons       58 beta electrons
       nuclear repulsion energy      1147.9270694001 Hartrees.
 NAtoms=   30 NActive=   30 NUniq=   30 SFac= 1.00D+00 NAtFMM=   60 NAOKFM=F Big=F
 Integral buffers will be    131072 words long.
 Raffenetti 2 integral format.
 Two-electron integral symmetry is turned on.
 One-electron integrals computed using PRISM.
 NBasis=   242 RedAO= T EigKep=  1.55D-03  NBF=   242
 NBsUse=   242 1.00D-06 EigRej= -1.00D+00 NBFU=   242
 ExpMin= 1.61D-01 ExpMax= 5.48D+03 ExpMxC= 8.25D+02 IAcc=1 IRadAn=         1 AccDes= 0.00D+00
 Harris functional with IExCor=  402 and IRadAn=       1 diagonalized for initial guess.
 HarFok:  IExCor=  402 AccDes= 0.00D+00 IRadAn=         1 IDoV= 1 UseB2=F ITyADJ=14
 ICtDFT=  3500011 ScaDFX=  1.000000  1.000000  1.000000  1.000000
 FoFCou: FMM=F IPFlag=           0 FMFlag=      100000 FMFlg1=           0
         NFxFlg=           0 DoJE=T BraDBF=F KetDBF=T FulRan=T
         wScrn=  0.000000 ICntrl=     500 IOpCl=  0 I1Cent=   200000004 NGrid=           0
         NMat0=    1 NMatS0=      1 NMatT0=    0 NMatD0=    1 NMtDS0=    0 NMtDT0=    0
 Petite list used in FoFCou.
 Requested convergence on RMS density matrix=1.00D-08 within 128 cycles.
 Requested convergence on MAX density matrix=1.00D-06.
 Requested convergence on             energy=1.00D-06.
 No special actions if energy rises.
 Integral accuracy reduced to 1.0D-05 until final iterations.
 Initial convergence to 1.0D-05 achieved.  Increase integral accuracy.
 SCF Done:  E(RB3LYP) =  -839.984558059     A.U. after   14 cycles
            NFock= 14  Conv=0.39D-08     -V/T= 2.0084

 **********************************************************************

            Population analysis using the SCF density.

 **********************************************************************

 Orbital symmetries:
       Occupied  (A) (A) (A) (A) (A) (A) (A) (A) (A) (A) (A) (A)
                 (A) (A) (A) (A) (A) (A) (A) (A) (A) (A) (A) (A)
                 (A) (A) (A) (A) (A) (A) (A) (A) (A) (A) (A) (A)
                 (A) (A) (A) (A) (A) (A) (A) (A) (A) (A) (A) (A)
                 (A) (A) (A) (A) (A) (A) (A) (A) (A) (A)
       Virtual   (A) (A) (A) (A) (A) (A) (A) (A) (A) (A) (A) (A)
                 (A) (A) (A) (A) (A) (A) (A) (A) (A) (A) (A) (A)
                 (A) (A) (A) (A) (A) (A) (A) (A) (A) (A) (A) (A)
                 (A) (A) (A) (A) (A) (A) (A) (A) (A) (A) (A) (A)
                 (A) (A) (A) (A) (A) (A) (A) (A) (A) (A) (A) (A)
                 (A) (A) (A) (A) (A) (A) (A) (A) (A) (A) (A) (A)
                 (A) (A) (A) (A) (A) (A) (A) (A) (A) (A) (A) (A)
                 (A) (A) (A) (A) (A) (A) (A) (A) (A) (A) (A) (A)
                 (A) (A) (A) (A) (A) (A) (A) (A) (A) (A) (A) (A)
                 (A) (A) (A) (A) (A) (A) (A) (A) (A) (A) (A) (A)
                 (A) (A) (A) (A) (A) (A) (A) (A) (A) (A) (A) (A)
                 (A) (A) (A) (A) (A) (A) (A) (A) (A) (A) (A) (A)
                 (A) (A) (A) (A) (A) (A) (A) (A) (A) (A) (A) (A)
                 (A) (A) (A) (A) (A) (A) (A) (A) (A) (A) (A) (A)
                 (A) (A) (A) (A) (A) (A) (A) (A) (A) (A) (A) (A)
                 (A) (A) (A) (A)
 The electronic state is 1-A.
 Alpha  occ. eigenvalues --  -19.18697 -19.17318 -19.15541 -19.15016 -19.15005
 Alpha  occ. eigenvalues --  -19.14970 -19.13876 -19.13643 -10.29541 -10.26121
 Alpha  occ. eigenvalues --  -10.25695 -10.25366 -10.24911 -10.24338  -1.07906
 Alpha  occ. eigenvalues --   -1.05548  -1.03149  -1.02458  -1.02293  -1.01388
 Alpha  occ. eigenvalues --   -1.00924  -0.98130  -0.79197  -0.76902  -0.70539
 Alpha  occ. eigenvalues --   -0.65639  -0.63325  -0.58469  -0.56551  -0.55808
 Alpha  occ. eigenvalues --   -0.53894  -0.53508  -0.52271  -0.50680  -0.49386
 Alpha  occ. eigenvalues --   -0.48826  -0.47457  -0.45750  -0.43614  -0.42527
 Alpha  occ. eigenvalues --   -0.42170  -0.41394  -0.40523  -0.40148  -0.39056
 Alpha  occ. eigenvalues --   -0.37567  -0.36394  -0.35502  -0.34256  -0.33611
 Alpha  occ. eigenvalues --   -0.31607  -0.30357  -0.29531  -0.29105  -0.27898
 Alpha  occ. eigenvalues --   -0.27647  -0.27421  -0.25920
 Alpha virt. eigenvalues --    0.03960   0.06215   0.07372   0.08758   0.09263
 Alpha virt. eigenvalues --    0.10694   0.12439   0.12731   0.14361   0.14386
 Alpha virt. eigenvalues --    0.15481   0.16624   0.17334   0.17880   0.19052
 Alpha virt. eigenvalues --    0.20964   0.21109   0.21735   0.22554   0.23653
 Alpha virt. eigenvalues --    0.24739   0.26164   0.28074   0.29133   0.30045
 Alpha virt. eigenvalues --    0.31044   0.32097   0.33616   0.50989   0.52755
 Alpha virt. eigenvalues --    0.54582   0.56506   0.56792   0.57140   0.57955
 Alpha virt. eigenvalues --    0.58293   0.61104   0.62242   0.63653   0.65380
 Alpha virt. eigenvalues --    0.67965   0.68825   0.70507   0.72750   0.73377
 Alpha virt. eigenvalues --    0.75784   0.76402   0.78303   0.79124   0.79364
 Alpha virt. eigenvalues --    0.81288   0.82432   0.83795   0.84290   0.84761
 Alpha virt. eigenvalues --    0.85018   0.86165   0.87523   0.88689   0.89182
 Alpha virt. eigenvalues --    0.90187   0.91574   0.92559   0.94218   0.95444
 Alpha virt. eigenvalues --    0.98485   0.98962   1.00528   1.02235   1.04219
 Alpha virt. eigenvalues --    1.05413   1.06091   1.07671   1.09077   1.10040
 Alpha virt. eigenvalues --    1.11406   1.15155   1.17332   1.18550   1.20599
 Alpha virt. eigenvalues --    1.21070   1.22770   1.24185   1.25326   1.26863
 Alpha virt. eigenvalues --    1.29040   1.31693   1.31975   1.32304   1.34965
 Alpha virt. eigenvalues --    1.40245   1.42585   1.43816   1.46817   1.49054
 Alpha virt. eigenvalues --    1.51046   1.54263   1.56300   1.58601   1.60129
 Alpha virt. eigenvalues --    1.60828   1.64977   1.66221   1.67973   1.70296
 Alpha virt. eigenvalues --    1.72197   1.72995   1.73301   1.74484   1.74987
 Alpha virt. eigenvalues --    1.75159   1.76940   1.77482   1.79275   1.79639
 Alpha virt. eigenvalues --    1.80946   1.81916   1.82600   1.83636   1.86135
 Alpha virt. eigenvalues --    1.86461   1.89364   1.92245   1.92926   1.95446
 Alpha virt. eigenvalues --    1.95889   1.99708   2.00683   2.01405   2.04793
 Alpha virt. eigenvalues --    2.05544   2.09085   2.10689   2.13814   2.16035
 Alpha virt. eigenvalues --    2.17670   2.18520   2.19780   2.24022   2.25740
 Alpha virt. eigenvalues --    2.32765   2.33560   2.36070   2.38301   2.40916
 Alpha virt. eigenvalues --    2.42353   2.44306   2.47079   2.48067   2.51170
 Alpha virt. eigenvalues --    2.52529   2.54469   2.56253   2.58248   2.60906
 Alpha virt. eigenvalues --    2.62982   2.66787   2.67330   2.69120   2.71082
 Alpha virt. eigenvalues --    2.74650   2.79144   2.82415   2.86754   2.89232
 Alpha virt. eigenvalues --    2.91709   2.95798   3.01242   3.06369   3.09737
 Alpha virt. eigenvalues --    3.76255   3.77289   3.80794   3.84194   3.92058
 Alpha virt. eigenvalues --    4.03825   4.08624   4.13561   4.30387   4.39416
 Alpha virt. eigenvalues --    4.47523   4.58603   4.75001   4.78408
          Condensed to atoms (all electrons):
               1          2          3          4          5          6
     1  C    4.950608  -0.038601   0.269021  -0.014536   0.000379   0.005573
     2  C   -0.038601   4.965482   0.281715   0.310393  -0.039312   0.375615
     3  C    0.269021   0.281715   5.176876  -0.002864   0.006522  -0.075843
     4  C   -0.014536   0.310393  -0.002864   5.001361   0.372718  -0.045730
     5  H    0.000379  -0.039312   0.006522   0.372718   0.593457  -0.009002
     6  H    0.005573   0.375615  -0.075843  -0.045730  -0.009002   0.636810
     7  H    0.356167  -0.003957  -0.052938  -0.000738   0.000236  -0.000296
     8  H   -0.040977  -0.057313   0.362185   0.004944  -0.000161  -0.000982
     9  C   -0.010613  -0.013526  -0.035997   0.272807  -0.063914   0.007402
    10  H    0.000210   0.005035  -0.000243  -0.062345   0.000001  -0.000146
    11  O    0.182511  -0.002788  -0.040354  -0.028110   0.003507   0.000073
    12  C    0.344207   0.002219  -0.024903   0.000294   0.000022  -0.000141
    13  H   -0.047702   0.000523   0.005056  -0.000013  -0.000000  -0.000002
    14  H   -0.028188  -0.000306  -0.006319   0.000012  -0.000000   0.000003
    15  O   -0.047404  -0.000036   0.002245  -0.000003  -0.000000   0.000000
    16  H    0.006532   0.000003  -0.000266   0.000000   0.000000  -0.000000
    17  O    0.002562  -0.001772   0.000839  -0.035546   0.006317  -0.000339
    18  O   -0.005020  -0.027803   0.004856   0.235090  -0.037939   0.001528
    19  H   -0.001600  -0.010591  -0.007483  -0.031288   0.002772   0.002053
    20  O    0.002572   0.206560  -0.041956  -0.025153  -0.000062  -0.034474
    21  H   -0.000158  -0.024659   0.004795  -0.015174   0.003970   0.000249
    22  O   -0.036390  -0.031526   0.162640  -0.003022  -0.000208   0.002724
    23  H    0.006319  -0.000988  -0.022149  -0.000473  -0.000015   0.007544
    24  O    0.004896   0.000201   0.001153  -0.000273   0.000016  -0.000042
    25  H   -0.000029   0.000064  -0.000029  -0.000005  -0.000003   0.000001
    26  H   -0.000172  -0.003847  -0.001118   0.000018  -0.000053   0.000340
    27  H   -0.007272  -0.000424  -0.000157   0.000253  -0.000074   0.000024
    28  O    0.000016  -0.000024   0.000004  -0.000080   0.000002  -0.000000
    29  H   -0.000191  -0.000150  -0.000038   0.003700  -0.000042   0.000019
    30  H   -0.000000   0.000002  -0.000000  -0.000004  -0.000001   0.000000
               7          8          9         10         11         12
     1  C    0.356167  -0.040977  -0.010613   0.000210   0.182511   0.344207
     2  C   -0.003957  -0.057313  -0.013526   0.005035  -0.002788   0.002219
     3  C   -0.052938   0.362185  -0.035997  -0.000243  -0.040354  -0.024903
     4  C   -0.000738   0.004944   0.272807  -0.062345  -0.028110   0.000294
     5  H    0.000236  -0.000161  -0.063914   0.000001   0.003507   0.000022
     6  H   -0.000296  -0.000982   0.007402  -0.000146   0.000073  -0.000141
     7  H    0.575104   0.005508  -0.008342   0.003785  -0.035242  -0.036124
     8  H    0.005508   0.604350   0.000371   0.000032   0.002060  -0.007819
     9  C   -0.008342   0.000371   4.763520   0.386917   0.163433   0.002092
    10  H    0.003785   0.000032   0.386917   0.596776  -0.048903  -0.000278
    11  O   -0.035242   0.002060   0.163433  -0.048903   8.423870  -0.037249
    12  C   -0.036124  -0.007819   0.002092  -0.000278  -0.037249   4.896794
    13  H   -0.003471  -0.000332  -0.000105   0.000008   0.003262   0.357451
    14  H    0.006157   0.005460  -0.000039   0.000003  -0.005013   0.341188
    15  O    0.003673   0.000073  -0.000077   0.000027   0.002936   0.251532
    16  H   -0.000122  -0.000011   0.000009  -0.000001  -0.000083  -0.021730
    17  O   -0.000062   0.000033   0.219655  -0.040278  -0.047560  -0.000095
    18  O    0.011988  -0.000056  -0.042690   0.003653   0.000872   0.000511
    19  H    0.001177   0.000947   0.003098  -0.000300   0.000055  -0.000181
    20  O   -0.000105   0.002786   0.015530  -0.000224  -0.004265  -0.000113
    21  H    0.000052  -0.000273  -0.015303   0.001714   0.001963   0.000027
    22  O    0.001191  -0.029724   0.000786   0.000020   0.001132  -0.001202
    23  H   -0.000155  -0.004728  -0.000005  -0.000002  -0.000114  -0.000240
    24  O   -0.000081   0.000545   0.001678  -0.000083  -0.042870  -0.002358
    25  H    0.000001  -0.000007  -0.000077   0.000040   0.000960   0.000017
    26  H    0.000031   0.002325   0.000893   0.000041   0.002484  -0.000191
    27  H    0.000897   0.000590  -0.003089   0.000650   0.067312  -0.002213
    28  O   -0.000000   0.000001   0.001179   0.000047  -0.000332  -0.000003
    29  H   -0.000011  -0.000012  -0.006232  -0.004017   0.003276   0.000008
    30  H    0.000000  -0.000000   0.000007   0.000005   0.000023   0.000000
              13         14         15         16         17         18
     1  C   -0.047702  -0.028188  -0.047404   0.006532   0.002562  -0.005020
     2  C    0.000523  -0.000306  -0.000036   0.000003  -0.001772  -0.027803
     3  C    0.005056  -0.006319   0.002245  -0.000266   0.000839   0.004856
     4  C   -0.000013   0.000012  -0.000003   0.000000  -0.035546   0.235090
     5  H   -0.000000  -0.000000  -0.000000   0.000000   0.006317  -0.037939
     6  H   -0.000002   0.000003   0.000000  -0.000000  -0.000339   0.001528
     7  H   -0.003471   0.006157   0.003673  -0.000122  -0.000062   0.011988
     8  H   -0.000332   0.005460   0.000073  -0.000011   0.000033  -0.000056
     9  C   -0.000105  -0.000039  -0.000077   0.000009   0.219655  -0.042690
    10  H    0.000008   0.000003   0.000027  -0.000001  -0.040278   0.003653
    11  O    0.003262  -0.005013   0.002936  -0.000083  -0.047560   0.000872
    12  C    0.357451   0.341188   0.251532  -0.021730  -0.000095   0.000511
    13  H    0.632100  -0.049110  -0.038177  -0.003388   0.000001  -0.000003
    14  H   -0.049110   0.622474  -0.036725  -0.004301  -0.000010  -0.000006
    15  O   -0.038177  -0.036725   8.239251   0.234294   0.000000  -0.000001
    16  H   -0.003388  -0.004301   0.234294   0.390443  -0.000000   0.000000
    17  O    0.000001  -0.000010   0.000000  -0.000000   8.441334   0.001285
    18  O   -0.000003  -0.000006  -0.000001   0.000000   0.001285   8.292628
    19  H    0.000011  -0.000004  -0.000003   0.000000  -0.000096   0.226566
    20  O   -0.000007  -0.000001   0.000000  -0.000000  -0.041307   0.001420
    21  H    0.000000  -0.000015  -0.000000   0.000000   0.082174   0.000233
    22  O    0.004220   0.000255  -0.000012   0.000003  -0.000001  -0.012090
    23  H   -0.000095   0.000001   0.000002  -0.000001  -0.000000   0.000612
    24  O    0.000046   0.006836   0.000003   0.000001  -0.002089   0.000000
    25  H   -0.000000  -0.000009  -0.000001  -0.000000   0.007260  -0.000000
    26  H   -0.000007   0.000218   0.000001  -0.000001   0.000295  -0.000007
    27  H    0.000101   0.002851   0.000159  -0.000014   0.001744  -0.000007
    28  O    0.000000   0.000008   0.000000   0.000000  -0.066719   0.000000
    29  H   -0.000000  -0.000011  -0.000000   0.000000   0.158546  -0.000032
    30  H   -0.000000  -0.000000  -0.000000  -0.000000   0.004083  -0.000000
              19         20         21         22         23         24
     1  C   -0.001600   0.002572  -0.000158  -0.036390   0.006319   0.004896
     2  C   -0.010591   0.206560  -0.024659  -0.031526  -0.000988   0.000201
     3  C   -0.007483  -0.041956   0.004795   0.162640  -0.022149   0.001153
     4  C   -0.031288  -0.025153  -0.015174  -0.003022  -0.000473  -0.000273
     5  H    0.002772  -0.000062   0.003970  -0.000208  -0.000015   0.000016
     6  H    0.002053  -0.034474   0.000249   0.002724   0.007544  -0.000042
     7  H    0.001177  -0.000105   0.000052   0.001191  -0.000155  -0.000081
     8  H    0.000947   0.002786  -0.000273  -0.029724  -0.004728   0.000545
     9  C    0.003098   0.015530  -0.015303   0.000786  -0.000005   0.001678
    10  H   -0.000300  -0.000224   0.001714   0.000020  -0.000002  -0.000083
    11  O    0.000055  -0.004265   0.001963   0.001132  -0.000114  -0.042870
    12  C   -0.000181  -0.000113   0.000027  -0.001202  -0.000240  -0.002358
    13  H    0.000011  -0.000007   0.000000   0.004220  -0.000095   0.000046
    14  H   -0.000004  -0.000001  -0.000015   0.000255   0.000001   0.006836
    15  O   -0.000003   0.000000  -0.000000  -0.000012   0.000002   0.000003
    16  H    0.000000  -0.000000   0.000000   0.000003  -0.000001   0.000001
    17  O   -0.000096  -0.041307   0.082174  -0.000001  -0.000000  -0.002089
    18  O    0.226566   0.001420   0.000233  -0.012090   0.000612   0.000000
    19  H    0.348703   0.000218  -0.000007   0.046877  -0.001415  -0.000001
    20  O    0.000218   8.367789   0.192478   0.001444   0.000036  -0.018413
    21  H   -0.000007   0.192478   0.338401  -0.000094  -0.000008   0.006112
    22  O    0.046877   0.001444  -0.000094   8.292876   0.229833   0.000002
    23  H   -0.001415   0.000036  -0.000008   0.229833   0.380071  -0.000000
    24  O   -0.000001  -0.018413   0.006112   0.000002  -0.000000   8.451303
    25  H    0.000000   0.000348   0.000136  -0.000000   0.000000   0.091085
    26  H    0.000001   0.053915  -0.004762   0.000025   0.000004   0.224407
    27  H    0.000007   0.001025  -0.000155  -0.000006   0.000004   0.205608
    28  O   -0.000000  -0.000267   0.001833   0.000000  -0.000000  -0.070707
    29  H    0.000003   0.002073  -0.004269  -0.000000   0.000000   0.005233
    30  H    0.000000  -0.000004   0.000234  -0.000000   0.000000   0.003464
              25         26         27         28         29         30
     1  C   -0.000029  -0.000172  -0.007272   0.000016  -0.000191  -0.000000
     2  C    0.000064  -0.003847  -0.000424  -0.000024  -0.000150   0.000002
     3  C   -0.000029  -0.001118  -0.000157   0.000004  -0.000038  -0.000000
     4  C   -0.000005   0.000018   0.000253  -0.000080   0.003700  -0.000004
     5  H   -0.000003  -0.000053  -0.000074   0.000002  -0.000042  -0.000001
     6  H    0.000001   0.000340   0.000024  -0.000000   0.000019   0.000000
     7  H    0.000001   0.000031   0.000897  -0.000000  -0.000011   0.000000
     8  H   -0.000007   0.002325   0.000590   0.000001  -0.000012  -0.000000
     9  C   -0.000077   0.000893  -0.003089   0.001179  -0.006232   0.000007
    10  H    0.000040   0.000041   0.000650   0.000047  -0.004017   0.000005
    11  O    0.000960   0.002484   0.067312  -0.000332   0.003276   0.000023
    12  C    0.000017  -0.000191  -0.002213  -0.000003   0.000008   0.000000
    13  H   -0.000000  -0.000007   0.000101   0.000000  -0.000000  -0.000000
    14  H   -0.000009   0.000218   0.002851   0.000008  -0.000011  -0.000000
    15  O   -0.000001   0.000001   0.000159   0.000000  -0.000000  -0.000000
    16  H   -0.000000  -0.000001  -0.000014   0.000000   0.000000  -0.000000
    17  O    0.007260   0.000295   0.001744  -0.066719   0.158546   0.004083
    18  O   -0.000000  -0.000007  -0.000007   0.000000  -0.000032  -0.000000
    19  H    0.000000   0.000001   0.000007  -0.000000   0.000003   0.000000
    20  O    0.000348   0.053915   0.001025  -0.000267   0.002073  -0.000004
    21  H    0.000136  -0.004762  -0.000155   0.001833  -0.004269   0.000234
    22  O   -0.000000   0.000025  -0.000006   0.000000  -0.000000  -0.000000
    23  H    0.000000   0.000004   0.000004  -0.000000   0.000000   0.000000
    24  O    0.091085   0.224407   0.205608  -0.070707   0.005233   0.003464
    25  H    0.310156  -0.003843  -0.008350   0.179661  -0.012986  -0.005715
    26  H   -0.003843   0.333020  -0.022691   0.003996  -0.000448  -0.000244
    27  H   -0.008350  -0.022691   0.303993   0.005575   0.000830  -0.000257
    28  O    0.179661   0.003996   0.005575   8.426141   0.108769   0.234341
    29  H   -0.012986  -0.000448   0.000830   0.108769   0.299844  -0.008418
    30  H   -0.005715  -0.000244  -0.000257   0.234341  -0.008418   0.377820
 Mulliken charges:
               1
     1  C    0.147280
     2  C    0.109810
     3  C    0.034752
     4  C    0.063766
     5  H    0.160867
     6  H    0.127037
     7  H    0.175677
     8  H    0.150183
     9  C    0.360631
    10  H    0.157855
    11  O   -0.566845
    12  C   -0.061520
    13  H    0.139634
    14  H    0.144591
    15  O   -0.611756
    16  H    0.398633
    17  O   -0.690250
    18  O   -0.655591
    19  H    0.420481
    20  O   -0.681841
    21  H    0.430507
    22  O   -0.629751
    23  H    0.405962
    24  O   -0.865672
    25  H    0.441325
    26  H    0.415370
    27  H    0.453084
    28  O   -0.823440
    29  H    0.454557
    30  H    0.394666
 Sum of Mulliken charges =  -0.00000
 Mulliken charges with hydrogens summed into heavy atoms:
               1
     1  C    0.322957
     2  C    0.236847
     3  C    0.184934
     4  C    0.224633
     9  C    0.518486
    11  O   -0.566845
    12  C    0.222705
    15  O   -0.213123
    17  O   -0.235693
    18  O   -0.235110
    20  O   -0.251335
    22  O   -0.223789
    24  O    0.002782
    28  O    0.012551
 Electronic spatial extent (au):  <R**2>=           2839.6941
 Charge=             -0.0000 electrons
 Dipole moment (field-independent basis, Debye):
    X=             -1.8675    Y=             -0.4297    Z=              3.3458  Tot=              3.8557
 Quadrupole moment (field-independent basis, Debye-Ang):
   XX=            -77.2497   YY=            -80.4686   ZZ=            -87.3432
   XY=             -5.9308   XZ=             -5.7088   YZ=             -1.6262
 Traceless Quadrupole moment (field-independent basis, Debye-Ang):
   XX=              4.4375   YY=              1.2186   ZZ=             -5.6560
   XY=             -5.9308   XZ=             -5.7088   YZ=             -1.6262
 Octapole moment (field-independent basis, Debye-Ang**2):
  XXX=             40.2078  YYY=             47.9919  ZZZ=              5.5619  XYY=            -27.5954
  XXY=            -16.8820  XXZ=             32.7347  XZZ=             -3.5918  YZZ=             -1.8793
  YYZ=             11.2605  XYZ=              7.8560
 Hexadecapole moment (field-independent basis, Debye-Ang**3):
 XXXX=          -1337.5715 YYYY=           -970.8224 ZZZZ=           -545.6180 XXXY=            -27.7627
 XXXZ=             46.1242 YYYX=            -92.7560 YYYZ=            -31.4292 ZZZX=            -36.4975
 ZZZY=            -13.4861 XXYY=           -450.7645 XXZZ=           -336.9858 YYZZ=           -329.0058
 XXYZ=            -24.2613 YYXZ=            -32.8220 ZZXY=             10.5505
 N-N= 1.147927069400D+03 E-N=-4.267881787399D+03  KE= 8.329668147251D+02
 Calling FoFJK, ICntrl=      2127 FMM=F ISym2X=0 I1Cent= 0 IOpClX= 0 NMat=1 NMatS=1 NMatT=0.
 ***** Axes restored to original set *****
 -------------------------------------------------------------------
 Center     Atomic                   Forces (Hartrees/Bohr)
 Number     Number              X              Y              Z
 -------------------------------------------------------------------
      1        6          -0.000472813   -0.001674963   -0.001234102
      2        6           0.000492600   -0.001128983   -0.000676287
      3        6           0.000682325   -0.000544050   -0.000401607
      4        6           0.001024690    0.001553078   -0.000487794
      5        1           0.000438580    0.000391870   -0.000268530
      6        1          -0.000136713   -0.000116285   -0.000297260
      7        1          -0.000200752   -0.000044201    0.000021495
      8        1           0.000115803    0.000015476   -0.000070477
      9        6          -0.010169392    0.006352791   -0.000814713
     10        1          -0.000336455   -0.000100410   -0.000183282
     11        8          -0.000293657   -0.006971042   -0.008058042
     12        6           0.002935948   -0.001081552   -0.000693812
     13        1           0.000302102   -0.000152186    0.000094862
     14        1           0.000358062   -0.000162148   -0.000151633
     15        8          -0.000147304   -0.000626218   -0.000208372
     16        1           0.000304664    0.000003509    0.000075194
     17        8          -0.009024220   -0.010160139   -0.003361710
     18        8           0.002804643   -0.000002288   -0.000098611
     19        1           0.000103381   -0.000078363   -0.000038351
     20        8          -0.004218457   -0.003482306    0.005312497
     21        1           0.000159397   -0.000085146    0.000765705
     22        8           0.000793713   -0.000390925   -0.000399665
     23        1          -0.000036879    0.000171009    0.000093069
     24        8          -0.004971866    0.010499224    0.018188631
     25        1           0.002192194    0.000672151   -0.000363497
     26        1          -0.000944557    0.000517309    0.000782461
     27        1           0.001492100    0.000928097    0.001550848
     28        8           0.016965892    0.005723846   -0.006422473
     29        1          -0.000898916    0.000221476   -0.002132462
     30        1           0.000685886   -0.000248630   -0.000522080
 -------------------------------------------------------------------
 Cartesian Forces:  Max     0.018188631 RMS     0.003931619

 GradGradGradGradGradGradGradGradGradGradGradGradGradGradGradGradGradGrad
 Berny optimization.
 FormGI is forming the generalized inverse of G from B-inverse, IUseBI=4.
 Internal  Forces:  Max     0.014855853 RMS     0.003553584
 Search for a local minimum.
 Step number   1 out of a maximum of  180
 All quantities printed in internal units (Hartrees-Bohrs-Radians)
 Mixed Optimization -- RFO/linear search
 Second derivative matrix not updated -- first step.
 ITU=  0
     Eigenvalues ---    0.00297   0.00433   0.00451   0.00524   0.00571
     Eigenvalues ---    0.00868   0.01190   0.01253   0.01358   0.01439
     Eigenvalues ---    0.01467   0.02034   0.02744   0.03275   0.03613
     Eigenvalues ---    0.04301   0.04532   0.04782   0.04815   0.04949
     Eigenvalues ---    0.05155   0.05326   0.05773   0.05998   0.06235
     Eigenvalues ---    0.06414   0.06556   0.06719   0.07014   0.07566
     Eigenvalues ---    0.07992   0.08396   0.08923   0.09305   0.09811
     Eigenvalues ---    0.10607   0.10970   0.11236   0.11404   0.11683
     Eigenvalues ---    0.12552   0.13666   0.14421   0.16000   0.16000
     Eigenvalues ---    0.16000   0.16000   0.16055   0.16126   0.16765
     Eigenvalues ---    0.17767   0.18646   0.18869   0.21063   0.22018
     Eigenvalues ---    0.23403   0.25471   0.25792   0.26747   0.28029
     Eigenvalues ---    0.30003   0.31932   0.33421   0.33543   0.33591
     Eigenvalues ---    0.33783   0.34054   0.34109   0.34288   0.37546
     Eigenvalues ---    0.39868   0.41682   0.42408   0.42599   0.42916
     Eigenvalues ---    0.44701   0.46171   0.49026   0.49682   0.51868
     Eigenvalues ---    0.52466   0.53134   0.53630   0.53679
 RFO step:  Lambda=-1.57376851D-02 EMin= 2.96730891D-03
 Linear search not attempted -- first point.
 Iteration  1 RMS(Cart)=  0.12574837 RMS(Int)=  0.00409789
 Iteration  2 RMS(Cart)=  0.00654696 RMS(Int)=  0.00057036
 Iteration  3 RMS(Cart)=  0.00002519 RMS(Int)=  0.00057012
 Iteration  4 RMS(Cart)=  0.00000003 RMS(Int)=  0.00057012
 Variable       Old X    -DE/DX   Delta X   Delta X   Delta X     New X
                                 (Linear)    (Quad)   (Total)
    R1        2.91981   0.00227   0.00000   0.00765   0.00808   2.92789
    R2        2.06847   0.00012   0.00000   0.00032   0.00032   2.06879
    R3        2.71850  -0.00187   0.00000  -0.00721  -0.00695   2.71154
    R4        2.87957  -0.00294   0.00000  -0.00932  -0.00932   2.87024
    R5        2.93280  -0.00146   0.00000   0.00023   0.00025   2.93305
    R6        2.91052   0.00212   0.00000   0.01116   0.01077   2.92129
    R7        2.08026   0.00002   0.00000   0.00007   0.00007   2.08033
    R8        2.69331  -0.00118   0.00000  -0.00272  -0.00272   2.69058
    R9        2.07698  -0.00004   0.00000  -0.00011  -0.00011   2.07688
   R10        2.71733  -0.00064   0.00000  -0.00155  -0.00155   2.71578
   R11        2.07239  -0.00007   0.00000  -0.00020  -0.00020   2.07219
   R12        2.94117   0.00010   0.00000  -0.00014  -0.00049   2.94068
   R13        2.68167  -0.00241   0.00000  -0.00546  -0.00546   2.67621
   R14        2.07147   0.00020   0.00000   0.00056   0.00056   2.07203
   R15        2.80280  -0.00453   0.00000  -0.02027  -0.02006   2.78273
   R16        2.62353  -0.00102   0.00000  -0.00307  -0.00341   2.62012
   R17        3.07796   0.01393   0.00000   0.13433   0.13465   3.21260
   R18        2.08318  -0.00022   0.00000  -0.00062  -0.00062   2.08256
   R19        2.08108   0.00009   0.00000   0.00024   0.00024   2.08133
   R20        2.67773  -0.00026   0.00000  -0.00059  -0.00059   2.67714
   R21        1.83070  -0.00003   0.00000  -0.00005  -0.00005   1.83065
   R22        1.92694   0.01240   0.00000   0.02789   0.02709   1.95403
   R23        1.84155  -0.00013   0.00000  -0.00023  -0.00023   1.84132
   R24        1.86888  -0.00042   0.00000  -0.00082  -0.00082   1.86806
   R25        1.83529  -0.00001   0.00000  -0.00001  -0.00001   1.83528
   R26        2.84448   0.01486   0.00000   0.12142   0.12201   2.96649
   R27        1.84726   0.00019   0.00000   0.00035   0.00035   1.84762
   R28        1.86603   0.00954   0.00000   0.01844   0.01858   1.88461
   R29        1.90697   0.01388   0.00000   0.03070   0.03112   1.93808
   R30        2.82948   0.01322   0.00000   0.10516   0.10453   2.93401
   R31        1.83025   0.00044   0.00000   0.00079   0.00079   1.83104
    A1        1.89376  -0.00374   0.00000  -0.02070  -0.02077   1.87299
    A2        1.92405   0.00620   0.00000   0.03366   0.03399   1.95805
    A3        1.94752   0.00161   0.00000   0.01202   0.01228   1.95980
    A4        1.89637  -0.00058   0.00000  -0.00451  -0.00421   1.89216
    A5        1.87730   0.00227   0.00000   0.00746   0.00740   1.88469
    A6        1.92332  -0.00591   0.00000  -0.02901  -0.02967   1.89365
    A7        1.89601  -0.00638   0.00000  -0.00727  -0.00895   1.88706
    A8        1.87684   0.00285   0.00000   0.00098   0.00110   1.87794
    A9        1.95141  -0.00024   0.00000  -0.00025   0.00010   1.95151
   A10        1.91816   0.00104   0.00000  -0.00670  -0.00625   1.91191
   A11        1.92803   0.00646   0.00000   0.04393   0.04454   1.97257
   A12        1.89268  -0.00376   0.00000  -0.03202  -0.03223   1.86045
   A13        1.94454   0.00113   0.00000   0.01719   0.01696   1.96150
   A14        1.93726   0.00172   0.00000   0.01040   0.01022   1.94748
   A15        1.83558  -0.00256   0.00000  -0.01647  -0.01624   1.81934
   A16        1.89305  -0.00084   0.00000   0.00088   0.00097   1.89403
   A17        1.92442   0.00012   0.00000  -0.01123  -0.01144   1.91298
   A18        1.92907   0.00044   0.00000  -0.00124  -0.00123   1.92783
   A19        1.92054  -0.00088   0.00000   0.00417   0.00406   1.92460
   A20        1.85704   0.00595   0.00000   0.05068   0.05001   1.90705
   A21        1.96294  -0.00117   0.00000  -0.01380  -0.01359   1.94935
   A22        1.85653   0.00005   0.00000   0.00464   0.00389   1.86042
   A23        1.89142   0.00084   0.00000  -0.01101  -0.01124   1.88018
   A24        1.97237  -0.00471   0.00000  -0.03271  -0.03225   1.94012
   A25        1.94874  -0.00179   0.00000  -0.02172  -0.02185   1.92689
   A26        1.92552   0.00286   0.00000   0.02334   0.02371   1.94923
   A27        1.86001   0.00061   0.00000   0.01368   0.01303   1.87304
   A28        1.84673  -0.00032   0.00000  -0.00120  -0.00088   1.84586
   A29        1.96460  -0.00053   0.00000  -0.01159  -0.01097   1.95363
   A30        1.91922  -0.00074   0.00000  -0.00187  -0.00278   1.91644
   A31        2.03923  -0.00718   0.00000  -0.01999  -0.02164   2.01760
   A32        1.88519   0.00194   0.00000   0.03061   0.02931   1.91450
   A33        1.99339   0.00729   0.00000   0.06630   0.06551   2.05890
   A34        1.86050   0.00029   0.00000   0.00178   0.00178   1.86229
   A35        1.91255  -0.00022   0.00000  -0.00304  -0.00305   1.90951
   A36        1.89703  -0.00089   0.00000  -0.00419  -0.00419   1.89283
   A37        1.88653   0.00004   0.00000   0.00150   0.00150   1.88803
   A38        1.95057   0.00039   0.00000   0.00312   0.00312   1.95370
   A39        1.95418   0.00039   0.00000   0.00079   0.00078   1.95496
   A40        1.88446  -0.00012   0.00000  -0.00067  -0.00067   1.88380
   A41        2.05508  -0.00400   0.00000  -0.01943  -0.01907   2.03600
   A42        1.90168  -0.00004   0.00000  -0.00024  -0.00024   1.90144
   A43        1.85593   0.00118   0.00000   0.00672   0.00672   1.86265
   A44        1.88926  -0.00004   0.00000  -0.00020  -0.00020   1.88906
   A45        1.93531   0.00147   0.00000   0.00658   0.00739   1.94271
   A46        1.67160  -0.01050   0.00000  -0.05047  -0.05037   1.62123
   A47        1.76267   0.00028   0.00000  -0.00123  -0.00142   1.76125
   A48        2.72462   0.00117   0.00000   0.01630   0.01637   2.74099
   A49        2.79814   0.01076   0.00000   0.04451   0.04524   2.84339
   A50        1.65386   0.00113   0.00000   0.02963   0.02886   1.68271
   A51        1.86386   0.00060   0.00000   0.00908   0.00924   1.87310
   A52        1.92051   0.00100   0.00000   0.00114   0.00108   1.92159
   A53        2.74225   0.00836   0.00000   0.03207   0.02998   2.77223
    D1        1.56175  -0.00024   0.00000  -0.00461  -0.00507   1.55668
    D2       -2.60974   0.00065   0.00000   0.01541   0.01541  -2.59433
    D3       -0.52315   0.00056   0.00000   0.00964   0.00959  -0.51355
    D4       -0.51301  -0.00090   0.00000  -0.00630  -0.00684  -0.51985
    D5        1.59869  -0.00001   0.00000   0.01372   0.01363   1.61232
    D6       -2.59790  -0.00010   0.00000   0.00795   0.00782  -2.59009
    D7       -2.65616   0.00115   0.00000  -0.00136  -0.00194  -2.65810
    D8       -0.54446   0.00204   0.00000   0.01867   0.01853  -0.52593
    D9        1.54213   0.00195   0.00000   0.01289   0.01272   1.55485
   D10        1.07482  -0.00028   0.00000  -0.02098  -0.02130   1.05352
   D11       -1.20078  -0.00624   0.00000  -0.12619  -0.12576  -1.32654
   D12       -0.99835   0.00097   0.00000  -0.01284  -0.01337  -1.01171
   D13        3.00925  -0.00498   0.00000  -0.11805  -0.11783   2.89141
   D14       -3.05110   0.00196   0.00000  -0.00256  -0.00325  -3.05436
   D15        0.95649  -0.00400   0.00000  -0.10777  -0.10772   0.84877
   D16       -0.83352   0.00248   0.00000   0.02064   0.02058  -0.81294
   D17        1.20398   0.00258   0.00000   0.02182   0.02175   1.22573
   D18       -2.93860   0.00234   0.00000   0.01821   0.01815  -2.92045
   D19        1.24158   0.00027   0.00000   0.00700   0.00697   1.24855
   D20       -3.00410   0.00037   0.00000   0.00818   0.00814  -2.99596
   D21       -0.86349   0.00013   0.00000   0.00456   0.00453  -0.85896
   D22       -2.97709  -0.00238   0.00000  -0.01021  -0.01012  -2.98721
   D23       -0.93959  -0.00229   0.00000  -0.00904  -0.00895  -0.94854
   D24        1.20102  -0.00252   0.00000  -0.01265  -0.01255   1.18846
   D25       -0.57650   0.00191   0.00000   0.04935   0.04927  -0.52723
   D26       -2.71385  -0.00041   0.00000   0.02463   0.02442  -2.68943
   D27        1.45482  -0.00049   0.00000   0.03248   0.03227   1.48709
   D28       -2.65172   0.00256   0.00000   0.06074   0.06091  -2.59081
   D29        1.49412   0.00025   0.00000   0.03601   0.03607   1.53019
   D30       -0.62040   0.00016   0.00000   0.04387   0.04391  -0.57648
   D31        1.55572   0.00551   0.00000   0.09947   0.09944   1.65515
   D32       -0.58163   0.00319   0.00000   0.07475   0.07459  -0.50704
   D33       -2.69615   0.00311   0.00000   0.08260   0.08244  -2.61371
   D34       -3.05883  -0.00060   0.00000  -0.04368  -0.04322  -3.10205
   D35        1.22001  -0.00343   0.00000  -0.07845  -0.07823   1.14178
   D36       -0.94835  -0.00093   0.00000  -0.06407  -0.06368  -1.01203
   D37       -1.00978  -0.00029   0.00000  -0.05053  -0.05053  -1.06030
   D38       -3.01413  -0.00312   0.00000  -0.08530  -0.08553  -3.09966
   D39        1.10070  -0.00062   0.00000  -0.07092  -0.07098   1.02971
   D40        1.07799  -0.00023   0.00000  -0.06684  -0.06669   1.01130
   D41       -0.92636  -0.00305   0.00000  -0.10161  -0.10169  -1.02805
   D42       -3.09472  -0.00056   0.00000  -0.08723  -0.08715   3.10132
   D43       -2.02887   0.00148   0.00000  -0.01743  -0.01699  -2.04587
   D44        0.08489  -0.00233   0.00000   0.00358   0.00342   0.08831
   D45        2.18797   0.00050   0.00000   0.00185   0.00157   2.18955
   D46       -3.01455  -0.00018   0.00000   0.00492   0.00491  -3.00964
   D47        1.17038  -0.00009   0.00000   0.00004   0.00008   1.17047
   D48       -0.92251   0.00060   0.00000   0.00698   0.00694  -0.91557
   D49       -2.77223   0.00071   0.00000   0.04281   0.04369  -2.72853
   D50       -0.72382   0.00103   0.00000   0.04271   0.04379  -0.68003
   D51        1.35915   0.00207   0.00000   0.06140   0.06202   1.42118
   D52        1.46358  -0.00117   0.00000   0.01133   0.01148   1.47506
   D53       -2.77120  -0.00086   0.00000   0.01123   0.01157  -2.75963
   D54       -0.68823   0.00019   0.00000   0.02992   0.02981  -0.65842
   D55       -0.60971   0.00044   0.00000   0.04043   0.04045  -0.56926
   D56        1.43870   0.00075   0.00000   0.04033   0.04055   1.47924
   D57       -2.76151   0.00180   0.00000   0.05902   0.05878  -2.70273
   D58        0.16086   0.00156   0.00000   0.01348   0.01325   0.17411
   D59        2.28796   0.00027   0.00000   0.00216   0.00215   2.29010
   D60       -1.94229  -0.00192   0.00000  -0.01881  -0.01857  -1.96086
   D61       -0.40592  -0.00088   0.00000  -0.00737  -0.00685  -0.41278
   D62        1.81784   0.00228   0.00000   0.08366   0.08446   1.90231
   D63        1.70455  -0.00164   0.00000  -0.02128  -0.02059   1.68396
   D64       -2.35486   0.00152   0.00000   0.06974   0.07072  -2.28414
   D65       -2.45260  -0.00289   0.00000  -0.03698  -0.03579  -2.48839
   D66       -0.22883   0.00027   0.00000   0.05405   0.05553  -0.17331
   D67       -2.79844  -0.00307   0.00000  -0.06054  -0.05980  -2.85824
   D68        1.34286  -0.00092   0.00000  -0.03561  -0.03467   1.30820
   D69       -0.71137   0.00031   0.00000  -0.02559  -0.02498  -0.73635
   D70        1.61173  -0.00134   0.00000   0.01691   0.02040   1.63213
   D71       -0.68896   0.00072   0.00000  -0.03848  -0.03868  -0.72764
   D72       -3.10628   0.00039   0.00000   0.00822   0.00822  -3.09806
   D73        1.12839   0.00037   0.00000   0.00682   0.00682   1.13522
   D74       -0.99102  -0.00024   0.00000   0.00208   0.00208  -0.98894
   D75        2.15942   0.00032   0.00000   0.00049  -0.00044   2.15898
   D76        1.44166   0.00009   0.00000   0.02805   0.02833   1.46999
   D77       -0.37536   0.00389   0.00000   0.04921   0.04952  -0.32584
   D78        1.57767  -0.00203   0.00000  -0.04854  -0.04627   1.53139
   D79       -0.38797  -0.00095   0.00000  -0.04237  -0.04154  -0.42951
   D80       -0.35224   0.00255   0.00000   0.01237   0.01255  -0.33969
   D81       -2.31743   0.00095   0.00000  -0.00152  -0.00161  -2.31904
   D82       -0.91855  -0.00036   0.00000  -0.02990  -0.03023  -0.94878
   D83        0.99802   0.00098   0.00000  -0.00741  -0.00758   0.99045
         Item               Value     Threshold  Converged?
 Maximum Force            0.014856     0.000450     NO 
 RMS     Force            0.003554     0.000300     NO 
 Maximum Displacement     0.609480     0.001800     NO 
 RMS     Displacement     0.127602     0.001200     NO 
 Predicted change in Energy=-9.827330D-03
 GradGradGradGradGradGradGradGradGradGradGradGradGradGradGradGradGradGrad

                          Input orientation:                          
 ---------------------------------------------------------------------
 Center     Atomic      Atomic             Coordinates (Angstroms)
 Number     Number       Type             X           Y           Z
 ---------------------------------------------------------------------
      1          6           0       -1.109187    0.706080   -0.168261
      2          6           0       -0.545731   -1.591586    0.853754
      3          6           0       -1.419504   -0.312946    0.956834
      4          6           0       -0.218807   -1.831544   -0.637985
      5          1           0        0.365661   -2.751877   -0.755560
      6          1           0       -1.140628   -2.433303    1.240422
      7          1           0       -1.759219    0.464228   -1.015287
      8          1           0       -1.276010    0.128551    1.953012
      9          6           0        0.672999   -0.668780   -1.161661
     10          1           0        0.576466   -0.573187   -2.249683
     11          8           0        0.254719    0.629783   -0.607399
     12          6           0       -1.400487    2.135941    0.253161
     13          1           0       -2.392935    2.128979    0.732217
     14          1           0       -0.659316    2.454705    1.002905
     15          8           0       -1.375513    2.957414   -0.900766
     16          1           0       -1.522611    3.872447   -0.618754
     17          8           0        1.977004   -0.944511   -0.779627
     18          8           0       -1.394260   -1.964812   -1.416537
     19          1           0       -2.163985   -1.719333   -0.871845
     20          8           0        0.616545   -1.505473    1.671610
     21          1           0        1.395305   -1.540598    1.063746
     22          8           0       -2.800432   -0.654835    0.753136
     23          1           0       -3.091707   -1.201471    1.501170
     24          8           0        1.880740    1.526914    1.310192
     25          1           0        3.162651    1.230781    0.453879
     26          1           0        1.653438    0.768313    1.883592
     27          1           0        1.267965    1.370911    0.538981
     28          8           0        3.708590    0.865755   -0.333865
     29          1           0        2.648112   -0.158877   -0.819781
     30          1           0        4.474567    0.401972    0.036323
 ---------------------------------------------------------------------
                    Distance matrix (angstroms):
                    1          2          3          4          5
     1  C    0.000000
     2  C    2.577065   0.000000
     3  C    1.549371   1.552104   0.000000
     4  C    2.730010   1.545880   2.508239   0.000000
     5  H    3.804939   2.183301   3.473830   1.096558   0.000000
     6  H    3.441090   1.100864   2.157338   2.177219   2.520782
     7  H    1.094755   3.031871   2.146781   2.790304   3.863406
     8  H    2.204805   2.168075   1.099036   3.416565   4.281158
     9  C    2.460339   2.529580   2.998868   1.556141   2.144451
    10  H    2.968209   3.453662   3.785944   2.193967   2.650195
    11  O    1.434887   2.776720   2.477617   2.506650   3.386722
    12  C    1.518867   3.871147   2.548052   4.234554   5.294107
    13  H    2.117431   4.155664   2.638374   4.721232   5.800525
    14  H    2.152139   4.050633   2.870523   4.610695   5.590284
    15  O    2.382436   4.945734   3.761366   4.933675   5.970660
    16  H    3.224864   5.742668   4.473324   5.851136   6.889555
    17  O    3.552857   3.074220   3.866580   2.372441   2.421483
    18  O    2.961946   2.452248   2.891745   1.416190   2.038059
    19  H    2.736833   2.369126   2.424096   1.962397   2.734735
    20  O    3.354734   1.423794   2.465466   2.477572   2.740003
    21  H    3.582999   1.953027   3.072736   2.363449   2.416037
    22  O    2.358256   2.443625   1.437130   3.159850   4.086306
    23  H    3.218095   2.655811   1.970289   3.636830   4.410213
    24  O    3.435005   3.977580   3.794939   4.413925   4.987069
    25  H    4.348674   4.677366   4.861296   4.690870   5.014725
    26  H    3.441811   3.386153   3.386882   4.077120   4.584237
    27  H    2.567692   3.487832   3.198823   3.721755   4.414451
    28  O    4.823266   5.054524   5.417803   4.774134   4.943710
    29  H    3.910233   3.879950   4.441351   3.324167   3.455048
    30  H    5.595771   5.463137   6.008205   5.241283   5.239939
                    6          7          8          9         10
     6  H    0.000000
     7  H    3.723784   0.000000
     8  H    2.662557   3.026048   0.000000
     9  C    3.488953   2.687158   3.759729   0.000000
    10  H    4.311529   2.838201   4.646154   1.096471   0.000000
    11  O    3.839783   2.061486   3.024907   1.472560   2.061009
    12  C    4.681902   2.128914   2.633363   3.763978   4.184728
    13  H    4.758252   2.495348   2.596069   4.562256   5.001077
    14  H    4.917388   3.040540   2.587278   4.026980   4.612442
    15  O    5.805144   2.525138   4.019504   4.172979   4.253815
    16  H    6.585206   3.439358   4.548796   5.073283   5.179741
    17  O    4.002091   3.999930   4.381880   1.386508   2.064086
    18  O    2.709843   2.488862   3.968629   2.453206   2.552354
    19  H    2.453300   2.225388   3.490414   3.039101   3.274471
    20  O    2.033335   4.091869   2.516145   2.954770   4.030794
    21  H    2.694271   4.277000   3.273038   2.496844   3.547561
    22  O    2.480997   2.337466   2.092190   3.966279   4.519627
    23  H    2.322091   3.298883   2.295621   4.641922   5.283855
    24  O    4.981652   4.448197   3.511938   3.519911   4.334083
    25  H    5.706345   5.193347   4.812901   3.523729   4.153541
    26  H    4.297769   4.488005   2.999296   3.507144   4.476992
    27  H    4.556906   3.521600   3.164609   2.721490   3.469055
    28  O    6.072651   5.524717   5.533490   3.500694   3.943491
    29  H    4.875655   4.455452   4.813494   2.068321   2.551076
    30  H    6.404613   6.322172   6.067750   4.127178   4.622982
                   11         12         13         14         15
    11  O    0.000000
    12  C    2.397662   0.000000
    13  H    3.324489   1.102041   0.000000
    14  H    2.599784   1.101391   1.784602   0.000000
    15  O    2.856849   1.416683   2.094776   2.095141   0.000000
    16  H    3.697824   1.946947   2.371132   2.320570   0.968739
    17  O    2.339729   4.686500   5.552331   4.656423   5.145781
    18  O    3.178956   4.427653   4.730076   5.091756   4.949210
    19  H    3.382071   4.087996   4.175517   4.816774   4.742836
    20  O    3.143902   4.397763   4.811307   4.214025   5.522932
    21  H    2.967190   4.689397   5.284550   4.493063   5.636387
    22  O    3.582631   3.162001   2.813559   3.783650   4.220679
    23  H    4.358683   3.944118   3.488763   4.419550   5.100093
    24  O    2.669447   3.500669   4.354404   2.721600   4.187822
    25  H    3.153344   4.656376   5.634604   4.050537   5.040958
    26  H    2.860182   3.722253   4.421562   2.994722   4.660403
    27  H    1.700037   2.790628   3.743554   2.259258   3.402622
    28  O    3.472713   5.297230   6.321462   4.836354   5.526710
    29  H    2.528917   4.775830   5.749360   4.592611   5.089930
    30  H    4.274740   6.129432   7.115435   5.612910   6.452276
                   16         17         18         19         20
    16  H    0.000000
    17  O    5.956196   0.000000
    18  O    5.892922   3.579398   0.000000
    19  H    5.634130   4.213863   0.974385   0.000000
    20  O    6.224451   2.859036   3.713621   3.774420   0.000000
    21  H    6.375429   2.022799   3.756785   4.055490   0.988534
    22  O    4.900122   5.025651   2.898420   2.044207   3.639082
    23  H    5.718460   5.564161   3.460785   2.600009   3.724594
[...]
 031900,0.00000645,0.00048567,0.00089923,0.00075171,0.00041991,0.000607
 13,-0.00052699,0.00021089,-0.00022052,-0.00042921,-0.00060701,-0.00287
 226,-0.00067703,0.00002347,-0.00072922,0.00025069,-0.00015571,0.000050
 33,-0.00561322,-0.00567694,-0.00213740,0.00004600,0.00304625,0.0016739
 7,-0.00086097,0.00049778,0.00008022,0.00024033,-0.00015264,-0.00012667
 ,0.14653718,0.37983040,0.00375831,-0.00154099,-0.00319935,-0.00095126,
 0.00013982,-0.00052299,-0.00037337,-0.00002788,-0.00122785,0.00106989,
 0.00026596,-0.00050363,-0.00012802,-0.00016109,0.00014528,0.00000039,-
 0.00005026,0.00022462,-0.00126888,0.00013477,0.00045544,-0.00036172,0.
 00004114,0.00054789,-0.00162271,0.00350729,0.00076540,0.00010590,-0.00
 073607,-0.00038983,-0.00894686,-0.00630905,-0.00638528,-0.00035672,-0.
 00039183,-0.00058052,-0.00013503,0.00022900,0.00010879,0.00005849,0.00
 060981,-0.00029343,-0.00010937,-0.00002228,0.00057144,0.00004443,0.000
 00651,-0.00006867,-0.00081236,-0.00238722,-0.00036688,-0.00068925,-0.0
 0030799,0.00033791,0.00014491,0.00003544,-0.00025086,0.00079044,0.0009
 3775,0.00249508,0.00045320,0.00072179,-0.00179572,-0.00012304,-0.00001
 507,0.00080439,-0.00005477,-0.00019091,-0.00006482,0.15901586,-0.15910
 434,0.47911122,-0.00085229,0.00028314,0.00021372,-0.00083523,-0.000287
 45,-0.00034832,-0.00035280,-0.00035158,-0.00018608,-0.00011440,0.00016
 048,-0.00022726,0.00001495,0.00020040,-0.00005019,0.00017960,0.0001253
 8,0.00007093,0.00029218,0.00002135,0.00000306,-0.00013462,0.00005299,0
 .00017705,0.00214488,-0.00295209,-0.00114338,-0.00010893,0.00030564,0.
 00023643,0.00110884,0.00207849,0.00207236,-0.00057055,0.00000518,-0.00
 095928,0.00019340,0.00002653,0.00013505,-0.00024751,0.00045375,0.00027
 643,0.00030535,-0.00034652,0.00059950,-0.00012664,0.00014210,-0.000143
 96,-0.00537629,-0.00169486,0.00187697,-0.00012461,0.00012918,0.0003595
 5,-0.00007786,-0.00015939,-0.00016095,0.00079653,0.00180256,0.00087466
 ,0.00033902,-0.00137554,-0.00090671,0.00049206,0.00028996,0.00012146,-
 0.00008293,-0.00002604,0.00000063,0.00010646,0.00314370,-0.00849973,0.
 13684126,-0.00041075,0.00011081,0.00015711,-0.00040286,-0.00004372,-0.
 00013909,-0.00002919,0.00011256,0.00009997,-0.00012329,-0.00025630,-0.
 00000280,-0.00000864,-0.00011418,0.00000184,0.00011310,0.00001308,-0.0
 0002970,0.00007646,0.00000839,-0.00001594,0.00001443,-0.00001102,-0.00
 005752,-0.00279370,0.00126688,-0.00031494,0.00039156,-0.00016865,0.000
 14281,0.00078073,-0.00122600,-0.00054407,0.00023920,0.00032278,-0.0000
 2702,-0.00003850,-0.00009104,-0.00001082,-0.00007354,0.00000628,-0.000
 06337,-0.00023501,-0.00025270,0.00009105,0.00018432,-0.00001214,0.0000
 0702,0.00229894,0.00103024,0.00176146,0.00045055,0.00007524,0.00005853
 ,-0.00006766,0.00006835,0.00004795,0.00062822,-0.00023909,-0.00024304,
 -0.00109663,-0.00049037,0.00060188,0.00020186,-0.00012518,-0.00007845,
 -0.00005910,0.00004026,0.00002969,0.00410386,-0.01048987,0.00114234,-0
 .06098556,0.05790046,-0.00014862,0.00019065,0.00041306,0.00078712,0.00
 018359,0.00044568,0.00033586,0.00023506,0.00034273,-0.00013877,-0.0002
 9625,0.00026036,0.00000261,-0.00015396,0.00001951,-0.00011744,-0.00007
 529,-0.00012778,-0.00001175,-0.00003467,-0.00006993,0.00014341,-0.0000
 5809,-0.00023450,-0.00320552,0.00178210,0.00013599,0.00024427,-0.00027
 171,-0.00010945,0.00044857,-0.00187061,-0.00267390,0.00046922,0.000056
 59,0.00104222,-0.00011418,-0.00008087,-0.00016463,0.00020268,-0.000438
 53,-0.00022866,-0.00004256,0.00029127,-0.00063368,0.00002086,-0.000086
 19,0.00012247,0.00466227,0.00274790,-0.00009242,0.00040449,0.00004525,
 -0.00033315,0.00000842,0.00011443,0.00018209,-0.00071047,-0.00151642,-
 0.00125451,-0.00044441,0.00084710,0.00160063,-0.00024844,-0.00017611,-
 0.00026547,0.00005653,0.00005896,0.00001530,-0.00703893,-0.00093816,-0
 .00270567,-0.13343323,0.08551051,0.32587227,0.00018797,0.00018956,-0.0
 0090734,-0.00216552,-0.00061501,-0.00063809,-0.00084714,-0.00054627,-0
 .00102894,0.00040735,0.00002269,-0.00043636,-0.00003309,0.00003121,0.0
 0002972,0.00026766,0.00014184,0.00009097,-0.00010078,-0.00003753,0.000
 14164,-0.00054699,0.00012528,0.00048815,0.00082172,-0.00020832,-0.0004
 3156,-0.00014788,0.00000959,0.00003199,-0.00098591,-0.00078301,0.00038
 873,-0.00026739,0.00039315,-0.00015511,-0.00006726,0.00000217,0.000015
 68,0.00045449,0.00004769,-0.00018446,-0.00005574,-0.00036652,0.0003847
 0,0.00007143,0.00002136,-0.00000804,-0.00133222,-0.00053168,-0.0001135
 5,0.00000288,0.00003228,0.00051687,-0.00006645,-0.00006351,-0.00020146
 ,-0.00056403,0.00311609,0.00137602,0.00260069,0.00075577,0.00004043,0.
 00075124,0.00022541,0.00044002,-0.00016010,-0.00007513,0.00003809,-0.0
 5482482,-0.10573936,0.05530815,0.00240869,-0.00465891,-0.00038795,0.04
 874106,0.00041463,0.00028960,-0.00027407,-0.00451146,0.00098634,-0.001
 62178,-0.00028880,0.00074992,0.00050937,0.00079518,-0.00012977,-0.0006
 4942,-0.00001970,-0.00009819,-0.00005472,0.00084076,0.00019140,0.00035
 550,-0.00007737,-0.00004712,-0.00001296,-0.00001030,0.00009363,-0.0002
 2801,-0.00096490,0.00121574,-0.00037886,0.00011695,-0.00026200,0.00003
 173,-0.00058975,-0.00168230,-0.00109425,0.00044209,0.00036674,0.000678
 92,-0.00011816,-0.00003474,-0.00005048,0.00006645,-0.00042476,-0.00003
 721,-0.00023949,-0.00012903,-0.00029334,0.00010019,-0.00008019,0.00007
 433,-0.00027057,-0.00082190,0.00117714,0.00033411,-0.00009577,0.000923
 45,-0.00022500,0.00015278,-0.00010519,0.00508432,-0.00047631,0.0026298
 1,0.00034677,-0.00279772,-0.00319091,0.00064533,-0.00063347,-0.0000107
 9,-0.00023371,0.00012418,0.00010692,-0.07974753,-0.32196832,0.22260844
 ,-0.00357782,0.00146507,0.00236823,0.08201164,0.32284149,-0.00130657,0
 .00020501,-0.00001282,-0.00159464,-0.00012629,-0.00136670,-0.00031909,
 0.00001620,0.00043172,-0.00025309,-0.00026890,-0.00019936,0.00001863,-
 0.00000809,-0.00003307,0.00052000,0.00018053,0.00011782,0.00019856,0.0
 0000908,-0.00001272,0.00004258,-0.00004519,-0.00000027,-0.00096157,-0.
 00045374,-0.00109240,0.00012878,0.00003242,0.00019545,0.00101566,-0.00
 079825,0.00110604,0.00000627,0.00022749,-0.00005561,0.00009865,-0.0000
 7216,0.00001117,-0.00028437,-0.00000395,0.00011397,0.00004175,-0.00019
 167,0.00005666,-0.00000353,0.00001532,0.00000211,0.00027103,0.00068537
 ,0.00145753,0.00036019,0.00011303,0.00020536,-0.00011559,0.00001329,0.
 00000784,0.00195183,0.00329338,-0.00058283,0.00005193,-0.00384810,-0.0
 0103039,0.00043678,-0.00011134,-0.00016394,-0.00008839,0.00009742,0.00
 010183,0.02637871,0.17844902,-0.16630671,0.00018753,0.00163410,-0.0015
 6346,-0.03726982,-0.21664456,0.19346361,-0.00594299,-0.00062894,-0.000
 91041,0.00126215,-0.00094951,0.00074595,-0.00055088,-0.00099948,0.0000
 8174,-0.00085044,0.00029165,0.00030566,0.00012609,0.00044798,-0.000114
 63,-0.00024274,0.00013891,-0.00015364,0.00062830,0.00005217,0.00011602
 ,-0.00016260,-0.00001696,0.00015369,0.00821886,-0.00607627,0.00055667,
 -0.00078157,0.00147763,0.00053315,-0.00550612,0.00649061,0.00299502,-0
 .00143963,0.00064017,-0.00226382,0.00055967,-0.00011411,0.00037430,-0.
 00085684,0.00128325,0.00106835,0.00025160,-0.00079120,0.00114355,0.000
 04074,0.00022219,-0.00014808,-0.00427969,-0.00142445,-0.00190156,-0.00
 013235,0.00031942,-0.00009355,-0.00005387,-0.00028535,-0.00007836,-0.0
 0212263,-0.00044629,-0.00092984,0.00115411,0.00117612,0.00035764,0.000
 45035,0.00073214,-0.00014559,0.00004142,-0.00000472,0.00002493,-0.1741
 2143,-0.03686777,-0.21067281,-0.01206476,-0.00010238,0.00048029,0.0071
 3735,-0.00303493,0.00964126,0.18437609,-0.00390283,0.00217997,0.001756
 71,-0.00175819,-0.00095125,-0.00060331,-0.00033494,-0.00006028,0.00019
 545,-0.00031788,-0.00055458,-0.00019883,0.00002348,0.00002089,-0.00004
 747,0.00031982,0.00010931,-0.00003389,0.00120852,-0.00024743,-0.000308
 28,-0.00006302,0.00014036,-0.00013518,-0.00076744,-0.00354640,-0.00266
 790,-0.00010653,0.00045775,0.00051531,0.00392845,-0.00249715,0.0005563
 3,0.00186576,0.00159772,0.00213351,-0.00053845,-0.00053144,-0.00047260
 ,0.00086645,-0.00101161,-0.00136212,-0.00109226,-0.00044012,-0.0006234
 0,0.00062098,-0.00027585,0.00019579,-0.00099025,0.00109096,0.00151220,
 0.00054257,0.00015845,0.00026162,-0.00016853,0.00003014,0.00001718,0.0
 0104896,0.00212389,-0.00054319,0.00046685,-0.00232515,0.00033025,0.000
 71252,-0.00015131,-0.00022693,-0.00010510,0.00011803,0.00008939,-0.064
 60852,-0.05021756,-0.05719251,0.00017441,0.00250664,0.00016398,0.02430
 140,0.00172324,0.03834736,0.03702105,0.05152962,-0.00526081,0.00271309
 ,0.00478894,0.00198580,-0.00007331,0.00144420,0.00090300,-0.00007273,0
 .00143411,-0.00162025,0.00028019,0.00081545,0.00024011,0.00046322,-0.0
 0027087,-0.00025925,-0.00001199,-0.00030005,0.00193341,-0.00025148,-0.
 00058171,0.00030813,-0.00005937,-0.00072413,0.00575320,-0.00669379,-0.
 00201676,-0.00042822,0.00107582,0.00047968,0.00135088,0.00396341,-0.00
 354489,0.00023463,0.00108661,0.00205767,-0.00006604,-0.00047899,-0.000
 37623,0.00007848,-0.00096613,-0.00035528,0.00010101,0.00000227,-0.0010
 6278,0.00013430,-0.00006346,0.00007715,-0.00238509,0.00086647,-0.00120
 075,0.00050807,0.00031277,-0.00041673,-0.00013824,-0.00012228,0.000245
 07,-0.00184970,-0.00309904,-0.00196189,-0.00022167,0.00062761,0.002024
 96,0.00008562,0.00021939,-0.00103118,0.00013728,0.00019932,-0.00000048
 ,-0.18348477,-0.01442295,-0.29187387,0.00043050,-0.00008063,0.00649305
 ,-0.01956305,-0.00432753,-0.02436381,0.19886146,0.01988067,0.31384202,
 0.00157425,-0.00029642,-0.00049559,0.00072295,0.00017111,-0.00007279,0
 .00032108,0.00015129,-0.00007302,-0.00010652,0.00081959,-0.00025064,-0
 .00001150,0.00020636,-0.00005359,-0.00025840,-0.00010539,0.00013098,-0
 .00029309,-0.00005823,0.00001712,0.00000592,0.00001537,0.00000400,0.00
 501791,-0.00312012,0.00187615,-0.00062745,0.00011094,-0.00037308,-0.00
 236763,0.00098254,0.00041132,0.00014394,-0.00036809,0.00052176,-0.0001
 5605,0.00012028,-0.00004146,0.00008132,-0.00012577,-0.00013407,-0.0001
 9824,0.00046407,-0.00042612,0.00003749,-0.00011655,0.00011040,-0.01369
 109,-0.01593523,-0.00384576,-0.00132590,-0.00050153,-0.00011474,0.0001
 5613,-0.00004658,-0.00007355,-0.00097079,-0.00085318,0.00069864,0.0004
 9020,0.00093329,-0.00154440,-0.00069394,-0.00009168,0.00014631,0.00015
 382,-0.00004658,-0.00004598,-0.00807874,0.00069882,0.01271540,-0.11513
 594,0.05257213,0.15692267,-0.00156088,0.00165886,-0.00012723,0.0028054
 4,-0.00045500,0.00011313,0.50490765,0.00080927,0.00016168,-0.00018861,
 0.00057974,-0.00006256,-0.00011786,0.00014452,-0.00026181,-0.00019836,
 -0.00026898,0.00126112,-0.00053277,0.00003565,0.00043847,-0.00010272,-
 0.00022220,-0.00001100,0.00017110,-0.00003356,-0.00006871,0.00001293,-
 0.00007395,0.00006608,0.00013357,0.00689725,-0.00819332,0.00150740,-0.
 00099939,0.00041437,-0.00039708,-0.00136854,0.00329610,0.00156011,-0.0
 0048338,-0.00066402,0.00006077,0.00004286,0.00019592,0.00002007,0.0000
 0336,0.00011218,0.00009882,0.00037081,0.00048034,-0.00020022,-0.000269
 04,0.00000161,0.00002488,-0.02236412,-0.00769166,-0.00434947,-0.001755
 56,-0.00043158,0.00007956,0.00014856,-0.00027144,-0.00022206,-0.001014
 34,0.00053516,0.00121013,0.00155646,0.00017715,-0.00227756,-0.00043011
 ,0.00030871,0.00022150,0.00015172,-0.00008726,-0.00007326,0.00355368,0
 .00603661,-0.00370981,0.04982416,-0.04207908,-0.09126183,0.00189213,-0
 .00160985,-0.00099417,-0.00165447,-0.00152326,-0.00057043,-0.23503105,
 0.16075815,0.00007185,0.00000716,-0.00020966,-0.00072101,-0.00022061,-
 0.00052393,-0.00024888,-0.00021489,-0.00025729,-0.00000511,0.00042353,
 -0.00037736,0.00001100,0.00022311,-0.00006086,0.00009720,0.00007198,0.
 00014407,0.00008350,0.00001432,0.00004451,-0.00011441,0.00007007,0.000
 19544,0.00332618,-0.00280652,0.00012458,-0.00001047,0.00028788,0.00013
 429,-0.00034865,0.00186896,0.00213804,-0.00047001,-0.00007719,-0.00082
 094,0.00009725,0.00007549,0.00013200,-0.00014378,0.00033273,0.00021285
 ,0.00012125,-0.00020301,0.00051884,-0.00007383,0.00007940,-0.00011395,
 -0.00835522,-0.00515271,0.00466227,-0.00055977,-0.00007471,0.00038762,
 -0.00000437,-0.00014626,-0.00020948,0.00058983,0.00121694,0.00145462,-
 0.00004284,-0.00089937,-0.00174572,0.00022670,0.00019355,0.00024293,-0
 .00003850,-0.00005326,-0.00002208,0.01571103,-0.00136357,-0.00812835,0
 .10546346,-0.06335686,-0.33624201,0.00037195,-0.00237787,0.00077154,-0
 .00182290,-0.00004396,-0.00343713,-0.03758719,0.03288037,0.43130474,-0
 .00270308,-0.00013124,0.00108534,-0.00065749,-0.00033627,0.00005190,-0
 .00019549,-0.00012543,0.00037049,-0.00308424,0.00172774,-0.00286436,0.
 00016279,-0.00069639,-0.00003804,0.00024453,0.00011206,-0.00023124,0.0
 0060213,0.00001043,-0.00007613,0.00010884,-0.00003875,-0.00019614,-0.0
 3696667,-0.02181320,0.00367153,0.00228142,-0.00014535,0.00055291,0.006
 57177,-0.00488196,-0.00269205,0.00071789,0.00089893,-0.00013948,0.0000
 9161,-0.00040785,-0.00008470,-0.00001860,-0.00011488,-0.00002331,-0.00
 014083,-0.00061603,0.00026702,0.00016151,0.00005536,-0.00007356,-0.150
 17867,-0.13582200,0.01002198,0.00085264,-0.00018162,0.00049351,-0.0002
 3829,-0.00025762,0.00011283,0.00188697,0.00003943,-0.00270711,-0.00167
 503,-0.00057999,0.00556760,0.00083378,0.00008239,-0.00036943,-0.000149
 76,0.00011138,0.00007546,-0.00484945,-0.00117550,0.00101509,0.00891680
 ,-0.00071329,-0.00535780,0.00039439,0.00079090,0.00059838,0.00193633,0
 .00200497,0.00237945,-0.00313257,0.01217816,0.00729763,0.18240618,-0.0
 0050806,-0.00096159,0.00003187,-0.00070051,0.00017910,0.00039841,-0.00
 028926,0.00038497,0.00023505,0.00144582,-0.00276904,0.00108058,-0.0001
 0080,-0.00004119,0.00006805,0.00024715,0.00000738,-0.00032149,-0.00018
 851,0.00013881,0.00002374,0.00012126,-0.00010712,-0.00014787,0.0037475
 5,0.01996523,-0.00422781,0.00179332,-0.00086336,0.00093207,0.00199114,
 -0.00327083,-0.00184330,0.00064779,0.00068300,-0.00007777,-0.00004415,
 -0.00022722,-0.00003397,0.00005473,-0.00018570,-0.00011698,-0.00039083
 ,-0.00045039,0.00018682,0.00023102,-0.00001363,-0.00001900,-0.17405303
 ,-0.26943723,0.04366550,0.00308027,0.00145646,0.00006323,-0.00022823,0
 .00043148,0.00032833,0.00155976,-0.00039912,-0.00273974,-0.00151428,-0
 .00057640,0.00443581,0.00041281,-0.00044803,-0.00027430,-0.00019976,0.
 00008406,0.00010179,-0.00397146,-0.00091410,0.00224968,0.00250587,-0.0
 0362959,-0.00632129,0.00031814,0.00100243,0.00017920,0.00315129,0.0005
 7908,-0.00046769,0.00754587,-0.00625324,0.00211770,0.15184616,0.259558
 53,0.00044621,0.00007569,-0.00043012,-0.00055894,-0.00001807,0.0004720
 0,0.00016828,0.00015095,-0.00004709,-0.00093785,0.00095964,0.00091141,
 -0.00016290,-0.00024289,0.00002049,0.00004145,-0.00000232,-0.00004405,
 -0.00030628,0.00003293,0.00007036,0.00004929,-0.00002958,-0.00006291,-
 0.00685506,-0.01135983,0.00017219,-0.00066165,-0.00044414,0.00029796,-
 0.00031870,0.00066011,-0.00037680,0.00005400,-0.00004655,0.00036192,-0
 .00006555,0.00004855,-0.00004094,0.00004808,-0.00011876,-0.00010428,-0
 .00005361,0.00008539,-0.00023440,0.00004313,-0.00003659,0.00004819,0.0
 2377730,0.05385856,-0.03057635,0.00009397,-0.00030717,-0.00032556,-0.0
 0001477,0.00009437,0.00018099,0.00084893,-0.00128929,-0.00320365,0.001
 11694,0.00305830,0.00377388,-0.00007984,-0.00018951,-0.00007336,-0.000
 01671,0.00002328,0.00002266,-0.00187935,0.00175251,0.00165799,-0.00403
 061,-0.00661581,-0.00352351,0.00083118,0.00008009,-0.00097060,0.002254
 98,-0.00149524,-0.00028077,0.00575947,0.00431273,-0.00777003,-0.017889
 81,-0.04272150,0.04027209,-0.00019242,-0.00004710,0.00000654,-0.000276
 90,-0.00003290,-0.00009237,-0.00008206,0.00002259,0.00001844,-0.000064
 56,-0.00017414,-0.00000248,-0.00000535,-0.00003940,0.00000150,0.000073
 47,0.00002211,-0.00001220,0.00001663,0.00001431,0.00000684,-0.00000004
 ,-0.00000073,-0.00000104,-0.00098481,0.00067842,-0.00017744,0.00017881
 ,-0.00006365,0.00009662,0.00031019,-0.00028391,-0.00002284,0.00000625,
 0.00008271,-0.00009006,0.00001910,-0.00002382,0.00000591,-0.00002857,0
 .00002960,0.00002095,0.00001230,-0.00009393,0.00007882,-0.00000057,0.0
 0001679,-0.00001859,0.00190403,-0.00053854,0.00056934,0.00025081,0.000
 07974,0.00006781,-0.00004772,0.00001660,0.00000955,0.00042254,0.000086
 01,-0.00001454,-0.00046114,-0.00017698,0.00017508,0.00015811,-0.000027
 16,-0.00001336,-0.00004556,0.00001069,0.00001411,0.00083647,-0.0009184
 1,0.00062545,-0.01793464,0.00974367,-0.01378919,-0.00052073,0.00026131
 ,0.00037535,0.00012004,0.00010276,-0.00026140,-0.36780940,0.18778037,-
 0.08292189,-0.00417942,0.00148892,-0.00170159,0.38832515,-0.00002505,-
 0.00004839,-0.00003086,-0.00016196,-0.00000825,-0.00007670,-0.00003373
 ,0.00004697,0.00001600,-0.00009982,-0.00003909,-0.00001528,-0.00001431
 ,-0.00003347,-0.00000615,0.00003150,0.00000467,0.00000158,-0.00001021,
 0.00000726,0.00000347,0.00000298,-0.00000434,-0.00000735,-0.00027301,0
 .00043046,0.00004342,0.00010250,-0.00003378,0.00004595,0.00004966,-0.0
 0020362,-0.00003246,0.00002566,0.00006472,-0.00002577,0.00000084,-0.00
 001241,0.00000420,-0.00000432,-0.00000240,-0.00000008,-0.00001735,-0.0
 0006666,0.00003768,0.00002119,0.00000964,-0.00000562,-0.00029599,-0.00
 363078,0.00030934,0.00011074,-0.00000630,0.00004320,-0.00003450,0.0000
 2205,0.00000989,0.00025336,-0.00007693,0.00005811,-0.00037215,0.000044
 95,-0.00000033,0.00007665,-0.00005237,-0.00000941,-0.00002840,0.000012
 89,0.00001241,-0.00014037,-0.00000474,-0.00048244,0.01003159,-0.005698
 10,0.00898436,-0.00001215,0.00008887,0.00006819,-0.00004775,-0.0000326
 7,0.00007093,0.19070090,-0.10503487,0.03712757,-0.00182056,0.00607723,
 -0.00027587,-0.19801593,0.10817946,0.00012216,-0.00006443,-0.00002061,
 0.00016630,0.00003471,0.00008808,0.00002829,0.00000938,-0.00000644,-0.
 00000515,0.00003357,0.00002424,-0.00000534,-0.00000845,0.00001239,-0.0
 0003463,-0.00001455,-0.00000486,-0.00002910,-0.00000032,-0.00000060,0.
 00000410,-0.00001139,-0.00000550,0.00025923,0.00019584,0.00010146,-0.0
 0006124,0.00001844,-0.00004062,-0.00014705,-0.00008404,-0.00002853,0.0
 0003686,-0.00002082,0.00004101,-0.00001059,0.00000540,-0.00000182,0.00
 001708,-0.00002193,-0.00002233,-0.00004466,0.00003750,-0.00004220,0.00
 001849,-0.00001241,0.00001726,-0.00015984,-0.00123715,-0.00007659,-0.0
 0006248,-0.00003683,-0.00006996,0.00001275,0.00001020,0.00002034,-0.00
 022988,-0.00004313,-0.00013150,0.00020159,0.00009039,0.00010801,-0.000
 08600,-0.00001565,-0.00000984,0.00001821,-0.00000053,0.00000129,0.0005
 6803,0.00078616,-0.00256105,0.03699040,-0.01970620,0.01327740,0.000831
 40,-0.00019198,-0.00028798,-0.00045948,-0.00000095,0.00009704,-0.13416
 815,0.06290228,-0.08254956,-0.00081798,0.00321489,-0.00019770,0.097046
 69,-0.04586798,0.07226916\\0.00001183,-0.00000914,-0.00004611,-0.00003
 327,-0.00001251,-0.00000173,-0.00000725,-0.00001830,0.00000401,0.00002
 896,0.00002318,0.00000938,-0.00000276,-0.00000100,0.00000400,0.0000009
 7,-0.00000799,-0.00001107,0.00000298,-0.00000713,-0.00000788,0.0000045
 5,-0.00000084,-0.00000523,-0.00010127,0.00007114,-0.00003272,0.0000167
 9,-0.00001305,0.00000385,0.00000443,0.00003159,0.00002387,0.00000611,0
 .00000579,-0.00000551,-0.00000131,-0.00001430,-0.00000835,0.00000432,-
 0.00000139,-0.00000304,0.00000766,-0.00000422,0.00000153,-0.00000341,0
 .00000013,0.00000135,0.00001844,-0.00003011,0.00004768,-0.00001087,0.0
 0000216,0.00000031,0.00000827,0.00000986,-0.00000233,0.00002401,0.0000
 0302,-0.00002763,0.00000672,0.00000682,0.00002188,0.00001537,-0.000014
 65,-0.00001905,-0.00000510,0.00000403,-0.00001232,0.00007552,-0.000011
 45,-0.00008264,0.00001913,0.00005549,0.00002205,-0.00003099,0.00003143
 ,0.00003163,-0.00004241,-0.00008192,0.00006916,-0.00005799,-0.00005485
 ,0.00004439,0.00003657,0.00002570,-0.00001753,0.00000400,0.00001252,-0
 .00000198\\\@


 THOSE WHO ARE UNABLE TO LEARN FROM PAST MEETINGS
 ARE CONDEMNED TO REPEAT THEM.
 Job cpu time:       0 days  0 hours 35 minutes  0.0 seconds.
 File lengths (MBytes):  RWF=    221 Int=      0 D2E=      0 Chk=      6 Scr=      1
 Normal termination of Gaussian 09 at Sun Jan 15 12:53:02 2017.
