 Entering Gaussian System, Link 0=g09
 Initial command:
 /global/software/gaussian/g09.e01/l1.exe "/scratch/10462952.yak.local/Gau-1966.inp" -scrdir="/scratch/10462952.yak.local/"
 Entering Link 1 = /global/software/gaussian/g09.e01/l1.exe PID=      1967.
  
 Copyright (c) 1988,1990,1992,1993,1995,1998,2003,2009,2015,
            Gaussian, Inc.  All Rights Reserved.
  
 This is part of the Gaussian(R) 09 program.  It is based on
 the Gaussian(R) 03 system (copyright 2003, Gaussian, Inc.),
 the Gaussian(R) 98 system (copyright 1998, Gaussian, Inc.),
 the Gaussian(R) 94 system (copyright 1995, Gaussian, Inc.),
 the Gaussian 92(TM) system (copyright 1992, Gaussian, Inc.),
 the Gaussian 90(TM) system (copyright 1990, Gaussian, Inc.),
 the Gaussian 88(TM) system (copyright 1988, Gaussian, Inc.),
 the Gaussian 86(TM) system (copyright 1986, Carnegie Mellon
 University), and the Gaussian 82(TM) system (copyright 1983,
 Carnegie Mellon University). Gaussian is a federally registered
 trademark of Gaussian, Inc.
  
 This software contains proprietary and confidential information,
 including trade secrets, belonging to Gaussian, Inc.
  
 This software is provided under written license and may be
 used, copied, transmitted, or stored only in accord with that
 written license.
  
 The following legend is applicable only to US Government
 contracts under FAR:
  
                    RESTRICTED RIGHTS LEGEND
  
 Use, reproduction and disclosure by the US Government is
 subject to restrictions as set forth in subparagraphs (a)
 and (c) of the Commercial Computer Software - Restricted
 Rights clause in FAR 52.227-19.
  
 Gaussian, Inc.
 340 Quinnipiac St., Bldg. 40, Wallingford CT 06492
  
  
 ---------------------------------------------------------------
 Warning -- This program may not be used in any manner that
 competes with the business of Gaussian, Inc. or will provide
 assistance to any competitor of Gaussian, Inc.  The licensee
 of this program is prohibited from giving any competitor of
 Gaussian, Inc. access to this program.  By using this program,
 the user acknowledges that Gaussian, Inc. is engaged in the
 business of creating and licensing software in the field of
 computational chemistry and represents and warrants to the
 licensee that it is not a competitor of Gaussian, Inc. and that
 it will not use this program in any manner prohibited above.
 ---------------------------------------------------------------
  

 Cite this work as:
 Gaussian 09, Revision E.01,
 M. J. Frisch, G. W. Trucks, H. B. Schlegel, G. E. Scuseria, 
 M. A. Robb, J. R. Cheeseman, G. Scalmani, V. Barone, B. Mennucci, 
 G. A. Petersson, H. Nakatsuji, M. Caricato, X. Li, H. P. Hratchian, 
 A. F. Izmaylov, J. Bloino, G. Zheng, J. L. Sonnenberg, M. Hada, 
 M. Ehara, K. Toyota, R. Fukuda, J. Hasegawa, M. Ishida, T. Nakajima, 
 Y. Honda, O. Kitao, H. Nakai, T. Vreven, J. A. Montgomery, Jr., 
 J. E. Peralta, F. Ogliaro, M. Bearpark, J. J. Heyd, E. Brothers, 
 K. N. Kudin, V. N. Staroverov, T. Keith, R. Kobayashi, J. Normand, 
 K. Raghavachari, A. Rendell, J. C. Burant, S. S. Iyengar, J. Tomasi, 
 M. Cossi, N. Rega, J. M. Millam, M. Klene, J. E. Knox, J. B. Cross, 
 V. Bakken, C. Adamo, J. Jaramillo, R. Gomperts, R. E. Stratmann, 
 O. Yazyev, A. J. Austin, R. Cammi, C. Pomelli, J. W. Ochterski, 
 R. L. Martin, K. Morokuma, V. G. Zakrzewski, G. A. Voth, 
 P. Salvador, J. J. Dannenberg, S. Dapprich, A. D. Daniels, 
 O. Farkas, J. B. Foresman, J. V. Ortiz, J. Cioslowski, 
 and D. J. Fox, Gaussian, Inc., Wallingford CT, 2013.
 
 ******************************************
 Gaussian 09:  ES64L-G09RevE.01 30-Nov-2015
                15-Jan-2017 
 ******************************************
 %NPROCS=4
 Will use up to    4 processors via shared memory.
 -----------------------------------------
 # opt=(MaxCycle=1000) freq B3LYP/6-31G(d)
 -----------------------------------------
 1/6=1000,14=-1,18=20,19=15,26=3,38=1/1,3;
 2/9=110,12=2,17=6,18=5,40=1/2;
 3/5=1,6=6,7=1,11=2,16=1,25=1,30=1,71=1,74=-5/1,2,3;
 4//1;
 5/5=2,38=5/2;
 6/7=2,8=2,9=2,10=2,28=1/1;
 7//1,2,3,16;
 1/6=1000,14=-1,18=20,19=15,26=3/3(2);
 2/9=110/2;
 99//99;
 2/9=110/2;
 3/5=1,6=6,7=1,11=2,16=1,25=1,30=1,71=1,74=-5/1,2,3;
 4/5=5,16=3,69=1/1;
 5/5=2,38=5/2;
 7//1,2,3,16;
 1/6=1000,14=-1,18=20,19=15,26=3/3(-5);
 2/9=110/2;
 6/7=2,8=2,9=2,10=2,19=2,28=1/1;
 99/9=1/99;
 -----------------------------------------------
 ./boats/6/glo_1w_alpha_ts_boat6_B3LYP_631Gd.out
 -----------------------------------------------
 Symbolic Z-matrix:
 Charge =  0 Multiplicity = 1
 C                    -0.44828   0.85846   0.13364 
 C                     1.49256  -0.75489   0.07146 
 C                     1.06019   0.74215  -0.04568 
 C                     0.35782  -1.7739    0.34037 
 H                     0.75168  -2.76953   0.07959 
 H                     2.15705  -0.83117   0.93496 
 H                    -0.74241   0.48989   1.12137 
 H                     1.26726   1.05065  -1.08624 
 C                    -0.93199  -1.52916  -0.4881 
 O                    -0.97167  -0.01027  -0.89696 
 C                    -0.97384   2.27785  -0.00882 
 H                    -0.38832   2.91703   0.66234 
 H                    -0.83939   2.63012  -1.04238 
 O                    -2.36273   2.27953   0.35779 
 H                    -2.69784   3.18399   0.26821 
 O                     0.04754  -1.70352   1.71684 
 H                    -0.91313  -1.88776   1.7587 
 O                     2.30209  -1.14933  -1.05501 
 H                     1.78905  -0.98092  -1.86264 
 O                     1.73189   1.58284   0.86077 
 H                     2.67816   1.55083   0.59479 
 O                    -3.3991   -0.08665  -0.73157 
 H                    -2.80225  -1.25547  -0.09438 
 H                    -2.49453   0.16662  -1.05947 
 H                    -3.54946   0.616    -0.07447 
 O                     4.15387   0.868    -0.36608 
 H                     4.8229    0.47709   0.2158 
 H                     3.70741   0.0992   -0.78294 
 O                    -2.03642  -1.86499   0.2289 
 H                    -0.88975  -1.98395  -1.48584 
 
 Add virtual bond connecting atoms O10        and H24        Dist= 2.91D+00.
 Add virtual bond connecting atoms H23        and O22        Dist= 2.76D+00.
 Add virtual bond connecting atoms O26        and H21        Dist= 3.57D+00.
 Add virtual bond connecting atoms H28        and O18        Dist= 3.59D+00.

 GradGradGradGradGradGradGradGradGradGradGradGradGradGradGradGradGradGrad
 Berny optimization.
 Initialization pass.
                           ----------------------------
                           !    Initial Parameters    !
                           ! (Angstroms and Degrees)  !
 --------------------------                            --------------------------
 ! Name  Definition              Value          Derivative Info.                !
 --------------------------------------------------------------------------------
 ! R1    R(1,3)                  1.5235         estimate D2E/DX2                !
 ! R2    R(1,7)                  1.0945         estimate D2E/DX2                !
 ! R3    R(1,10)                 1.4459         estimate D2E/DX2                !
 ! R4    R(1,11)                 1.5203         estimate D2E/DX2                !
 ! R5    R(2,3)                  1.5626         estimate D2E/DX2                !
 ! R6    R(2,4)                  1.5487         estimate D2E/DX2                !
 ! R7    R(2,6)                  1.0922         estimate D2E/DX2                !
 ! R8    R(2,18)                 1.4422         estimate D2E/DX2                !
 ! R9    R(3,8)                  1.1049         estimate D2E/DX2                !
 ! R10   R(3,20)                 1.407          estimate D2E/DX2                !
 ! R11   R(4,5)                  1.102          estimate D2E/DX2                !
 ! R12   R(4,9)                  1.5524         estimate D2E/DX2                !
 ! R13   R(4,16)                 1.4128         estimate D2E/DX2                !
 ! R14   R(9,10)                 1.5735         estimate D2E/DX2                !
 ! R15   R(9,29)                 1.3589         estimate D2E/DX2                !
 ! R16   R(9,30)                 1.0973         estimate D2E/DX2                !
 ! R17   R(10,24)                1.5417         estimate D2E/DX2                !
 ! R18   R(11,12)                1.0963         estimate D2E/DX2                !
 ! R19   R(11,13)                1.1002         estimate D2E/DX2                !
 ! R20   R(11,14)                1.4365         estimate D2E/DX2                !
 ! R21   R(14,15)                0.9687         estimate D2E/DX2                !
 ! R22   R(16,17)                0.9791         estimate D2E/DX2                !
 ! R23   R(18,19)                0.9715         estimate D2E/DX2                !
 ! R24   R(18,28)                1.8994         estimate D2E/DX2                !
 ! R25   R(20,21)                0.9835         estimate D2E/DX2                !
 ! R26   R(21,26)                1.8887         estimate D2E/DX2                !
 ! R27   R(22,23)                1.4589         estimate D2E/DX2                !
 ! R28   R(22,24)                0.9949         estimate D2E/DX2                !
 ! R29   R(22,25)                0.9737         estimate D2E/DX2                !
 ! R30   R(23,29)                1.0308         estimate D2E/DX2                !
 ! R31   R(26,27)                0.969          estimate D2E/DX2                !
 ! R32   R(26,28)                0.9819         estimate D2E/DX2                !
 ! A1    A(3,1,7)              110.2784         estimate D2E/DX2                !
 ! A2    A(3,1,10)             103.2166         estimate D2E/DX2                !
 ! A3    A(3,1,11)             113.7367         estimate D2E/DX2                !
 ! A4    A(7,1,10)             110.0977         estimate D2E/DX2                !
 ! A5    A(7,1,11)             107.8222         estimate D2E/DX2                !
 ! A6    A(10,1,11)            111.6549         estimate D2E/DX2                !
 ! A7    A(3,2,4)              116.1457         estimate D2E/DX2                !
 ! A8    A(3,2,6)              107.1278         estimate D2E/DX2                !
 ! A9    A(3,2,18)             111.0258         estimate D2E/DX2                !
 ! A10   A(4,2,6)              105.2209         estimate D2E/DX2                !
 ! A11   A(4,2,18)             111.5285         estimate D2E/DX2                !
 ! A12   A(6,2,18)             104.8871         estimate D2E/DX2                !
 ! A13   A(1,3,2)              109.7717         estimate D2E/DX2                !
 ! A14   A(1,3,8)              105.9672         estimate D2E/DX2                !
 ! A15   A(1,3,20)             110.5632         estimate D2E/DX2                !
 ! A16   A(2,3,8)              106.6326         estimate D2E/DX2                !
 ! A17   A(2,3,20)             113.0818         estimate D2E/DX2                !
 ! A18   A(8,3,20)             110.5137         estimate D2E/DX2                !
 ! A19   A(2,4,5)              106.9485         estimate D2E/DX2                !
 ! A20   A(2,4,9)              114.355          estimate D2E/DX2                !
 ! A21   A(2,4,16)             107.2971         estimate D2E/DX2                !
 ! A22   A(5,4,9)              108.2461         estimate D2E/DX2                !
 ! A23   A(5,4,16)             110.7363         estimate D2E/DX2                !
 ! A24   A(9,4,16)             109.2467         estimate D2E/DX2                !
 ! A25   A(4,9,10)             108.1687         estimate D2E/DX2                !
 ! A26   A(4,9,29)             110.7764         estimate D2E/DX2                !
 ! A27   A(4,9,30)             112.8255         estimate D2E/DX2                !
 ! A28   A(10,9,29)            110.8038         estimate D2E/DX2                !
 ! A29   A(10,9,30)             99.4848         estimate D2E/DX2                !
 ! A30   A(29,9,30)            114.1175         estimate D2E/DX2                !
 ! A31   A(1,10,9)             112.683          estimate D2E/DX2                !
 ! A32   A(1,10,24)            111.3304         estimate D2E/DX2                !
 ! A33   A(9,10,24)             99.3845         estimate D2E/DX2                !
 ! A34   A(1,11,12)            107.5988         estimate D2E/DX2                !
 ! A35   A(1,11,13)            110.1654         estimate D2E/DX2                !
 ! A36   A(1,11,14)            108.1456         estimate D2E/DX2                !
 ! A37   A(12,11,13)           108.8555         estimate D2E/DX2                !
 ! A38   A(12,11,14)           111.0681         estimate D2E/DX2                !
 ! A39   A(13,11,14)           110.9495         estimate D2E/DX2                !
 ! A40   A(11,14,15)           108.1782         estimate D2E/DX2                !
 ! A41   A(4,16,17)            104.3462         estimate D2E/DX2                !
 ! A42   A(2,18,19)            107.7878         estimate D2E/DX2                !
 ! A43   A(2,18,28)             97.1025         estimate D2E/DX2                !
 ! A44   A(19,18,28)           113.3186         estimate D2E/DX2                !
 ! A45   A(3,20,21)            105.4064         estimate D2E/DX2                !
 ! A46   A(20,21,26)           154.3083         estimate D2E/DX2                !
 ! A47   A(23,22,24)            88.621          estimate D2E/DX2                !
 ! A48   A(23,22,25)           110.2777         estimate D2E/DX2                !
 ! A49   A(24,22,25)           100.3176         estimate D2E/DX2                !
 ! A50   A(22,23,29)           156.1593         estimate D2E/DX2                !
 ! A51   A(10,24,22)           146.5241         estimate D2E/DX2                !
 ! A52   A(21,26,27)           112.3212         estimate D2E/DX2                !
 ! A53   A(21,26,28)            98.2671         estimate D2E/DX2                !
 ! A54   A(27,26,28)           104.655          estimate D2E/DX2                !
 ! A55   A(18,28,26)           155.7661         estimate D2E/DX2                !
 ! A56   A(9,29,23)            106.9906         estimate D2E/DX2                !
 ! D1    D(7,1,3,2)             60.6141         estimate D2E/DX2                !
 ! D2    D(7,1,3,8)            175.3996         estimate D2E/DX2                !
 ! D3    D(7,1,3,20)           -64.8227         estimate D2E/DX2                !
 ! D4    D(10,1,3,2)           -56.9712         estimate D2E/DX2                !
 ! D5    D(10,1,3,8)            57.8143         estimate D2E/DX2                !
 ! D6    D(10,1,3,20)          177.592          estimate D2E/DX2                !
 ! D7    D(11,1,3,2)          -178.1264         estimate D2E/DX2                !
 ! D8    D(11,1,3,8)           -63.3409         estimate D2E/DX2                !
 ! D9    D(11,1,3,20)           56.4367         estimate D2E/DX2                !
 ! D10   D(3,1,10,9)            79.9822         estimate D2E/DX2                !
 ! D11   D(3,1,10,24)         -169.3507         estimate D2E/DX2                !
 ! D12   D(7,1,10,9)           -37.7299         estimate D2E/DX2                !
 ! D13   D(7,1,10,24)           72.9372         estimate D2E/DX2                !
 ! D14   D(11,1,10,9)         -157.4613         estimate D2E/DX2                !
 ! D15   D(11,1,10,24)         -46.7942         estimate D2E/DX2                !
 ! D16   D(3,1,11,12)          -52.2705         estimate D2E/DX2                !
 ! D17   D(3,1,11,13)           66.2635         estimate D2E/DX2                !
 ! D18   D(3,1,11,14)         -172.3247         estimate D2E/DX2                !
 ! D19   D(7,1,11,12)           70.3496         estimate D2E/DX2                !
 ! D20   D(7,1,11,13)         -171.1164         estimate D2E/DX2                !
 ! D21   D(7,1,11,14)          -49.7047         estimate D2E/DX2                !
 ! D22   D(10,1,11,12)        -168.5863         estimate D2E/DX2                !
 ! D23   D(10,1,11,13)         -50.0523         estimate D2E/DX2                !
 ! D24   D(10,1,11,14)          71.3595         estimate D2E/DX2                !
 ! D25   D(4,2,3,1)             -0.2684         estimate D2E/DX2                !
 ! D26   D(4,2,3,8)           -114.6284         estimate D2E/DX2                !
 ! D27   D(4,2,3,20)           123.7122         estimate D2E/DX2                !
 ! D28   D(6,2,3,1)           -117.4825         estimate D2E/DX2                !
 ! D29   D(6,2,3,8)            128.1575         estimate D2E/DX2                !
 ! D30   D(6,2,3,20)             6.4982         estimate D2E/DX2                !
 ! D31   D(18,2,3,1)           128.5342         estimate D2E/DX2                !
 ! D32   D(18,2,3,8)            14.1743         estimate D2E/DX2                !
 ! D33   D(18,2,3,20)         -107.4851         estimate D2E/DX2                !
 ! D34   D(3,2,4,5)            162.3463         estimate D2E/DX2                !
 ! D35   D(3,2,4,9)             42.5286         estimate D2E/DX2                !
 ! D36   D(3,2,4,16)           -78.7998         estimate D2E/DX2                !
 ! D37   D(6,2,4,5)            -79.3878         estimate D2E/DX2                !
 ! D38   D(6,2,4,9)            160.7945         estimate D2E/DX2                !
 ! D39   D(6,2,4,16)            39.466          estimate D2E/DX2                !
 ! D40   D(18,2,4,5)            33.7882         estimate D2E/DX2                !
 ! D41   D(18,2,4,9)           -86.0295         estimate D2E/DX2                !
 ! D42   D(18,2,4,16)          152.6421         estimate D2E/DX2                !
 ! D43   D(3,2,18,19)          -56.9967         estimate D2E/DX2                !
 ! D44   D(3,2,18,28)           60.3199         estimate D2E/DX2                !
 ! D45   D(4,2,18,19)           74.2365         estimate D2E/DX2                !
 ! D46   D(4,2,18,28)         -168.4469         estimate D2E/DX2                !
 ! D47   D(6,2,18,19)         -172.3788         estimate D2E/DX2                !
 ! D48   D(6,2,18,28)          -55.0622         estimate D2E/DX2                !
 ! D49   D(1,3,20,21)         -171.9167         estimate D2E/DX2                !
 ! D50   D(2,3,20,21)           64.5375         estimate D2E/DX2                !
 ! D51   D(8,3,20,21)          -54.9122         estimate D2E/DX2                !
 ! D52   D(2,4,9,10)           -24.0558         estimate D2E/DX2                !
 ! D53   D(2,4,9,29)          -145.6778         estimate D2E/DX2                !
 ! D54   D(2,4,9,30)            84.9882         estimate D2E/DX2                !
 ! D55   D(5,4,9,10)          -143.1447         estimate D2E/DX2                !
 ! D56   D(5,4,9,29)            95.2333         estimate D2E/DX2                !
 ! D57   D(5,4,9,30)           -34.1007         estimate D2E/DX2                !
 ! D58   D(16,4,9,10)           96.1923         estimate D2E/DX2                !
 ! D59   D(16,4,9,29)          -25.4298         estimate D2E/DX2                !
 ! D60   D(16,4,9,30)         -154.7638         estimate D2E/DX2                !
 ! D61   D(2,4,16,17)          147.086          estimate D2E/DX2                !
 ! D62   D(5,4,16,17)          -96.5312         estimate D2E/DX2                !
 ! D63   D(9,4,16,17)           22.5987         estimate D2E/DX2                !
 ! D64   D(4,9,10,1)           -36.285          estimate D2E/DX2                !
 ! D65   D(4,9,10,24)         -154.2327         estimate D2E/DX2                !
 ! D66   D(29,9,10,1)           85.3201         estimate D2E/DX2                !
 ! D67   D(29,9,10,24)         -32.6275         estimate D2E/DX2                !
 ! D68   D(30,9,10,1)         -154.2395         estimate D2E/DX2                !
 ! D69   D(30,9,10,24)          87.8129         estimate D2E/DX2                !
 ! D70   D(4,9,29,23)          149.9835         estimate D2E/DX2                !
 ! D71   D(10,9,29,23)          29.9232         estimate D2E/DX2                !
 ! D72   D(30,9,29,23)         -81.3756         estimate D2E/DX2                !
 ! D73   D(1,10,24,22)         -83.712          estimate D2E/DX2                !
 ! D74   D(9,10,24,22)          35.2445         estimate D2E/DX2                !
 ! D75   D(1,11,14,15)         179.9325         estimate D2E/DX2                !
 ! D76   D(12,11,14,15)         62.0787         estimate D2E/DX2                !
 ! D77   D(13,11,14,15)        -59.1419         estimate D2E/DX2                !
 ! D78   D(2,18,28,26)          -8.0792         estimate D2E/DX2                !
 ! D79   D(19,18,28,26)        104.8099         estimate D2E/DX2                !
 ! D80   D(3,20,21,26)         -11.0738         estimate D2E/DX2                !
 ! D81   D(20,21,26,27)       -115.521          estimate D2E/DX2                !
 ! D82   D(20,21,26,28)         -5.8866         estimate D2E/DX2                !
 ! D83   D(24,22,23,29)          8.5591         estimate D2E/DX2                !
 ! D84   D(25,22,23,29)        -91.933          estimate D2E/DX2                !
 ! D85   D(23,22,24,10)        -18.8012         estimate D2E/DX2                !
 ! D86   D(25,22,24,10)         91.563          estimate D2E/DX2                !
 ! D87   D(22,23,29,9)         -20.0064         estimate D2E/DX2                !
 ! D88   D(21,26,28,18)        -11.037          estimate D2E/DX2                !
 ! D89   D(27,26,28,18)        104.7285         estimate D2E/DX2                !
 --------------------------------------------------------------------------------
 Trust Radius=3.00D-01 FncErr=1.00D-07 GrdErr=1.00D-06
 Number of steps in this run=    180 maximum allowed number of steps=    180.
 GradGradGradGradGradGradGradGradGradGradGradGradGradGradGradGradGradGrad

                          Input orientation:                          
 ---------------------------------------------------------------------
 Center     Atomic      Atomic             Coordinates (Angstroms)
 Number     Number       Type             X           Y           Z
 ---------------------------------------------------------------------
      1          6           0       -0.448280    0.858460    0.133640
      2          6           0        1.492560   -0.754890    0.071460
      3          6           0        1.060190    0.742150   -0.045680
      4          6           0        0.357820   -1.773900    0.340370
      5          1           0        0.751680   -2.769530    0.079590
      6          1           0        2.157050   -0.831170    0.934960
      7          1           0       -0.742410    0.489890    1.121370
      8          1           0        1.267260    1.050650   -1.086240
      9          6           0       -0.931990   -1.529160   -0.488100
     10          8           0       -0.971670   -0.010270   -0.896960
     11          6           0       -0.973840    2.277850   -0.008820
     12          1           0       -0.388320    2.917030    0.662340
     13          1           0       -0.839390    2.630120   -1.042380
     14          8           0       -2.362730    2.279530    0.357790
     15          1           0       -2.697840    3.183990    0.268210
     16          8           0        0.047540   -1.703520    1.716840
     17          1           0       -0.913130   -1.887760    1.758700
     18          8           0        2.302090   -1.149330   -1.055010
     19          1           0        1.789050   -0.980920   -1.862640
     20          8           0        1.731890    1.582840    0.860770
     21          1           0        2.678160    1.550830    0.594790
     22          8           0       -3.399100   -0.086650   -0.731570
     23          1           0       -2.802250   -1.255470   -0.094380
     24          1           0       -2.494530    0.166620   -1.059470
     25          1           0       -3.549460    0.616000   -0.074470
     26          8           0        4.153870    0.868000   -0.366080
     27          1           0        4.822900    0.477090    0.215800
     28          1           0        3.707410    0.099200   -0.782940
     29          8           0       -2.036420   -1.864990    0.228900
     30          1           0       -0.889750   -1.983950   -1.485840
 ---------------------------------------------------------------------
                    Distance matrix (angstroms):
                    1          2          3          4          5
     1  C    0.000000
     2  C    2.524604   0.000000
     3  C    1.523537   1.562624   0.000000
     4  C    2.760770   1.548654   2.640618   0.000000
     5  H    3.821667   2.146566   3.527431   1.102003   0.000000
     6  H    3.206978   1.092244   2.154087   2.116484   2.542432
     7  H    1.094517   2.765299   2.162177   2.635377   3.733822
     8  H    2.113793   2.156619   1.104905   3.292473   4.027252
     9  C    2.514213   2.605963   3.053419   1.552376   2.166918
    10  O    1.445948   2.750405   2.327932   2.531584   3.396631
    11  C    1.520255   3.909870   2.548924   4.279244   5.334911
    12  H    2.126224   4.167715   2.707319   4.760800   5.828907
    13  H    2.162121   4.258747   2.857664   4.768721   5.739908
    14  O    2.394745   4.914565   3.773951   4.881802   5.938851
    15  H    3.238320   5.754384   4.492649   5.824340   6.883253
    16  O    3.052229   2.386474   3.180132   1.412762   2.076723
    17  H    3.224691   3.149209   3.750494   1.907862   2.523593
    18  O    3.606750   1.442171   2.477652   2.473330   2.513192
    19  H    3.517684   1.969705   2.607978   2.744174   2.836815
    20  O    2.409686   2.478966   1.406980   3.664231   4.529258
    21  H    3.235222   2.644970   1.918852   4.062331   4.758389
    22  O    3.217011   5.001974   4.587224   4.255622   5.008473
    23  H    3.172045   4.327063   4.348712   3.231690   3.866919
    24  H    2.467649   4.245594   3.740994   3.723046   4.522866
    25  H    3.117597   5.227103   4.611466   4.598973   5.475888
    26  O    4.629211   3.147663   3.112772   4.678536   5.000514
    27  H    5.285597   3.553839   3.781087   5.001941   5.209024
    28  H    4.322772   2.522901   2.822182   3.998760   4.208314
    29  O    3.154115   3.702811   4.057286   2.398564   2.934960
    30  H    3.301046   3.100189   3.648006   2.221620   2.400417
                    6          7          8          9         10
     6  H    0.000000
     7  H    3.191679   0.000000
     8  H    2.901417   3.037559   0.000000
     9  C    3.471953   2.588995   3.442367   0.000000
    10  O    3.717351   2.091979   2.484791   1.573457   0.000000
    11  C    4.512117   2.127837   2.772974   3.837289   2.454443
    12  H    4.538968   2.495415   3.046613   4.624683   3.367610
    13  H    4.986888   3.044964   2.633367   4.197072   2.647698
    14  O    5.517064   2.532055   4.095387   4.155558   2.958484
    15  H    6.335300   3.436534   4.701882   5.089599   3.813211
    16  O    2.412957   2.406170   4.114660   2.419017   3.276864
    17  H    3.349766   2.467500   4.634872   2.275315   3.252833
    18  O    2.020456   4.085664   2.431411   3.305288   3.469862
    19  H    2.825671   4.180417   2.236591   3.097416   3.081603
    20  O    2.452287   2.717464   2.071221   4.312801   3.596783
    21  H    2.461949   3.619831   2.250929   4.867461   4.240709
    22  O    5.848285   3.289952   4.816031   2.868230   2.434256
    23  H    5.082738   2.960958   4.781515   1.930750   2.354927
    24  H    5.158540   2.816113   3.864361   2.375640   1.541688
    25  H    5.973065   3.053763   4.940991   3.409392   2.777356
    26  O    2.926974   5.131182   2.980689   5.623810   5.227270
    27  H    3.055404   5.638519   3.829733   6.135085   5.920540
    28  H    2.494070   4.855917   2.636585   4.925700   4.681749
    29  O    4.376356   2.831329   4.598353   1.358910   2.416866
    30  H    4.058591   3.597101   3.744485   1.097316   2.061287
                   11         12         13         14         15
    11  C    0.000000
    12  H    1.096285   0.000000
    13  H    1.100190   1.786575   0.000000
    14  O    1.436461   2.097010   2.098560   0.000000
    15  H    1.967234   2.358069   2.340567   0.968696   0.000000
    16  O    4.457850   4.759351   5.213480   4.849856   5.789939
    17  H    4.525497   4.956152   5.316270   4.629276   5.579373
    18  O    4.855079   5.169418   4.914601   5.959331   6.747435
    19  H    4.657230   5.129374   4.541050   5.726964   6.482220
    20  O    2.925782   2.512912   3.366045   4.183812   4.747348
    21  H    3.772268   3.357732   4.027201   5.098798   5.628076
    22  O    3.463396   4.475475   3.745605   2.803493   3.491191
    23  H    3.979291   4.879492   4.455259   3.590802   4.455466
    24  H    2.806003   3.868528   2.967931   2.547624   3.302816
    25  H    3.065921   3.978748   3.512550   2.088662   2.727134
    26  O    5.329983   5.087992   5.338080   6.706898   7.260307
    27  H    6.074157   5.771440   6.187090   7.409604   7.993221
    28  H    5.221099   5.177258   5.210207   6.549939   7.186659
    29  O    4.283539   5.076595   4.822349   4.159343   5.092271
    30  H    4.511275   5.374543   4.635605   4.872977   5.749216
                   16         17         18         19         20
    16  O    0.000000
    17  H    0.979073   0.000000
    18  O    3.615698   4.335883   0.000000
    19  H    4.045700   4.608496   0.971513   0.000000
    20  O    3.790785   4.455050   3.385276   3.740735   0.000000
    21  H    4.332430   5.106462   3.186555   3.638576   0.983462
    22  O    4.526401   3.952909   5.808396   5.384788   5.625816
    23  H    3.406255   2.720748   5.195032   4.927693   5.433851
    24  H    4.203265   3.829280   4.973862   4.506771   4.853414
    25  H    4.639760   4.071801   6.190193   5.852127   5.449964
    26  O    5.273824   6.146820   2.823709   3.354187   2.807516
    27  H    5.460059   6.393363   3.258018   3.956002   3.345596
    28  H    4.784699   5.635365   1.899414   2.452043   2.967431
    29  O    2.565722   1.898048   4.580749   4.448634   5.146548
    30  H    3.348778   3.246050   3.327168   2.885137   5.010146
                   21         22         23         24         25
    21  H    0.000000
    22  O    6.432236   0.000000
    23  H    6.195577   1.458897   0.000000
    24  H    5.604403   0.994943   1.745975   0.000000
    25  H    6.332856   0.973707   2.015222   1.511636   0.000000
    26  O    1.888716   7.621830   7.278087   6.721157   7.712965
    27  H    2.428263   8.295577   7.825656   7.434211   8.378542
    28  H    2.250494   7.109125   6.684678   6.208468   7.309663
    29  O    5.833435   2.437600   1.030786   2.448918   2.921752
    30  H    5.436329   3.235044   2.474773   2.716995   3.978161
                   26         27         28         29         30
    26  O    0.000000
    27  H    0.969018   0.000000
    28  H    0.981913   1.544215   0.000000
    29  O    6.792858   7.248157   6.154141   0.000000
    30  H    5.901321   6.448772   5.095828   2.066237   0.000000
 Stoichiometry    C6H16O8
 Framework group  C1[X(C6H16O8)]
 Deg. of freedom    84
 Full point group                 C1      NOp   1
 Largest Abelian subgroup         C1      NOp   1
 Largest concise Abelian subgroup C1      NOp   1
                         Standard orientation:                         
 ---------------------------------------------------------------------
 Center     Atomic      Atomic             Coordinates (Angstroms)
 Number     Number       Type             X           Y           Z
 ---------------------------------------------------------------------
      1          6           0       -0.454905    0.844354    0.141396
      2          6           0        1.483413   -0.772045    0.079725
      3          6           0        1.053416    0.725662   -0.037621
      4          6           0        0.347022   -1.789251    0.348497
      5          1           0        0.739370   -2.785519    0.087874
      6          1           0        2.147614   -0.849298    0.943361
      7          1           0       -0.749805    0.476327    1.129098
      8          1           0        1.261172    1.033752   -1.078165
      9          6           0       -0.942241   -1.542554   -0.480245
     10          8           0       -0.979457   -0.023637   -0.889236
     11          6           0       -0.978208    2.264556   -0.001282
     12          1           0       -0.391817    2.902871    0.669941
     13          1           0       -0.843004    2.616530   -1.034844
     14          8           0       -2.367165    2.268446    0.365058
     15          1           0       -2.700838    3.173423    0.275339
     16          8           0        0.036585   -1.718272    1.724900
     17          1           0       -0.924381   -1.901001    1.766588
     18          8           0        2.292542   -1.167847   -1.046555
     19          1           0        1.779924   -0.998698   -1.854299
     20          8           0        1.726258    1.565370    0.868892
     21          1           0        2.672528    1.531854    0.603099
     22          8           0       -3.407036   -0.096193   -0.724312
     23          1           0       -2.812146   -1.265897   -0.086911
     24          1           0       -2.502006    0.155630   -1.052057
     25          1           0       -3.556421    0.606745   -0.067299
     26          8           0        4.147352    0.846630   -0.357428
     27          1           0        4.815654    0.454718    0.224614
     28          1           0        3.699767    0.078498   -0.774313
     29          8           0       -2.047336   -1.876592    0.236567
     30          1           0       -0.900520   -1.997491   -1.477939
 ---------------------------------------------------------------------
 Rotational constants (GHZ):      0.8693413      0.4831482      0.3662652
 Standard basis: 6-31G(d) (6D, 7F)
 There are   242 symmetry adapted cartesian basis functions of A   symmetry.
 There are   242 symmetry adapted basis functions of A   symmetry.
   242 basis functions,   456 primitive gaussians,   242 cartesian basis functions
    58 alpha electrons       58 beta electrons
       nuclear repulsion energy      1120.5922280887 Hartrees.
 NAtoms=   30 NActive=   30 NUniq=   30 SFac= 1.00D+00 NAtFMM=   60 NAOKFM=F Big=F
 Integral buffers will be    131072 words long.
 Raffenetti 2 integral format.
 Two-electron integral symmetry is turned on.
 One-electron integrals computed using PRISM.
 NBasis=   242 RedAO= T EigKep=  1.33D-03  NBF=   242
 NBsUse=   242 1.00D-06 EigRej= -1.00D+00 NBFU=   242
 ExpMin= 1.61D-01 ExpMax= 5.48D+03 ExpMxC= 8.25D+02 IAcc=1 IRadAn=         1 AccDes= 0.00D+00
 Harris functional with IExCor=  402 and IRadAn=       1 diagonalized for initial guess.
 HarFok:  IExCor=  402 AccDes= 0.00D+00 IRadAn=         1 IDoV= 1 UseB2=F ITyADJ=14
 ICtDFT=  3500011 ScaDFX=  1.000000  1.000000  1.000000  1.000000
 FoFCou: FMM=F IPFlag=           0 FMFlag=      100000 FMFlg1=           0
         NFxFlg=           0 DoJE=T BraDBF=F KetDBF=T FulRan=T
         wScrn=  0.000000 ICntrl=     500 IOpCl=  0 I1Cent=   200000004 NGrid=           0
         NMat0=    1 NMatS0=      1 NMatT0=    0 NMatD0=    1 NMtDS0=    0 NMtDT0=    0
 Petite list used in FoFCou.
 Requested convergence on RMS density matrix=1.00D-08 within 128 cycles.
 Requested convergence on MAX density matrix=1.00D-06.
 Requested convergence on             energy=1.00D-06.
 No special actions if energy rises.
 Integral accuracy reduced to 1.0D-05 until final iterations.
 Initial convergence to 1.0D-05 achieved.  Increase integral accuracy.
 SCF Done:  E(RB3LYP) =  -839.981446204     A.U. after   14 cycles
            NFock= 14  Conv=0.48D-08     -V/T= 2.0085

 **********************************************************************

            Population analysis using the SCF density.

 **********************************************************************

 Orbital symmetries:
       Occupied  (A) (A) (A) (A) (A) (A) (A) (A) (A) (A) (A) (A)
                 (A) (A) (A) (A) (A) (A) (A) (A) (A) (A) (A) (A)
                 (A) (A) (A) (A) (A) (A) (A) (A) (A) (A) (A) (A)
                 (A) (A) (A) (A) (A) (A) (A) (A) (A) (A) (A) (A)
                 (A) (A) (A) (A) (A) (A) (A) (A) (A) (A)
       Virtual   (A) (A) (A) (A) (A) (A) (A) (A) (A) (A) (A) (A)
                 (A) (A) (A) (A) (A) (A) (A) (A) (A) (A) (A) (A)
                 (A) (A) (A) (A) (A) (A) (A) (A) (A) (A) (A) (A)
                 (A) (A) (A) (A) (A) (A) (A) (A) (A) (A) (A) (A)
                 (A) (A) (A) (A) (A) (A) (A) (A) (A) (A) (A) (A)
                 (A) (A) (A) (A) (A) (A) (A) (A) (A) (A) (A) (A)
                 (A) (A) (A) (A) (A) (A) (A) (A) (A) (A) (A) (A)
                 (A) (A) (A) (A) (A) (A) (A) (A) (A) (A) (A) (A)
                 (A) (A) (A) (A) (A) (A) (A) (A) (A) (A) (A) (A)
                 (A) (A) (A) (A) (A) (A) (A) (A) (A) (A) (A) (A)
                 (A) (A) (A) (A) (A) (A) (A) (A) (A) (A) (A) (A)
                 (A) (A) (A) (A) (A) (A) (A) (A) (A) (A) (A) (A)
                 (A) (A) (A) (A) (A) (A) (A) (A) (A) (A) (A) (A)
                 (A) (A) (A) (A) (A) (A) (A) (A) (A) (A) (A) (A)
                 (A) (A) (A) (A) (A) (A) (A) (A) (A) (A) (A) (A)
                 (A) (A) (A) (A)
 The electronic state is 1-A.
 Alpha  occ. eigenvalues --  -19.17909 -19.17177 -19.17015 -19.15490 -19.14681
 Alpha  occ. eigenvalues --  -19.14071 -19.13770 -19.13199 -10.30068 -10.24728
 Alpha  occ. eigenvalues --  -10.24611 -10.24573 -10.24313 -10.24144  -1.07446
 Alpha  occ. eigenvalues --   -1.04789  -1.03870  -1.01985  -1.01584  -1.00889
 Alpha  occ. eigenvalues --   -0.99924  -0.99554  -0.77759  -0.76442  -0.69945
 Alpha  occ. eigenvalues --   -0.65529  -0.61780  -0.57911  -0.55690  -0.53729
 Alpha  occ. eigenvalues --   -0.53608  -0.52854  -0.51975  -0.51119  -0.50246
 Alpha  occ. eigenvalues --   -0.47943  -0.46045  -0.45114  -0.44443  -0.43052
 Alpha  occ. eigenvalues --   -0.42152  -0.41152  -0.40080  -0.39520  -0.38298
 Alpha  occ. eigenvalues --   -0.36666  -0.36161  -0.34867  -0.34279  -0.32619
 Alpha  occ. eigenvalues --   -0.31487  -0.30356  -0.29559  -0.29465  -0.28506
 Alpha  occ. eigenvalues --   -0.27845  -0.27190  -0.24970
 Alpha virt. eigenvalues --    0.04278   0.04907   0.07185   0.07847   0.09037
 Alpha virt. eigenvalues --    0.10365   0.12608   0.13347   0.13664   0.14721
 Alpha virt. eigenvalues --    0.15648   0.16061   0.16957   0.17891   0.18921
 Alpha virt. eigenvalues --    0.20271   0.20415   0.21564   0.22924   0.23748
 Alpha virt. eigenvalues --    0.23916   0.25722   0.26360   0.28106   0.30751
 Alpha virt. eigenvalues --    0.31302   0.32830   0.34192   0.51761   0.52778
 Alpha virt. eigenvalues --    0.53407   0.54461   0.57731   0.57879   0.59385
 Alpha virt. eigenvalues --    0.60108   0.61987   0.62689   0.64557   0.66264
 Alpha virt. eigenvalues --    0.67674   0.68363   0.70340   0.73752   0.73915
 Alpha virt. eigenvalues --    0.76045   0.76994   0.78781   0.79802   0.80462
 Alpha virt. eigenvalues --    0.81927   0.82619   0.83355   0.84633   0.85145
 Alpha virt. eigenvalues --    0.85652   0.86241   0.87428   0.89567   0.89998
 Alpha virt. eigenvalues --    0.91285   0.92474   0.93155   0.94370   0.95791
 Alpha virt. eigenvalues --    0.97820   0.98429   0.99381   1.00839   1.02578
 Alpha virt. eigenvalues --    1.04461   1.05831   1.06070   1.08974   1.10528
 Alpha virt. eigenvalues --    1.11689   1.13086   1.13606   1.15211   1.16765
 Alpha virt. eigenvalues --    1.17602   1.18746   1.20149   1.20685   1.23940
 Alpha virt. eigenvalues --    1.27292   1.29102   1.32467   1.34797   1.37101
 Alpha virt. eigenvalues --    1.40440   1.42309   1.44937   1.48084   1.49485
 Alpha virt. eigenvalues --    1.51463   1.54330   1.55009   1.57155   1.60420
 Alpha virt. eigenvalues --    1.62419   1.64160   1.66281   1.67424   1.69563
 Alpha virt. eigenvalues --    1.70746   1.71280   1.72007   1.72962   1.73951
 Alpha virt. eigenvalues --    1.75538   1.76631   1.77990   1.79714   1.79835
 Alpha virt. eigenvalues --    1.80519   1.82652   1.85726   1.86394   1.86986
 Alpha virt. eigenvalues --    1.88008   1.89718   1.91923   1.92310   1.94622
 Alpha virt. eigenvalues --    1.95875   1.96863   2.00652   2.03237   2.04630
 Alpha virt. eigenvalues --    2.05697   2.08262   2.09643   2.11326   2.15671
 Alpha virt. eigenvalues --    2.18565   2.21600   2.23705   2.25896   2.27470
 Alpha virt. eigenvalues --    2.30253   2.32783   2.33525   2.38169   2.40425
 Alpha virt. eigenvalues --    2.40907   2.44806   2.46173   2.47718   2.48332
 Alpha virt. eigenvalues --    2.50600   2.53621   2.55951   2.56951   2.59036
 Alpha virt. eigenvalues --    2.63231   2.63762   2.65742   2.67704   2.69730
 Alpha virt. eigenvalues --    2.71364   2.76328   2.82258   2.87329   2.88917
 Alpha virt. eigenvalues --    2.92652   2.93973   2.97542   3.02557   3.05666
 Alpha virt. eigenvalues --    3.71118   3.76535   3.79576   3.82759   3.89094
 Alpha virt. eigenvalues --    3.93049   4.07726   4.15017   4.30539   4.34432
 Alpha virt. eigenvalues --    4.42651   4.51105   4.63649   4.80978
          Condensed to atoms (all electrons):
               1          2          3          4          5          6
     1  C    4.997952  -0.041824   0.317081   0.002291   0.000119   0.000503
     2  C   -0.041824   5.098154   0.306920   0.298443  -0.055461   0.355280
     3  C    0.317081   0.306920   4.930461  -0.030678   0.004841  -0.047428
     4  C    0.002291   0.298443  -0.030678   5.006462   0.356830  -0.032043
     5  H    0.000119  -0.055461   0.004841   0.356830   0.629818  -0.003828
     6  H    0.000503   0.355280  -0.047428  -0.032043  -0.003828   0.562635
     7  H    0.339748  -0.013667  -0.037233  -0.007665   0.000440   0.001070
     8  H   -0.047122  -0.072134   0.342605   0.003643  -0.000357   0.005695
     9  C   -0.014319  -0.029112  -0.017022   0.288521  -0.048257   0.005291
    10  O    0.151687   0.000078  -0.045381  -0.016295   0.002825   0.000349
    11  C    0.352513   0.004948  -0.031234   0.000161   0.000020  -0.000205
    12  H   -0.036681   0.000268  -0.001406  -0.000004  -0.000000  -0.000001
    13  H   -0.033302  -0.000172  -0.003330   0.000002  -0.000001   0.000005
    14  O   -0.044409  -0.000037   0.002070   0.000008   0.000000   0.000000
    15  H    0.005862   0.000003  -0.000217  -0.000001   0.000000  -0.000000
    16  O   -0.009023  -0.048624   0.003174   0.223622  -0.036325   0.003461
    17  H    0.000695   0.005817   0.000002  -0.040680   0.001490  -0.000446
    18  O    0.002783   0.177237  -0.033402  -0.031704   0.006568  -0.037403
    19  H   -0.000423  -0.025515  -0.005872  -0.004774  -0.000428   0.006643
    20  O   -0.044216  -0.041402   0.225745   0.002427  -0.000087   0.005034
    21  H    0.005632   0.000488  -0.023626   0.000141   0.000002   0.001462
    22  O    0.007652   0.000016   0.000077  -0.000348   0.000004   0.000000
    23  H    0.000255  -0.000048  -0.000002   0.004239  -0.000189   0.000005
    24  H   -0.011199  -0.000006   0.000600   0.001404  -0.000051   0.000001
    25  H   -0.000496  -0.000006   0.000093  -0.000011  -0.000000  -0.000000
    26  O    0.000074   0.007003   0.000823   0.000156   0.000002   0.003695
    27  H   -0.000004   0.000260  -0.000344   0.000010  -0.000001   0.000664
    28  H    0.000028  -0.007343   0.000676   0.000676  -0.000021  -0.003236
    29  O   -0.000799   0.001663   0.000459  -0.052584   0.000899  -0.000077
    30  H    0.004595  -0.000895   0.000846  -0.057161  -0.000834  -0.000210
               7          8          9         10         11         12
     1  C    0.339748  -0.047122  -0.014319   0.151687   0.352513  -0.036681
     2  C   -0.013667  -0.072134  -0.029112   0.000078   0.004948   0.000268
     3  C   -0.037233   0.342605  -0.017022  -0.045381  -0.031234  -0.001406
     4  C   -0.007665   0.003643   0.288521  -0.016295   0.000161  -0.000004
     5  H    0.000440  -0.000357  -0.048257   0.002825   0.000020  -0.000000
     6  H    0.001070   0.005695   0.005291   0.000349  -0.000205  -0.000001
     7  H    0.585408   0.007254  -0.000597  -0.038215  -0.045845  -0.002600
     8  H    0.007254   0.687853   0.001461   0.004149  -0.014458   0.000317
     9  C   -0.000597   0.001461   4.747402   0.145535   0.002516  -0.000108
    10  O   -0.038215   0.004149   0.145535   8.514454  -0.033395   0.002913
    11  C   -0.045845  -0.014458   0.002516  -0.033395   4.910683   0.363955
    12  H   -0.002600   0.000317  -0.000108   0.002913   0.363955   0.566371
    13  H    0.006603   0.005822  -0.000032  -0.001668   0.346898  -0.044843
    14  O    0.002826  -0.000028  -0.000198   0.001239   0.230223  -0.033518
    15  H   -0.000089   0.000001   0.000012  -0.000083  -0.020681  -0.002962
    16  O    0.020855  -0.000055  -0.024486  -0.000529   0.000324   0.000001
    17  H   -0.000191   0.000009  -0.018673   0.000405  -0.000045  -0.000001
    18  O    0.000050  -0.000024   0.002345  -0.001160  -0.000049  -0.000002
    19  H    0.000116   0.008596   0.002581   0.002413  -0.000051   0.000001
    20  O    0.003498  -0.037432   0.000209   0.001410  -0.001817   0.012231
    21  H   -0.000234  -0.004413  -0.000031  -0.000115   0.000056  -0.000082
    22  O    0.000141  -0.000003   0.008568  -0.063577   0.001048  -0.000034
    23  H   -0.000185   0.000001  -0.027126   0.004447  -0.000139   0.000002
    24  H    0.000669   0.000039  -0.007270   0.065758  -0.001848   0.000221
    25  H    0.000407   0.000002  -0.000500   0.004330  -0.002550   0.000193
    26  O    0.000000   0.000721  -0.000001   0.000000  -0.000001   0.000002
    27  H    0.000000  -0.000013  -0.000000  -0.000000  -0.000000  -0.000000
    28  H   -0.000004   0.000345  -0.000023  -0.000003   0.000001  -0.000001
    29  O    0.005429  -0.000008   0.288291  -0.050262  -0.000100   0.000003
    30  H    0.000514  -0.000033   0.369436  -0.048619  -0.000227   0.000004
              13         14         15         16         17         18
     1  C   -0.033302  -0.044409   0.005862  -0.009023   0.000695   0.002783
     2  C   -0.000172  -0.000037   0.000003  -0.048624   0.005817   0.177237
     3  C   -0.003330   0.002070  -0.000217   0.003174   0.000002  -0.033402
     4  C    0.000002   0.000008  -0.000001   0.223622  -0.040680  -0.031704
     5  H   -0.000001   0.000000   0.000000  -0.036325   0.001490   0.006568
     6  H    0.000005   0.000000  -0.000000   0.003461  -0.000446  -0.037403
     7  H    0.006603   0.002826  -0.000089   0.020855  -0.000191   0.000050
     8  H    0.005822  -0.000028   0.000001  -0.000055   0.000009  -0.000024
     9  C   -0.000032  -0.000198   0.000012  -0.024486  -0.018673   0.002345
    10  O   -0.001668   0.001239  -0.000083  -0.000529   0.000405  -0.001160
    11  C    0.346898   0.230223  -0.020681   0.000324  -0.000045  -0.000049
    12  H   -0.044843  -0.033518  -0.002962   0.000001  -0.000001  -0.000002
    13  H    0.631537  -0.039072  -0.003304  -0.000005  -0.000000  -0.000004
    14  O   -0.039072   8.262865   0.234979  -0.000001  -0.000001   0.000000
    15  H   -0.003304   0.234979   0.380874   0.000000  -0.000000  -0.000000
    16  O   -0.000005  -0.000001   0.000000   8.303701   0.228311   0.001481
    17  H   -0.000000  -0.000001  -0.000000   0.228311   0.348922  -0.000106
    18  O   -0.000004   0.000000  -0.000000   0.001481  -0.000106   8.286870
    19  H    0.000008   0.000000  -0.000000  -0.000016   0.000008   0.230944
    20  O    0.000181   0.000033   0.000008  -0.000186   0.000010   0.001409
    21  H   -0.000046   0.000001  -0.000001  -0.000017   0.000000   0.000280
    22  O   -0.000082  -0.012215   0.000696  -0.000008   0.000131  -0.000000
    23  H   -0.000002   0.000239  -0.000013   0.000096  -0.000415   0.000001
    24  H    0.000093   0.005781  -0.000241  -0.000057  -0.000084   0.000001
    25  H    0.000259   0.030959  -0.001469   0.000002  -0.000016   0.000000
    26  O    0.000000   0.000000   0.000000   0.000000  -0.000000  -0.018878
    27  H    0.000000  -0.000000  -0.000000  -0.000000   0.000000   0.000506
    28  H   -0.000001  -0.000000  -0.000000  -0.000014   0.000001   0.056967
    29  O    0.000004  -0.000034   0.000000  -0.022600   0.050120   0.000001
    30  H   -0.000007   0.000001  -0.000000   0.002666   0.001948   0.000929
              19         20         21         22         23         24
     1  C   -0.000423  -0.044216   0.005632   0.007652   0.000255  -0.011199
     2  C   -0.025515  -0.041402   0.000488   0.000016  -0.000048  -0.000006
     3  C   -0.005872   0.225745  -0.023626   0.000077  -0.000002   0.000600
     4  C   -0.004774   0.002427   0.000141  -0.000348   0.004239   0.001404
     5  H   -0.000428  -0.000087   0.000002   0.000004  -0.000189  -0.000051
     6  H    0.006643   0.005034   0.001462   0.000000   0.000005   0.000001
     7  H    0.000116   0.003498  -0.000234   0.000141  -0.000185   0.000669
     8  H    0.008596  -0.037432  -0.004413  -0.000003   0.000001   0.000039
     9  C    0.002581   0.000209  -0.000031   0.008568  -0.027126  -0.007270
    10  O    0.002413   0.001410  -0.000115  -0.063577   0.004447   0.065758
    11  C   -0.000051  -0.001817   0.000056   0.001048  -0.000139  -0.001848
    12  H    0.000001   0.012231  -0.000082  -0.000034   0.000002   0.000221
    13  H    0.000008   0.000181  -0.000046  -0.000082  -0.000002   0.000093
    14  O    0.000000   0.000033   0.000001  -0.012215   0.000239   0.005781
    15  H   -0.000000   0.000008  -0.000001   0.000696  -0.000013  -0.000241
    16  O   -0.000016  -0.000186  -0.000017  -0.000008   0.000096  -0.000057
    17  H    0.000008   0.000010   0.000000   0.000131  -0.000415  -0.000084
    18  O    0.230944   0.001409   0.000280  -0.000000   0.000001   0.000001
    19  H    0.382848  -0.000018  -0.000046   0.000001   0.000001  -0.000002
    20  O   -0.000018   8.344877   0.215784   0.000000  -0.000000  -0.000008
    21  H   -0.000046   0.215784   0.324557  -0.000000   0.000000   0.000001
    22  O    0.000001   0.000000  -0.000000   8.419706   0.116807   0.198723
    23  H    0.000001  -0.000000   0.000000   0.116807   0.288980  -0.017284
    24  H   -0.000002  -0.000008   0.000001   0.198723  -0.017284   0.327097
    25  H   -0.000000  -0.000000   0.000000   0.235014  -0.003640  -0.018856
    26  O    0.000843  -0.020328   0.060698   0.000000   0.000000  -0.000000
    27  H   -0.000001   0.001125  -0.002657  -0.000000   0.000000   0.000000
    28  H   -0.003154   0.002441  -0.006138   0.000000  -0.000000   0.000000
    29  O    0.000006   0.000001   0.000000  -0.076608   0.177969   0.011039
    30  H    0.000616   0.000001  -0.000001  -0.000229   0.000024  -0.000360
              25         26         27         28         29         30
     1  C   -0.000496   0.000074  -0.000004   0.000028  -0.000799   0.004595
     2  C   -0.000006   0.007003   0.000260  -0.007343   0.001663  -0.000895
     3  C    0.000093   0.000823  -0.000344   0.000676   0.000459   0.000846
     4  C   -0.000011   0.000156   0.000010   0.000676  -0.052584  -0.057161
     5  H   -0.000000   0.000002  -0.000001  -0.000021   0.000899  -0.000834
     6  H   -0.000000   0.003695   0.000664  -0.003236  -0.000077  -0.000210
     7  H    0.000407   0.000000   0.000000  -0.000004   0.005429   0.000514
     8  H    0.000002   0.000721  -0.000013   0.000345  -0.000008  -0.000033
     9  C   -0.000500  -0.000001  -0.000000  -0.000023   0.288291   0.369436
    10  O    0.004330   0.000000  -0.000000  -0.000003  -0.050262  -0.048619
    11  C   -0.002550  -0.000001  -0.000000   0.000001  -0.000100  -0.000227
    12  H    0.000193   0.000002  -0.000000  -0.000001   0.000003   0.000004
    13  H    0.000259   0.000000   0.000000  -0.000001   0.000004  -0.000007
    14  O    0.030959   0.000000  -0.000000  -0.000000  -0.000034   0.000001
    15  H   -0.001469   0.000000  -0.000000  -0.000000   0.000000  -0.000000
    16  O    0.000002   0.000000  -0.000000  -0.000014  -0.022600   0.002666
    17  H   -0.000016  -0.000000   0.000000   0.000001   0.050120   0.001948
    18  O    0.000000  -0.018878   0.000506   0.056967   0.000001   0.000929
    19  H   -0.000000   0.000843  -0.000001  -0.003154   0.000006   0.000616
    20  O   -0.000000  -0.020328   0.001125   0.002441   0.000001   0.000001
    21  H    0.000000   0.060698  -0.002657  -0.006138   0.000000  -0.000001
    22  O    0.235014   0.000000  -0.000000   0.000000  -0.076608  -0.000229
    23  H   -0.003640   0.000000   0.000000  -0.000000   0.177969   0.000024
    24  H   -0.018856  -0.000000   0.000000   0.000000   0.011039  -0.000360
    25  H    0.333792  -0.000000   0.000000   0.000000   0.003684   0.000045
    26  O   -0.000000   8.320966   0.242263   0.213106   0.000000   0.000000
    27  H    0.000000   0.242263   0.375681  -0.016056  -0.000000  -0.000000
    28  H    0.000000   0.213106  -0.016056   0.332614   0.000000  -0.000001
    29  O    0.003684   0.000000  -0.000000   0.000000   8.374167  -0.048356
    30  H    0.000045   0.000000  -0.000000  -0.000001  -0.048356   0.639204
 Mulliken charges:
               1
     1  C    0.094347
     2  C    0.079669
     3  C    0.140703
     4  C    0.084914
     5  H    0.141982
     6  H    0.173082
     7  H    0.171498
     8  H    0.107571
     9  C    0.325587
    10  O   -0.602691
    11  C   -0.060702
    12  H    0.175760
    13  H    0.134457
    14  O   -0.641711
    15  H    0.406624
    16  O   -0.645748
    17  H    0.422789
    18  O   -0.645639
    19  H    0.404676
    20  O   -0.670929
    21  H    0.428303
    22  O   -0.835482
    23  H    0.455977
    24  H    0.445838
    25  H    0.418766
    26  O   -0.811141
    27  H    0.398567
    28  H    0.429140
    29  O   -0.662307
    30  H    0.136100
 Sum of Mulliken charges =  -0.00000
 Mulliken charges with hydrogens summed into heavy atoms:
               1
     1  C    0.265845
     2  C    0.252751
     3  C    0.248274
     4  C    0.226896
     9  C    0.461688
    10  O   -0.602691
    11  C    0.249516
    14  O   -0.235087
    16  O   -0.222959
    18  O   -0.240964
    20  O   -0.242626
    22  O    0.029121
    26  O    0.016566
    29  O   -0.206330
 Electronic spatial extent (au):  <R**2>=           3143.8523
 Charge=              0.0000 electrons
 Dipole moment (field-independent basis, Debye):
    X=              0.8283    Y=              1.6064    Z=             -1.5101  Tot=              2.3552
 Quadrupole moment (field-independent basis, Debye-Ang):
   XX=            -82.1191   YY=            -78.8907   ZZ=            -85.6653
   XY=            -12.5704   XZ=             -2.3879   YZ=              2.1001
 Traceless Quadrupole moment (field-independent basis, Debye-Ang):
   XX=              0.1059   YY=              3.3343   ZZ=             -3.4403
   XY=            -12.5704   XZ=             -2.3879   YZ=              2.1001
 Octapole moment (field-independent basis, Debye-Ang**2):
  XXX=             56.8785  YYY=             42.1711  ZZZ=            -14.9676  XYY=            -35.9605
  XXY=             12.1899  XXZ=             39.7711  XZZ=              2.2460  YZZ=             -2.9559
  YYZ=             -7.0999  XYZ=              3.6781
 Hexadecapole moment (field-independent basis, Debye-Ang**3):
 XXXX=          -1901.0257 YYYY=          -1036.2578 ZZZZ=           -345.1372 XXXY=           -142.0722
 XXXZ=             44.3710 YYYX=           -116.8367 YYYZ=             11.3962 ZZZX=            -33.5416
 ZZZY=             13.8676 XXYY=           -528.8628 XXZZ=           -421.2265 YYZZ=           -257.5326
 XXYZ=             12.7383 YYXZ=              2.2574 ZZXY=              5.7076
 N-N= 1.120592228089D+03 E-N=-4.213549695332D+03  KE= 8.328919088502D+02
 Calling FoFJK, ICntrl=      2127 FMM=F ISym2X=0 I1Cent= 0 IOpClX= 0 NMat=1 NMatS=1 NMatT=0.
 ***** Axes restored to original set *****
 -------------------------------------------------------------------
 Center     Atomic                   Forces (Hartrees/Bohr)
 Number     Number              X              Y              Z
 -------------------------------------------------------------------
      1        6           0.001523755   -0.003284591    0.001517292
      2        6           0.000254105   -0.000496086    0.000268319
      3        6           0.000908695    0.000522112    0.001244498
      4        6          -0.002491868    0.000017975   -0.001085468
      5        1          -0.000625462   -0.000102460   -0.000133124
      6        1          -0.000045856   -0.000155095    0.000054867
      7        1           0.000093918    0.000100991    0.000208581
      8        1           0.000013726    0.000042261    0.000076014
      9        6           0.009221736    0.030539452   -0.011033868
     10        8           0.014590324   -0.024111807    0.007117591
     11        6          -0.001627829   -0.003116665   -0.002105546
     12        1           0.000276567   -0.000476090   -0.000271338
     13        1          -0.000030644   -0.000198520   -0.000145973
     14        8           0.001695990    0.000958237    0.000462528
     15        1           0.000218483    0.000087858   -0.000104427
     16        8           0.000336532    0.000147474    0.000646800
     17        1           0.000232174   -0.000202412    0.001108139
     18        8          -0.000639694   -0.000722246    0.000291769
     19        1           0.000156762    0.000362364   -0.000014834
     20        8           0.001261273   -0.000045699    0.000678952
     21        1           0.000059236    0.000122360   -0.000028098
     22        8          -0.024067237    0.007980445   -0.004054718
     23        1          -0.000550611   -0.004016465    0.001288363
     24        1          -0.006094907    0.000793519   -0.002418652
     25        1          -0.001003600    0.000889173   -0.000528412
     26        8           0.000120598    0.000000316    0.000032305
     27        1           0.000054693    0.000032244   -0.000027117
     28        1           0.000088185   -0.000017767   -0.000035621
     29        8           0.006080881   -0.005818222    0.006698063
     30        1          -0.000009926    0.000167344    0.000293115
 -------------------------------------------------------------------
 Cartesian Forces:  Max     0.030539452 RMS     0.005653061

 GradGradGradGradGradGradGradGradGradGradGradGradGradGradGradGradGradGrad
 Berny optimization.
 FormGI is forming the generalized inverse of G from B-inverse, IUseBI=4.
 Internal  Forces:  Max     0.022763078 RMS     0.003321927
 Search for a local minimum.
 Step number   1 out of a maximum of  180
 All quantities printed in internal units (Hartrees-Bohrs-Radians)
 Mixed Optimization -- RFO/linear search
 Second derivative matrix not updated -- first step.
 ITU=  0
     Eigenvalues ---    0.00347   0.00485   0.00498   0.00540   0.00670
     Eigenvalues ---    0.00729   0.00840   0.01209   0.01440   0.01509
     Eigenvalues ---    0.01523   0.02382   0.02987   0.03744   0.04164
     Eigenvalues ---    0.04276   0.04372   0.04538   0.04732   0.04961
     Eigenvalues ---    0.05079   0.05386   0.05406   0.05463   0.05799
     Eigenvalues ---    0.05968   0.06107   0.06135   0.06738   0.07010
     Eigenvalues ---    0.07296   0.07383   0.07576   0.07816   0.09130
     Eigenvalues ---    0.09547   0.09566   0.10736   0.10939   0.11219
     Eigenvalues ---    0.11839   0.12463   0.13527   0.13597   0.15293
     Eigenvalues ---    0.15632   0.16000   0.16000   0.16524   0.17909
     Eigenvalues ---    0.18484   0.19399   0.20509   0.20711   0.21583
     Eigenvalues ---    0.22028   0.22104   0.25222   0.25908   0.27086
     Eigenvalues ---    0.29212   0.30342   0.33145   0.33462   0.33661
     Eigenvalues ---    0.33981   0.34096   0.34296   0.34555   0.36146
     Eigenvalues ---    0.38181   0.40075   0.40629   0.43342   0.43569
     Eigenvalues ---    0.46467   0.49439   0.49984   0.51565   0.51814
     Eigenvalues ---    0.52627   0.53069   0.53578   0.53644
 RFO step:  Lambda=-1.15038368D-02 EMin= 3.46903872D-03
 Linear search not attempted -- first point.
 Iteration  1 RMS(Cart)=  0.04526355 RMS(Int)=  0.00090770
 Iteration  2 RMS(Cart)=  0.00142993 RMS(Int)=  0.00021018
 Iteration  3 RMS(Cart)=  0.00000223 RMS(Int)=  0.00021017
 Iteration  4 RMS(Cart)=  0.00000000 RMS(Int)=  0.00021017
 Variable       Old X    -DE/DX   Delta X   Delta X   Delta X     New X
                                 (Linear)    (Quad)   (Total)
    R1        2.87907   0.00182   0.00000   0.00947   0.00937   2.88844
    R2        2.06834   0.00013   0.00000   0.00036   0.00036   2.06870
    R3        2.73245   0.00174   0.00000   0.00323   0.00315   2.73559
    R4        2.87287  -0.00254   0.00000  -0.00808  -0.00808   2.86479
    R5        2.95293  -0.00390   0.00000  -0.00794  -0.00793   2.94501
    R6        2.92653  -0.00337   0.00000  -0.01141  -0.01128   2.91525
    R7        2.06404   0.00003   0.00000   0.00008   0.00008   2.06412
    R8        2.72531  -0.00033   0.00000  -0.00099  -0.00099   2.72432
    R9        2.08797  -0.00006   0.00000  -0.00017  -0.00017   2.08779
   R10        2.65881   0.00114   0.00000   0.00252   0.00252   2.66133
   R11        2.08248  -0.00010   0.00000  -0.00029  -0.00029   2.08220
   R12        2.93356  -0.00082   0.00000  -0.00644  -0.00637   2.92719
   R13        2.66973   0.00158   0.00000   0.00353   0.00353   2.67326
   R14        2.97340  -0.02276   0.00000  -0.09801  -0.09870   2.87471
   R15        2.56797   0.00519   0.00000   0.00910   0.00884   2.57681
   R16        2.07363  -0.00033   0.00000  -0.00095  -0.00095   2.07268
   R17        2.91337   0.02269   0.00000   0.19498   0.19483   3.10819
   R18        2.07168  -0.00030   0.00000  -0.00084  -0.00084   2.07084
   R19        2.07906   0.00007   0.00000   0.00020   0.00020   2.07926
   R20        2.71452  -0.00176   0.00000  -0.00426  -0.00426   2.71026
   R21        1.83057   0.00002   0.00000   0.00003   0.00003   1.83060
   R22        1.85018  -0.00014   0.00000  -0.00026  -0.00026   1.84992
   R23        1.83589  -0.00001   0.00000  -0.00002  -0.00002   1.83587
   R24        3.58937   0.00020   0.00000   0.00164   0.00165   3.59102
   R25        1.85847   0.00024   0.00000   0.00054   0.00054   1.85901
   R26        3.56916   0.00020   0.00000   0.00333   0.00333   3.57249
   R27        2.75692   0.01057   0.00000   0.09121   0.09180   2.84871
   R28        1.88017   0.01416   0.00000   0.02923   0.02941   1.90958
   R29        1.84004   0.00043   0.00000   0.00081   0.00081   1.84085
   R30        1.94790   0.00928   0.00000   0.02442   0.02486   1.97277
   R31        1.83118   0.00001   0.00000   0.00003   0.00003   1.83120
   R32        1.85555   0.00017   0.00000   0.00017   0.00018   1.85573
    A1        1.92472  -0.00051   0.00000  -0.00287  -0.00299   1.92173
    A2        1.80147   0.00342   0.00000   0.01847   0.01814   1.81961
    A3        1.98508  -0.00232   0.00000  -0.01394  -0.01371   1.97137
    A4        1.92157  -0.00040   0.00000   0.00676   0.00678   1.92835
    A5        1.88185   0.00181   0.00000   0.00905   0.00902   1.89087
    A6        1.94875  -0.00204   0.00000  -0.01718  -0.01702   1.93173
    A7        2.02713  -0.00255   0.00000  -0.01501  -0.01502   2.01210
    A8        1.86973   0.00101   0.00000   0.00600   0.00599   1.87572
    A9        1.93777   0.00057   0.00000   0.00370   0.00366   1.94143
   A10        1.83645   0.00065   0.00000   0.00348   0.00352   1.83997
   A11        1.94654   0.00099   0.00000   0.00160   0.00159   1.94813
   A12        1.83063  -0.00045   0.00000   0.00225   0.00222   1.83285
   A13        1.91588  -0.00234   0.00000  -0.00503  -0.00525   1.91063
   A14        1.84948   0.00031   0.00000   0.00046   0.00050   1.84998
   A15        1.92969   0.00201   0.00000   0.00812   0.00821   1.93790
   A16        1.86109   0.00009   0.00000  -0.00114  -0.00111   1.85998
   A17        1.97365   0.00013   0.00000  -0.00305  -0.00299   1.97066
   A18        1.92883  -0.00028   0.00000   0.00049   0.00044   1.92927
   A19        1.86660  -0.00030   0.00000  -0.00035  -0.00034   1.86626
   A20        1.99587   0.00026   0.00000  -0.00186  -0.00192   1.99395
   A21        1.87269  -0.00058   0.00000  -0.00350  -0.00350   1.86919
   A22        1.88925  -0.00039   0.00000  -0.00558  -0.00557   1.88368
   A23        1.93271  -0.00014   0.00000  -0.00183  -0.00183   1.93088
   A24        1.90671   0.00111   0.00000   0.01277   0.01280   1.91952
   A25        1.88790   0.00457   0.00000   0.02844   0.02872   1.91662
   A26        1.93341  -0.00433   0.00000  -0.02059  -0.02026   1.91315
   A27        1.96918  -0.00066   0.00000  -0.00699  -0.00742   1.96175
   A28        1.93389   0.00138   0.00000   0.00501   0.00427   1.93816
   A29        1.73634  -0.00058   0.00000   0.00240   0.00265   1.73899
   A30        1.99173   0.00053   0.00000  -0.00271  -0.00290   1.98883
   A31        1.96669  -0.00276   0.00000  -0.00769  -0.00791   1.95878
   A32        1.94308   0.00065   0.00000   0.04179   0.04218   1.98527
   A33        1.73459   0.00276   0.00000   0.00137   0.00058   1.73517
   A34        1.87795  -0.00105   0.00000  -0.00762  -0.00762   1.87034
   A35        1.92275  -0.00063   0.00000  -0.00145  -0.00149   1.92126
   A36        1.88750   0.00228   0.00000   0.01054   0.01054   1.89803
   A37        1.89989   0.00036   0.00000  -0.00066  -0.00068   1.89921
   A38        1.93850  -0.00072   0.00000  -0.00463  -0.00460   1.93390
   A39        1.93643  -0.00027   0.00000   0.00349   0.00346   1.93990
   A40        1.88807  -0.00047   0.00000  -0.00272  -0.00272   1.88534
   A41        1.82118   0.00201   0.00000   0.01170   0.01170   1.83288
   A42        1.88125  -0.00001   0.00000  -0.00039  -0.00039   1.88086
   A43        1.69476  -0.00001   0.00000  -0.00268  -0.00267   1.69209
   A44        1.97778  -0.00057   0.00000  -0.00300  -0.00304   1.97474
   A45        1.83969   0.00022   0.00000   0.00167   0.00166   1.84135
   A46        2.69319  -0.00021   0.00000   0.00038   0.00035   2.69354
   A47        1.54673  -0.01230   0.00000  -0.05976  -0.05881   1.48792
   A48        1.92471   0.00108   0.00000   0.00846   0.00848   1.93319
   A49        1.75087   0.00180   0.00000   0.00370   0.00379   1.75466
   A50        2.72549   0.00067   0.00000   0.00530   0.00561   2.73111
   A51        2.55733   0.00340   0.00000   0.01338   0.01328   2.57061
   A52        1.96038  -0.00007   0.00000   0.00041   0.00041   1.96078
   A53        1.71508  -0.00021   0.00000  -0.00063  -0.00063   1.71446
   A54        1.82657   0.00031   0.00000   0.00082   0.00083   1.82740
   A55        2.71863  -0.00017   0.00000  -0.00100  -0.00099   2.71764
   A56        1.86734   0.00388   0.00000   0.02494   0.02434   1.89168
    D1        1.05792   0.00106   0.00000   0.01709   0.01703   1.07495
    D2        3.06130   0.00020   0.00000   0.01357   0.01349   3.07479
    D3       -1.13137   0.00114   0.00000   0.01885   0.01883  -1.11254
    D4       -0.99434  -0.00008   0.00000   0.00060   0.00062  -0.99371
    D5        1.00905  -0.00094   0.00000  -0.00291  -0.00292   1.00613
    D6        3.09956  -0.00000   0.00000   0.00236   0.00243   3.10199
    D7       -3.10889   0.00141   0.00000   0.01695   0.01700  -3.09189
    D8       -1.10551   0.00055   0.00000   0.01344   0.01346  -1.09205
    D9        0.98501   0.00149   0.00000   0.01872   0.01880   1.00381
   D10        1.39595  -0.00024   0.00000  -0.01868  -0.01847   1.37748
   D11       -2.95573   0.00194   0.00000   0.00341   0.00299  -2.95274
   D12       -0.65851  -0.00131   0.00000  -0.02835  -0.02813  -0.68665
   D13        1.27299   0.00088   0.00000  -0.00627  -0.00668   1.26631
   D14       -2.74822  -0.00199   0.00000  -0.03308  -0.03286  -2.78108
   D15       -0.81671   0.00019   0.00000  -0.01100  -0.01141  -0.82812
   D16       -0.91229   0.00127   0.00000   0.02694   0.02697  -0.88532
   D17        1.15652   0.00072   0.00000   0.02083   0.02088   1.17739
   D18       -3.00763   0.00145   0.00000   0.03087   0.03093  -2.97670
   D19        1.22783   0.00040   0.00000   0.02061   0.02057   1.24841
   D20       -2.98655  -0.00014   0.00000   0.01450   0.01448  -2.97207
   D21       -0.86751   0.00059   0.00000   0.02455   0.02453  -0.84298
   D22       -2.94239  -0.00016   0.00000   0.02437   0.02434  -2.91805
   D23       -0.87358  -0.00070   0.00000   0.01826   0.01824  -0.85533
   D24        1.24546   0.00002   0.00000   0.02830   0.02829   1.27375
   D25       -0.00469  -0.00056   0.00000   0.00138   0.00137  -0.00332
   D26       -2.00064   0.00018   0.00000   0.00392   0.00392  -1.99672
   D27        2.15919   0.00039   0.00000   0.00597   0.00595   2.16514
   D28       -2.05046  -0.00057   0.00000   0.00171   0.00171  -2.04875
   D29        2.23677   0.00017   0.00000   0.00425   0.00427   2.24104
   D30        0.11341   0.00038   0.00000   0.00629   0.00629   0.11971
   D31        2.24335  -0.00089   0.00000  -0.00619  -0.00620   2.23715
   D32        0.24739  -0.00015   0.00000  -0.00365  -0.00364   0.24375
   D33       -1.87597   0.00006   0.00000  -0.00160  -0.00161  -1.87758
   D34        2.83348  -0.00069   0.00000  -0.00988  -0.00987   2.82360
   D35        0.74226  -0.00015   0.00000  -0.00150  -0.00149   0.74078
   D36       -1.37532  -0.00131   0.00000  -0.01402  -0.01400  -1.38932
   D37       -1.38558  -0.00044   0.00000  -0.00852  -0.00853  -1.39411
   D38        2.80639   0.00010   0.00000  -0.00014  -0.00014   2.80625
   D39        0.68881  -0.00106   0.00000  -0.01266  -0.01266   0.67616
   D40        0.58972  -0.00015   0.00000  -0.00324  -0.00324   0.58647
   D41       -1.50150   0.00039   0.00000   0.00514   0.00515  -1.49635
   D42        2.66411  -0.00077   0.00000  -0.00738  -0.00737   2.65674
   D43       -0.99478   0.00117   0.00000   0.01171   0.01172  -0.98307
   D44        1.05278   0.00054   0.00000   0.00717   0.00714   1.05992
   D45        1.29567  -0.00100   0.00000  -0.00436  -0.00441   1.29127
   D46       -2.93995  -0.00163   0.00000  -0.00890  -0.00898  -2.94893
   D47       -3.00858  -0.00003   0.00000   0.00167   0.00167  -3.00690
   D48       -0.96102  -0.00066   0.00000  -0.00287  -0.00290  -0.96391
   D49       -3.00051  -0.00163   0.00000  -0.00681  -0.00697  -3.00748
   D50        1.12639  -0.00019   0.00000  -0.00415  -0.00412   1.12227
   D51       -0.95840  -0.00019   0.00000  -0.00099  -0.00102  -0.95941
   D52       -0.41985  -0.00083   0.00000  -0.01704  -0.01739  -0.43724
   D53       -2.54256  -0.00281   0.00000  -0.02890  -0.02843  -2.57099
   D54        1.48332   0.00071   0.00000  -0.00173  -0.00183   1.48149
   D55       -2.49835  -0.00033   0.00000  -0.01152  -0.01187  -2.51022
   D56        1.66213  -0.00232   0.00000  -0.02338  -0.02292   1.63922
   D57       -0.59517   0.00121   0.00000   0.00379   0.00368  -0.59149
   D58        1.67887  -0.00059   0.00000  -0.01349  -0.01383   1.66504
   D59       -0.44383  -0.00257   0.00000  -0.02535  -0.02488  -0.46871
   D60       -2.70114   0.00095   0.00000   0.00182   0.00172  -2.69942
   D61        2.56713   0.00068   0.00000   0.01000   0.00997   2.57711
   D62       -1.68479  -0.00009   0.00000   0.00658   0.00658  -1.67821
   D63        0.39442   0.00004   0.00000   0.00662   0.00664   0.40107
   D64       -0.63329   0.00198   0.00000   0.02740   0.02729  -0.60600
   D65       -2.69187   0.00081   0.00000  -0.01863  -0.01869  -2.71055
   D66        1.48912   0.00045   0.00000   0.02348   0.02370   1.51282
   D67       -0.56946  -0.00073   0.00000  -0.02256  -0.02228  -0.59174
   D68       -2.69199   0.00132   0.00000   0.02375   0.02360  -2.66839
   D69        1.53262   0.00014   0.00000  -0.02228  -0.02238   1.51025
   D70        2.61771   0.00669   0.00000   0.06808   0.06799   2.68570
   D71        0.52226   0.00289   0.00000   0.04263   0.04259   0.56485
   D72       -1.42027   0.00243   0.00000   0.03807   0.03831  -1.38196
   D73       -1.46105   0.00228   0.00000  -0.02209  -0.02255  -1.48360
   D74        0.61513   0.00087   0.00000  -0.01326  -0.01362   0.60151
   D75        3.14041  -0.00026   0.00000  -0.00342  -0.00344   3.13697
   D76        1.08348   0.00004   0.00000   0.00209   0.00209   1.08557
   D77       -1.03222   0.00027   0.00000   0.00371   0.00373  -1.02849
   D78       -0.14101   0.00006   0.00000  -0.00211  -0.00212  -0.14313
   D79        1.82928  -0.00014   0.00000  -0.00489  -0.00490   1.82438
   D80       -0.19327  -0.00001   0.00000  -0.00239  -0.00240  -0.19567
   D81       -2.01622   0.00024   0.00000   0.00312   0.00313  -2.01309
   D82       -0.10274   0.00046   0.00000   0.00385   0.00388  -0.09886
   D83        0.14938  -0.00171   0.00000  -0.03377  -0.03347   0.11591
   D84       -1.60453   0.00089   0.00000  -0.01590  -0.01581  -1.62035
   D85       -0.32814   0.00244   0.00000   0.04358   0.04295  -0.28520
   D86        1.59808   0.00134   0.00000   0.04126   0.04124   1.63931
   D87       -0.34918   0.00136   0.00000   0.00639   0.00690  -0.34227
   D88       -0.19263   0.00028   0.00000   0.00092   0.00092  -0.19171
   D89        1.82786   0.00022   0.00000   0.00136   0.00137   1.82923
         Item               Value     Threshold  Converged?
 Maximum Force            0.022763     0.000450     NO 
 RMS     Force            0.003322     0.000300     NO 
 Maximum Displacement     0.342265     0.001800     NO 
 RMS     Displacement     0.045733     0.001200     NO 
 Predicted change in Energy=-6.295113D-03
 GradGradGradGradGradGradGradGradGradGradGradGradGradGradGradGradGradGrad

                          Input orientation:                          
 ---------------------------------------------------------------------
 Center     Atomic      Atomic             Coordinates (Angstroms)
 Number     Number       Type             X           Y           Z
 ---------------------------------------------------------------------
      1          6           0       -0.437561    0.848878    0.148727
      2          6           0        1.509687   -0.749812    0.074843
      3          6           0        1.076207    0.743109   -0.034647
      4          6           0        0.365489   -1.750574    0.337838
      5          1           0        0.743418   -2.748963    0.064954
      6          1           0        2.174719   -0.835796    0.937066
      7          1           0       -0.722342    0.488660    1.142472
      8          1           0        1.279373    1.054688   -1.074961
      9          6           0       -0.916181   -1.483275   -0.489981
     10          8           0       -0.982187   -0.013899   -0.878203
     11          6           0       -0.954971    2.264762   -0.011757
     12          1           0       -0.343193    2.907437    0.631329
     13          1           0       -0.838843    2.593384   -1.055392
     14          8           0       -2.330612    2.301432    0.392239
     15          1           0       -2.648991    3.210552    0.289588
     16          8           0        0.069637   -1.690203    1.719868
     17          1           0       -0.891142   -1.867431    1.781553
     18          8           0        2.311541   -1.145017   -1.056171
     19          1           0        1.797504   -0.966235   -1.860919
     20          8           0        1.754945    1.579059    0.873014
     21          1           0        2.700751    1.545579    0.604528
     22          8           0       -3.531174   -0.138743   -0.776454
     23          1           0       -2.827894   -1.286496   -0.097824
     24          1           0       -2.607602    0.138871   -1.078229
     25          1           0       -3.730579    0.569875   -0.138460
     26          8           0        4.174488    0.861028   -0.361598
     27          1           0        4.843138    0.465594    0.217678
     28          1           0        3.724290    0.095804   -0.781237
     29          8           0       -2.012847   -1.848428    0.233459
     30          1           0       -0.870706   -1.935100   -1.488374
 ---------------------------------------------------------------------
                    Distance matrix (angstroms):
                    1          2          3          4          5
     1  C    0.000000
     2  C    2.520525   0.000000
     3  C    1.528498   1.558430   0.000000
     4  C    2.727234   1.542686   2.619603   0.000000
     5  H    3.787637   2.140998   3.509307   1.101851   0.000000
     6  H    3.206808   1.092286   2.154970   2.114050   2.543503
     7  H    1.094709   2.766875   2.164517   2.616292   3.713718
     8  H    2.118403   2.152049   1.104813   3.271189   4.006796
     9  C    2.464947   2.596504   3.022205   1.549003   2.159673
    10  O    1.447614   2.767545   2.349816   2.512176   3.368655
    11  C    1.515980   3.894829   2.538038   4.241315   5.294134
    12  H    2.116477   4.137427   2.672552   4.720745   5.787604
    13  H    2.157366   4.239102   2.851816   4.718207   5.683256
    14  O    2.398511   4.915153   3.770546   4.867307   5.921425
    15  H    3.238482   5.746756   4.480011   5.805359   6.861102
    16  O    3.028642   2.379955   3.164255   1.414630   2.076943
    17  H    3.201593   3.150542   3.739514   1.917574   2.528952
    18  O    3.603465   1.441649   2.476809   2.469227   2.507703
    19  H    3.511243   1.968972   2.603343   2.738684   2.828110
    20  O    2.421743   2.474039   1.408314   3.647391   4.517513
    21  H    3.246868   2.639700   1.921366   4.048357   4.750303
    22  O    3.376654   5.148630   4.749305   4.361608   5.078715
    23  H    3.214701   4.374065   4.400601   3.256203   3.862586
    24  H    2.592027   4.367081   3.876159   3.796645   4.569002
    25  H    3.317271   5.408091   4.811026   4.731713   5.574289
    26  O    4.640213   3.144272   3.117715   4.670990   4.998622
    27  H    5.295040   3.550987   3.785558   4.997518   5.211949
    28  H    4.330469   2.520398   2.826437   3.992867   4.206464
    29  O    3.124767   3.693286   4.041064   2.382636   2.904540
    30  H    3.258565   3.084611   3.616158   2.212979   2.383400
                    6          7          8          9         10
     6  H    0.000000
     7  H    3.192075   0.000000
     8  H    2.902383   3.040438   0.000000
     9  C    3.465452   2.567295   3.406452   0.000000
    10  O    3.733199   2.098384   2.509033   1.521230   0.000000
    11  C    4.506516   2.130938   2.754447   3.778622   2.437984
    12  H    4.521631   2.501100   2.996135   4.567713   3.349807
    13  H    4.981036   3.045331   2.618168   4.116409   2.617225
    14  O    5.516979   2.536834   4.091337   4.135570   2.965305
    15  H    6.329324   3.442104   4.684206   5.063830   3.813011
    16  O    2.402949   2.389155   4.099873   2.428598   3.265931
    17  H    3.343193   2.447056   4.627050   2.303925   3.243174
    18  O    2.021715   4.087467   2.429903   3.294417   3.487083
    19  H    2.826309   4.181711   2.229421   3.083973   3.098283
    20  O    2.451906   2.720024   2.072617   4.286089   3.618863
    21  H    2.461349   3.622710   2.254324   4.842944   4.265501
    22  O    5.998270   3.459111   4.965354   2.954322   2.554069
    23  H    5.128378   3.020408   4.827585   1.961416   2.373842
    24  H    5.280339   2.933951   3.993407   2.416257   1.644786
    25  H    6.164837   3.270607   5.119735   3.501403   2.905454
    26  O    2.926570   5.136130   2.987990   5.605992   5.255823
    27  H    3.054766   5.641839   3.836453   6.121162   5.946872
    28  H    2.494316   4.860816   2.642604   4.910427   4.708755
    29  O    4.365341   2.820229   4.580257   1.363590   2.379821
    30  H    4.045472   3.580220   3.705750   1.096814   2.018849
                   11         12         13         14         15
    11  C    0.000000
    12  H    1.095839   0.000000
[...]
 689,-0.00028567,-0.00014399,0.00071876,-0.00009164,0.00063770,-0.00014
 850,-0.00048743,0.00001961,0.00012081,0.00019249,-0.00000137,0.0000202
 7,-0.00067767,-0.00008243,-0.00018175,0.00005823,-0.00005202,-0.215499
 56,-0.28268426,0.00029921,0.00184421,-0.00940046,0.00008526,0.20703768
 ,0.28547219,-0.00043108,0.00070494,0.00132557,0.00004433,0.00008676,0.
 00007233,-0.00016373,-0.00008413,-0.00023412,0.00002364,0.00031034,0.0
 0025212,-0.00006034,-0.00000604,-0.00009043,-0.00001372,-0.00001634,-0
 .00000432,-0.00036569,0.00004996,-0.00052038,0.00015165,-0.00000058,-0
 .00008689,-0.00111684,-0.00113628,0.00088358,-0.00078867,0.00064112,-0
 .00121437,-0.00097222,0.00168232,0.00082724,0.00046923,-0.00006848,-0.
 00018419,0.00078470,0.00025237,-0.00026683,-0.00134779,-0.00254497,-0.
 00593796,0.00175254,0.00200875,0.00073645,0.00017610,-0.00015147,-0.00
 032693,-0.00016899,0.00020223,0.00002964,0.00007881,-0.00009989,-0.000
 10522,0.00002709,0.00002832,0.00004228,-0.00006257,-0.00008235,-0.0000
 6990,-0.00007924,-0.00001618,-0.00000348,-0.00877277,-0.04203093,-0.04
 474987,-0.00055048,0.00154937,0.00083007,-0.02030520,0.00319045,0.0529
 1076,-0.00014970,0.00005485,0.00049640,-0.00009340,0.00004117,0.000145
 05,-0.00017205,-0.00009524,-0.00016946,-0.00008269,0.00019756,0.000088
 72,0.00002935,-0.00004037,-0.00004449,0.00002614,0.00000145,0.00000022
 ,-0.00015920,0.00001478,-0.00021732,0.00007406,0.00000639,-0.00004053,
 -0.00080569,-0.00071480,0.00071871,-0.00069437,0.00020152,-0.00029107,
 -0.00067037,0.00023793,0.00011025,0.00012779,0.00001159,-0.00002086,0.
 00018560,0.00004740,-0.00011504,0.00069654,0.00017807,-0.00070770,0.00
 034467,0.00012907,-0.00007809,0.00027640,-0.00017155,-0.00010550,-0.00
 031365,0.00027744,-0.00010748,0.00018663,-0.00005055,-0.00012984,-0.00
 004227,0.00002077,0.00004828,0.00016661,0.00006204,0.00004541,-0.00011
 742,-0.00001181,0.00001701,-0.13771378,-0.00822880,0.19051300,-0.00220
 197,0.00092358,0.00403270,-0.01450779,0.00584528,0.03058962,0.15433122
 ,0.00018622,0.00021715,0.00007749,0.00004117,0.00009971,-0.00001883,-0
 .00007231,0.00000375,0.00001461,0.00002964,-0.00000500,-0.00003298,-0.
 00000614,-0.00001794,0.00001346,0.00000219,-0.00001229,0.00000358,-0.0
 0002019,0.00005448,-0.00002059,-0.00000050,-0.00000752,0.00000564,0.00
 000181,0.00075810,-0.00038336,-0.00004452,-0.00026686,0.00006918,-0.00
 075721,0.00046229,0.00011176,0.00014667,-0.00000554,-0.00003557,0.0002
 3590,0.00001119,-0.00007875,0.00138612,-0.00095139,-0.00106574,-0.0003
 9882,-0.00022475,0.00012198,-0.00005193,-0.00009405,0.00015949,0.00022
 422,0.00001225,-0.00009414,-0.00001900,-0.00010280,0.00000637,0.000005
 85,0.00004159,0.00000375,0.00006328,-0.00009785,0.00000267,-0.00003989
 ,0.00002480,-0.00000142,0.01808299,-0.04407850,-0.06445709,0.00053800,
 0.00243593,-0.00591811,-0.02097440,0.00424456,0.03625417,0.00110239,0.
 03939245,0.00006059,-0.00002729,0.00022805,-0.00003370,-0.00000292,-0.
 00000390,0.00001373,0.00003101,-0.00001165,-0.00005600,-0.00000742,0.0
 0011297,0.00001283,-0.00001054,-0.00002112,-0.00001303,-0.00000368,0.0
 0000159,-0.00003872,0.00001331,-0.00002574,0.00001934,-0.00000212,-0.0
 0001890,0.00015809,0.00001496,-0.00008095,-0.00022725,0.00001074,0.000
 03107,0.00030535,-0.00014684,-0.00005854,-0.00009589,-0.00000930,0.000
 01497,-0.00003374,0.00001406,-0.00000878,-0.00085627,-0.00045423,-0.00
 033698,0.00017418,0.00010463,0.00007761,0.00001860,-0.00004029,-0.0001
 6807,-0.00006451,0.00009266,0.00015897,0.00002539,0.00000798,-0.000025
 38,-0.00000188,0.00000022,0.00000630,-0.00000127,0.00001842,-0.0000274
 2,-0.00000811,-0.00000458,0.00000836,0.22697917,-0.02549955,-0.3729496
 2,0.00114256,-0.00191294,0.00101164,-0.00341628,-0.00612732,-0.0030661
 9,-0.22282758,0.03284086,0.37594920,0.00104049,0.00014747,-0.00005163,
 0.00149134,-0.00055611,-0.00155353,0.00314008,0.00343900,0.00416922,0.
 00032450,0.00046559,-0.00065798,-0.00013825,-0.00017523,-0.00001112,-0
 .00033832,0.00044618,-0.00048639,-0.00006658,0.00005607,-0.00003008,0.
 00003737,-0.00046502,-0.00047348,0.00090529,0.00071556,0.00015500,-0.0
 0126428,-0.00079839,-0.00045472,0.00062590,-0.00044391,0.00018515,0.00
 010521,-0.00029088,-0.00001275,-0.00008161,-0.00001087,-0.00008885,-0.
 00094417,0.00027673,-0.00003119,0.00003533,-0.00006112,0.00000362,-0.0
 0063022,-0.00042812,0.00061150,0.00018303,0.00009029,-0.00003287,-0.00
 583659,-0.00800285,-0.00341768,-0.00073811,-0.00043364,0.00101271,-0.0
 1470756,0.00417537,0.00468930,-0.00348667,-0.00600922,-0.00297704,-0.0
 0054032,0.00008473,-0.00010033,0.00048077,-0.00016555,0.00008489,0.000
 35685,0.00005042,0.00005953,0.00014897,0.00002312,0.00001349,0.3344095
 3,-0.00018777,0.00033273,0.00002411,0.00287744,-0.00232723,-0.00330701
 ,-0.00081181,-0.00354953,-0.00234880,0.00001637,0.00080175,-0.00009168
 ,0.00010074,0.00030413,0.00000280,0.00010394,0.00018605,-0.00051235,0.
 00002941,-0.00007743,0.00004051,0.00010264,0.00021834,0.00029528,0.000
 60913,-0.00098328,0.00026881,0.00026347,0.00102320,0.00036925,-0.00037
 175,-0.00023128,-0.00006328,-0.00005974,0.00016605,0.00006914,-0.00000
 148,0.00000521,-0.00001676,0.00016294,0.00021915,0.00004366,-0.0000531
 9,-0.00001005,-0.00002291,-0.00100389,0.00001695,0.00056897,0.00016305
 ,-0.00013424,0.00014991,-0.01016178,-0.00208136,-0.00330411,-0.0018157
 1,-0.00190790,0.00087537,0.00820476,0.00361268,-0.00055672,-0.00509429
 ,-0.00358160,0.00007621,-0.00012916,0.00023471,-0.00002401,0.00021532,
 -0.00028909,0.00002501,-0.00001833,-0.00015999,-0.00001441,0.00002516,
 -0.00003149,0.00000390,0.02284602,0.43856341,-0.00034365,0.00023619,0.
 00069197,0.00127551,-0.00064472,-0.00457106,-0.00158122,-0.00238771,-0
 .00448870,-0.00003584,0.00016027,0.00082992,0.00013841,0.00029000,0.00
 002228,-0.00008752,-0.00066494,0.00114736,-0.00022891,-0.00004402,0.00
 000576,0.00052815,0.00006335,0.00154758,0.00004976,-0.00034390,-0.0002
 5115,0.00062303,0.00059450,0.00045124,-0.00029623,0.00002232,-0.000263
 95,-0.00007439,0.00021025,0.00002279,0.00005727,-0.00000543,0.00010776
 ,0.00027379,0.00000751,0.00012865,-0.00002115,0.00000265,-0.00005664,-
 0.00036042,0.00002279,0.00033750,-0.00005766,-0.00006138,0.00009390,-0
 .00709270,-0.00479427,0.00309770,0.00080160,0.00031463,0.00028210,0.00
 813232,-0.00115209,0.00402181,-0.00458157,0.00297002,-0.00820565,0.000
 10906,0.00002490,0.00005146,-0.00006603,-0.00001526,-0.00002962,-0.000
 09139,-0.00005159,-0.00004395,-0.00003648,-0.00001007,-0.00001191,0.30
 268930,0.01718505,0.32943154,-0.00015789,-0.00001256,0.00011267,-0.000
 46031,0.00023144,-0.00080981,-0.00003784,0.00021365,-0.00050199,-0.000
 00694,-0.00026573,0.00034188,0.00001732,0.00004371,0.00000829,-0.00024
 691,-0.00036869,0.00053115,-0.00003869,0.00000525,-0.00001507,0.000040
 46,-0.00006118,0.00027944,-0.00022890,0.00004864,-0.00015531,0.0002190
 4,0.00002708,0.00006756,-0.00008480,0.00011243,-0.00003230,-0.00001228
 ,0.00002478,-0.00000740,0.00001590,-0.00000267,0.00002167,0.00015986,-
 0.00007191,0.00000732,-0.00000651,0.00000956,-0.00000511,0.00019880,0.
 00006755,-0.00008642,-0.00007874,-0.00000130,0.00000703,-0.00010011,-0
 .00084696,0.00045824,0.00027333,0.00010573,-0.00003870,-0.00001348,-0.
 00043803,0.00157974,-0.00179695,0.00148693,-0.00295816,0.00013247,-0.0
 0005060,0.00003017,-0.00012815,0.00008157,-0.00002368,-0.00007070,0.00
 000871,-0.00001449,-0.00003739,-0.00000089,-0.00000576,-0.20668641,0.0
 9618167,-0.21014486,0.22173976,-0.00002866,-0.00001756,0.00002244,0.00
 000614,0.00008358,-0.00040458,-0.00023997,0.00006504,0.00009454,-0.000
 05337,-0.00000118,0.00015286,-0.00000346,-0.00001643,-0.00001308,-0.00
 015645,0.00002552,0.00023491,0.00000308,0.00001074,0.00000246,-0.00010
 731,-0.00009036,-0.00004937,-0.00010733,0.00005908,-0.00005555,0.00006
 439,-0.00007735,-0.00000540,-0.00002036,0.00005469,0.00002426,-0.00000
 165,0.00000037,-0.00000329,0.00000100,0.00000131,-0.00000378,0.0000548
 1,-0.00004646,-0.00002194,0.00000250,0.00001028,0.00001045,0.00010239,
 -0.00002710,-0.00006956,-0.00004238,0.00001367,0.00000743,-0.00108099,
 -0.00210979,0.00034265,0.00028623,0.00015761,0.00000412,0.00053665,-0.
 00003405,-0.00102812,0.00000415,-0.00027040,0.00259341,0.00005424,-0.0
 0004047,0.00000759,-0.00006307,0.00005222,-0.00000515,-0.00002179,0.00
 001949,0.00000022,-0.00001325,0.00000477,-0.00000060,0.13836395,-0.122
 04361,0.13943838,-0.11111464,0.10947222,-0.00006694,-0.00001950,-0.000
 00958,-0.00009658,-0.00002422,0.00066722,-0.00019196,-0.00022209,-0.00
 008799,-0.00008900,0.00001964,0.00003236,0.00000756,-0.00001895,-0.000
 01349,0.00007405,0.00011740,-0.00002968,0.00003229,0.00000136,0.000002
 69,-0.00012799,0.00002804,-0.00008654,-0.00002721,-0.00003567,0.000056
 96,0.00001921,0.00000516,-0.00002801,0.00000065,0.00001055,0.00002349,
 -0.00000355,0.00000150,0.00000356,-0.00000262,0.00000168,-0.00001144,0
 .00001365,-0.00000869,-0.00002215,0.00000262,0.00000383,0.00001302,0.0
 0001055,0.00000157,-0.00012464,0.00001671,0.00000153,0.00001048,0.0003
 2454,-0.00042644,-0.00003996,0.00010889,0.00007766,0.00000996,0.002041
 00,-0.00008307,-0.00178837,-0.00118897,0.00029225,0.00358097,-0.000002
 37,0.00000234,-0.00001206,-0.00000012,-0.00000293,0.00000623,-0.000001
 48,0.00000036,0.00000875,0.00000377,-0.00000075,0.00000458,-0.21344139
 ,0.09743142,-0.22530700,0.22538623,-0.11303061,0.23737106,-0.00042828,
 -0.00051286,-0.00037974,-0.00767842,-0.00066179,0.00737352,-0.00029121
 ,0.00231888,0.00178444,-0.00009429,-0.00075788,0.00016646,-0.00002305,
 -0.00016391,0.00000525,0.00020734,-0.00031085,-0.00027613,0.00017864,0
 .00002645,-0.00003620,-0.00049712,0.00041308,-0.00083674,-0.00099076,0
 .00023017,-0.00017924,0.00035423,-0.00029843,-0.00009374,0.00000372,0.
 00052487,-0.00000102,0.00002146,-0.00005915,-0.00005622,0.00002413,-0.
 00000274,0.00002791,0.00040147,-0.00035273,-0.00003914,0.00002606,0.00
 003008,0.00002108,0.00121931,0.00031197,-0.00091690,-0.00018497,0.0000
 3825,-0.00012314,0.00264973,0.00446197,-0.00063437,0.00032754,0.000079
 22,-0.00191760,-0.00376656,-0.00201023,-0.00097390,0.00643999,0.002331
 19,0.00095339,0.00039377,-0.00019771,0.00006967,-0.00041981,0.00027779
 ,-0.00007076,-0.00019527,0.00007752,-0.00002208,-0.00010093,0.00000401
 ,-0.00000842,-0.10668533,-0.11155271,-0.08976364,-0.01296194,-0.026581
 70,-0.01278723,0.12099431,0.00018237,-0.00022439,0.00054477,-0.0036079
 5,0.00304951,0.00634437,0.00251864,0.00235997,-0.00002239,0.00016773,-
 0.00105131,-0.00058616,-0.00020674,-0.00035930,0.00001262,-0.00002478,
 0.00019675,-0.00040650,-0.00018922,0.00007296,-0.00003839,0.00019836,-
 0.00027523,0.00038525,-0.00064454,0.00079923,-0.00013936,-0.00000603,-
 0.00085499,-0.00028200,0.00024738,0.00017847,0.00000599,0.00004367,-0.
 00012004,-0.00004956,0.00001563,-0.00000940,0.00003408,-0.00009737,-0.
 00017036,-0.00002111,0.00003436,0.00000515,0.00000570,0.00121778,0.000
 16254,-0.00067532,-0.00015365,0.00014069,-0.00020791,0.00298376,-0.005
 73585,-0.00031038,0.00288717,0.00202492,-0.00121002,-0.00302826,-0.000
 90237,-0.00008899,0.00289472,-0.00307329,-0.00283378,0.00014461,-0.000
 20654,0.00002552,-0.00022173,0.00025909,-0.00002377,-0.00000385,0.0001
 3365,0.00001072,-0.00002948,0.00002424,-0.00000425,-0.15301574,-0.3087
 6167,-0.15158310,0.01459867,0.01478127,0.01587249,0.13249042,0.2979824
 4,0.00020429,0.00006253,-0.00013268,0.00146831,0.00291668,0.00468794,0
 .00216842,0.00069151,0.00209026,0.00032523,-0.00056020,-0.00118640,-0.
 00020308,-0.00026002,0.00001190,0.00050622,0.00063756,-0.00146230,0.00
 005995,0.00001560,-0.00002370,-0.00029147,0.00016661,-0.00062616,-0.00
 017324,0.00014784,0.00019418,-0.00014627,-0.00030783,-0.00024432,0.000
 08260,0.00000280,0.00013961,0.00004297,-0.00009543,-0.00002289,-0.0000
 1691,0.00000752,-0.00003877,-0.00010483,-0.00001559,-0.00007043,0.0000
 0699,0.00000318,0.00002881,0.00052830,0.00016767,-0.00035649,0.0000220
 7,0.00004641,-0.00013066,0.00394001,0.00220833,-0.00851321,-0.00294795
 ,-0.00206268,-0.00048701,-0.00269304,0.00026606,-0.00066486,0.00240519
 ,-0.00385140,-0.00197189,-0.00001140,-0.00003128,-0.00002372,-0.000013
 25,0.00002997,0.00001206,0.00002354,0.00003571,0.00002459,0.00000755,0
 .00000468,0.00000489,-0.08984083,-0.10714030,-0.09926266,-0.01410640,-
 0.02825875,-0.01416050,0.09875866,0.13528433,0.12234458,0.00071474,0.0
 0225364,0.00514622,-0.00117931,0.00405765,-0.00730649,0.00053545,0.001
 55792,0.00045357,-0.04574939,-0.01214934,0.01066779,-0.00048575,0.0004
 7076,-0.00052260,-0.00215256,-0.00183318,0.00067640,-0.00060390,-0.000
 31536,-0.00108434,0.00018957,-0.00037945,-0.00002949,-0.18349581,-0.01
 884690,0.06541224,0.00168747,-0.03080325,0.00663484,-0.00353546,0.0007
 3670,-0.00031154,0.00075677,-0.00044428,-0.00016001,0.00040741,0.00017
 982,-0.00016513,0.00416954,0.00091676,0.00016558,-0.00013040,-0.000017
 42,-0.00008973,-0.01054036,-0.00192977,-0.00075280,-0.00388596,0.00049
 903,0.00266363,-0.00182423,-0.00075651,0.00159724,0.00078089,0.0004585
 2,-0.00039354,-0.00104618,-0.00174436,-0.00081258,0.00051781,0.0004104
 1,-0.00019843,-0.01385231,0.02273049,-0.00395850,-0.23721398,0.1718900
 9,-0.08145088,-0.00592968,-0.00378515,0.00093440,0.00108655,0.00044285
 ,-0.00124191,-0.00113080,-0.00063281,0.00016452,0.00034331,0.00015279,
 -0.00000641,0.00108345,0.00060319,0.00000726,0.51427941,0.00127600,0.0
 0606190,0.00786407,0.00088635,-0.00250345,0.00257719,0.00121926,-0.001
 91475,-0.00013523,0.00438907,0.00969512,-0.00529453,-0.00140928,0.0005
 4701,-0.00044392,0.00057873,0.00070573,-0.00017966,0.00067195,-0.00011
 125,-0.00039084,-0.00006321,0.00011042,-0.00034528,0.00198413,-0.08644
 025,0.02183375,-0.03950328,-0.03936381,0.02840991,-0.00006312,-0.00001
 666,-0.00037084,0.00012821,-0.00039713,-0.00015798,-0.00001841,0.00017
 671,-0.00000715,-0.00028291,-0.00061492,-0.00019014,-0.00020397,0.0000
 4942,0.00005999,0.00278020,0.00551951,0.00173089,-0.00240339,-0.004537
 14,-0.00373211,0.00020641,0.00127319,-0.00026387,0.00000587,-0.0007012
 8,-0.00006936,-0.00201595,0.00063353,-0.00049566,0.00040036,-0.0004243
 9,-0.00023215,0.01393887,-0.00779032,0.00129039,0.14137195,-0.15110620
 ,0.08200754,-0.00006915,0.00260458,-0.00065698,-0.00004324,-0.00184863
 ,0.00109414,-0.00024910,0.00033984,0.00011934,-0.00001252,-0.00002967,
 0.00000773,-0.00007136,-0.00028075,-0.00004881,-0.12745260,0.26212124,
 -0.00083464,-0.00223713,-0.00637337,-0.00076521,0.00080443,-0.00188571
 ,-0.00048083,0.00112686,0.00062875,-0.00702289,-0.00167948,0.00036951,
 -0.00068582,0.00038800,0.00064679,0.00010621,-0.00007620,0.00024035,0.
 00037091,0.00114541,0.00174735,-0.00036852,-0.00020295,0.00032145,0.04
 905032,0.02625914,-0.12431652,0.01167855,0.02694662,0.00281622,0.00083
 844,0.00035700,0.00076636,-0.00026393,0.00041496,0.00006988,0.00001909
 ,-0.00042755,0.00015272,-0.00033452,0.00002122,0.00039822,0.00000379,-
 0.00009630,-0.00005514,-0.01728493,-0.00036240,-0.00043919,0.00025715,
 -0.00339611,-0.00007639,-0.00043510,-0.00024789,0.00118572,-0.00063411
 ,-0.00024894,0.00003284,0.00108906,-0.00018660,0.00047308,-0.00006814,
 0.00022880,0.00007731,-0.00184429,-0.00045672,0.00612533,-0.05658842,0
 .07340455,-0.06103295,0.00018892,0.00034805,-0.00085201,-0.00171078,0.
 00230258,-0.00078330,0.00004787,-0.00006434,0.00010591,0.00003920,0.00
 000838,-0.00004718,-0.00002046,0.00002108,-0.00008445,-0.01323322,-0.1
 3543038,0.19634044,0.00060047,0.00002998,-0.00084617,0.00045923,0.0001
 4840,-0.00015762,-0.00012108,0.00031274,0.00004051,0.00600616,-0.00930
 069,-0.02062662,0.00096912,0.00036886,0.00034939,-0.00007482,-0.000072
 17,-0.00010334,-0.00018919,0.00010901,-0.00004996,0.00000190,-0.000103
 42,0.00005788,-0.05579716,0.00414672,-0.00305193,0.00558740,0.00338816
 ,0.00293071,-0.00003707,0.00012503,0.00021480,-0.00002264,0.00006262,-
 0.00000147,0.00002901,-0.00002157,-0.00001610,0.00012466,0.00005696,-0
 .00002848,0.00001353,0.00000693,0.00000952,-0.00277194,0.00117883,-0.0
 0519502,-0.00248883,-0.00015478,-0.00033959,-0.00052695,0.00013027,0.0
 0073596,-0.00037342,-0.00021071,-0.00006710,0.00010925,-0.00013142,0.0
 0000234,0.00001995,0.00004216,-0.00000843,-0.00067003,0.00084544,-0.00
 049793,0.00175418,-0.00083276,0.00196077,-0.00013090,-0.00024583,0.000
 14422,0.00018216,-0.00013062,0.00000698,-0.00000944,-0.00000765,0.0000
 2093,0.00001469,0.00000405,-0.00000791,-0.00000721,0.00000088,-0.00000
 889,-0.01379627,0.00402413,0.03888631,0.06114523,0.00583812,-0.0030031
 3,0.00262273,0.00033724,-0.00061402,0.00013953,0.00102949,-0.00014282,
 -0.00010453,0.00128165,0.00483539,0.00717350,-0.00062090,0.00069252,0.
 00035097,0.00008438,0.00015422,0.00001428,-0.00021133,-0.00044252,-0.0
 0045483,-0.00009354,-0.00000383,0.00010515,0.00734547,-0.08583342,-0.0
 9218524,-0.00424638,-0.03924159,-0.02933998,-0.00160346,-0.00082846,-0
 .00173333,0.00038325,-0.00075396,0.00015784,0.00001930,0.00005875,0.00
 012156,0.00039138,0.00011946,0.00007097,-0.00007808,0.00001789,-0.0000
 3789,0.00144373,0.00095364,0.00171720,-0.00040173,-0.00007669,-0.00035
 413,0.00014500,0.00055107,0.00010384,-0.00026692,-0.00029334,-0.000011
 59,-0.00062582,0.00018932,-0.00000547,0.00015743,-0.00011372,-0.000104
 26,0.00000849,0.00043609,-0.00002779,0.00031494,-0.00015604,0.00109562
 ,-0.00045631,-0.00022965,-0.00006301,0.00002066,-0.00004262,0.00000700
 ,-0.00007476,0.00014554,0.00009631,0.00000030,-0.00000743,-0.00000359,
 -0.00008179,-0.00014538,-0.00006271,-0.00627025,0.00824240,0.01133591,
 -0.00376955,0.11553234,0.00003047,0.00157491,0.00174002,0.00005898,0.0
 0051759,-0.00169616,0.00002094,0.00010132,-0.00023602,0.00114581,-0.00
 864906,-0.01398183,-0.00021716,0.00088266,0.00062360,-0.00032313,-0.00
 019694,0.00005538,0.00009013,0.00044214,0.00028787,-0.00000283,-0.0001
 2281,0.00014849,0.00144774,-0.09856136,-0.25599793,-0.00132661,0.00217
 125,0.00847423,0.00008050,0.00014412,0.00011983,-0.00002756,0.00005755
 ,-0.00001463,0.00001151,-0.00005067,0.00001849,-0.00006502,-0.00009503
 ,0.00004010,-0.00001475,-0.00000681,-0.00001751,-0.00348879,0.00104297
 ,-0.00122173,0.00157399,-0.00061967,0.00140107,-0.00020889,0.00032856,
 0.00083314,-0.00050531,-0.00048382,0.00013317,-0.00010573,-0.00009282,
 0.00009444,0.00007314,0.00003033,-0.00006322,0.00063325,-0.00079545,0.
 00047434,-0.00151871,0.00118782,-0.00166622,0.00006086,0.00026311,-0.0
 0018636,-0.00021447,0.00012516,-0.00001174,-0.00005971,0.00003731,0.00
 011505,0.00003487,0.00000569,-0.00002273,-0.00002370,-0.00006393,-0.00
 007573,0.01719393,0.00144997,-0.01655201,-0.01435374,0.09937593,0.2771
 8461\\-0.00000790,-0.00000795,-0.00000738,0.00000856,-0.00000921,-0.00
 000564,-0.00000191,-0.00000214,-0.00000883,-0.00001639,0.00000163,0.00
 000391,-0.00000586,-0.00000302,0.00000309,-0.00000161,-0.00000272,0.00
 000031,0.00000354,0.00000310,0.00000082,0.00000097,-0.00000371,-0.0000
 0054,0.00001392,0.00000561,-0.00000099,0.00000593,0.00000501,0.0000084
 4,-0.00000410,-0.00000703,-0.00001004,0.00000793,-0.00000003,0.0000000
 6,0.00000649,0.00000517,-0.00000123,0.00000840,0.00001286,0.00000987,0
 .00000677,0.00000123,-0.00000983,-0.00000259,0.00000243,-0.00000313,-0
 .00000075,0.00000451,0.00000194,-0.00000936,-0.00000049,0.00000965,-0.
 00000378,-0.00000810,-0.00000013,0.00000833,0.00000242,0.00000454,0.00
 000008,-0.00000461,-0.00000634,0.00000480,-0.00000721,-0.00000220,-0.0
 0003305,-0.00000898,0.00001314,0.00000790,0.00003203,-0.00000139,-0.00
 000501,0.00001156,0.00000545,0.00000275,-0.00001093,0.00000259,0.00000
 206,-0.00001001,-0.00000513,-0.00000221,-0.00000819,-0.00000818,0.0000
 1287,0.00000505,0.00000450,-0.00000677,0.00000168,0.00000269\\\@


 ALTHOUGH J.J. COULD DIAGNOSE THE FAULTS OF AN
 APPARATUS WITH UNCANNY ACCURACY, IT WAS JUST AS
 WELL NOT TO LET HIM HANDLE IT.
   -- GEORGE THOMPSON, ABOUT HIS FATHER
 Job cpu time:       0 days  0 hours 33 minutes  2.1 seconds.
 File lengths (MBytes):  RWF=    221 Int=      0 D2E=      0 Chk=      6 Scr=      1
 Normal termination of Gaussian 09 at Sun Jan 15 13:35:22 2017.
