 Entering Gaussian System, Link 0=g09
 Initial command:
 /global/software/gaussian/g09.e01/l1.exe "/scratch/10462954.yak.local/Gau-6239.inp" -scrdir="/scratch/10462954.yak.local/"
 Entering Link 1 = /global/software/gaussian/g09.e01/l1.exe PID=      6240.
  
 Copyright (c) 1988,1990,1992,1993,1995,1998,2003,2009,2015,
            Gaussian, Inc.  All Rights Reserved.
  
 This is part of the Gaussian(R) 09 program.  It is based on
 the Gaussian(R) 03 system (copyright 2003, Gaussian, Inc.),
 the Gaussian(R) 98 system (copyright 1998, Gaussian, Inc.),
 the Gaussian(R) 94 system (copyright 1995, Gaussian, Inc.),
 the Gaussian 92(TM) system (copyright 1992, Gaussian, Inc.),
 the Gaussian 90(TM) system (copyright 1990, Gaussian, Inc.),
 the Gaussian 88(TM) system (copyright 1988, Gaussian, Inc.),
 the Gaussian 86(TM) system (copyright 1986, Carnegie Mellon
 University), and the Gaussian 82(TM) system (copyright 1983,
 Carnegie Mellon University). Gaussian is a federally registered
 trademark of Gaussian, Inc.
  
 This software contains proprietary and confidential information,
 including trade secrets, belonging to Gaussian, Inc.
  
 This software is provided under written license and may be
 used, copied, transmitted, or stored only in accord with that
 written license.
  
 The following legend is applicable only to US Government
 contracts under FAR:
  
                    RESTRICTED RIGHTS LEGEND
  
 Use, reproduction and disclosure by the US Government is
 subject to restrictions as set forth in subparagraphs (a)
 and (c) of the Commercial Computer Software - Restricted
 Rights clause in FAR 52.227-19.
  
 Gaussian, Inc.
 340 Quinnipiac St., Bldg. 40, Wallingford CT 06492
  
  
 ---------------------------------------------------------------
 Warning -- This program may not be used in any manner that
 competes with the business of Gaussian, Inc. or will provide
 assistance to any competitor of Gaussian, Inc.  The licensee
 of this program is prohibited from giving any competitor of
 Gaussian, Inc. access to this program.  By using this program,
 the user acknowledges that Gaussian, Inc. is engaged in the
 business of creating and licensing software in the field of
 computational chemistry and represents and warrants to the
 licensee that it is not a competitor of Gaussian, Inc. and that
 it will not use this program in any manner prohibited above.
 ---------------------------------------------------------------
  

 Cite this work as:
 Gaussian 09, Revision E.01,
 M. J. Frisch, G. W. Trucks, H. B. Schlegel, G. E. Scuseria, 
 M. A. Robb, J. R. Cheeseman, G. Scalmani, V. Barone, B. Mennucci, 
 G. A. Petersson, H. Nakatsuji, M. Caricato, X. Li, H. P. Hratchian, 
 A. F. Izmaylov, J. Bloino, G. Zheng, J. L. Sonnenberg, M. Hada, 
 M. Ehara, K. Toyota, R. Fukuda, J. Hasegawa, M. Ishida, T. Nakajima, 
 Y. Honda, O. Kitao, H. Nakai, T. Vreven, J. A. Montgomery, Jr., 
 J. E. Peralta, F. Ogliaro, M. Bearpark, J. J. Heyd, E. Brothers, 
 K. N. Kudin, V. N. Staroverov, T. Keith, R. Kobayashi, J. Normand, 
 K. Raghavachari, A. Rendell, J. C. Burant, S. S. Iyengar, J. Tomasi, 
 M. Cossi, N. Rega, J. M. Millam, M. Klene, J. E. Knox, J. B. Cross, 
 V. Bakken, C. Adamo, J. Jaramillo, R. Gomperts, R. E. Stratmann, 
 O. Yazyev, A. J. Austin, R. Cammi, C. Pomelli, J. W. Ochterski, 
 R. L. Martin, K. Morokuma, V. G. Zakrzewski, G. A. Voth, 
 P. Salvador, J. J. Dannenberg, S. Dapprich, A. D. Daniels, 
 O. Farkas, J. B. Foresman, J. V. Ortiz, J. Cioslowski, 
 and D. J. Fox, Gaussian, Inc., Wallingford CT, 2013.
 
 ******************************************
 Gaussian 09:  ES64L-G09RevE.01 30-Nov-2015
                15-Jan-2017 
 ******************************************
 %NPROCS=4
 Will use up to    4 processors via shared memory.
 -----------------------------------------
 # opt=(MaxCycle=1000) freq B3LYP/6-31G(d)
 -----------------------------------------
 1/6=1000,14=-1,18=20,19=15,26=3,38=1/1,3;
 2/9=110,12=2,17=6,18=5,40=1/2;
 3/5=1,6=6,7=1,11=2,16=1,25=1,30=1,71=1,74=-5/1,2,3;
 4//1;
 5/5=2,38=5/2;
 6/7=2,8=2,9=2,10=2,28=1/1;
 7//1,2,3,16;
 1/6=1000,14=-1,18=20,19=15,26=3/3(2);
 2/9=110/2;
 99//99;
 2/9=110/2;
 3/5=1,6=6,7=1,11=2,16=1,25=1,30=1,71=1,74=-5/1,2,3;
 4/5=5,16=3,69=1/1;
 5/5=2,38=5/2;
 7//1,2,3,16;
 1/6=1000,14=-1,18=20,19=15,26=3/3(-5);
 2/9=110/2;
 6/7=2,8=2,9=2,10=2,19=2,28=1/1;
 99/9=1/99;
 -----------------------------------------------
 ./boats/6/glo_2w_alpha_ts_boat6_B3LYP_631Gd.out
 -----------------------------------------------
 Symbolic Z-matrix:
 Charge =  0 Multiplicity = 1
 C                    -0.11139   1.02611  -0.20155 
 C                    -2.16713  -0.24304   0.61594 
 C                    -1.65937   1.03424  -0.09426 
 C                    -1.45749  -1.49519   0.06489 
 H                    -1.91221  -2.38815   0.52327 
 H                    -3.2352   -0.32843   0.39359 
 H                     0.17199   0.58731  -1.16579 
 H                    -1.9868    1.88429   0.51715 
 C                     0.0564   -1.58678   0.35595 
 O                     0.39407   0.19456   0.85475 
 C                     0.46065   2.42592  -0.11545 
 H                    -0.13537   3.07162  -0.77323 
 H                     0.3754    2.79299   0.91746 
 O                     1.83247   2.42083  -0.54596 
 H                     2.15461   3.33507  -0.5337 
 O                    -1.62032  -1.52147  -1.34756 
 H                    -0.73273  -1.7928   -1.67691 
 O                    -2.05938  -0.15932   2.02775 
 H                    -1.12584   0.04597   2.20961 
 O                    -2.23601   1.21258  -1.37485 
 H                    -2.14336   0.34145  -1.80979 
 O                     3.37198  -1.7697   -0.35834 
 H                     2.40378  -1.96724  -0.48048 
 H                     3.22096  -0.37726   0.41383 
 H                     3.72483  -1.69063  -1.25697 
 O                     0.77741  -1.85193  -0.63695 
 H                     0.34127  -1.91488   1.36388 
 O                     2.8558    0.41256   0.91903 
 H                     2.87676   1.18422   0.31757 
 H                     1.45152   0.25039   0.92249 
 
 Add virtual bond connecting atoms H30        and O28        Dist= 2.67D+00.
 Add virtual bond connecting atoms H24        and O22        Dist= 3.02D+00.
 Add virtual bond connecting atoms O26        and H23        Dist= 3.10D+00.

 GradGradGradGradGradGradGradGradGradGradGradGradGradGradGradGradGradGrad
 Berny optimization.
 Initialization pass.
                           ----------------------------
                           !    Initial Parameters    !
                           ! (Angstroms and Degrees)  !
 --------------------------                            --------------------------
 ! Name  Definition              Value          Derivative Info.                !
 --------------------------------------------------------------------------------
 ! R1    R(1,3)                  1.5517         estimate D2E/DX2                !
 ! R2    R(1,7)                  1.0966         estimate D2E/DX2                !
 ! R3    R(1,10)                 1.4362         estimate D2E/DX2                !
 ! R4    R(1,11)                 1.5146         estimate D2E/DX2                !
 ! R5    R(2,3)                  1.5471         estimate D2E/DX2                !
 ! R6    R(2,4)                  1.5411         estimate D2E/DX2                !
 ! R7    R(2,6)                  1.0943         estimate D2E/DX2                !
 ! R8    R(2,18)                 1.4184         estimate D2E/DX2                !
 ! R9    R(3,8)                  1.0971         estimate D2E/DX2                !
 ! R10   R(3,20)                 1.4157         estimate D2E/DX2                !
 ! R11   R(4,5)                  1.1019         estimate D2E/DX2                !
 ! R12   R(4,9)                  1.5443         estimate D2E/DX2                !
 ! R13   R(4,16)                 1.422          estimate D2E/DX2                !
 ! R14   R(9,26)                 1.2554         estimate D2E/DX2                !
 ! R15   R(9,27)                 1.0976         estimate D2E/DX2                !
 ! R16   R(10,30)                1.0611         estimate D2E/DX2                !
 ! R17   R(11,12)                1.0977         estimate D2E/DX2                !
 ! R18   R(11,13)                1.0995         estimate D2E/DX2                !
 ! R19   R(11,14)                1.4378         estimate D2E/DX2                !
 ! R20   R(14,15)                0.9694         estimate D2E/DX2                !
 ! R21   R(16,17)                0.9848         estimate D2E/DX2                !
 ! R22   R(18,19)                0.973          estimate D2E/DX2                !
 ! R23   R(20,21)                0.9781         estimate D2E/DX2                !
 ! R24   R(22,23)                0.9957         estimate D2E/DX2                !
 ! R25   R(22,24)                1.5994         estimate D2E/DX2                !
 ! R26   R(22,25)                0.9687         estimate D2E/DX2                !
 ! R27   R(23,26)                1.6379         estimate D2E/DX2                !
 ! R28   R(24,28)                1.0062         estimate D2E/DX2                !
 ! R29   R(28,29)                0.9786         estimate D2E/DX2                !
 ! R30   R(28,30)                1.4136         estimate D2E/DX2                !
 ! A1    A(3,1,7)              108.704          estimate D2E/DX2                !
 ! A2    A(3,1,10)             107.6542         estimate D2E/DX2                !
 ! A3    A(3,1,11)             111.592          estimate D2E/DX2                !
 ! A4    A(7,1,10)             108.9089         estimate D2E/DX2                !
 ! A5    A(7,1,11)             108.7953         estimate D2E/DX2                !
 ! A6    A(10,1,11)            111.1227         estimate D2E/DX2                !
 ! A7    A(3,2,4)              110.8246         estimate D2E/DX2                !
 ! A8    A(3,2,6)              106.9462         estimate D2E/DX2                !
 ! A9    A(3,2,18)             112.5351         estimate D2E/DX2                !
 ! A10   A(4,2,6)              108.2626         estimate D2E/DX2                !
 ! A11   A(4,2,18)             111.6464         estimate D2E/DX2                !
 ! A12   A(6,2,18)             106.3197         estimate D2E/DX2                !
 ! A13   A(1,3,2)              110.7822         estimate D2E/DX2                !
 ! A14   A(1,3,8)              109.8968         estimate D2E/DX2                !
 ! A15   A(1,3,20)             110.1483         estimate D2E/DX2                !
 ! A16   A(2,3,8)              106.6125         estimate D2E/DX2                !
 ! A17   A(2,3,20)             112.6779         estimate D2E/DX2                !
 ! A18   A(8,3,20)             106.5552         estimate D2E/DX2                !
 ! A19   A(2,4,5)              108.6417         estimate D2E/DX2                !
 ! A20   A(2,4,9)              115.6062         estimate D2E/DX2                !
 ! A21   A(2,4,16)             108.5079         estimate D2E/DX2                !
 ! A22   A(5,4,9)              106.1446         estimate D2E/DX2                !
 ! A23   A(5,4,16)             110.545          estimate D2E/DX2                !
 ! A24   A(9,4,16)             107.3584         estimate D2E/DX2                !
 ! A25   A(4,9,26)             115.2439         estimate D2E/DX2                !
 ! A26   A(4,9,27)             116.4377         estimate D2E/DX2                !
 ! A27   A(26,9,27)            120.9371         estimate D2E/DX2                !
 ! A28   A(1,10,30)            111.5442         estimate D2E/DX2                !
 ! A29   A(1,11,12)            107.7292         estimate D2E/DX2                !
 ! A30   A(1,11,13)            109.4304         estimate D2E/DX2                !
 ! A31   A(1,11,14)            109.8801         estimate D2E/DX2                !
 ! A32   A(12,11,13)           108.9337         estimate D2E/DX2                !
 ! A33   A(12,11,14)           109.9213         estimate D2E/DX2                !
 ! A34   A(13,11,14)           110.8822         estimate D2E/DX2                !
 ! A35   A(11,14,15)           108.0551         estimate D2E/DX2                !
 ! A36   A(4,16,17)            103.5361         estimate D2E/DX2                !
 ! A37   A(2,18,19)            105.7464         estimate D2E/DX2                !
 ! A38   A(3,20,21)            104.5643         estimate D2E/DX2                !
 ! A39   A(23,22,24)            98.0558         estimate D2E/DX2                !
 ! A40   A(23,22,25)           104.8691         estimate D2E/DX2                !
 ! A41   A(24,22,25)           114.2819         estimate D2E/DX2                !
 ! A42   A(22,23,26)           164.4282         estimate D2E/DX2                !
 ! A43   A(22,24,28)           163.7605         estimate D2E/DX2                !
 ! A44   A(9,26,23)            120.6363         estimate D2E/DX2                !
 ! A45   A(24,28,29)           107.6144         estimate D2E/DX2                !
 ! A46   A(24,28,30)           105.7654         estimate D2E/DX2                !
 ! A47   A(29,28,30)            96.5022         estimate D2E/DX2                !
 ! A48   L(10,30,28,11,-1)     175.1921         estimate D2E/DX2                !
 ! A49   L(10,30,28,11,-2)     182.1185         estimate D2E/DX2                !
 ! D1    D(7,1,3,2)             92.8679         estimate D2E/DX2                !
 ! D2    D(7,1,3,8)           -149.5795         estimate D2E/DX2                !
 ! D3    D(7,1,3,20)           -32.4776         estimate D2E/DX2                !
 ! D4    D(10,1,3,2)           -24.9584         estimate D2E/DX2                !
 ! D5    D(10,1,3,8)            92.5942         estimate D2E/DX2                !
 ! D6    D(10,1,3,20)         -150.3039         estimate D2E/DX2                !
 ! D7    D(11,1,3,2)          -147.1446         estimate D2E/DX2                !
 ! D8    D(11,1,3,8)           -29.592          estimate D2E/DX2                !
 ! D9    D(11,1,3,20)           87.5099         estimate D2E/DX2                !
 ! D10   D(3,1,10,30)         -172.1943         estimate D2E/DX2                !
 ! D11   D(7,1,10,30)           70.112          estimate D2E/DX2                !
 ! D12   D(11,1,10,30)         -49.7182         estimate D2E/DX2                !
 ! D13   D(3,1,11,12)          -45.9856         estimate D2E/DX2                !
 ! D14   D(3,1,11,13)           72.3088         estimate D2E/DX2                !
 ! D15   D(3,1,11,14)         -165.7207         estimate D2E/DX2                !
 ! D16   D(7,1,11,12)           73.9482         estimate D2E/DX2                !
 ! D17   D(7,1,11,13)         -167.7574         estimate D2E/DX2                !
 ! D18   D(7,1,11,14)          -45.787          estimate D2E/DX2                !
 ! D19   D(10,1,11,12)        -166.154          estimate D2E/DX2                !
 ! D20   D(10,1,11,13)         -47.8597         estimate D2E/DX2                !
 ! D21   D(10,1,11,14)          74.1108         estimate D2E/DX2                !
 ! D22   D(4,2,3,1)            -45.3179         estimate D2E/DX2                !
 ! D23   D(4,2,3,8)           -164.8619         estimate D2E/DX2                !
 ! D24   D(4,2,3,20)            78.591          estimate D2E/DX2                !
 ! D25   D(6,2,3,1)           -163.1181         estimate D2E/DX2                !
 ! D26   D(6,2,3,8)             77.3379         estimate D2E/DX2                !
 ! D27   D(6,2,3,20)           -39.2093         estimate D2E/DX2                !
 ! D28   D(18,2,3,1)            80.4927         estimate D2E/DX2                !
 ! D29   D(18,2,3,8)           -39.0514         estimate D2E/DX2                !
 ! D30   D(18,2,3,20)         -155.5985         estimate D2E/DX2                !
 ! D31   D(3,2,4,5)           -174.6318         estimate D2E/DX2                !
 ! D32   D(3,2,4,9)             66.2185         estimate D2E/DX2                !
 ! D33   D(3,2,4,16)           -54.3998         estimate D2E/DX2                !
 ! D34   D(6,2,4,5)            -57.6375         estimate D2E/DX2                !
 ! D35   D(6,2,4,9)           -176.7873         estimate D2E/DX2                !
 ! D36   D(6,2,4,16)            62.5945         estimate D2E/DX2                !
 ! D37   D(18,2,4,5)            59.0623         estimate D2E/DX2                !
 ! D38   D(18,2,4,9)           -60.0875         estimate D2E/DX2                !
 ! D39   D(18,2,4,16)          179.2943         estimate D2E/DX2                !
 ! D40   D(3,2,18,19)          -55.2058         estimate D2E/DX2                !
 ! D41   D(4,2,18,19)           70.1584         estimate D2E/DX2                !
 ! D42   D(6,2,18,19)         -171.9692         estimate D2E/DX2                !
 ! D43   D(1,3,20,21)           76.2136         estimate D2E/DX2                !
 ! D44   D(2,3,20,21)          -48.0448         estimate D2E/DX2                !
 ! D45   D(8,3,20,21)         -164.6261         estimate D2E/DX2                !
 ! D46   D(2,4,9,26)          -130.9459         estimate D2E/DX2                !
 ! D47   D(2,4,9,27)            78.6881         estimate D2E/DX2                !
 ! D48   D(5,4,9,26)           108.5401         estimate D2E/DX2                !
 ! D49   D(5,4,9,27)           -41.8259         estimate D2E/DX2                !
 ! D50   D(16,4,9,26)           -9.7068         estimate D2E/DX2                !
 ! D51   D(16,4,9,27)         -160.0728         estimate D2E/DX2                !
 ! D52   D(2,4,16,17)          137.9054         estimate D2E/DX2                !
 ! D53   D(5,4,16,17)         -103.0534         estimate D2E/DX2                !
 ! D54   D(9,4,16,17)           12.3043         estimate D2E/DX2                !
 ! D55   D(4,9,26,23)          179.4572         estimate D2E/DX2                !
 ! D56   D(27,9,26,23)         -31.6194         estimate D2E/DX2                !
 ! D57   D(1,10,28,24)         -97.8316         estimate D2E/DX2                !
 ! D58   D(1,10,28,29)          11.9141         estimate D2E/DX2                !
 ! D59   D(1,11,14,15)         176.4899         estimate D2E/DX2                !
 ! D60   D(12,11,14,15)         58.0996         estimate D2E/DX2                !
 ! D61   D(13,11,14,15)        -62.408          estimate D2E/DX2                !
 ! D62   D(24,22,23,26)         23.4082         estimate D2E/DX2                !
 ! D63   D(25,22,23,26)        -94.4505         estimate D2E/DX2                !
 ! D64   D(23,22,24,28)         12.6974         estimate D2E/DX2                !
 ! D65   D(25,22,24,28)        123.073          estimate D2E/DX2                !
 ! D66   D(22,23,26,9)         -72.0142         estimate D2E/DX2                !
 ! D67   D(22,24,28,29)       -111.3932         estimate D2E/DX2                !
 ! D68   D(22,24,28,30)         -9.0896         estimate D2E/DX2                !
 --------------------------------------------------------------------------------
 Trust Radius=3.00D-01 FncErr=1.00D-07 GrdErr=1.00D-06
 Number of steps in this run=    180 maximum allowed number of steps=    180.
 GradGradGradGradGradGradGradGradGradGradGradGradGradGradGradGradGradGrad

                          Input orientation:                          
 ---------------------------------------------------------------------
 Center     Atomic      Atomic             Coordinates (Angstroms)
 Number     Number       Type             X           Y           Z
 ---------------------------------------------------------------------
      1          6           0       -0.111390    1.026110   -0.201550
      2          6           0       -2.167130   -0.243040    0.615940
      3          6           0       -1.659370    1.034240   -0.094260
      4          6           0       -1.457490   -1.495190    0.064890
      5          1           0       -1.912210   -2.388150    0.523270
      6          1           0       -3.235200   -0.328430    0.393590
      7          1           0        0.171990    0.587310   -1.165790
      8          1           0       -1.986800    1.884290    0.517150
      9          6           0        0.056400   -1.586780    0.355950
     10          8           0        0.394070    0.194560    0.854750
     11          6           0        0.460650    2.425920   -0.115450
     12          1           0       -0.135370    3.071620   -0.773230
     13          1           0        0.375400    2.792990    0.917460
     14          8           0        1.832470    2.420830   -0.545960
     15          1           0        2.154610    3.335070   -0.533700
     16          8           0       -1.620320   -1.521470   -1.347560
     17          1           0       -0.732730   -1.792800   -1.676910
     18          8           0       -2.059380   -0.159320    2.027750
     19          1           0       -1.125840    0.045970    2.209610
     20          8           0       -2.236010    1.212580   -1.374850
     21          1           0       -2.143360    0.341450   -1.809790
     22          8           0        3.371980   -1.769700   -0.358340
     23          1           0        2.403780   -1.967240   -0.480480
     24          1           0        3.220960   -0.377260    0.413830
     25          1           0        3.724830   -1.690630   -1.256970
     26          8           0        0.777410   -1.851930   -0.636950
     27          1           0        0.341270   -1.914880    1.363880
     28          8           0        2.855800    0.412560    0.919030
     29          1           0        2.876760    1.184220    0.317570
     30          1           0        1.451520    0.250390    0.922490
 ---------------------------------------------------------------------
                    Distance matrix (angstroms):
                    1          2          3          4          5
     1  C    0.000000
     2  C    2.550509   0.000000
     3  C    1.551715   1.547142   0.000000
     4  C    2.870528   1.541144   2.542460   0.000000
     5  H    3.927530   2.162191   3.486836   1.101935   0.000000
     6  H    3.456466   1.094305   2.139651   2.151656   2.451442
     7  H    1.096635   3.055409   2.168364   2.916605   4.006267
     8  H    2.184071   2.137244   1.097095   3.450448   4.273095
     9  C    2.676967   2.610999   3.164854   1.544334   2.132045
    10  O    1.436222   2.609266   2.412944   2.628195   3.478390
    11  C    1.514632   3.816216   2.536081   4.368854   5.404970
    12  H    2.124030   4.128536   2.633343   4.827650   5.886184
    13  H    2.147327   3.971505   2.873511   4.740765   5.677390
    14  O    2.417117   4.943988   3.784126   5.150940   6.188067
    15  H    3.252134   5.727301   4.475865   6.061105   7.100103
    16  O    3.174960   2.405975   2.846742   1.422048   2.082388
    17  H    3.241759   3.117117   3.369807   1.909899   2.566400
    18  O    3.188995   1.418389   2.467290   2.449416   2.693103
    19  H    2.793470   1.925512   2.563035   2.661764   3.063831
    20  O    2.434217   2.467148   1.415708   3.164011   4.083254
    21  H    2.680317   2.495267   1.912393   2.712580   3.598238
    22  O    4.469340   5.827663   5.765961   4.855745   5.392808
    23  H    3.919697   5.006817   5.066284   3.928061   4.451118
    24  H    3.667792   5.393550   5.105694   4.822802   5.514081
    25  H    4.817797   6.349685   6.145439   5.351818   5.952479
    26  O    3.043461   3.581700   3.816070   2.369519   2.977868
    27  H    3.362275   3.105887   3.850460   2.258108   2.451282
    28  O    3.230536   5.074594   4.669047   4.793072   5.543872
    29  H    3.037026   5.250421   4.557255   5.101844   5.978158
    30  H    2.075547   3.664979   3.365388   3.499267   4.293710
                    6          7          8          9         10
     6  H    0.000000
     7  H    3.857355   0.000000
     8  H    2.543600   3.028996   0.000000
     9  C    3.524130   2.656261   4.031002   0.000000
    10  O    3.695644   2.070303   2.938997   1.880424   0.000000
    11  C    4.637335   2.137060   2.585258   4.060468   2.434068
    12  H    4.746657   2.533845   2.550025   4.797136   3.347850
    13  H    4.801472   3.040778   2.562415   4.427125   2.599254
    14  O    5.841444   2.550133   4.000613   4.475355   2.997876
    15  H    6.582640   3.446811   4.512242   5.423889   3.858769
    16  O    2.657590   2.773512   3.900084   2.391151   3.442774
    17  H    3.562823   2.597053   4.461791   2.190363   3.410070
    18  O    2.020304   3.966758   2.542346   3.051079   2.742367
    19  H    2.808470   3.656602   2.642933   2.738543   2.041532
    20  O    2.549602   2.496624   2.023107   4.010889   3.595108
    21  H    2.548674   2.415787   2.796340   3.639704   3.682377
    22  O    6.804226   4.055540   6.544818   3.396578   3.768004
    23  H    5.936985   3.460674   5.925094   2.520825   3.239622
    24  H    6.456376   3.566765   5.678560   3.388322   2.917652
    25  H    7.281618   4.221374   6.967803   4.008700   4.371186
    26  O    4.414080   2.568287   4.788752   1.255393   2.561297
    27  H    4.031057   3.562140   4.535477   1.097599   2.170654
    28  O    6.158363   3.402918   5.077231   3.485837   2.472200
    29  H    6.296820   3.142044   4.917738   3.954029   2.726122
    30  H    4.751854   2.472170   3.828312   2.375399   1.061087
                   11         12         13         14         15
    11  C    0.000000
    12  H    1.097653   0.000000
    13  H    1.099505   1.788003   0.000000
    14  O    1.437795   2.085084   2.098369   0.000000
    15  H    1.967482   2.317496   2.359090   0.969412   0.000000
    16  O    4.629300   4.861215   5.265717   5.301514   6.204712
    17  H    4.654021   4.983579   5.384067   5.061025   5.994891
    18  O    4.198491   4.688953   3.984599   5.331759   6.043964
    19  H    3.686057   4.362674   3.386664   4.688787   5.394931
    20  O    3.214072   2.868914   3.817308   4.324287   4.948741
    21  H    3.741213   3.544053   4.448831   4.661364   5.390984
    22  O    5.112540   5.992664   5.605827   4.468314   5.250849
    23  H    4.817557   5.650053   5.359884   4.425589   5.308428
    24  H    3.969542   4.956696   4.289678   3.267783   3.976972
    25  H    5.376237   6.149323   6.004138   4.581557   5.314731
    26  O    4.321146   5.009300   4.914579   4.402035   5.367710
    27  H    4.587506   5.446063   4.729112   4.966845   5.869496
    28  O    3.295529   4.345278   3.437853   2.688224   3.338137
    29  H    2.750802   3.718205   3.033943   1.834511   2.423286
    30  H    2.606161   3.654179   2.760955   2.648071   3.482826
                   16         17         18         19         20
    16  O    0.000000
    17  H    0.984839   0.000000
    18  O    3.666189   4.260606   0.000000
    19  H    3.918525   4.317482   0.972992   0.000000
    20  O    2.802650   3.373929   3.673009   3.929607   0.000000
    21  H    1.989396   2.561749   3.870987   4.156709   0.978072
    22  O    5.095413   4.311358   6.147066   5.488298   6.432483
    23  H    4.140522   3.361483   5.429511   4.873173   5.695507
    24  H    5.277282   4.691121   5.525778   4.722141   5.958648
    25  H    5.348593   4.478463   6.825788   6.209827   6.631300
    26  O    2.522554   1.834540   4.244164   3.915008   4.360782
    27  H    3.369646   3.227194   3.047267   2.590869   4.891219
    28  O    5.377132   4.947733   5.071026   4.201600   5.641671
    29  H    5.506101   5.086159   5.394005   4.571240   5.385676
    30  H    4.210560   3.962632   3.703496   2.888122   4.449883
                   21         22         23         24         25
    21  H    0.000000
    22  O    6.081335   0.000000
    23  H    5.270066   0.995666   0.000000
    24  H    5.851236   1.599357   1.998902   0.000000
    25  H    6.234630   0.968654   1.557120   2.184124   0.000000
    26  O    3.836322   2.610781   1.637943   3.041336   3.016244
    27  H    4.619155   3.488886   2.767373   3.399924   4.285746
    28  O    5.695886   2.580770   2.797570   1.006173   3.148587
    29  H    5.517022   3.070463   3.285163   1.601861   3.385729
    30  H    4.516283   3.067484   2.791596   1.945147   3.699398
                   26         27         28         29         30
    26  O    0.000000
    27  H    2.048780   0.000000
    28  O    3.445097   3.455102   0.000000
    29  H    3.812687   4.138586   0.978597   0.000000
    30  H    2.702966   2.473029   1.413617   1.808114   0.000000
 Stoichiometry    C6H16O8
 Framework group  C1[X(C6H16O8)]
 Deg. of freedom    84
 Full point group                 C1      NOp   1
 Largest Abelian subgroup         C1      NOp   1
 Largest concise Abelian subgroup C1      NOp   1
                         Standard orientation:                         
 ---------------------------------------------------------------------
 Center     Atomic      Atomic             Coordinates (Angstroms)
 Number     Number       Type             X           Y           Z
 ---------------------------------------------------------------------
      1          6           0       -0.137711    1.011227   -0.208413
      2          6           0       -2.190367   -0.258575    0.615785
      3          6           0       -1.685833    1.015202   -0.102954
      4          6           0       -1.476118   -1.512371    0.074519
      5          1           0       -1.928538   -2.403471    0.538756
      6          1           0       -3.257901   -0.348949    0.392830
      7          1           0        0.148183    0.566447   -1.169164
      8          1           0       -2.016670    1.868557    0.501984
      9          6           0        0.037715   -1.597063    0.367958
     10          8           0        0.369152    0.188863    0.854386
     11          6           0        0.429786    2.413429   -0.131676
     12          1           0       -0.167512    3.052511   -0.794740
     13          1           0        0.342168    2.787603    0.898484
     14          8           0        1.802116    2.409623   -0.560570
     15          1           0        2.121341    3.324947   -0.554482
     16          8           0       -1.637216   -1.549267   -1.337892
     17          1           0       -0.748387   -1.820122   -1.664277
     18          8           0       -2.084530   -0.164420    2.027082
     19          1           0       -1.151858    0.045133    2.208536
     20          8           0       -2.261542    1.182546   -1.385445
     21          1           0       -2.165623    0.308627   -1.814036
     22          8           0        3.354689   -1.774542   -0.341214
     23          1           0        2.387263   -1.976028   -0.463045
     24          1           0        3.198353   -0.377103    0.420801
     25          1           0        3.708334   -1.700778   -1.239983
     26          8           0        0.760719   -1.867012   -0.622195
     27          1           0        0.322448   -1.917040    1.378534
     28          8           0        2.830101    0.415144    0.919920
     29          1           0        2.849315    1.182546    0.312979
     30          1           0        1.426340    0.248538    0.922934
 ---------------------------------------------------------------------
 Rotational constants (GHZ):      0.7648853      0.5341683      0.4120104
 Standard basis: 6-31G(d) (6D, 7F)
 There are   242 symmetry adapted cartesian basis functions of A   symmetry.
 There are   242 symmetry adapted basis functions of A   symmetry.
   242 basis functions,   456 primitive gaussians,   242 cartesian basis functions
    58 alpha electrons       58 beta electrons
       nuclear repulsion energy      1128.5599696693 Hartrees.
 NAtoms=   30 NActive=   30 NUniq=   30 SFac= 1.00D+00 NAtFMM=   60 NAOKFM=F Big=F
 Integral buffers will be    131072 words long.
 Raffenetti 2 integral format.
 Two-electron integral symmetry is turned on.
 One-electron integrals computed using PRISM.
 NBasis=   242 RedAO= T EigKep=  1.40D-03  NBF=   242
 NBsUse=   242 1.00D-06 EigRej= -1.00D+00 NBFU=   242
 ExpMin= 1.61D-01 ExpMax= 5.48D+03 ExpMxC= 8.25D+02 IAcc=1 IRadAn=         1 AccDes= 0.00D+00
 Harris functional with IExCor=  402 and IRadAn=       1 diagonalized for initial guess.
 HarFok:  IExCor=  402 AccDes= 0.00D+00 IRadAn=         1 IDoV= 1 UseB2=F ITyADJ=14
 ICtDFT=  3500011 ScaDFX=  1.000000  1.000000  1.000000  1.000000
 FoFCou: FMM=F IPFlag=           0 FMFlag=      100000 FMFlg1=           0
         NFxFlg=           0 DoJE=T BraDBF=F KetDBF=T FulRan=T
         wScrn=  0.000000 ICntrl=     500 IOpCl=  0 I1Cent=   200000004 NGrid=           0
         NMat0=    1 NMatS0=      1 NMatT0=    0 NMatD0=    1 NMtDS0=    0 NMtDT0=    0
 Petite list used in FoFCou.
 Requested convergence on RMS density matrix=1.00D-08 within 128 cycles.
 Requested convergence on MAX density matrix=1.00D-06.
 Requested convergence on             energy=1.00D-06.
 No special actions if energy rises.
 Integral accuracy reduced to 1.0D-05 until final iterations.
 Initial convergence to 1.0D-05 achieved.  Increase integral accuracy.
 SCF Done:  E(RB3LYP) =  -839.990199219     A.U. after   14 cycles
            NFock= 14  Conv=0.58D-08     -V/T= 2.0084

 **********************************************************************

            Population analysis using the SCF density.

 **********************************************************************

 Orbital symmetries:
       Occupied  (A) (A) (A) (A) (A) (A) (A) (A) (A) (A) (A) (A)
                 (A) (A) (A) (A) (A) (A) (A) (A) (A) (A) (A) (A)
                 (A) (A) (A) (A) (A) (A) (A) (A) (A) (A) (A) (A)
                 (A) (A) (A) (A) (A) (A) (A) (A) (A) (A) (A) (A)
                 (A) (A) (A) (A) (A) (A) (A) (A) (A) (A)
       Virtual   (A) (A) (A) (A) (A) (A) (A) (A) (A) (A) (A) (A)
                 (A) (A) (A) (A) (A) (A) (A) (A) (A) (A) (A) (A)
                 (A) (A) (A) (A) (A) (A) (A) (A) (A) (A) (A) (A)
                 (A) (A) (A) (A) (A) (A) (A) (A) (A) (A) (A) (A)
                 (A) (A) (A) (A) (A) (A) (A) (A) (A) (A) (A) (A)
                 (A) (A) (A) (A) (A) (A) (A) (A) (A) (A) (A) (A)
                 (A) (A) (A) (A) (A) (A) (A) (A) (A) (A) (A) (A)
                 (A) (A) (A) (A) (A) (A) (A) (A) (A) (A) (A) (A)
                 (A) (A) (A) (A) (A) (A) (A) (A) (A) (A) (A) (A)
                 (A) (A) (A) (A) (A) (A) (A) (A) (A) (A) (A) (A)
                 (A) (A) (A) (A) (A) (A) (A) (A) (A) (A) (A) (A)
                 (A) (A) (A) (A) (A) (A) (A) (A) (A) (A) (A) (A)
                 (A) (A) (A) (A) (A) (A) (A) (A) (A) (A) (A) (A)
                 (A) (A) (A) (A) (A) (A) (A) (A) (A) (A) (A) (A)
                 (A) (A) (A) (A) (A) (A) (A) (A) (A) (A) (A) (A)
                 (A) (A) (A) (A)
 The electronic state is 1-A.
 Alpha  occ. eigenvalues --  -19.18917 -19.18199 -19.15343 -19.14792 -19.14691
 Alpha  occ. eigenvalues --  -19.14360 -19.14225 -19.13795 -10.29649 -10.25970
 Alpha  occ. eigenvalues --  -10.25371 -10.24455 -10.24159 -10.23945  -1.07414
 Alpha  occ. eigenvalues --   -1.05683  -1.03869  -1.02825  -1.01444  -1.01327
 Alpha  occ. eigenvalues --   -1.00698  -0.99192  -0.78479  -0.75933  -0.69723
 Alpha  occ. eigenvalues --   -0.65136  -0.62033  -0.57453  -0.56128  -0.54929
 Alpha  occ. eigenvalues --   -0.54146  -0.53225  -0.52929  -0.51353  -0.49034
 Alpha  occ. eigenvalues --   -0.48320  -0.46608  -0.45527  -0.44826  -0.43231
 Alpha  occ. eigenvalues --   -0.42457  -0.42150  -0.40355  -0.39010  -0.38544
 Alpha  occ. eigenvalues --   -0.37237  -0.37070  -0.35592  -0.34007  -0.32489
 Alpha  occ. eigenvalues --   -0.31275  -0.31124  -0.30878  -0.29975  -0.28766
 Alpha  occ. eigenvalues --   -0.27129  -0.26994  -0.24989
 Alpha virt. eigenvalues --    0.01115   0.03856   0.06890   0.07667   0.09617
 Alpha virt. eigenvalues --    0.10903   0.11558   0.13432   0.13655   0.14372
 Alpha virt. eigenvalues --    0.15086   0.15789   0.16190   0.17453   0.19018
 Alpha virt. eigenvalues --    0.20098   0.22138   0.22174   0.22995   0.23774
 Alpha virt. eigenvalues --    0.24642   0.25679   0.27500   0.29300   0.30452
 Alpha virt. eigenvalues --    0.31873   0.33697   0.37828   0.51230   0.51472
 Alpha virt. eigenvalues --    0.53693   0.55474   0.57879   0.58274   0.58703
 Alpha virt. eigenvalues --    0.59435   0.60403   0.62716   0.63553   0.67142
 Alpha virt. eigenvalues --    0.68068   0.70788   0.72463   0.73331   0.74915
 Alpha virt. eigenvalues --    0.75975   0.77082   0.78788   0.80389   0.81118
 Alpha virt. eigenvalues --    0.81954   0.82400   0.82565   0.82999   0.84150
 Alpha virt. eigenvalues --    0.85193   0.85579   0.86418   0.88425   0.88612
 Alpha virt. eigenvalues --    0.90081   0.91402   0.92171   0.93174   0.94256
 Alpha virt. eigenvalues --    0.96712   0.97561   1.00348   1.02969   1.04818
 Alpha virt. eigenvalues --    1.05538   1.06838   1.07936   1.08773   1.09435
 Alpha virt. eigenvalues --    1.11766   1.12708   1.13505   1.14393   1.16993
 Alpha virt. eigenvalues --    1.18912   1.20992   1.22293   1.24671   1.25467
 Alpha virt. eigenvalues --    1.27572   1.32098   1.33119   1.34462   1.35663
 Alpha virt. eigenvalues --    1.38188   1.40521   1.44329   1.46835   1.48686
 Alpha virt. eigenvalues --    1.51774   1.53631   1.56148   1.56970   1.58696
 Alpha virt. eigenvalues --    1.61824   1.64358   1.65696   1.68232   1.69945
 Alpha virt. eigenvalues --    1.70697   1.71336   1.71609   1.72140   1.72549
 Alpha virt. eigenvalues --    1.74609   1.75013   1.75929   1.77499   1.80329
 Alpha virt. eigenvalues --    1.80477   1.81254   1.81880   1.83358   1.86213
 Alpha virt. eigenvalues --    1.87393   1.88456   1.89999   1.93270   1.95144
 Alpha virt. eigenvalues --    1.95709   1.97733   1.98764   2.02196   2.04949
 Alpha virt. eigenvalues --    2.05168   2.07563   2.09340   2.14425   2.15567
 Alpha virt. eigenvalues --    2.18273   2.22902   2.24506   2.30605   2.31718
 Alpha virt. eigenvalues --    2.32662   2.34315   2.35462   2.37315   2.39527
 Alpha virt. eigenvalues --    2.41796   2.44265   2.46010   2.48772   2.50124
 Alpha virt. eigenvalues --    2.51908   2.53661   2.54904   2.59543   2.60738
 Alpha virt. eigenvalues --    2.62779   2.64507   2.65984   2.70470   2.72391
 Alpha virt. eigenvalues --    2.74879   2.79747   2.82298   2.86401   2.88317
 Alpha virt. eigenvalues --    2.90598   2.93887   2.99703   3.02187   3.10917
 Alpha virt. eigenvalues --    3.75299   3.79600   3.79774   3.89164   3.91063
 Alpha virt. eigenvalues --    4.01306   4.10492   4.16390   4.30346   4.37515
 Alpha virt. eigenvalues --    4.41649   4.55037   4.76568   4.87562
          Condensed to atoms (all electrons):
               1          2          3          4          5          6
     1  C    5.022718  -0.042748   0.285059  -0.012471   0.000187   0.006280
     2  C   -0.042748   4.945966   0.317025   0.292193  -0.050723   0.378520
     3  C    0.285059   0.317025   4.966857  -0.035050   0.006202  -0.052516
     4  C   -0.012471   0.292193  -0.035050   5.096404   0.362084  -0.047243
     5  H    0.000187  -0.050723   0.006202   0.362084   0.613307  -0.007853
     6  H    0.006280   0.378520  -0.052516  -0.047243  -0.007853   0.582568
     7  H    0.345067  -0.005297  -0.040140  -0.001350   0.000125  -0.000243
     8  H   -0.061261  -0.048622   0.369965   0.006698  -0.000195  -0.004335
     9  C   -0.001524  -0.025023  -0.017433   0.296823  -0.048848   0.004513
    10  O    0.137253  -0.001112  -0.029428  -0.017085   0.001788  -0.000034
    11  C    0.352935   0.002543  -0.020628   0.000071   0.000016  -0.000121
    12  H   -0.041764   0.000496  -0.000187   0.000013  -0.000000  -0.000011
    13  H   -0.033637  -0.000350  -0.004665   0.000026  -0.000001   0.000001
    14  O   -0.039170  -0.000039   0.001773   0.000000  -0.000000   0.000000
    15  H    0.005607   0.000003  -0.000190   0.000000   0.000000  -0.000000
    16  O   -0.000079  -0.044525   0.005888   0.217126  -0.037978   0.002028
    17  H   -0.000753   0.005212   0.000511  -0.047067   0.002883  -0.000513
    18  O    0.003918   0.237991  -0.032902  -0.046232   0.005121  -0.034773
    19  H   -0.000554  -0.035532  -0.008501  -0.006290  -0.000653   0.006346
    20  O   -0.043305  -0.025662   0.231572   0.001695  -0.000251   0.005101
    21  H   -0.003663  -0.010315  -0.032661  -0.003428   0.000353   0.000650
    22  O   -0.000052   0.000001   0.000000  -0.000079   0.000001  -0.000000
    23  H    0.000074  -0.000015  -0.000007   0.001373  -0.000041   0.000001
    24  H   -0.000045  -0.000001   0.000009   0.000031  -0.000000  -0.000000
    25  H    0.000005  -0.000000   0.000000  -0.000001  -0.000000   0.000000
    26  O   -0.002598   0.001100   0.000593  -0.059918   0.000893  -0.000083
    27  H    0.002539  -0.000074   0.000671  -0.070174   0.002039  -0.000217
    28  O    0.006005  -0.000003  -0.000007   0.000009   0.000000   0.000000
    29  H   -0.001484   0.000002   0.000097  -0.000002  -0.000000  -0.000000
    30  H   -0.009610   0.000334   0.001523   0.000920  -0.000032   0.000014
               7          8          9         10         11         12
     1  C    0.345067  -0.061261  -0.001524   0.137253   0.352935  -0.041764
     2  C   -0.005297  -0.048622  -0.025023  -0.001112   0.002543   0.000496
     3  C   -0.040140   0.369965  -0.017433  -0.029428  -0.020628  -0.000187
     4  C   -0.001350   0.006698   0.296823  -0.017085   0.000071   0.000013
     5  H    0.000125  -0.000195  -0.048848   0.001788   0.000016  -0.000000
     6  H   -0.000243  -0.004335   0.004513  -0.000034  -0.000121  -0.000011
     7  H    0.600856   0.005165  -0.003310  -0.044934  -0.047256   0.000359
     8  H    0.005165   0.613265   0.000088   0.003169  -0.008030   0.000281
     9  C   -0.003310   0.000088   4.750446   0.038347   0.001047  -0.000051
    10  O   -0.044934   0.003169   0.038347   8.618901  -0.032355   0.003667
    11  C   -0.047256  -0.008030   0.001047  -0.032355   4.929320   0.361986
    12  H    0.000359   0.000281  -0.000051   0.003667   0.361986   0.579949
    13  H    0.006653   0.005003  -0.000045  -0.001222   0.350521  -0.041853
    14  O    0.002341   0.000085  -0.000039   0.000588   0.214427  -0.034370
    15  H   -0.000032  -0.000002   0.000003  -0.000096  -0.018097  -0.003717
    16  O    0.004987  -0.000113  -0.028781  -0.000122   0.000209   0.000000
    17  H    0.001229   0.000033  -0.018594   0.000500   0.000003  -0.000002
    18  O   -0.000120   0.004867   0.002566  -0.013804  -0.000163  -0.000010
    19  H    0.000663   0.001056   0.003471   0.029804  -0.000502   0.000001
    20  O    0.002807  -0.037814  -0.000078   0.001421  -0.001536   0.006128
    21  H    0.003850   0.006220   0.000710   0.000001   0.000095  -0.000062
    22  O    0.000047   0.000000   0.003470  -0.000338   0.000003   0.000000
    23  H   -0.000155  -0.000000  -0.006899   0.000724  -0.000013  -0.000000
    24  H    0.000024  -0.000000   0.000169   0.004715  -0.000095  -0.000001
    25  H    0.000022   0.000000  -0.000117  -0.000007  -0.000003   0.000000
    26  O    0.013060  -0.000016   0.383199  -0.040508   0.000118   0.000008
    27  H    0.001018   0.000005   0.359141  -0.030757  -0.000114   0.000003
    28  O    0.000281   0.000003   0.001349  -0.082844   0.001872  -0.000057
    29  H    0.000073  -0.000001  -0.000129   0.007511  -0.004961   0.000550
    30  H    0.000787  -0.000170   0.000096   0.126617  -0.003741   0.000120
              13         14         15         16         17         18
     1  C   -0.033637  -0.039170   0.005607  -0.000079  -0.000753   0.003918
     2  C   -0.000350  -0.000039   0.000003  -0.044525   0.005212   0.237991
     3  C   -0.004665   0.001773  -0.000190   0.005888   0.000511  -0.032902
     4  C    0.000026   0.000000   0.000000   0.217126  -0.047067  -0.046232
     5  H   -0.000001  -0.000000   0.000000  -0.037978   0.002883   0.005121
     6  H    0.000001   0.000000  -0.000000   0.002028  -0.000513  -0.034773
     7  H    0.006653   0.002341  -0.000032   0.004987   0.001229  -0.000120
     8  H    0.005003   0.000085  -0.000002  -0.000113   0.000033   0.004867
     9  C   -0.000045  -0.000039   0.000003  -0.028781  -0.018594   0.002566
    10  O   -0.001222   0.000588  -0.000096  -0.000122   0.000500  -0.013804
    11  C    0.350521   0.214427  -0.018097   0.000209   0.000003  -0.000163
    12  H   -0.041853  -0.034370  -0.003717   0.000000  -0.000002  -0.000010
    13  H    0.610928  -0.038284  -0.002644  -0.000002  -0.000001  -0.000014
    14  O   -0.038284   8.266588   0.234142  -0.000000  -0.000001   0.000000
    15  H   -0.002644   0.234142   0.373918   0.000000   0.000000  -0.000000
    16  O   -0.000002  -0.000000   0.000000   8.331799   0.216077   0.001487
    17  H   -0.000001  -0.000001   0.000000   0.216077   0.353475  -0.000104
    18  O   -0.000014   0.000000  -0.000000   0.001487  -0.000104   8.278684
    19  H    0.000536   0.000000  -0.000000  -0.000017  -0.000002   0.233229
    20  O    0.000143  -0.000021   0.000006  -0.016528   0.000615   0.001583
    21  H   -0.000005   0.000001   0.000000   0.045903  -0.001496   0.000060
    22  O    0.000000  -0.000014   0.000001  -0.000001   0.000072  -0.000000
    23  H   -0.000000   0.000011  -0.000000   0.000070  -0.000497   0.000000
    24  H    0.000003   0.000265  -0.000035  -0.000000  -0.000003   0.000000
    25  H    0.000000   0.000005  -0.000000   0.000000  -0.000013  -0.000000
    26  O   -0.000000  -0.000006  -0.000000  -0.029269   0.065128   0.000059
    27  H   -0.000002   0.000001  -0.000000   0.002256   0.002755   0.002310
    28  O    0.000137  -0.024191   0.001142   0.000000   0.000002  -0.000001
    29  H   -0.000175   0.053174  -0.002696  -0.000000  -0.000000   0.000000
    30  H    0.000137   0.002365  -0.000127  -0.000050  -0.000054   0.000075
              19         20         21         22         23         24
     1  C   -0.000554  -0.043305  -0.003663  -0.000052   0.000074  -0.000045
     2  C   -0.035532  -0.025662  -0.010315   0.000001  -0.000015  -0.000001
     3  C   -0.008501   0.231572  -0.032661   0.000000  -0.000007   0.000009
     4  C   -0.006290   0.001695  -0.003428  -0.000079   0.001373   0.000031
     5  H   -0.000653  -0.000251   0.000353   0.000001  -0.000041  -0.000000
     6  H    0.006346   0.005101   0.000650  -0.000000   0.000001  -0.000000
     7  H    0.000663   0.002807   0.003850   0.000047  -0.000155   0.000024
     8  H    0.001056  -0.037814   0.006220   0.000000  -0.000000  -0.000000
     9  C    0.003471  -0.000078   0.000710   0.003470  -0.006899   0.000169
    10  O    0.029804   0.001421   0.000001  -0.000338   0.000724   0.004715
    11  C   -0.000502  -0.001536   0.000095   0.000003  -0.000013  -0.000095
    12  H    0.000001   0.006128  -0.000062   0.000000  -0.000000  -0.000001
    13  H    0.000536   0.000143  -0.000005   0.000000  -0.000000   0.000003
    14  O    0.000000  -0.000021   0.000001  -0.000014   0.000011   0.000265
    15  H   -0.000000   0.000006   0.000000   0.000001  -0.000000  -0.000035
    16  O   -0.000017  -0.016528   0.045903  -0.000001   0.000070  -0.000000
    17  H   -0.000002   0.000615  -0.001496   0.000072  -0.000497  -0.000003
    18  O    0.233229   0.001583   0.000060  -0.000000   0.000000   0.000000
    19  H    0.365796   0.000013   0.000031   0.000000   0.000001  -0.000002
    20  O    0.000013   8.295974   0.228642  -0.000000   0.000000  -0.000000
    21  H    0.000031   0.228642   0.346706   0.000000  -0.000000  -0.000000
    22  O    0.000000  -0.000000   0.000000   8.374633   0.193494   0.096265
    23  H    0.000001   0.000000  -0.000000   0.193494   0.309675  -0.008794
    24  H   -0.000002  -0.000000  -0.000000   0.096265  -0.008794   0.293856
    25  H    0.000000  -0.000000  -0.000000   0.240122  -0.012984  -0.004829
    26  O    0.000092   0.000006  -0.000057  -0.039823   0.077915   0.001505
    27  H    0.000524  -0.000006  -0.000023   0.000822  -0.002865  -0.000050
    28  O    0.000020   0.000000  -0.000000  -0.050650   0.005538   0.183339
    29  H   -0.000002  -0.000001   0.000000   0.001664  -0.000151  -0.001267
    30  H    0.000520  -0.000030  -0.000005   0.002031   0.000227  -0.007517
              25         26         27         28         29         30
     1  C    0.000005  -0.002598   0.002539   0.006005  -0.001484  -0.009610
     2  C   -0.000000   0.001100  -0.000074  -0.000003   0.000002   0.000334
     3  C    0.000000   0.000593   0.000671  -0.000007   0.000097   0.001523
     4  C   -0.000001  -0.059918  -0.070174   0.000009  -0.000002   0.000920
     5  H   -0.000000   0.000893   0.002039   0.000000  -0.000000  -0.000032
     6  H    0.000000  -0.000083  -0.000217   0.000000  -0.000000   0.000014
     7  H    0.000022   0.013060   0.001018   0.000281   0.000073   0.000787
     8  H    0.000000  -0.000016   0.000005   0.000003  -0.000001  -0.000170
     9  C   -0.000117   0.383199   0.359141   0.001349  -0.000129   0.000096
    10  O   -0.000007  -0.040508  -0.030757  -0.082844   0.007511   0.126617
    11  C   -0.000003   0.000118  -0.000114   0.001872  -0.004961  -0.003741
    12  H    0.000000   0.000008   0.000003  -0.000057   0.000550   0.000120
    13  H    0.000000  -0.000000  -0.000002   0.000137  -0.000175   0.000137
    14  O    0.000005  -0.000006   0.000001  -0.024191   0.053174   0.002365
    15  H   -0.000000  -0.000000  -0.000000   0.001142  -0.002696  -0.000127
    16  O    0.000000  -0.029269   0.002256   0.000000  -0.000000  -0.000050
    17  H   -0.000013   0.065128   0.002755   0.000002  -0.000000  -0.000054
    18  O   -0.000000   0.000059   0.002310  -0.000001   0.000000   0.000075
    19  H    0.000000   0.000092   0.000524   0.000020  -0.000002   0.000520
    20  O   -0.000000   0.000006  -0.000006   0.000000  -0.000001  -0.000030
    21  H   -0.000000  -0.000057  -0.000023  -0.000000   0.000000  -0.000005
    22  O    0.240122  -0.039823   0.000822  -0.050650   0.001664   0.002031
    23  H   -0.012984   0.077915  -0.002865   0.005538  -0.000151   0.000227
    24  H   -0.004829   0.001505  -0.000050   0.183339  -0.001267  -0.007517
    25  H    0.378302   0.001989  -0.000021   0.002386  -0.000029  -0.000012
    26  O    0.001989   8.241236  -0.045392  -0.001037   0.000110   0.004245
    27  H   -0.000021  -0.045392   0.630632   0.000047   0.000011  -0.000704
    28  O    0.002386  -0.001037   0.000047   8.459267   0.209993   0.141516
    29  H   -0.000029   0.000110   0.000011   0.209993   0.331023  -0.016069
    30  H   -0.000012   0.004245  -0.000704   0.141516  -0.016069   0.284820
 Mulliken charges:
               1
     1  C    0.127072
     2  C    0.108655
     3  C    0.086568
     4  C    0.070924
     5  H    0.151574
     6  H    0.161919
     7  H    0.153423
     8  H    0.144656
     9  C    0.305431
    10  O   -0.680361
    11  C   -0.077553
    12  H    0.168524
    13  H    0.148815
    14  O   -0.639634
    15  H    0.412816
    16  O   -0.670366
    17  H    0.420605
    18  O   -0.643826
    19  H    0.409953
    20  O   -0.650475
    21  H    0.418493
    22  O   -0.821669
    23  H    0.443318
    24  H    0.442457
    25  H    0.395185
    26  O   -0.572547
    27  H    0.145628
    28  O   -0.854116
    29  H    0.422759
    30  H    0.471773
 Sum of Mulliken charges =  -0.00000
 Mulliken charges with hydrogens summed into heavy atoms:
               1
     1  C    0.280495
     2  C    0.270574
     3  C    0.231224
     4  C    0.222498
     9  C    0.451059
    10  O   -0.208589
    11  C    0.239785
    14  O   -0.226817
    16  O   -0.249761
    18  O   -0.233873
    20  O   -0.231982
    22  O    0.016834
    26  O   -0.572547
    28  O    0.011100
 Electronic spatial extent (au):  <R**2>=           2970.8516
 Charge=              0.0000 electrons
 Dipole moment (field-independent basis, Debye):
    X=              2.7255    Y=              2.6518    Z=             -1.3751  Tot=              4.0437
 Quadrupole moment (field-independent basis, Debye-Ang):
   XX=            -92.3330   YY=            -73.3250   ZZ=            -87.2777
   XY=              8.7297   XZ=             -8.0739   YZ=              1.4890
 Traceless Quadrupole moment (field-independent basis, Debye-Ang):
   XX=             -8.0211   YY=             10.9869   ZZ=             -2.9658
   XY=              8.7297   XZ=             -8.0739   YZ=              1.4890
 Octapole moment (field-independent basis, Debye-Ang**2):
  XXX=             40.8650  YYY=             49.3927  ZZZ=            -17.7485  XYY=             27.6716
  XXY=             10.8105  XXZ=            -35.2867  XZZ=             26.6720  YZZ=            -10.1575
  YYZ=              2.6456  XYZ=              0.9566
 Hexadecapole moment (field-independent basis, Debye-Ang**3):
 XXXX=          -1799.6770 YYYY=          -1019.1675 ZZZZ=           -486.3684 XXXY=             68.8916
 XXXZ=           -119.0257 YYYX=            116.6062 YYYZ=            -11.7547 ZZZX=             12.4337
 ZZZY=             24.6751 XXYY=           -487.5392 XXZZ=           -418.4828 YYZZ=           -278.3596
 XXYZ=             34.9225 YYXZ=            -42.0703 ZZXY=            -22.3011
 N-N= 1.128559969669D+03 E-N=-4.229313602463D+03  KE= 8.329700433341D+02
 Calling FoFJK, ICntrl=      2127 FMM=F ISym2X=0 I1Cent= 0 IOpClX= 0 NMat=1 NMatS=1 NMatT=0.
 ***** Axes restored to original set *****
 -------------------------------------------------------------------
 Center     Atomic                   Forces (Hartrees/Bohr)
 Number     Number              X              Y              Z
 -------------------------------------------------------------------
      1        6           0.000114525    0.002490235    0.000756849
      2        6           0.001157510   -0.000074164    0.000138073
      3        6           0.000643445    0.000430787   -0.000026706
      4        6          -0.001400404   -0.002050659   -0.000913807
      5        1          -0.000385231   -0.000032899   -0.000124567
      6        1           0.000096413    0.000016960   -0.000029890
      7        1           0.000143559    0.000038328    0.000177850
      8        1          -0.000039045   -0.000022141    0.000027267
      9        6          -0.002867720   -0.009440753   -0.001985466
     10        8          -0.003942827    0.008525189    0.005232855
     11        6          -0.000695296    0.003129367   -0.001763286
     12        1          -0.000039125    0.000204641   -0.000191024
     13        1          -0.000064083    0.000319207   -0.000164528
     14        8          -0.000962512    0.002718821   -0.001930654
     15        1           0.000014978    0.000128757   -0.000037408
     16        8          -0.002679592    0.000008972   -0.001043533
     17        1          -0.000236256    0.000019565   -0.000236201
     18        8           0.000596273   -0.000850756    0.000042203
     19        1          -0.000031760    0.000155382   -0.000012008
     20        8           0.000131493    0.000273373    0.000304209
     21        1           0.000010023    0.000035674   -0.000011902
     22        8           0.006057983   -0.004463877   -0.002330905
     23        1           0.000196556   -0.000327190   -0.000111721
     24        1          -0.000330462    0.001509316    0.001077119
     25        1           0.000243153   -0.000154035   -0.000133465
     26        8          -0.001869934   -0.004198895   -0.000698086
     27        1          -0.000046747   -0.000234600   -0.000098898
     28        8           0.005851381    0.001405750    0.003703853
     29        1           0.000190976    0.000063307    0.000014570
     30        1           0.000142728    0.000376339    0.000369207
 -------------------------------------------------------------------
 Cartesian Forces:  Max     0.009440753 RMS     0.002124046

 GradGradGradGradGradGradGradGradGradGradGradGradGradGradGradGradGradGrad
 Berny optimization.
 FormGI is forming the generalized inverse of G from B-inverse, IUseBI=4.
 Internal  Forces:  Max     0.020914098 RMS     0.004475344
 Search for a local minimum.
 Step number   1 out of a maximum of  180
 All quantities printed in internal units (Hartrees-Bohrs-Radians)
 Mixed Optimization -- RFO/linear search
 Second derivative matrix not updated -- first step.
 ITU=  0
     Eigenvalues ---    0.00230   0.00230   0.00230   0.00253   0.00569
     Eigenvalues ---    0.00572   0.00727   0.00869   0.01149   0.01192
     Eigenvalues ---    0.01400   0.01449   0.01484   0.02127   0.02239
     Eigenvalues ---    0.03708   0.03998   0.04077   0.04494   0.04666
     Eigenvalues ---    0.04803   0.04877   0.05255   0.05272   0.06164
     Eigenvalues ---    0.06433   0.06698   0.07118   0.07138   0.07653
     Eigenvalues ---    0.08100   0.08322   0.08538   0.09461   0.10477
     Eigenvalues ---    0.11064   0.11135   0.11834   0.13728   0.14045
     Eigenvalues ---    0.14942   0.15705   0.16000   0.16000   0.16000
     Eigenvalues ---    0.16000   0.16245   0.16356   0.16819   0.17760
     Eigenvalues ---    0.18044   0.19303   0.19674   0.20575   0.21003
     Eigenvalues ---    0.22069   0.23075   0.27183   0.27745   0.27931
     Eigenvalues ---    0.28304   0.30889   0.33469   0.33737   0.33943
     Eigenvalues ---    0.33949   0.34005   0.34057   0.34320   0.37768
     Eigenvalues ---    0.39632   0.39889   0.42153   0.42704   0.43113
     Eigenvalues ---    0.46168   0.47800   0.50456   0.51658   0.51761
     Eigenvalues ---    0.52770   0.53497   0.53653   0.80236
 RFO step:  Lambda=-2.71073845D-02 EMin= 2.30000000D-03
 Linear search not attempted -- first point.
 Maximum step size (   0.300) exceeded in Quadratic search.
    -- Step size scaled by   0.742
 Iteration  1 RMS(Cart)=  0.19454035 RMS(Int)=  0.00818381
 Iteration  2 RMS(Cart)=  0.01964755 RMS(Int)=  0.00175920
 Iteration  3 RMS(Cart)=  0.00041863 RMS(Int)=  0.00175452
 Iteration  4 RMS(Cart)=  0.00000311 RMS(Int)=  0.00175452
 Iteration  5 RMS(Cart)=  0.00000003 RMS(Int)=  0.00175452
 Variable       Old X    -DE/DX   Delta X   Delta X   Delta X     New X
                                 (Linear)    (Quad)   (Total)
    R1        2.93232   0.00090   0.00000   0.00491   0.00648   2.93880
    R2        2.07234  -0.00013   0.00000  -0.00027  -0.00027   2.07207
    R3        2.71407   0.00470   0.00000   0.00655   0.00624   2.72031
    R4        2.86224   0.00503   0.00000   0.01123   0.01115   2.87339
    R5        2.92367   0.00861   0.00000   0.02327   0.02410   2.94778
    R6        2.91234   0.00847   0.00000   0.01733   0.01581   2.92815
    R7        2.06794  -0.00009   0.00000  -0.00018  -0.00018   2.06776
    R8        2.68037   0.00003   0.00000   0.00006   0.00006   2.68042
    R9        2.07321   0.00001   0.00000   0.00002   0.00002   2.07323
   R10        2.67530  -0.00028   0.00000  -0.00046  -0.00046   2.67484
   R11        2.08235   0.00013   0.00000   0.00028   0.00028   2.08263
   R12        2.91837   0.00119   0.00000   0.00132   0.00016   2.91853
   R13        2.68728   0.00160   0.00000   0.00264   0.00264   2.68992
   R14        2.37235   0.00153   0.00000  -0.00039  -0.00259   2.36976
   R15        2.07416  -0.00003   0.00000  -0.00006  -0.00006   2.07410
   R16        2.00516   0.00632   0.00000   0.01296   0.01446   2.01963
   R17        2.07426   0.00026   0.00000   0.00052   0.00052   2.07478
   R18        2.07776  -0.00005   0.00000  -0.00009  -0.00009   2.07767
   R19        2.71704  -0.00032   0.00000  -0.00056  -0.00056   2.71648
   R20        1.83192   0.00012   0.00000   0.00016   0.00016   1.83209
   R21        1.86108  -0.00014   0.00000  -0.00020  -0.00020   1.86088
   R22        1.83869   0.00000   0.00000   0.00000   0.00000   1.83869
   R23        1.84829  -0.00002   0.00000  -0.00003  -0.00003   1.84825
   R24        1.88154   0.00663   0.00000   0.00859   0.00754   1.88908
   R25        3.02235   0.01064   0.00000   0.07353   0.07460   3.09695
   R26        1.83049   0.00020   0.00000   0.00026   0.00026   1.83075
   R27        3.09526   0.00548   0.00000   0.03110   0.02992   3.12519
   R28        1.90139   0.00822   0.00000   0.01440   0.01579   1.91718
   R29        1.84928   0.00005   0.00000   0.00006   0.00006   1.84934
   R30        2.67135   0.00561   0.00000   0.02938   0.03075   2.70210
    A1        1.89724  -0.00023   0.00000  -0.01192  -0.01210   1.88514
    A2        1.87892  -0.00437   0.00000   0.00156   0.00362   1.88254
    A3        1.94765  -0.00160   0.00000  -0.01910  -0.02086   1.92679
    A4        1.90082   0.00201   0.00000   0.01142   0.00955   1.91037
    A5        1.89884  -0.00099   0.00000  -0.00411  -0.00397   1.89486
    A6        1.93946   0.00517   0.00000   0.02222   0.02320   1.96266
    A7        1.93425   0.01115   0.00000   0.06180   0.06335   1.99760
    A8        1.86656  -0.00362   0.00000  -0.03465  -0.03468   1.83188
    A9        1.96411  -0.00326   0.00000   0.00378   0.00255   1.96666
   A10        1.88954  -0.00576   0.00000  -0.03681  -0.03509   1.85445
   A11        1.94860  -0.00172   0.00000   0.00020  -0.00328   1.94532
   A12        1.85563   0.00249   0.00000  -0.00126  -0.00125   1.85438
   A13        1.93351   0.01142   0.00000   0.06747   0.07044   2.00395
   A14        1.91806  -0.00595   0.00000  -0.02660  -0.02643   1.89163
   A15        1.92245  -0.00050   0.00000  -0.00936  -0.01193   1.91052
   A16        1.86074   0.00073   0.00000  -0.00100  -0.00308   1.85766
   A17        1.96660  -0.00816   0.00000  -0.02701  -0.02665   1.93995
   A18        1.85974   0.00195   0.00000  -0.00714  -0.00703   1.85271
   A19        1.89616  -0.00040   0.00000  -0.01187  -0.01053   1.88563
   A20        2.01771   0.00336   0.00000   0.01220   0.00590   2.02361
   A21        1.89382  -0.00337   0.00000  -0.00146   0.00017   1.89399
   A22        1.85257  -0.00221   0.00000  -0.01948  -0.01826   1.83431
   A23        1.92937   0.00015   0.00000  -0.00404  -0.00488   1.92450
   A24        1.87376   0.00252   0.00000   0.02421   0.02667   1.90043
   A25        2.01139   0.01148   0.00000   0.04376   0.04658   2.05796
   A26        2.03222  -0.00283   0.00000  -0.00518  -0.00643   2.02579
   A27        2.11075  -0.00555   0.00000  -0.01111  -0.01347   2.09728
   A28        1.94681   0.02091   0.00000   0.06067   0.06000   2.00682
   A29        1.88023  -0.00131   0.00000  -0.00667  -0.00663   1.87360
   A30        1.90992  -0.00062   0.00000   0.00206   0.00198   1.91190
   A31        1.91777   0.00460   0.00000   0.01471   0.01467   1.93244
   A32        1.90125   0.00027   0.00000  -0.00239  -0.00239   1.89886
   A33        1.91849  -0.00239   0.00000  -0.01219  -0.01215   1.90634
   A34        1.93526  -0.00060   0.00000   0.00406   0.00396   1.93921
   A35        1.88592  -0.00002   0.00000  -0.00008  -0.00008   1.88584
   A36        1.80705   0.00056   0.00000   0.00221   0.00221   1.80926
   A37        1.84562  -0.00001   0.00000  -0.00004  -0.00004   1.84559
   A38        1.82499   0.00003   0.00000   0.00013   0.00013   1.82512
   A39        1.71140   0.00898   0.00000   0.06450   0.06187   1.77327
   A40        1.83031   0.00008   0.00000   0.00120  -0.00078   1.82953
   A41        1.99460  -0.00171   0.00000  -0.00520  -0.00532   1.98927
   A42        2.86981   0.00275   0.00000   0.01933   0.01381   2.88362
   A43        2.85816   0.00791   0.00000   0.04935   0.05246   2.91062
   A44        2.10550  -0.00684   0.00000  -0.03655  -0.04161   2.06389
   A45        1.87823   0.00155   0.00000  -0.00315  -0.00618   1.87205
   A46        1.84595   0.00248   0.00000   0.05342   0.05817   1.90412
   A47        1.68428  -0.00186   0.00000  -0.00607  -0.00457   1.67972
   A48        3.05768   0.01488   0.00000   0.21738   0.21697   3.27465
   A49        3.17857   0.00725   0.00000   0.01685   0.01248   3.19105
    D1        1.62085  -0.00486   0.00000  -0.05338  -0.05177   1.56908
    D2       -2.61066  -0.00071   0.00000  -0.03013  -0.02951  -2.64017
    D3       -0.56684  -0.00219   0.00000  -0.06029  -0.05985  -0.62669
    D4       -0.43561  -0.00471   0.00000  -0.06135  -0.05852  -0.49413
    D5        1.61607  -0.00056   0.00000  -0.03810  -0.03626   1.57981
    D6       -2.62330  -0.00204   0.00000  -0.06826  -0.06660  -2.68990
    D7       -2.56816  -0.00723   0.00000  -0.07810  -0.07664  -2.64479
    D8       -0.51648  -0.00308   0.00000  -0.05484  -0.05438  -0.57086
    D9        1.52734  -0.00456   0.00000  -0.08501  -0.08471   1.44262
   D10       -3.00536  -0.00734   0.00000  -0.09689  -0.09561  -3.10097
   D11        1.22369  -0.00574   0.00000  -0.08976  -0.08841   1.13528
   D12       -0.86775  -0.00899   0.00000  -0.10570  -0.10457  -0.97231
   D13       -0.80260   0.00020   0.00000   0.02508   0.02585  -0.77675
   D14        1.26203  -0.00057   0.00000   0.01954   0.02030   1.28232
   D15       -2.89237   0.00124   0.00000   0.03535   0.03615  -2.85622
   D16        1.29064  -0.00172   0.00000  -0.00427  -0.00403   1.28661
   D17       -2.92792  -0.00249   0.00000  -0.00980  -0.00958  -2.93750
   D18       -0.79913  -0.00069   0.00000   0.00601   0.00628  -0.79285
   D19       -2.89993   0.00331   0.00000   0.02086   0.01984  -2.88010
   D20       -0.83531   0.00253   0.00000   0.01533   0.01429  -0.82102
   D21        1.29348   0.00434   0.00000   0.03114   0.03015   1.32362
   D22       -0.79095  -0.00584   0.00000  -0.07993  -0.07719  -0.86813
   D23       -2.87738  -0.00547   0.00000  -0.08487  -0.08361  -2.96099
   D24        1.37167  -0.00386   0.00000  -0.06096  -0.05937   1.31230
   D25       -2.84695  -0.00286   0.00000  -0.04894  -0.04728  -2.89423
   D26        1.34980  -0.00249   0.00000  -0.05388  -0.05370   1.29610
   D27       -0.68433  -0.00087   0.00000  -0.02997  -0.02947  -0.71380
   D28        1.40486  -0.00187   0.00000  -0.02818  -0.02627   1.37859
   D29       -0.68158  -0.00151   0.00000  -0.03313  -0.03270  -0.71427
   D30       -2.71571   0.00011   0.00000  -0.00921  -0.00846  -2.72417
   D31       -3.04790   0.00243   0.00000   0.06079   0.06048  -2.98742
   D32        1.15573   0.00338   0.00000   0.08663   0.08777   1.24350
   D33       -0.94945   0.00040   0.00000   0.04813   0.04865  -0.90081
   D34       -1.00596   0.00092   0.00000   0.03183   0.03155  -0.97441
   D35       -3.08552   0.00186   0.00000   0.05767   0.05884  -3.02668
   D36        1.09248  -0.00112   0.00000   0.01918   0.01972   1.11220
   D37        1.03083  -0.00055   0.00000   0.00795   0.00754   1.03838
   D38       -1.04872   0.00040   0.00000   0.03379   0.03483  -1.01390
   D39        3.12928  -0.00258   0.00000  -0.00471  -0.00429   3.12499
   D40       -0.96352  -0.00509   0.00000  -0.04037  -0.04053  -1.00405
   D41        1.22450   0.00588   0.00000   0.04524   0.04505   1.26954
   D42       -3.00143  -0.00049   0.00000   0.00026   0.00061  -3.00081
   D43        1.33018   0.00494   0.00000   0.03392   0.03471   1.36488
   D44       -0.83854  -0.00366   0.00000  -0.02743  -0.02858  -0.86712
   D45       -2.87327  -0.00132   0.00000  -0.00720  -0.00683  -2.88010
   D46       -2.28544   0.00239   0.00000   0.01016   0.01043  -2.27501
   D47        1.37337  -0.00161   0.00000  -0.03685  -0.03826   1.33511
   D48        1.89438   0.00243   0.00000   0.03184   0.03328   1.92766
   D49       -0.73000  -0.00157   0.00000  -0.01517  -0.01541  -0.74541
   D50       -0.16941   0.00214   0.00000   0.03444   0.03532  -0.13409
   D51       -2.79380  -0.00186   0.00000  -0.01257  -0.01336  -2.80716
   D52        2.40690   0.00205   0.00000   0.01613   0.01390   2.42080
   D53       -1.79862  -0.00042   0.00000  -0.00164  -0.00166  -1.80028
   D54        0.21475  -0.00156   0.00000  -0.01329  -0.01103   0.20372
   D55        3.13212  -0.00868   0.00000  -0.07493  -0.07827   3.05385
   D56       -0.55186  -0.00328   0.00000  -0.02266  -0.02423  -0.57609
   D57       -1.70748  -0.00459   0.00000  -0.01770  -0.01297  -1.72046
   D58        0.20794  -0.00232   0.00000   0.00650   0.01028   0.21822
   D59        3.08033  -0.00075   0.00000  -0.00776  -0.00782   3.07251
   D60        1.01403  -0.00048   0.00000  -0.00113  -0.00111   1.01292
   D61       -1.08923   0.00114   0.00000   0.00723   0.00727  -1.08196
   D62        0.40855  -0.00048   0.00000  -0.01413  -0.01414   0.39441
   D63       -1.64847  -0.00203   0.00000  -0.03309  -0.03251  -1.68098
   D64        0.22161  -0.00462   0.00000  -0.04397  -0.03904   0.18257
   D65        2.14803  -0.00028   0.00000  -0.00982  -0.00793   2.14010
   D66       -1.25688  -0.00206   0.00000  -0.06310  -0.06311  -1.31999
   D67       -1.94418  -0.00273   0.00000  -0.03337  -0.03077  -1.97495
   D68       -0.15864  -0.00328   0.00000  -0.02058  -0.01544  -0.17409
         Item               Value     Threshold  Converged?
 Maximum Force            0.020914     0.000450     NO 
 RMS     Force            0.004475     0.000300     NO 
 Maximum Displacement     0.820219     0.001800     NO 
 RMS     Displacement     0.207870     0.001200     NO 
 Predicted change in Energy=-1.541175D-02
 GradGradGradGradGradGradGradGradGradGradGradGradGradGradGradGradGradGrad

                          Input orientation:                          
 ---------------------------------------------------------------------
 Center     Atomic      Atomic             Coordinates (Angstroms)
 Number     Number       Type             X           Y           Z
 ---------------------------------------------------------------------
      1          6           0       -0.079391    1.188743   -0.190416
      2          6           0       -2.101329   -0.277025    0.616746
      3          6           0       -1.621450    1.053294   -0.041468
      4          6           0       -1.485777   -1.557350   -0.001998
      5          1           0       -2.009054   -2.428267    0.424930
      6          1           0       -3.174956   -0.322945    0.410563
      7          1           0        0.205378    0.769818   -1.162890
      8          1           0       -1.979414    1.865483    0.603397
      9          6           0        0.009836   -1.800436    0.296800
     10          8           0        0.534878    0.420843    0.860888
     11          6           0        0.329844    2.652749   -0.155330
     12          1           0       -0.371788    3.204244   -0.794871
     13          1           0        0.246354    3.033446    0.872727
     14          8           0        1.664429    2.820088   -0.662570
     15          1           0        1.861691    3.769111   -0.681815
     16          8           0       -1.672523   -1.512638   -1.412433
     17          1           0       -0.816659   -1.842279   -1.770952
     18          8           0       -1.968442   -0.267593    2.028894
     19          1           0       -1.026938   -0.095818    2.204338
     20          8           0       -2.236128    1.250637   -1.301139
     21          1           0       -2.106093    0.404249   -1.773693
     22          8           0        3.354798   -2.024879   -0.188766
     23          1           0        2.388538   -2.198637   -0.377086
     24          1           0        3.292844   -0.545377    0.513380
     25          1           0        3.781717   -2.030371   -1.058402
     26          8           0        0.766408   -2.061778   -0.668533
     27          1           0        0.246264   -2.176629    1.300408
     28          8           0        3.024261    0.329864    0.950515
     29          1           0        3.227728    1.046085    0.315420
     30          1           0        1.602273    0.466657    0.888727
 ---------------------------------------------------------------------
                    Distance matrix (angstroms):
                    1          2          3          4          5
     1  C    0.000000
     2  C    2.624541   0.000000
     3  C    1.555145   1.559897   0.000000
     4  C    3.091027   1.549510   2.614465   0.000000
     5  H    4.145480   2.161747   3.533982   1.102081   0.000000
     6  H    3.496985   1.094210   2.124088   2.132437   2.406639
     7  H    1.096493   3.095784   2.162231   3.102158   4.201502
     8  H    2.167535   2.146015   1.097106   3.510836   4.297559
     9  C    3.029939   2.623006   3.304435   1.544418   2.118137
    10  O    1.439527   2.737920   2.421568   2.956496   3.844356
    11  C    1.520532   3.884621   2.525623   4.587475   5.623510
    12  H    2.124407   4.135602   2.599203   4.954028   5.991138
    13  H    2.153906   4.066492   2.871488   4.984057   5.926018
    14  O    2.434157   5.040802   3.782106   5.433426   6.497873
    15  H    3.266125   5.810594   4.462956   6.327629   7.390199
    16  O    3.365836   2.414163   2.909667   1.423447   2.080272
    17  H    3.496963   3.130734   3.467440   1.912616   2.566531
    18  O    3.258031   1.418418   2.480231   2.453764   2.691256
    19  H    2.877984   1.925513   2.591824   2.685987   3.093729
    20  O    2.426737   2.455648   1.415466   3.183644   4.070038
    21  H    2.688814   2.485630   1.912261   2.715063   3.586991
    22  O    4.703299   5.785599   5.853194   4.866686   5.413894
    23  H    4.195219   4.983894   5.173751   3.944903   4.476023
    24  H    3.856743   5.401833   5.197489   4.911713   5.627008
    25  H    5.101396   6.363220   6.303757   5.393165   5.990962
    26  O    3.392618   3.614028   3.974764   2.402302   3.005522
    27  H    3.695178   3.096302   3.965022   2.253827   2.432333
    28  O    3.416438   5.172174   4.805206   4.980893   5.763487
    29  H    3.348621   5.499115   4.862299   5.394049   6.285460
    30  H    2.124607   3.787308   3.406141   3.798164   4.651599
                    6          7          8          9         10
     6  H    0.000000
     7  H    3.885427   0.000000
     8  H    2.501144   3.015554   0.000000
     9  C    3.512666   2.962285   4.182114   0.000000
    10  O    3.810365   2.079911   2.911177   2.351158   0.000000
    11  C    4.632345   2.139182   2.555021   4.487503   2.460923
    12  H    4.663892   2.528832   2.516327   5.136555   3.363169
    13  H    4.815010   3.044573   2.527987   4.873812   2.628512
    14  O    5.869405   2.565689   3.973856   5.000731   3.058298
    15  H    6.580732   3.459851   4.475451   5.950370   3.918069
    16  O    2.644993   2.966208   3.945815   2.415499   3.712002
    17  H    3.553723   2.870078   4.553793   2.227205   3.724910
    18  O    2.019341   3.998649   2.565575   3.043573   2.846891
    19  H    2.807703   3.688651   2.704981   2.760312   2.123926
    20  O    2.507486   2.492238   2.017720   4.111789   3.611287
    21  H    2.538159   2.418599   2.793172   3.691170   3.730419
    22  O    6.774471   4.321816   6.649531   3.387465   3.877535
    23  H    5.923773   3.767678   6.046274   2.504179   3.439522
    24  H    6.472441   3.751275   5.798022   3.521395   2.942910
    25  H    7.312213   4.543366   7.150516   4.014540   4.498232
    26  O    4.440984   2.928665   4.957895   1.254021   2.925088
    27  H    3.991581   3.840711   4.666706   1.097566   2.650158
    28  O    6.256836   3.550513   5.245510   3.748637   2.492657
    29  H    6.548104   3.375845   5.279079   4.296261   2.817784
    30  H    4.865597   2.500471   3.855725   2.833010   1.068741
                   11         12         13         14         15
    11  C    0.000000
    12  H    1.097929   0.000000
    13  H    1.099455   1.786660   0.000000
    14  O    1.437501   2.076357   2.100855   0.000000
    15  H    1.967233   2.306575   2.359474   0.969499   0.000000
    16  O    4.789596   4.931761   5.437915   5.519969   6.396980
    17  H    4.912228   5.159267   5.647276   5.396478   6.312486
    18  O    4.310609   4.751485   4.139915   5.474988   6.189737
    19  H    3.868270   4.507204   3.631357   4.895419   5.622432
    20  O    3.140543   2.747481   3.750575   4.252680   4.849577
    21  H    3.688990   3.435969   4.410241   4.613861   5.315808
    22  O    5.570607   6.449692   6.031238   5.153207   6.003565
    23  H    5.274784   6.081535   5.790136   5.078724   5.998703
    24  H    4.410731   5.403767   4.713618   3.919304   4.700159
    25  H    5.887493   6.687469   6.470725   5.307216   6.120646
    26  O    4.762429   5.389103   5.348574   4.963778   5.932882
    27  H    5.044706   5.807408   5.227599   5.552626   6.472298
    28  O    3.725395   4.779287   3.877134   3.263802   3.980514
    29  H    3.346746   4.341304   3.626126   2.558800   3.205528
    30  H    2.736445   3.771711   2.902960   2.819401   3.666075
                   16         17         18         19         20
    16  O    0.000000
    17  H    0.984734   0.000000
    18  O    3.671571   4.271424   0.000000
    19  H    3.937663   4.347099   0.972993   0.000000
    20  O    2.822362   3.435367   3.669578   3.945054   0.000000
    21  H    1.998236   2.590277   3.863934   4.152033   0.978054
    22  O    5.199395   4.465166   6.028511   5.352367   6.574559
    23  H    4.246735   3.513281   5.338628   4.769809   5.842851
    24  H    5.412876   4.877309   5.482251   4.660682   6.089965
    25  H    5.490184   4.657056   6.760407   6.124633   6.858454
    26  O    2.608319   1.941548   4.239648   3.915925   4.515253
    27  H    3.388531   3.267239   3.013309   2.601520   4.967542
    28  O    5.571186   5.184328   5.142658   4.262099   5.795641
    29  H    5.791805   5.390052   5.626893   4.793135   5.701652
    30  H    4.465114   4.272741   3.819569   2.993320   4.488147
                   21         22         23         24         25
    21  H    0.000000
    22  O    6.183364   0.000000
    23  H    5.378405   0.999657   0.000000
    24  H    5.939783   1.638833   2.084219   0.000000
    25  H    6.411343   0.968792   1.559952   2.216913   0.000000
    26  O    3.943847   2.632736   1.653777   3.174787   3.040571
    27  H    4.652378   3.450166   2.720994   3.544298   4.252623
    28  O    5.809249   2.636670   2.925745   1.014529   3.190642
    29  H    5.764200   3.114670   3.422283   1.605047   3.414509
    30  H    4.565563   3.231112   3.053569   2.005773   3.844013
                   26         27         28         29         30
    26  O    0.000000
    27  H    2.039723   0.000000
    28  O    3.665947   3.757951   0.000000
    29  H    4.084736   4.499468   0.978630   0.000000
    30  H    3.084917   2.999201   1.429887   1.818384   0.000000
 Stoichiometry    C6H16O8
 Framework group  C1[X(C6H16O8)]
 Deg. of freedom    84
 Full point group                 C1      NOp   1
 Largest Abelian subgroup         C1      NOp   1
 Largest concise Abelian subgroup C1      NOp   1
                         Standard orientation:                         
 ---------------------------------------------------------------------
 Center     Atomic      Atomic             Coordinates (Angstroms)
 Number     Number       Type             X           Y           Z
 ---------------------------------------------------------------------
      1          6           0       -0.205802    1.161478   -0.162917
      2          6           0       -2.080638   -0.472568    0.675596
      3          6           0       -1.727098    0.902676    0.029846
      4          6           0       -1.387015   -1.689522    0.013108
      5          1           0       -1.826965   -2.606214    0.438199
      6          1           0       -3.153407   -0.599098    0.501087
      7          1           0        0.079807    0.783330   -1.151718
      8          1           0       -2.126704    1.672798    0.701313
      9          6           0        0.131720   -1.819521    0.261649
     10          8           0        0.499509    0.425924    0.853810
     11          6           0        0.088893    2.652276   -0.111018
     12          1           0       -0.673539    3.158048   -0.717927
     13          1           0        0.008592    3.007163    0.926483
[...]
 .00014722,-0.00012312,0.00008580,-0.00170089,0.00076557,-0.00041538,-0
 .00017075,0.00003692,0.00024605,0.00035272,-0.00057649,-0.00002187,-0.
 00043501,0.00026025,-0.00017868,-0.00055377,-0.00067857,-0.00023756,0.
 00069421,0.00064488,-0.00036611,-0.00066668,-0.00033128,-0.00038014,0.
 00006754,0.00039693,0.00006057,-0.00046570,-0.00448527,0.00469388,-0.0
 0586031,-0.00197568,0.00058897,-0.08925359,0.32202128,0.00023609,0.000
 14338,0.00143995,0.00004552,0.00030621,0.00045481,0.00028146,-0.000058
 79,-0.00013076,0.00034340,-0.00022022,-0.00016546,0.00002874,-0.000022
 64,0.00001932,-0.00000519,-0.00009758,-0.00004657,-0.00007741,-0.00006
 918,-0.00037679,0.00005050,-0.00004464,-0.00000684,-0.00099505,0.00064
 706,0.00186087,-0.00306697,-0.00006576,-0.00051520,0.00071973,0.000218
 04,-0.00036506,-0.00020444,0.00008088,0.00000016,-0.00002977,-0.000104
 92,0.00001224,-0.00211687,0.00102649,-0.00223933,-0.00000380,-0.000005
 95,0.00018184,0.00012799,-0.00016674,-0.00017708,-0.00023348,0.0000513
 8,-0.00002130,-0.00026538,-0.00019850,-0.00026504,0.00033475,0.0001700
 0,-0.00005183,-0.00021429,-0.00010534,-0.00020111,-0.00002673,0.000135
 88,0.00004703,0.00320066,0.00702856,-0.00475200,-0.00426472,-0.0005802
 5,0.00172890,-0.05546490,0.14435125,0.14525235,-0.00005436,0.00024102,
 0.00027531,-0.00006268,0.00012202,0.00021001,-0.00008593,-0.00002871,-
 0.00010302,0.00013694,-0.00010728,-0.00009947,0.00004440,-0.00000285,0
 .00001319,0.00003221,-0.00002842,-0.00001528,-0.00004206,-0.00004949,-
 0.00013073,0.00004167,-0.00002832,-0.00001132,-0.00039133,0.00017093,0
 .00053460,0.00005025,-0.00018145,-0.00019882,0.00002016,0.00007420,-0.
 00002587,0.00000346,-0.00000782,0.00001296,-0.00000822,-0.00004170,-0.
 00002660,-0.00009657,-0.00016642,0.00000693,0.00010036,-0.00002292,-0.
 00002346,0.00011059,0.00002092,-0.00002280,-0.00022984,-0.00005449,0.0
 0000809,0.00005434,-0.00003668,-0.00015494,-0.00005652,0.00001012,0.00
 008662,0.00010439,-0.00005493,0.00004633,-0.00007610,0.00005573,-0.000
 02009,-0.07235060,-0.02612182,0.08384139,-0.01050848,-0.00380177,0.049
 95465,0.00005584,0.00217393,0.00075086,0.08348589,-0.00002324,-0.00005
 175,-0.00034671,-0.00001733,0.00010648,-0.00000733,0.00014331,0.000044
 99,0.00007522,0.00003959,0.00008496,-0.00003266,-0.00000650,-0.0000194
 8,0.00001328,-0.00001470,-0.00002611,0.00000119,0.00007327,0.00008415,
 0.00010232,-0.00004140,-0.00000711,0.00000474,0.00005741,0.00009644,-0
 .00004073,-0.00016467,-0.00015852,0.00022140,0.00035438,0.00001886,-0.
 00011895,-0.00004885,0.00000718,0.00000939,-0.00006745,0.00003387,0.00
 005384,-0.00032197,0.00006707,0.00029812,0.00000799,-0.00002673,-0.000
 03818,-0.00004241,-0.00014566,0.00000621,0.00001780,0.00014251,0.00002
 990,-0.00004453,-0.00009168,0.00003088,0.00006772,0.00006942,-0.000056
 56,-0.00012361,-0.00007168,-0.00001303,0.00005782,0.00007530,-0.000001
 38,-0.02677052,-0.01452629,0.02578618,-0.00288304,-0.00091980,0.017827
 30,0.00139634,0.00512077,-0.00296571,0.02851710,0.01434094,0.00003393,
 -0.00006252,0.00007344,-0.00000675,-0.00003675,-0.00006990,0.00003516,
 -0.00000655,0.00006123,-0.00007348,0.00010045,0.00015819,-0.00000571,0
 .00000530,-0.00001921,-0.00001582,0.00001786,0.00001228,0.00001651,-0.
 00000671,0.00002416,-0.00000381,0.00000668,-0.00000469,0.00033558,-0.0
 0008851,-0.00037021,-0.00018903,0.00007429,-0.00001925,0.00004927,-0.0
 0000044,0.00000190,-0.00001773,0.00001404,-0.00000387,-0.00000522,0.00
 000150,0.00000051,-0.00006214,0.00004039,-0.00005880,-0.00000154,0.000
 00358,0.00003311,-0.00007618,0.00002757,-0.00010449,0.00004777,-0.0000
 2044,0.00013096,-0.00002568,0.00000756,0.00001198,0.00002746,-0.000002
 30,-0.00002478,-0.00002893,0.00001495,-0.00007109,-0.00000191,-0.00001
 033,0.00003653,0.14146173,0.04260054,-0.46911367,-0.00778623,-0.002310
 53,-0.00181688,0.00021598,0.00023594,-0.00258861,-0.13281190,-0.040358
 91,0.47267412,-0.00099145,0.00062448,0.00146442,-0.00533619,-0.0077406
 8,-0.01233608,-0.00245596,-0.00092232,0.00191481,-0.05267114,0.0257034
 7,0.03546785,-0.00254300,0.00068815,-0.00203775,-0.00076233,0.00373873
 ,0.00197993,-0.00028814,0.00029525,-0.00109732,0.00068023,0.00089363,-
 0.00025197,-0.36979676,0.08752041,0.29138175,0.00499363,0.00022175,-0.
 00084527,-0.00090938,-0.00060164,0.00007863,0.00013462,-0.00014223,-0.
 00001213,0.00007395,-0.00019575,-0.00008373,0.00163955,0.00000889,-0.0
 0020506,0.00003972,-0.00000902,-0.00002910,-0.00417696,0.00224399,0.00
 681481,-0.00009871,-0.00134605,0.00265814,0.00272202,0.00053405,0.0036
 6080,-0.00149867,-0.00108944,0.00005555,0.00110528,0.00150706,-0.00098
 805,-0.00045877,-0.00139767,0.00088161,-0.01491968,-0.00480524,0.00075
 214,0.00342079,0.00089459,-0.00479334,0.00017110,0.00420180,0.00231138
 ,-0.00034407,-0.00032309,-0.00108842,0.43254721,-0.00110863,0.00081506
 ,-0.00011712,-0.00199457,-0.00050164,-0.00079895,-0.00045161,-0.000151
 75,-0.00054394,0.01881438,0.01983847,-0.00898805,0.00514430,-0.0020699
 9,0.00203344,-0.00005141,0.00028960,0.00012217,0.00033472,-0.00096227,
 -0.00095793,0.00029546,-0.00009804,-0.00001050,0.09016945,-0.08839793,
 -0.08190159,0.00060698,-0.00264619,-0.00138741,0.00038645,0.00005901,-
 0.00061080,-0.00003350,-0.00001729,0.00007035,-0.00009842,-0.00022213,
 0.00006286,-0.00035549,-0.00013038,0.00012696,0.00007129,0.00001023,-0
 .00004566,0.00087603,0.00105846,-0.00183522,-0.00006423,-0.00571530,0.
 00001777,0.00049864,-0.00034051,-0.00082863,-0.00005849,-0.00039576,0.
 00021000,0.00044090,0.00001572,0.00030304,-0.00022620,-0.00002680,-0.0
 0011231,-0.00202020,0.00321848,-0.00038527,-0.00033015,-0.00532731,0.0
 0070740,0.00063759,-0.00047666,-0.00001179,0.00014073,-0.00038598,-0.0
 0005035,-0.11131331,0.06577189,-0.00050165,0.00065773,-0.00555009,-0.0
 0261715,0.00413578,0.00374427,0.00079207,0.00003432,-0.00196929,0.0225
 5977,-0.00595974,-0.00587449,-0.00101848,-0.00086394,0.00173940,0.0005
 4123,-0.00099608,-0.00025579,-0.00013864,0.00023655,0.00180596,-0.0004
 6102,-0.00031345,0.00031955,0.29238320,-0.07987013,-0.43168832,-0.0015
 0392,-0.00533036,0.00170806,0.00044342,0.00009275,0.00087556,-0.000148
 83,-0.00025844,0.00015900,0.00004038,0.00044455,0.00005086,-0.00052671
 ,-0.00006328,0.00036100,-0.00001998,0.00001942,-0.00006969,-0.01421934
 ,0.00422769,0.00933583,0.00638890,-0.00179729,0.00435596,0.00119909,-0
 .00230238,-0.00059977,-0.00017944,0.00206696,0.00026161,-0.00001996,0.
 00019458,0.00183975,0.00046166,-0.00096285,-0.00032593,0.00493187,0.00
 172611,0.00435850,-0.00725853,-0.00071536,-0.00638798,0.00013619,-0.00
 147113,-0.00133207,-0.00168540,-0.00040463,0.00008874,-0.33664850,0.09
 646339,0.45524241,-0.00038776,0.00025678,-0.00091644,-0.00124298,-0.00
 055819,-0.00299072,-0.00025250,0.00000620,-0.00012486,0.00503030,0.006
 46819,-0.02357875,0.00106221,-0.00149534,0.00101456,-0.00009551,0.0003
 6560,0.00030470,-0.00004716,0.00005762,0.00016747,0.00003459,0.0001462
 2,0.00001868,-0.08611846,0.01329496,-0.07070633,-0.00039564,-0.0024408
 7,0.00009399,0.00008141,-0.00003992,0.00013598,-0.00003495,-0.00007497
 ,0.00004293,0.00000599,0.00004561,0.00000981,-0.00004690,0.00000252,0.
 00002041,0.00000709,0.00000456,-0.00001022,-0.00525863,0.00247159,-0.0
 0362151,-0.00137216,0.00069226,0.00073762,0.00110391,-0.00077294,0.002
 20991,-0.00005538,0.00121674,0.00050689,0.00015167,0.00018651,0.000485
 12,0.00004460,-0.00067180,-0.00006161,-0.00017742,0.00013673,-0.000367
 45,0.00042877,-0.00020804,0.00069031,-0.00005895,-0.00017714,0.0000731
 5,0.00011021,0.00001496,-0.00000217,0.01210681,-0.00057842,0.03567740,
 0.07498836,0.00003004,0.00007009,-0.00047379,-0.00250080,-0.00036122,0
 .00000744,0.00004448,-0.00042099,0.00000004,0.00060455,0.01448940,0.00
 656096,0.00329931,-0.00057091,0.00015962,-0.00019998,0.00043978,0.0001
 5985,0.00006199,-0.00007033,0.00015197,-0.00001793,-0.00011023,0.00005
 947,0.01398009,-0.05843634,0.03419438,-0.00063819,-0.00329509,-0.00077
 372,-0.00000451,-0.00007436,0.00011045,-0.00001812,-0.00001470,0.00002
 249,0.00001093,0.00004852,0.00000267,0.00003596,0.00003026,-0.00001863
 ,0.00000029,0.00000198,0.00000593,0.00210590,0.00142473,0.00161956,0.0
 0013547,0.00039304,-0.00035056,-0.00046851,0.00029261,-0.00071751,0.00
 038838,-0.00151776,-0.00024909,0.00002861,-0.00003037,-0.00020999,0.00
 001961,0.00019047,0.00004310,-0.00047432,-0.00011551,0.00001434,0.0006
 2803,-0.00026742,-0.00015743,-0.00008058,0.00010772,0.00009513,-0.0000
 5753,0.00000086,-0.00002962,0.00112978,0.01626988,-0.00933754,-0.01814
 067,0.03209508,-0.00043481,0.00013287,-0.00124145,-0.00079057,-0.00030
 392,-0.00150046,-0.00029576,-0.00013107,-0.00002489,0.00050542,0.00151
 041,-0.00397635,-0.00113727,-0.00009935,0.00000748,-0.00003034,0.00026
 777,0.00026124,-0.00003122,-0.00006151,0.00021063,0.00001509,0.0001007
 0,0.00001705,-0.07248815,0.03624160,-0.28672577,0.00031779,-0.00273224
 ,0.00092038,0.00009627,-0.00010798,0.00026956,-0.00003944,-0.00011777,
 0.00005148,0.00000921,0.00006930,0.00000024,0.00003974,0.00000279,0.00
 005143,0.00000771,0.00000577,-0.00001778,-0.00124318,-0.00031319,0.001
 24806,0.00218308,-0.00032935,0.00061078,0.00145539,-0.00160101,0.00016
 590,0.00006909,0.00010285,0.00049185,0.00017792,0.00018796,0.00018820,
 0.00002729,-0.00030533,0.00003341,0.00064854,0.00023947,0.00023345,-0.
 00111564,-0.00032295,-0.00028788,0.00013180,-0.00012475,-0.00021537,-0
 .00009818,0.00000381,0.00001558,0.01179044,-0.00188228,-0.03254513,0.0
 6011363,-0.03078171,0.32161455,0.00116058,-0.00484165,0.00987215,0.000
 93264,0.00090659,0.00105495,0.00198966,0.00051086,-0.00106868,0.000316
 29,0.00012440,0.00038586,-0.00010364,-0.00010647,-0.00006223,-0.000229
 35,-0.00023247,-0.00011573,0.00021323,0.00024323,-0.00112626,-0.000099
 46,-0.00004894,0.00013056,-0.00022678,0.00252909,0.00192657,-0.0436924
 1,0.00079021,0.00029689,-0.00047052,-0.00087550,-0.00029461,0.00017222
 ,0.00055555,-0.00033346,0.00013729,-0.00007756,0.00011068,0.00260110,0
 .00535089,-0.00342748,-0.00184175,0.00069074,-0.00084277,-0.00014018,-
 0.00069662,-0.00058174,0.00000086,0.00030181,0.00027760,-0.00248459,-0
 .00135908,0.00014917,0.00262920,0.00160469,-0.00222775,-0.00211526,0.0
 0002746,-0.00153274,0.00023590,0.00040740,0.00036142,0.00628042,0.0050
 1819,0.00191852,-0.00325580,0.00179217,0.00123870,-0.04321134,0.078261
 45,0.06325231,-0.00030513,-0.00029648,-0.00042096,0.00203576,-0.001150
 15,-0.00148945,-0.00030888,0.00002325,-0.00028453,0.08950521,-0.000308
 50,-0.00161836,0.00074199,0.00026590,-0.00077615,-0.00033039,-0.000385
 67,0.00025653,-0.00025385,-0.00044153,0.00033076,0.00021683,-0.0000402
 7,0.00008637,-0.00006258,-0.00000891,0.00024667,0.00002278,0.00016923,
 -0.00000300,0.00029669,-0.00007830,0.00008588,0.00005143,0.00235835,-0
 .00100146,-0.00128951,0.00097533,0.00964576,-0.00049222,-0.00501124,-0
 .00132825,0.00197303,0.00124468,0.00005623,-0.00034317,0.00036278,0.00
 020176,-0.00022617,0.00889851,-0.00534405,0.00586906,0.00095644,0.0002
 9835,-0.00012813,-0.00042897,0.00052787,-0.00019150,0.00044438,-0.0002
 0129,0.00024422,0.00007135,0.00056183,0.00007710,-0.00006866,-0.000448
 26,0.00011591,0.00027869,0.00052940,-0.00000875,-0.00003265,-0.0003893
 9,-0.00000556,0.00187715,-0.01390627,-0.01169150,0.00356182,0.00101801
 ,-0.00024518,0.08540755,-0.29868272,-0.17928320,-0.00109323,-0.0030787
 1,0.00024626,-0.00322991,0.00014191,0.00089161,0.00020586,0.00004112,-
 0.00005140,-0.13109170,0.58442626,0.00133158,0.00065966,-0.00318343,-0
 .00025936,-0.00010639,-0.00062771,-0.00007782,-0.00017698,0.00079185,-
 0.00020430,0.00017599,0.00001809,-0.00001831,-0.00001296,-0.00000139,-
 0.00000393,0.00001620,0.00007390,0.00034026,0.00023897,0.00102754,-0.0
 0012825,0.00004403,-0.00004382,0.00090361,-0.00053281,-0.00178405,0.00
 805250,-0.00051356,0.00774447,0.00240218,0.00063883,-0.00191618,-0.000
 75284,-0.00007383,0.00041377,-0.00057462,0.00031473,0.00032853,-0.0029
 9298,0.00507052,0.00161397,-0.00180399,0.00055439,-0.00108362,-0.00010
 754,0.00000463,0.00027009,0.00016350,0.00004641,-0.00001419,0.00036880
 ,0.00010034,0.00046425,-0.00046923,-0.00013131,-0.00003852,0.00030745,
 -0.00014912,0.00040172,0.00009855,-0.00003400,-0.00006208,-0.00006728,
 -0.01142343,-0.00047645,0.00218177,0.00052126,-0.00120227,0.05064423,-
 0.12973185,-0.15511573,-0.00052703,0.00097146,0.00123928,-0.00163806,-
 0.00016858,0.00124026,-0.00003615,-0.00005074,0.00018231,-0.03284415,-
 0.04628522,0.41691868,-0.00140725,-0.00087469,0.00013616,0.00014860,-0
 .00045665,0.00010488,-0.00069709,0.00020524,-0.00053391,-0.00013971,-0
 .00001822,-0.00002885,0.00001485,0.00007148,-0.00000279,0.00007544,0.0
 0016098,-0.00002041,-0.00012897,-0.00019095,-0.00023778,0.00009134,0.0
 0000188,0.00001687,0.00035542,-0.00059584,-0.00013280,-0.00122969,0.00
 290012,-0.00183771,-0.00550559,0.00047235,0.00090266,0.00092291,-0.000
 18924,-0.00010250,0.00054400,0.00002046,-0.00035850,-0.00309542,-0.002
 02361,0.00062784,0.00349371,-0.00111545,0.00110980,0.00000561,0.000360
 13,0.00000466,0.00004679,-0.00016561,-0.00003814,0.00022371,0.00035219
 ,-0.00023773,-0.00029597,-0.00031292,0.00038354,0.00046815,0.00029573,
 0.00021979,-0.00014324,-0.00022662,-0.00009214,-0.00087152,-0.00075438
 ,-0.00007046,0.00079841,-0.00006495,0.00015344,-0.00166590,0.00854196,
 -0.00926559,0.00031151,0.00031038,0.00018347,-0.00067727,0.00032577,0.
 00015581,0.00009333,0.00001037,-0.00001224,-0.02143247,0.03783144,-0.0
 1798104,0.02920897,-0.00132069,0.00298013,-0.00182943,-0.00038419,0.00
 034747,-0.00018161,0.00005399,-0.00046310,0.00009109,0.00017345,-0.000
 13602,-0.00015271,0.00004157,-0.00005385,0.00003876,0.00001099,-0.0001
 2622,0.00002487,-0.00003659,-0.00024359,-0.00015140,0.00017223,-0.0000
 2142,-0.00006928,-0.00099565,0.00006908,0.00024448,0.00579707,-0.00173
 536,0.00073416,0.00579715,0.00218615,-0.00390636,-0.00192434,0.0000155
 9,0.00060709,-0.00069469,-0.00002473,0.00045183,-0.00704802,-0.0045146
 0,0.00076476,0.00025483,-0.00169625,0.00151927,0.00019331,-0.00022275,
 0.00017592,-0.00020779,0.00006137,-0.00011453,0.00042723,-0.00011566,0
 .00009470,-0.00043575,-0.00001523,0.00022348,-0.00001598,-0.00047803,0
 .00024771,-0.00000824,0.00020328,-0.00001550,-0.00005207,0.00259716,-0
 .00080870,-0.00068725,-0.00072940,0.00003909,0.00218672,-0.02536922,0.
 03096947,0.00029541,-0.00089797,-0.00041196,0.00102950,0.00011807,-0.0
 0021193,-0.00001442,-0.00001021,0.00004735,0.04286569,-0.25275538,0.17
 899625,-0.03596798,0.28060174,0.00063271,-0.00110534,0.00226625,0.0002
 1669,-0.00015341,0.00027976,-0.00015264,0.00011494,-0.00022130,-0.0000
 5436,0.00000866,0.00011907,-0.00001114,0.00003344,-0.00002362,0.000004
 23,0.00006083,-0.00002624,-0.00016374,-0.00016614,-0.00036138,0.000036
 36,-0.00000972,0.00001928,0.00020584,0.00011201,0.00026811,-0.00379632
 ,-0.00015538,-0.00102691,-0.00266826,-0.00213527,0.00300998,0.00117870
 ,-0.00000683,-0.00052569,0.00104725,-0.00033996,-0.00046045,0.00074409
 ,0.00272862,-0.00723865,0.00175179,-0.00049756,0.00065538,-0.00002612,
 0.00013995,-0.00016372,0.00003224,-0.00008712,0.00006440,-0.00028192,0
 .00000408,-0.00020025,0.00028674,0.00008117,-0.00008993,0.00003593,0.0
 0023750,-0.00019906,-0.00006869,-0.00010106,0.00002235,0.00004474,-0.0
 0137769,-0.00236624,0.00028530,0.00004078,0.00020612,0.00202764,-0.019
 56543,0.01881758,0.00004578,-0.00089467,-0.00021036,-0.00019240,0.0000
 5356,-0.00022247,-0.00000328,-0.00001992,-0.00005965,-0.02622465,0.230
 62857,-0.25654034,0.01911507,-0.21065842,0.24615442,-0.00789120,0.0063
 8002,-0.01397450,-0.00137245,-0.00115432,-0.00111941,-0.00130800,-0.00
 051596,0.00056240,-0.00036919,0.00002201,-0.00068511,0.00019760,0.0001
 3677,0.00014956,0.00030479,0.00032787,0.00010993,0.00100559,-0.0006016
 2,0.00417081,0.00006658,0.00008409,-0.00017607,0.00107272,-0.00484306,
 -0.00405121,-0.34294735,0.00479837,-0.00300051,0.00713116,0.00085887,0
 .00063755,-0.00140595,-0.00128923,0.00077832,-0.00064221,0.00041750,-0
 .00001330,-0.00671861,0.00152199,-0.00130607,-0.00006938,0.00026765,0.
 00020786,0.00013002,0.00085229,0.00083012,0.00007284,-0.00037229,-0.00
 034078,0.00379322,0.00189478,-0.00006692,-0.00474137,-0.00263092,0.003
 16450,0.00294250,-0.00030701,0.00253801,-0.00030080,-0.00046443,-0.000
 45954,-0.00127727,-0.00574835,-0.00270029,0.00335739,0.00117780,0.0001
 1724,-0.00098482,0.01214664,0.00447803,-0.00005035,0.00013172,0.000216
 74,-0.00374218,0.00109208,0.00272601,0.00060403,0.00006410,0.00041292,
 0.01170720,-0.00268994,-0.00630756,0.00048736,-0.00950548,0.00595239,0
 .34094811,0.01724194,-0.00225273,-0.00032505,0.00035247,0.00061167,0.0
 0097772,-0.00072692,-0.00109688,0.00250822,0.00011907,-0.00027825,0.00
 032141,-0.00006267,0.00001818,0.00003271,0.00004232,-0.00013994,-0.000
 02550,-0.00082731,0.00041627,0.00030532,-0.00020691,-0.00007180,-0.000
 14768,-0.00294418,0.00096308,0.00019391,-0.01215392,-0.02482042,0.0154
 3501,0.00294680,-0.00009924,0.00128442,-0.00009292,0.00013798,-0.00027
 680,0.00013256,-0.00073379,-0.00011333,-0.00026175,0.00007598,-0.00099
 125,-0.00025143,-0.00006426,0.00002561,0.00044266,-0.00024871,0.000042
 50,-0.00028258,0.00000464,-0.00022440,-0.00204415,-0.00059425,0.000151
 89,0.00118076,0.00016838,-0.00169550,0.00070357,0.00020491,0.00021203,
 0.00003777,0.00006605,0.00003200,-0.00095625,-0.00028716,0.00036714,0.
 00036476,-0.00088485,-0.00076745,0.00788437,0.00328650,-0.00122251,0.0
 0006372,0.00011367,-0.00000097,0.00188081,0.00025916,-0.00033291,-0.00
 040020,-0.00060008,0.00035318,-0.00122705,-0.01892140,0.00103708,-0.00
 890338,0.00042900,0.00302977,-0.00205195,0.04433829,-0.03817813,0.0003
 5457,-0.00232452,-0.00016659,0.00025930,-0.00127301,0.00102088,0.00205
 709,-0.00528096,0.00008302,-0.00023928,-0.00016687,0.00002610,-0.00004
 923,0.00001281,0.00005728,-0.00001888,0.00010815,-0.00026210,-0.000710
 02,0.00001310,-0.00015618,0.00011318,0.00019819,-0.00139160,-0.0000646
 4,0.00119004,0.02907058,0.01607412,-0.04808248,-0.00148167,0.00095528,
 0.00117576,0.00014023,-0.00026490,-0.00010586,0.00031342,-0.00016615,-
 0.00015088,0.00062351,-0.00040636,-0.00041967,0.00044629,-0.00025696,0
 .00025753,0.00008824,-0.00006032,0.00009187,-0.00014208,-0.00005235,-0
 .00003255,0.00283017,0.00138193,-0.00016800,-0.00228264,-0.00207881,0.
 00241194,-0.00262331,0.00025766,-0.00100003,-0.00001592,0.00031494,0.0
 0018432,-0.00059595,0.00100286,-0.00000552,0.00003665,-0.00083382,0.00
 004119,0.00435052,-0.00040952,-0.00124891,0.00016820,-0.00015578,-0.00
 008622,0.00103492,0.00046544,-0.00066571,0.00011691,-0.00003713,0.0000
 2113,-0.00809819,-0.00048718,-0.01063891,0.00783857,0.00324153,-0.0019
 4643,0.00714887,-0.02018656,0.06789052\\0.00002048,-0.00001231,0.00003
 599,-0.00000397,0.00000983,0.00000294,-0.00000536,0.00000621,-0.000015
 51,-0.00000717,-0.00001099,-0.00003624,0.00000025,0.00000218,-0.000001
 79,0.00000032,0.00000170,-0.00000631,-0.00000176,-0.00000108,-0.000003
 54,0.00000015,0.00000044,-0.00000346,0.00001301,-0.00000020,0.00001466
 ,-0.00001658,0.00000139,-0.00002480,-0.00001764,0.00000787,0.00000173,
 0.00000450,-0.00000259,-0.00000116,0.00000110,-0.00000056,0.00000014,0
 .00001171,-0.00000031,-0.00000794,0.00000112,0.00000215,0.00000752,0.0
 0000868,0.00000102,0.00001550,0.00000407,-0.00000044,-0.00000175,0.000
 00281,-0.00000632,0.00000080,-0.00001156,0.00000071,-0.00000260,-0.000
 00061,-0.00000573,0.00000519,0.00000180,0.00000078,-0.00000610,-0.0000
 1188,0.00001538,0.00002646,0.00003195,-0.00003440,0.00001023,-0.000011
 75,0.00001100,-0.00005080,0.00000376,0.00000643,0.00000858,-0.00002918
 ,0.00001542,-0.00001133,-0.00000539,-0.00000053,-0.00000414,-0.0000048
 1,-0.00000612,0.00004651,0.00000729,0.00000127,0.00000268,0.00001464,-
 0.00000220,-0.00000148\\\@


 ABALONE: AN EXPRESSION OF DISBELIEF.
 Job cpu time:       0 days  0 hours 34 minutes 48.0 seconds.
 File lengths (MBytes):  RWF=    220 Int=      0 D2E=      0 Chk=      6 Scr=      1
 Normal termination of Gaussian 09 at Sun Jan 15 13:30:50 2017.
