 Entering Gaussian System, Link 0=g09
 Initial command:
 /global/software/gaussian/g09.e01/l1.exe "/scratch/10502183.yak.local/Gau-14580.inp" -scrdir="/scratch/10502183.yak.local/"
 Entering Link 1 = /global/software/gaussian/g09.e01/l1.exe PID=     14581.
  
 Copyright (c) 1988,1990,1992,1993,1995,1998,2003,2009,2015,
            Gaussian, Inc.  All Rights Reserved.
  
 This is part of the Gaussian(R) 09 program.  It is based on
 the Gaussian(R) 03 system (copyright 2003, Gaussian, Inc.),
 the Gaussian(R) 98 system (copyright 1998, Gaussian, Inc.),
 the Gaussian(R) 94 system (copyright 1995, Gaussian, Inc.),
 the Gaussian 92(TM) system (copyright 1992, Gaussian, Inc.),
 the Gaussian 90(TM) system (copyright 1990, Gaussian, Inc.),
 the Gaussian 88(TM) system (copyright 1988, Gaussian, Inc.),
 the Gaussian 86(TM) system (copyright 1986, Carnegie Mellon
 University), and the Gaussian 82(TM) system (copyright 1983,
 Carnegie Mellon University). Gaussian is a federally registered
 trademark of Gaussian, Inc.
  
 This software contains proprietary and confidential information,
 including trade secrets, belonging to Gaussian, Inc.
  
 This software is provided under written license and may be
 used, copied, transmitted, or stored only in accord with that
 written license.
  
 The following legend is applicable only to US Government
 contracts under FAR:
  
                    RESTRICTED RIGHTS LEGEND
  
 Use, reproduction and disclosure by the US Government is
 subject to restrictions as set forth in subparagraphs (a)
 and (c) of the Commercial Computer Software - Restricted
 Rights clause in FAR 52.227-19.
  
 Gaussian, Inc.
 340 Quinnipiac St., Bldg. 40, Wallingford CT 06492
  
  
 ---------------------------------------------------------------
 Warning -- This program may not be used in any manner that
 competes with the business of Gaussian, Inc. or will provide
 assistance to any competitor of Gaussian, Inc.  The licensee
 of this program is prohibited from giving any competitor of
 Gaussian, Inc. access to this program.  By using this program,
 the user acknowledges that Gaussian, Inc. is engaged in the
 business of creating and licensing software in the field of
 computational chemistry and represents and warrants to the
 licensee that it is not a competitor of Gaussian, Inc. and that
 it will not use this program in any manner prohibited above.
 ---------------------------------------------------------------
  

 Cite this work as:
 Gaussian 09, Revision E.01,
 M. J. Frisch, G. W. Trucks, H. B. Schlegel, G. E. Scuseria, 
 M. A. Robb, J. R. Cheeseman, G. Scalmani, V. Barone, B. Mennucci, 
 G. A. Petersson, H. Nakatsuji, M. Caricato, X. Li, H. P. Hratchian, 
 A. F. Izmaylov, J. Bloino, G. Zheng, J. L. Sonnenberg, M. Hada, 
 M. Ehara, K. Toyota, R. Fukuda, J. Hasegawa, M. Ishida, T. Nakajima, 
 Y. Honda, O. Kitao, H. Nakai, T. Vreven, J. A. Montgomery, Jr., 
 J. E. Peralta, F. Ogliaro, M. Bearpark, J. J. Heyd, E. Brothers, 
 K. N. Kudin, V. N. Staroverov, T. Keith, R. Kobayashi, J. Normand, 
 K. Raghavachari, A. Rendell, J. C. Burant, S. S. Iyengar, J. Tomasi, 
 M. Cossi, N. Rega, J. M. Millam, M. Klene, J. E. Knox, J. B. Cross, 
 V. Bakken, C. Adamo, J. Jaramillo, R. Gomperts, R. E. Stratmann, 
 O. Yazyev, A. J. Austin, R. Cammi, C. Pomelli, J. W. Ochterski, 
 R. L. Martin, K. Morokuma, V. G. Zakrzewski, G. A. Voth, 
 P. Salvador, J. J. Dannenberg, S. Dapprich, A. D. Daniels, 
 O. Farkas, J. B. Foresman, J. V. Ortiz, J. Cioslowski, 
 and D. J. Fox, Gaussian, Inc., Wallingford CT, 2013.
 
 ******************************************
 Gaussian 09:  ES64L-G09RevE.01 30-Nov-2015
                31-Jan-2017 
 ******************************************
 %NPROCS=4
 Will use up to    4 processors via shared memory.
 --------------------------------------------------
 # b3lyp/6-31g(d) irc=(calcfc,reverse,maxpoints=20)
 --------------------------------------------------
 1/10=4,14=-1,18=10,22=2,26=3,38=1,42=20,44=3/1,23;
 2/12=2,17=6,18=5,29=1,40=1/2;
 3/5=1,6=6,7=1,11=2,16=1,25=1,30=1,71=2,74=-5,140=1/1,2,3;
 4//1;
 5/5=2,38=5/2;
 8/6=4,10=90,11=11/1;
 11/6=1,8=1,9=11,15=111,16=1/1,2,10;
 10/6=1,13=1/2;
 6/7=2,8=2,9=2,10=2,28=1/1;
 7/10=1,18=20,25=1/1,2,3,16;
 1/10=4,14=-1,18=10,22=2,26=3,42=20,44=3/23(2);
 2/29=1/2;
 99/5=20/99;
 2/29=1/2;
 3/5=1,6=6,7=1,11=2,16=1,25=1,30=1,71=2,74=-5,140=1/1,2,3;
 4/5=5,16=3,69=1/1;
 5/5=2,38=5/2;
 8/6=4,10=90,11=11/1;
 11/6=1,8=1,9=11,15=111,16=1/1,2,10;
 10/6=1,13=1/2;
 7/10=1,18=20,25=1/1,2,3,16;
 1/14=-1,18=10,22=2,26=3,42=20,44=3/23(-8);
 2/29=1/2;
 6/7=2,8=2,9=2,10=2,19=2,28=1/1;
 99/5=20,9=1/99;
 ------------------------------------------
 ./3/glo_1w_beta_boat3_b3lyp_631Gd_iopt.out
 ------------------------------------------
 Symbolic Z-matrix:
 Charge =  0 Multiplicity = 1
 C                     0.11009   1.40819   1.02473 
 C                     0.76758  -0.90638   0.027 
 O                    -1.60164  -0.07578   0.14675 
 C                    -0.7226   -1.2367    0.15819 
 C                    -1.06034   1.23757   0.05276 
 C                     1.21471   0.35743   0.79252 
 H                    -0.90211  -1.71955   1.12818 
 H                     1.57117   0.03864   1.77819 
 H                     0.94228  -0.72175  -1.04355 
 H                    -1.88019   1.89528   0.38511 
 H                     0.53068   2.41539   0.87758 
 C                    -0.72893   1.65451  -1.39452 
 H                    -1.53163   1.29335  -2.05193 
 H                     0.20872   1.20983  -1.73355 
 O                    -1.05515  -2.06136  -0.90409 
 H                    -1.98955  -2.33258  -0.77096 
 O                    -0.54206   3.06355  -1.49069 
 H                    -1.41478   3.48334  -1.43969 
 O                     1.47441  -2.0447    0.46239 
 H                     2.36566  -2.00821   0.04744 
 O                     2.3047    0.91328   0.02366 
 H                     2.70904   1.626     0.54416 
 O                    -0.30991   1.21819   2.37408 
 H                    -1.12528   1.72466   2.51414 
 O                    -3.74335  -1.85875  -0.17272 
 H                    -3.93232  -2.16903   0.72601 
 H                    -3.3164   -0.98818  -0.04505 
 O                     3.84955  -1.28834  -0.76374 
 H                     3.77014  -1.36879  -1.72633 
 H                     3.49917  -0.39476  -0.55896 
 
 IRC-IRC-IRC-IRC-IRC-IRC-IRC-IRC-IRC-IRC-IRC-IRC-IRC-IRC-IRC-IRC-IRC-IRC
 ------------------------------------------------------------------------
 INPUT DATA FOR L123
 ------------------------------------------------------------------------
 GENERAL PARAMETERS:
 Rxn path following direction = Reverse
 Maximum points per path      =  20
 Step size                    =   0.100 bohr
 Integration scheme           = HPC                                 
    Redo corrector integration= Yes                                 
    DWI Weight Power          =  2
    DWI will use Hessian update vectors when possible.
    Max correction cycles     =  20
 Initial Hessian              = CalcFC
 Hessian evaluation           = All updating
 Hessian updating method      = Bofill                              
 ------------------------------------------------------------------------
 IRC-IRC-IRC-IRC-IRC-IRC-IRC-IRC-IRC-IRC-IRC-IRC-IRC-IRC-IRC-IRC-IRC-IRC
                          Input orientation:                          
 ---------------------------------------------------------------------
 Center     Atomic      Atomic             Coordinates (Angstroms)
 Number     Number       Type             X           Y           Z
 ---------------------------------------------------------------------
      1          6           0        0.110090    1.408190    1.024730
      2          6           0        0.767580   -0.906380    0.027000
      3          8           0       -1.601640   -0.075780    0.146750
      4          6           0       -0.722600   -1.236700    0.158190
      5          6           0       -1.060340    1.237570    0.052760
      6          6           0        1.214710    0.357430    0.792520
      7          1           0       -0.902110   -1.719550    1.128180
      8          1           0        1.571170    0.038640    1.778190
      9          1           0        0.942280   -0.721750   -1.043550
     10          1           0       -1.880190    1.895280    0.385110
     11          1           0        0.530680    2.415390    0.877580
     12          6           0       -0.728930    1.654510   -1.394520
     13          1           0       -1.531630    1.293350   -2.051930
     14          1           0        0.208720    1.209830   -1.733550
     15          8           0       -1.055150   -2.061360   -0.904090
     16          1           0       -1.989550   -2.332580   -0.770960
     17          8           0       -0.542060    3.063550   -1.490690
     18          1           0       -1.414780    3.483340   -1.439690
     19          8           0        1.474410   -2.044700    0.462390
     20          1           0        2.365660   -2.008210    0.047440
     21          8           0        2.304700    0.913280    0.023660
     22          1           0        2.709040    1.626000    0.544160
     23          8           0       -0.309910    1.218190    2.374080
     24          1           0       -1.125280    1.724660    2.514140
     25          8           0       -3.743350   -1.858750   -0.172720
     26          1           0       -3.932320   -2.169030    0.726010
     27          1           0       -3.316400   -0.988180   -0.045050
     28          8           0        3.849550   -1.288340   -0.763740
     29          1           0        3.770140   -1.368790   -1.726330
     30          1           0        3.499170   -0.394760   -0.558960
 ---------------------------------------------------------------------
                    Distance matrix (angstroms):
                    1          2          3          4          5
     1  C    0.000000
     2  C    2.604802   0.000000
     3  O    2.429616   2.513452   0.000000
     4  C    2.905117   1.531979   1.456220   0.000000
     5  C    1.530929   2.817530   1.423632   2.499439   0.000000
     6  C    1.542142   1.543749   2.921732   2.587817   2.549067
     7  H    3.289074   2.159099   2.038266   1.098293   3.150575
     8  H    2.139655   2.146040   3.569511   3.084197   3.367401
     9  H    3.083337   1.100312   2.881947   2.116879   3.008541
    10  H    2.146529   3.871463   2.004865   3.346761   1.102358
    11  H    1.101363   3.437116   3.359588   3.927594   2.144512
    12  C    2.572430   3.289136   2.476094   3.281774   1.542171
    13  H    3.489165   3.800938   2.591064   3.455476   2.157532
    14  H    2.767162   2.808951   2.909592   3.229790   2.191389
    15  O    4.137138   2.350160   2.312022   1.385313   3.434899
    16  H    4.650414   3.205082   2.466944   1.915577   3.779936
    17  O    3.081048   4.447346   3.695851   4.609073   2.446437
    18  H    3.564385   5.116983   3.901159   5.031015   2.719654
    19  O    3.755003   1.408881   3.665837   2.360562   4.167259
    20  H    4.208857   1.941213   4.414025   3.185097   4.719385
    21  O    2.462395   2.381997   4.031486   3.715516   3.380755
    22  H    2.651967   3.232595   4.651446   4.485552   3.821070
    23  O    1.425919   3.344184   2.881653   3.332712   2.439682
    24  H    1.960774   4.085481   3.012148   3.805562   2.509953
    25  O    5.191896   4.614692   2.804989   3.101835   4.103240
    26  H    5.406183   4.916499   3.185798   3.390275   4.506269
    27  H    4.316000   4.085435   1.951836   2.613593   3.170700
    28  O    4.945044   3.204638   5.658159   4.664459   5.581569
    29  H    5.354990   3.507614   5.834066   4.873764   5.769906
    30  H    4.152658   2.840192   5.159267   4.364231   4.881376
                    6          7          8          9         10
     6  C    0.000000
     7  H    2.984534   0.000000
     8  H    1.095553   3.103363   0.000000
     9  H    2.147091   3.018906   2.989300   0.000000
    10  H    3.479852   3.817825   4.159287   4.105637   0.000000
    11  H    2.170330   4.383311   2.746390   3.701595   2.515022
    12  C    3.200515   4.216431   4.238819   2.926215   2.133179
    13  H    4.063155   4.425716   5.086402   3.346295   2.534359
    14  H    2.849497   4.243196   3.944651   2.178351   3.053213
    15  O    3.725761   2.066489   4.301416   2.409093   4.242373
    16  H    4.466308   2.272678   4.979917   3.356293   4.384434
    17  O    3.952515   5.464994   4.929645   4.090440   2.583423
    18  H    4.654921   5.824676   5.580019   4.836883   2.463420
    19  O    2.438577   2.489347   2.465968   2.073937   5.175206
    20  H    2.734243   3.453932   2.795766   2.207091   5.777413
    21  O    1.445058   4.293645   2.093188   2.380850   4.313731
    22  H    1.975848   4.957236   2.310258   3.339790   4.599874
    23  O    2.359387   3.245502   2.298888   4.124505   2.623020
    24  H    3.210739   3.719311   3.264219   4.787158   2.265341
    25  O    5.515932   3.127997   5.970784   4.899617   4.227917
    26  H    5.734051   3.089651   6.022399   5.384021   4.565749
    27  H    4.800328   2.782116   5.316663   4.382276   3.249935
    28  O    3.474606   5.132599   3.662417   2.975153   6.654714
    29  H    3.981791   5.486454   4.370125   2.980208   6.858466
    30  H    2.758812   4.896200   3.060603   2.622868   5.922252
                   11         12         13         14         15
    11  H    0.000000
    12  C    2.707027   0.000000
    13  H    3.754214   1.098614   0.000000
    14  H    2.893965   1.091728   1.771203   0.000000
    15  O    5.072524   3.762264   3.577520   3.603617   0.000000
    16  H    5.622496   4.227869   3.872718   4.278743   0.982032
    17  O    2.679475   1.424627   2.104245   2.014678   5.183827
    18  H    3.208593   1.953727   2.276960   2.809084   5.582105
    19  O    4.577708   4.689027   5.147879   4.125056   2.875103
    20  H    4.860506   5.007120   5.522366   4.263812   3.551081
    21  O    2.476421   3.429806   4.378351   2.751156   4.582335
    22  H    2.340846   3.947015   4.983334   3.407750   5.464721
    23  O    2.092700   3.816844   4.592147   4.140250   4.696512
    24  H    2.428506   3.929330   4.604361   4.481905   5.101290
    25  O    6.135042   4.787747   4.284725   5.241300   2.793273
    26  H    6.399863   5.420130   5.046617   5.883395   3.308614
    27  H    5.218770   3.936989   3.523968   4.484278   2.646302
    28  O    5.237026   5.479118   6.105871   4.520733   4.967227
    29  H    5.620896   5.430660   5.941529   4.396936   4.943597
    30  H    4.332727   4.772263   5.512497   3.844663   4.861944
                   16         17         18         19         20
    16  H    0.000000
    17  O    5.633068   0.000000
    18  H    5.882388   0.969776   0.000000
    19  O    3.688231   5.828798   6.521085   0.000000
    20  H    4.443293   6.045116   6.830842   0.983789   0.000000
    21  O    5.441288   3.875688   4.751961   3.103468   2.922223
    22  H    6.283044   4.095951   4.938751   3.873633   3.684036
    23  O    5.031941   4.289020   4.571267   4.181484   4.793911
    24  H    5.291507   4.262797   4.336996   5.017583   5.674997
    25  O    1.912647   6.017835   5.963671   5.259559   6.114803
    26  H    2.458053   6.617214   6.555727   5.414581   6.336472
    27  H    2.023583   5.118921   5.055262   4.932098   5.773632
    28  O    5.931743   6.225242   7.137157   2.777907   1.837976
    29  H    5.917402   6.188395   7.106949   3.243104   2.351102
    30  H    5.824615   5.399960   6.321570   2.804481   2.062956
                   21         22         23         24         25
    21  O    0.000000
    22  H    0.970763   0.000000
    23  O    3.528970   3.553727   0.000000
    24  H    4.315738   4.311910   0.970029   0.000000
    25  O    6.655947   7.368225   5.267092   5.187903   0.000000
    26  H    6.992449   7.651339   5.226016   5.122275   0.969381
    27  H    5.934394   6.594470   4.445137   4.325501   0.977997
    28  O    2.802444   3.391864   5.781844   6.676197   7.637199
    29  H    3.227665   3.905102   6.336611   7.177476   7.688062
    30  H    1.864718   2.434060   5.070840   5.943183   7.399091
                   26         27         28         29         30
    26  H    0.000000
    27  H    1.538927   0.000000
    28  O    7.971980   7.208152   0.000000
    29  H    8.122946   7.293190   0.969205   0.000000
    30  H    7.747659   6.860630   0.981421   1.544316   0.000000
 Symmetry turned off by external request.
 Stoichiometry    C6H16O8
 Framework group  C1[X(C6H16O8)]
 Deg. of freedom    84
 Full point group                 C1      NOp   1
 Rotational constants (GHZ):      0.6453242      0.5032334      0.3767979
 Standard basis: 6-31G(d) (6D, 7F)
   242 basis functions,   456 primitive gaussians,   242 cartesian basis functions
    58 alpha electrons       58 beta electrons
       nuclear repulsion energy      1099.0767390480 Hartrees.
 NAtoms=   30 NActive=   30 NUniq=   30 SFac= 1.00D+00 NAtFMM=   60 NAOKFM=F Big=F
 Integral buffers will be    131072 words long.
 Raffenetti 2 integral format.
 Two-electron integral symmetry is turned off.
 One-electron integrals computed using PRISM.
 NBasis=   242 RedAO= T EigKep=  1.46D-03  NBF=   242
 NBsUse=   242 1.00D-06 EigRej= -1.00D+00 NBFU=   242
 ExpMin= 1.61D-01 ExpMax= 5.48D+03 ExpMxC= 8.25D+02 IAcc=1 IRadAn=         1 AccDes= 0.00D+00
 Harris functional with IExCor=  402 and IRadAn=       1 diagonalized for initial guess.
 HarFok:  IExCor=  402 AccDes= 0.00D+00 IRadAn=         1 IDoV= 1 UseB2=F ITyADJ=14
 ICtDFT=  3500011 ScaDFX=  1.000000  1.000000  1.000000  1.000000
 FoFCou: FMM=F IPFlag=           0 FMFlag=      100000 FMFlg1=           0
         NFxFlg=           0 DoJE=T BraDBF=F KetDBF=T FulRan=T
         wScrn=  0.000000 ICntrl=     500 IOpCl=  0 I1Cent=   200000004 NGrid=           0
         NMat0=    1 NMatS0=      1 NMatT0=    0 NMatD0=    1 NMtDS0=    0 NMtDT0=    0
 Symmetry not used in FoFCou.
 Requested convergence on RMS density matrix=1.00D-08 within 128 cycles.
 Requested convergence on MAX density matrix=1.00D-06.
 Requested convergence on             energy=1.00D-06.
 No special actions if energy rises.
 Integral accuracy reduced to 1.0D-05 until final iterations.
 Initial convergence to 1.0D-05 achieved.  Increase integral accuracy.
 SCF Done:  E(RB3LYP) =  -839.980408982     A.U. after   14 cycles
            NFock= 14  Conv=0.37D-08     -V/T= 2.0085
 DoSCS=F DFT=T ScalE2(SS,OS)=  1.000000  1.000000
 Range of M.O.s used for correlation:     1   242
 NBasis=   242 NAE=    58 NBE=    58 NFC=     0 NFV=     0
 NROrb=    242 NOA=    58 NOB=    58 NVA=   184 NVB=   184
 Symmetrizing basis deriv contribution to polar:
 IMax=3 JMax=2 DiffMx= 0.00D+00
 G2DrvN: will do    31 centers at a time, making    1 passes.
 Calling FoFCou, ICntrl=  3107 FMM=F I1Cent=   0 AccDes= 0.00D+00.
 End of G2Drv F.D. properties file   721 does not exist.
 End of G2Drv F.D. properties file   722 does not exist.
 End of G2Drv F.D. properties file   788 does not exist.
          IDoAtm=111111111111111111111111111111
          Differentiating once with respect to nuclear coordinates.
          There are    93 degrees of freedom in the 1st order CPHF.  IDoFFX=6 NUNeed=     0.
     87 vectors produced by pass  0 Test12= 1.15D-14 1.08D-09 XBig12= 1.05D-01 9.31D-02.
 AX will form    87 AO Fock derivatives at one time.
     87 vectors produced by pass  1 Test12= 1.15D-14 1.08D-09 XBig12= 1.22D-02 1.01D-02.
     87 vectors produced by pass  2 Test12= 1.15D-14 1.08D-09 XBig12= 1.46D-04 1.90D-03.
     87 vectors produced by pass  3 Test12= 1.15D-14 1.08D-09 XBig12= 3.30D-07 5.97D-05.
     87 vectors produced by pass  4 Test12= 1.15D-14 1.08D-09 XBig12= 6.10D-10 2.17D-06.
     67 vectors produced by pass  5 Test12= 1.15D-14 1.08D-09 XBig12= 5.27D-13 4.91D-08.
      1 vectors produced by pass  6 Test12= 1.15D-14 1.08D-09 XBig12= 4.31D-16 1.73D-09.
 InvSVY:  IOpt=1 It=  1 EMax= 3.89D-16
 Solved reduced A of dimension   503 with    93 vectors.
 End of Minotr F.D. properties file   721 does not exist.
 End of Minotr F.D. properties file   722 does not exist.
 End of Minotr F.D. properties file   788 does not exist.

 **********************************************************************

            Population analysis using the SCF density.

 **********************************************************************

 Alpha  occ. eigenvalues --  -19.18139 -19.16407 -19.16102 -19.16042 -19.15172
 Alpha  occ. eigenvalues --  -19.14757 -19.13162 -19.12009 -10.28136 -10.25467
 Alpha  occ. eigenvalues --  -10.25012 -10.24698 -10.24050 -10.23583  -1.06692
 Alpha  occ. eigenvalues --   -1.04869  -1.03337  -1.03071  -1.00911  -1.00811
 Alpha  occ. eigenvalues --   -0.99921  -0.99003  -0.78712  -0.76200  -0.69659
 Alpha  occ. eigenvalues --   -0.65068  -0.64103  -0.56339  -0.55678  -0.53886
 Alpha  occ. eigenvalues --   -0.53157  -0.53098  -0.51579  -0.50657  -0.49952
 Alpha  occ. eigenvalues --   -0.48919  -0.46025  -0.45406  -0.43695  -0.42611
 Alpha  occ. eigenvalues --   -0.41731  -0.39919  -0.39214  -0.39080  -0.37527
 Alpha  occ. eigenvalues --   -0.36481  -0.35622  -0.34933  -0.33833  -0.32475
 Alpha  occ. eigenvalues --   -0.30720  -0.30163  -0.29633  -0.29504  -0.28357
 Alpha  occ. eigenvalues --   -0.27437  -0.25985  -0.24959
 Alpha virt. eigenvalues --    0.04616   0.05128   0.05570   0.06727   0.07522
 Alpha virt. eigenvalues --    0.10264   0.10547   0.12639   0.13836   0.14290
 Alpha virt. eigenvalues --    0.15763   0.16307   0.16889   0.17623   0.18474
 Alpha virt. eigenvalues --    0.20163   0.20559   0.21430   0.22000   0.23195
 Alpha virt. eigenvalues --    0.24024   0.24775   0.25933   0.29235   0.29786
 Alpha virt. eigenvalues --    0.32451   0.33355   0.35052   0.50982   0.52745
 Alpha virt. eigenvalues --    0.54009   0.55437   0.56171   0.57175   0.59371
 Alpha virt. eigenvalues --    0.62505   0.63355   0.63745   0.64411   0.66868
 Alpha virt. eigenvalues --    0.68437   0.71524   0.73457   0.75267   0.75778
 Alpha virt. eigenvalues --    0.76529   0.77451   0.80228   0.80271   0.80428
 Alpha virt. eigenvalues --    0.82276   0.83050   0.84105   0.84402   0.85312
 Alpha virt. eigenvalues --    0.85705   0.86304   0.87257   0.87344   0.89391
 Alpha virt. eigenvalues --    0.90251   0.91071   0.92934   0.93902   0.95116
 Alpha virt. eigenvalues --    0.98247   0.99094   0.99976   1.00183   1.01562
 Alpha virt. eigenvalues --    1.03271   1.04387   1.05855   1.06119   1.07059
 Alpha virt. eigenvalues --    1.08587   1.09961   1.10226   1.13413   1.14474
 Alpha virt. eigenvalues --    1.14656   1.16057   1.19023   1.22798   1.25129
 Alpha virt. eigenvalues --    1.29377   1.30871   1.31846   1.34543   1.38077
 Alpha virt. eigenvalues --    1.40227   1.41523   1.43839   1.45202   1.45616
 Alpha virt. eigenvalues --    1.46844   1.51061   1.54846   1.57885   1.60712
 Alpha virt. eigenvalues --    1.62204   1.62873   1.66056   1.69078   1.71208
 Alpha virt. eigenvalues --    1.71784   1.72056   1.72550   1.73637   1.74152
 Alpha virt. eigenvalues --    1.75321   1.75740   1.76553   1.79392   1.81065
 Alpha virt. eigenvalues --    1.81560   1.82246   1.84008   1.85544   1.86633
 Alpha virt. eigenvalues --    1.89974   1.91266   1.91551   1.93994   1.95464
 Alpha virt. eigenvalues --    1.96111   1.99484   2.01461   2.03446   2.05134
 Alpha virt. eigenvalues --    2.07157   2.07833   2.11132   2.13958   2.15830
 Alpha virt. eigenvalues --    2.16972   2.20247   2.25403   2.27073   2.28582
 Alpha virt. eigenvalues --    2.30812   2.32959   2.34153   2.35935   2.39778
 Alpha virt. eigenvalues --    2.41808   2.42681   2.45738   2.47579   2.49010
 Alpha virt. eigenvalues --    2.51140   2.53242   2.53829   2.55621   2.58044
 Alpha virt. eigenvalues --    2.58409   2.60214   2.64771   2.66304   2.72207
 Alpha virt. eigenvalues --    2.72994   2.76605   2.80053   2.87492   2.90779
 Alpha virt. eigenvalues --    2.92006   2.98001   3.00833   3.06435   3.09146
 Alpha virt. eigenvalues --    3.67629   3.72254   3.74634   3.80424   3.84669
 Alpha virt. eigenvalues --    3.92160   4.00105   4.10700   4.27047   4.39273
 Alpha virt. eigenvalues --    4.45550   4.56505   4.61197   4.79227
          Condensed to atoms (all electrons):
               1          2          3          4          5          6
     1  C    5.048282  -0.027684  -0.038484  -0.006794   0.303648   0.249054
     2  C   -0.027684   4.946462  -0.019641   0.322528  -0.006365   0.302518
     3  O   -0.038484  -0.019641   8.387611   0.164019   0.205567  -0.006628
     4  C   -0.006794   0.322528   0.164019   4.688488  -0.026870  -0.047054
     5  C    0.303648  -0.006365   0.205567  -0.026870   5.009976  -0.018580
     6  C    0.249054   0.302518  -0.006628  -0.047054  -0.018580   5.109349
     7  H    0.000951  -0.053113  -0.056089   0.367696   0.001672  -0.003393
     8  H   -0.053590  -0.031250   0.000066  -0.001879   0.004517   0.351503
     9  H    0.001116   0.331018   0.000253  -0.034981   0.000876  -0.060059
    10  H   -0.043939  -0.000009  -0.039674   0.003122   0.357186   0.005258
    11  H    0.349695   0.002780   0.003413   0.000542  -0.051637  -0.050008
    12  C   -0.043126  -0.001845  -0.039406  -0.000918   0.286632  -0.006886
    13  H    0.005883  -0.000177   0.006597   0.000134  -0.043838  -0.000204
    14  H   -0.009598  -0.001567   0.002213   0.000758  -0.040946   0.001856
    15  O   -0.000301  -0.041732  -0.061502   0.270559   0.002491   0.003335
    16  H    0.000037   0.006287   0.002697  -0.021220  -0.000182  -0.000254
    17  O   -0.000867   0.000030   0.001544   0.000002  -0.038879   0.000034
    18  H   -0.000598  -0.000002   0.000018   0.000003  -0.003717   0.000014
    19  O    0.004364   0.239943   0.001001  -0.041830   0.000020  -0.045985
    20  H   -0.000093  -0.020953  -0.000055   0.005233   0.000002   0.000240
    21  O   -0.030826  -0.037599   0.000020   0.002349  -0.000492   0.179951
    22  H   -0.003113   0.005813   0.000009  -0.000233  -0.000051  -0.019527
    23  O    0.200827  -0.000313  -0.000874   0.004488  -0.027996  -0.040940
    24  H   -0.027244  -0.000300   0.000308   0.000073  -0.003986   0.006634
    25  O   -0.000010   0.000183  -0.015384   0.010003   0.000217  -0.000001
    26  H    0.000001   0.000021   0.000382   0.000690  -0.000003  -0.000001
    27  H    0.000319   0.000425   0.045274  -0.003952  -0.001146  -0.000008
    28  O   -0.000024   0.006352  -0.000000   0.000171   0.000002  -0.000922
    29  H   -0.000003   0.000330  -0.000000   0.000011   0.000001  -0.000176
    30  H    0.000643  -0.001600  -0.000000   0.000105  -0.000021  -0.003581
               7          8          9         10         11         12
     1  C    0.000951  -0.053590   0.001116  -0.043939   0.349695  -0.043126
     2  C   -0.053113  -0.031250   0.331018  -0.000009   0.002780  -0.001845
     3  O   -0.056089   0.000066   0.000253  -0.039674   0.003413  -0.039406
     4  C    0.367696  -0.001879  -0.034981   0.003122   0.000542  -0.000918
     5  C    0.001672   0.004517   0.000876   0.357186  -0.051637   0.286632
     6  C   -0.003393   0.351503  -0.060059   0.005258  -0.050008  -0.006886
     7  H    0.648773   0.001683   0.008215  -0.000247   0.000015  -0.000088
     8  H    0.001683   0.574409   0.006600  -0.000256   0.000763  -0.000013
     9  H    0.008215   0.006600   0.646035  -0.000024  -0.000303  -0.001777
    10  H   -0.000247  -0.000256  -0.000024   0.661368  -0.002016  -0.059585
    11  H    0.000015   0.000763  -0.000303  -0.002016   0.629673   0.001268
    12  C   -0.000088  -0.000013  -0.001777  -0.059585   0.001268   5.024686
    13  H    0.000053   0.000009   0.000315  -0.004941   0.000284   0.350074
    14  H    0.000025   0.000127   0.006803   0.005714   0.000120   0.373453
    15  O   -0.050611  -0.000080   0.000667  -0.000197   0.000005   0.001657
    16  H   -0.005006   0.000005  -0.000124   0.000006  -0.000000  -0.000067
    17  O    0.000002  -0.000004   0.000074   0.003230   0.011955   0.216795
    18  H   -0.000000  -0.000000   0.000000   0.006141  -0.000139  -0.029133
    19  O    0.002858   0.004353  -0.035187   0.000002  -0.000065   0.000032
    20  H   -0.000313  -0.000108  -0.006000  -0.000000   0.000002   0.000001
    21  O   -0.000053  -0.032205  -0.003784  -0.000119   0.001440   0.000592
    22  H    0.000009  -0.004300   0.000165   0.000006   0.006206   0.000032
    23  O    0.001165   0.006282  -0.000043  -0.005265  -0.034405   0.003589
    24  H   -0.000063  -0.000156   0.000013   0.007642  -0.002382   0.000075
    25  O    0.000712  -0.000000  -0.000000   0.000076   0.000000  -0.000010
    26  H    0.000476   0.000000   0.000000  -0.000004  -0.000000   0.000000
    27  H    0.000032   0.000001  -0.000013  -0.000764  -0.000006   0.000052
    28  O    0.000000   0.000053   0.003525  -0.000000   0.000001   0.000001
    29  H    0.000000   0.000001   0.000724   0.000000  -0.000000  -0.000000
    30  H   -0.000004  -0.000089   0.000346   0.000000  -0.000022  -0.000014
              13         14         15         16         17         18
     1  C    0.005883  -0.009598  -0.000301   0.000037  -0.000867  -0.000598
     2  C   -0.000177  -0.001567  -0.041732   0.006287   0.000030  -0.000002
     3  O    0.006597   0.002213  -0.061502   0.002697   0.001544   0.000018
     4  C    0.000134   0.000758   0.270559  -0.021220   0.000002   0.000003
     5  C   -0.043838  -0.040946   0.002491  -0.000182  -0.038879  -0.003717
     6  C   -0.000204   0.001856   0.003335  -0.000254   0.000034   0.000014
     7  H    0.000053   0.000025  -0.050611  -0.005006   0.000002  -0.000000
     8  H    0.000009   0.000127  -0.000080   0.000005  -0.000004  -0.000000
     9  H    0.000315   0.006803   0.000667  -0.000124   0.000074   0.000000
    10  H   -0.004941   0.005714  -0.000197   0.000006   0.003230   0.006141
    11  H    0.000284   0.000120   0.000005  -0.000000   0.011955  -0.000139
    12  C    0.350074   0.373453   0.001657  -0.000067   0.216795  -0.029133
    13  H    0.606859  -0.035985   0.000277   0.000040  -0.025929  -0.008406
    14  H   -0.035985   0.546880  -0.000264   0.000006  -0.034310   0.006970
    15  O    0.000277  -0.000264   8.307940   0.213208   0.000001  -0.000000
    16  H    0.000040   0.000006   0.213208   0.333994  -0.000000  -0.000000
    17  O   -0.025929  -0.034310   0.000001  -0.000000   8.244473   0.233796
    18  H   -0.008406   0.006970  -0.000000  -0.000000   0.233796   0.402690
    19  O   -0.000002   0.000014   0.001764  -0.000185  -0.000000   0.000000
    20  H    0.000000  -0.000015  -0.000120   0.000023  -0.000000   0.000000
    21  O    0.000079   0.006052  -0.000009   0.000001  -0.000097  -0.000006
    22  H   -0.000006  -0.000166   0.000001  -0.000000  -0.000022   0.000002
    23  O   -0.000066   0.000032   0.000014   0.000001  -0.000008  -0.000009
    24  H   -0.000010   0.000021  -0.000000  -0.000000  -0.000000  -0.000005
    25  O   -0.000034   0.000001  -0.020541   0.059568   0.000000   0.000000
    26  H   -0.000000  -0.000000   0.000884  -0.002872  -0.000000  -0.000000
    27  H    0.000420  -0.000021   0.004274  -0.008257  -0.000000  -0.000001
    28  O    0.000000  -0.000019  -0.000001  -0.000000  -0.000000  -0.000000
    29  H   -0.000000  -0.000004  -0.000000   0.000000  -0.000000  -0.000000
    30  H   -0.000001   0.000070  -0.000003   0.000000   0.000000   0.000000
              19         20         21         22         23         24
     1  C    0.004364  -0.000093  -0.030826  -0.003113   0.200827  -0.027244
     2  C    0.239943  -0.020953  -0.037599   0.005813  -0.000313  -0.000300
     3  O    0.001001  -0.000055   0.000020   0.000009  -0.000874   0.000308
     4  C   -0.041830   0.005233   0.002349  -0.000233   0.004488   0.000073
     5  C    0.000020   0.000002  -0.000492  -0.000051  -0.027996  -0.003986
     6  C   -0.045985   0.000240   0.179951  -0.019527  -0.040940   0.006634
     7  H    0.002858  -0.000313  -0.000053   0.000009   0.001165  -0.000063
     8  H    0.004353  -0.000108  -0.032205  -0.004300   0.006282  -0.000156
     9  H   -0.035187  -0.006000  -0.003784   0.000165  -0.000043   0.000013
    10  H    0.000002  -0.000000  -0.000119   0.000006  -0.005265   0.007642
    11  H   -0.000065   0.000002   0.001440   0.006206  -0.034405  -0.002382
    12  C    0.000032   0.000001   0.000592   0.000032   0.003589   0.000075
    13  H   -0.000002   0.000000   0.000079  -0.000006  -0.000066  -0.000010
    14  H    0.000014  -0.000015   0.006052  -0.000166   0.000032   0.000021
    15  O    0.001764  -0.000120  -0.000009   0.000001   0.000014  -0.000000
    16  H   -0.000185   0.000023   0.000001  -0.000000   0.000001  -0.000000
    17  O   -0.000000  -0.000000  -0.000097  -0.000022  -0.000008  -0.000000
    18  H    0.000000   0.000000  -0.000006   0.000002  -0.000009  -0.000005
    19  O    8.340919   0.211615   0.000824  -0.000273  -0.000039   0.000004
    20  H    0.211615   0.323478   0.000971  -0.000052  -0.000001  -0.000000
    21  O    0.000824   0.000971   8.296400   0.230458   0.001217  -0.000122
    22  H   -0.000273  -0.000052   0.230458   0.378469  -0.000112  -0.000022
    23  O   -0.000039  -0.000001   0.001217  -0.000112   8.297142   0.231389
    24  H    0.000004  -0.000000  -0.000122  -0.000022   0.231389   0.395287
    25  O   -0.000000  -0.000000   0.000000   0.000000   0.000000   0.000000
    26  H   -0.000000   0.000000   0.000000  -0.000000  -0.000000   0.000000
    27  H   -0.000006   0.000000   0.000000  -0.000000  -0.000011  -0.000010
    28  O   -0.024942   0.070241  -0.018772   0.000847   0.000000  -0.000000
    29  H    0.001222  -0.003830   0.000752  -0.000033  -0.000000   0.000000
    30  H    0.004669  -0.008684   0.055744  -0.003009  -0.000005   0.000000
              25         26         27         28         29         30
     1  C   -0.000010   0.000001   0.000319  -0.000024  -0.000003   0.000643
     2  C    0.000183   0.000021   0.000425   0.006352   0.000330  -0.001600
     3  O   -0.015384   0.000382   0.045274  -0.000000  -0.000000  -0.000000
     4  C    0.010003   0.000690  -0.003952   0.000171   0.000011   0.000105
     5  C    0.000217  -0.000003  -0.001146   0.000002   0.000001  -0.000021
     6  C   -0.000001  -0.000001  -0.000008  -0.000922  -0.000176  -0.003581
     7  H    0.000712   0.000476   0.000032   0.000000   0.000000  -0.000004
     8  H   -0.000000   0.000000   0.000001   0.000053   0.000001  -0.000089
     9  H   -0.000000   0.000000  -0.000013   0.003525   0.000724   0.000346
    10  H    0.000076  -0.000004  -0.000764  -0.000000   0.000000   0.000000
    11  H    0.000000  -0.000000  -0.000006   0.000001  -0.000000  -0.000022
    12  C   -0.000010   0.000000   0.000052   0.000001  -0.000000  -0.000014
    13  H   -0.000034  -0.000000   0.000420   0.000000  -0.000000  -0.000001
    14  H    0.000001  -0.000000  -0.000021  -0.000019  -0.000004   0.000070
    15  O   -0.020541   0.000884   0.004274  -0.000001  -0.000000  -0.000003
    16  H    0.059568  -0.002872  -0.008257  -0.000000   0.000000   0.000000
    17  O    0.000000  -0.000000  -0.000000  -0.000000  -0.000000   0.000000
    18  H    0.000000  -0.000000  -0.000001  -0.000000  -0.000000   0.000000
    19  O   -0.000000  -0.000000  -0.000006  -0.024942   0.001222   0.004669
    20  H   -0.000000   0.000000   0.000000   0.070241  -0.003830  -0.008684
    21  O    0.000000   0.000000   0.000000  -0.018772   0.000752   0.055744
    22  H    0.000000  -0.000000  -0.000000   0.000847  -0.000033  -0.003009
    23  O    0.000000  -0.000000  -0.000011   0.000000  -0.000000  -0.000005
    24  H    0.000000   0.000000  -0.000010  -0.000000   0.000000   0.000000
    25  O    8.301316   0.241525   0.218524   0.000000  -0.000000   0.000000
    26  H    0.241525   0.380462  -0.017251  -0.000000   0.000000   0.000000
    27  H    0.218524  -0.017251   0.343293  -0.000000   0.000000  -0.000000
    28  O    0.000000  -0.000000  -0.000000   8.313448   0.242213   0.213338
    29  H   -0.000000   0.000000   0.000000   0.242213   0.378068  -0.016432
    30  H    0.000000   0.000000  -0.000000   0.213338  -0.016432   0.332903
 Mulliken charges:
               1
     1  C    0.121473
     2  C    0.079461
     3  O   -0.543254
     4  C    0.344756
     5  C    0.091902
     6  C    0.094461
     7  H    0.134645
     8  H    0.173558
     9  H    0.135548
    10  H    0.107287
    11  H    0.132820
    12  C   -0.076072
    13  H    0.148573
    14  H    0.171780
    15  O   -0.631715
    16  H    0.422294
    17  O   -0.611819
    18  H    0.392383
    19  O   -0.665092
    20  H    0.428418
    21  O   -0.652769
    22  H    0.408905
    23  O   -0.636057
    24  H    0.392852
    25  O   -0.796148
    26  H    0.395690
    27  H    0.418830
    28  O   -0.805512
    29  H    0.397156
    30  H    0.425644
 Sum of Mulliken charges =  -0.00000
 Mulliken charges with hydrogens summed into heavy atoms:
               1
     1  C    0.254293
     2  C    0.215008
     3  O   -0.543254
     4  C    0.479402
     5  C    0.199189
     6  C    0.268019
    12  C    0.244281
    15  O   -0.209421
    17  O   -0.219436
    19  O   -0.236674
    21  O   -0.243864
    23  O   -0.243205
    25  O    0.018373
    28  O    0.017288
 APT charges:
               1
     1  C   -0.283123
     2  C   -0.223908
     3  O   -0.383480
     4  C   -0.246543
     5  C   -0.384691
     6  C   -0.231548
     7  H    0.409253
     8  H    0.451751
     9  H    0.274819
    10  H    0.461194
    11  H    0.431206
    12  C   -0.476957
    13  H    0.430704
    14  H    0.231833
    15  O   -0.733333
    16  H    0.668799
    17  O   -0.915293
    18  H    0.796850
    19  O   -0.789154
    20  H    0.610580
    21  O   -0.980280
    22  H    0.792626
    23  O   -0.830796
    24  H    0.719486
    25  O   -0.746097
    26  H    0.741823
    27  H    0.110488
    28  O   -0.742828
    29  H    0.655680
    30  H    0.180940
 Sum of APT charges =  -0.00000
 APT charges with hydrogens summed into heavy atoms:
               1
     1  C    0.148083
     2  C    0.050911
     3  O   -0.383480
     4  C    0.162710
     5  C    0.076503
     6  C    0.220203
    12  C    0.185579
    15  O   -0.064533
    17  O   -0.118443
    19  O   -0.178575
    21  O   -0.187654
    23  O   -0.111310
    25  O    0.106214
    28  O    0.093793
 Electronic spatial extent (au):  <R**2>=           3263.2295
 Charge=             -0.0000 electrons
 Dipole moment (field-independent basis, Debye):
    X=             -1.7524    Y=              4.8015    Z=              1.0135  Tot=              5.2108
 Quadrupole moment (field-independent basis, Debye-Ang):
   XX=            -79.2477   YY=            -85.3689   ZZ=            -82.5545
   XY=             -0.6592   XZ=            -10.0422   YZ=              1.9067
 Traceless Quadrupole moment (field-independent basis, Debye-Ang):
   XX=              3.1426   YY=             -2.9785   ZZ=             -0.1642
   XY=             -0.6592   XZ=            -10.0422   YZ=              1.9067
 Octapole moment (field-independent basis, Debye-Ang**2):
  XXX=            -11.0131  YYY=             18.8292  ZZZ=            -13.7787  XYY=            -29.9437
  XXY=             37.0624  XXZ=             14.9285  XZZ=              2.7441  YZZ=             -6.3442
  YYZ=             17.6235  XYZ=             29.9245
 Hexadecapole moment (field-independent basis, Debye-Ang**3):
 XXXX=          -1983.0158 YYYY=          -1323.2789 ZZZZ=           -601.8742 XXXY=             67.9525
 XXXZ=           -147.6133 YYYX=            -24.7185 YYYZ=             17.8283 ZZZX=            -60.7312
 ZZZY=             22.7850 XXYY=           -456.3678 XXZZ=           -305.9298 YYZZ=           -315.4348
 XXYZ=            -24.8384 YYXZ=            -25.9839 ZZXY=            -33.8059
 N-N= 1.099076739048D+03 E-N=-4.170763925901D+03  KE= 8.328878176502D+02
  Exact polarizability:   0.000   0.000   0.000   0.000   0.000   0.000
 Approx polarizability: 129.872  -1.323 133.340  -6.394   1.009 121.289
 Calling FoFJK, ICntrl=    100147 FMM=F ISym2X=0 I1Cent= 0 IOpClX= 0 NMat=1 NMatS=1 NMatT=0.
 -------------------------------------------------------------------
 Center     Atomic                   Forces (Hartrees/Bohr)
 Number     Number              X              Y              Z
 -------------------------------------------------------------------
      1        6           0.000007184    0.000001638    0.000005083
      2        6          -0.000006999   -0.000006878    0.000003574
      3        8          -0.000002563    0.000001171   -0.000000362
      4        6           0.000003432    0.000010257    0.000000577
      5        6           0.000009143   -0.000000312    0.000001559
      6        6           0.000006830   -0.000005156   -0.000000855
      7        1          -0.000003947   -0.000001357    0.000000301
      8        1          -0.000000482   -0.000003368   -0.000003176
      9        1           0.000002417   -0.000000196   -0.000004706
     10        1           0.000001105    0.000003337    0.000003854
     11        1           0.000003199   -0.000003493    0.000002366
     12        6           0.000005258    0.000003704    0.000009167
     13        1          -0.000000114    0.000003052    0.000000515
     14        1          -0.000002541    0.000005236    0.000000739
     15        8          -0.000014374    0.000004884   -0.000006698
     16        1          -0.000003556    0.000001972   -0.000003425
     17        8           0.000008314    0.000008225    0.000008424
     18        1           0.000006730    0.000001997    0.000003488
     19        8          -0.000004168   -0.000002389   -0.000012006
     20        1          -0.000008454   -0.000004363    0.000000104
     21        8           0.000007236   -0.000002850    0.000006022
     22        1          -0.000003146   -0.000012421   -0.000005022
     23        8          -0.000000431    0.000000191    0.000002776
     24        1           0.000010341   -0.000006691    0.000001786
     25        8          -0.000010918    0.000006556   -0.000002000
     26        1          -0.000002059    0.000005489   -0.000001186
     27        1           0.000001675    0.000011749    0.000002314
     28        8          -0.000007558   -0.000008845   -0.000012328
     29        1          -0.000002289   -0.000003637    0.000001436
     30        1           0.000000738   -0.000007501   -0.000002319
 -------------------------------------------------------------------
 Cartesian Forces:  Max     0.000014374 RMS     0.000005542
 IRC-IRC-IRC-IRC-IRC-IRC-IRC-IRC-IRC-IRC-IRC-IRC-IRC-IRC-IRC-IRC-IRC-IRC
          ******** Start new reaction path calculation ********
 Supplied step size of   0.1000 bohr.
    Integration on MW PES will use step size of   0.2548 sqrt(amu)*bohr.
 Point Number:   0          Path Number:   1
 Calculating another point on the path.
 IRC-IRC-IRC-IRC-IRC-IRC-IRC-IRC-IRC-IRC-IRC-IRC-IRC-IRC-IRC-IRC-IRC-IRC
                          Input orientation:                          
 ---------------------------------------------------------------------
 Center     Atomic      Atomic             Coordinates (Angstroms)
 Number     Number       Type             X           Y           Z
 ---------------------------------------------------------------------
      1          6           0        0.105779    1.414857    1.018679
      2          6           0        0.764855   -0.897864    0.020185
      3          8           0       -1.603497   -0.065621    0.126337
      4          6           0       -0.724883   -1.227283    0.155532
      5          6           0       -1.061739    1.248278    0.042607
      6          6           0        1.212284    0.366936    0.783856
      7          1           0       -0.904857   -1.697319    1.131925
      8          1           0        1.571877    0.049024    1.768693
      9          1           0        0.936940   -0.714371   -1.051069
     10          1           0       -1.882485    1.904743    0.375485
     11          1           0        0.525248    2.423531    0.878240
     12          6           0       -0.725803    1.671440   -1.401843
     13          1           0       -1.526938    1.313420   -2.062905
     14          1           0        0.212596    1.227456   -1.739747
     15          8           0       -1.057693   -2.065090   -0.895946
     16          1           0       -1.992696   -2.333144   -0.760576
     17          8           0       -0.537940    3.080726   -1.491974
     18          1           0       -1.410582    3.500758   -1.441675
     19          8           0        1.472833   -2.035233    0.455778
     20          1           0        2.364184   -1.997608    0.041166
     21          8           0        2.299083    0.924831    0.012110
     22          1           0        2.702472    1.639518    0.530667
     23          8           0       -0.317513    1.216779    2.365886
     24          1           0       -1.133609    1.721879    2.506727
     25          8           0       -3.746959   -1.849473   -0.174499
     26          1           0       -3.938182   -2.147856    0.727866
     27          1           0       -3.319188   -0.977772   -0.057255
     28          8           0        3.847377   -1.276519   -0.770508
     29          1           0        3.768514   -1.359650   -1.732920
     30          1           0        3.495698   -0.382889   -0.568254
 ---------------------------------------------------------------------
                    Distance matrix (angstroms):
                    1          2          3          4          5
     1  C    0.000000
     2  C    2.603853   0.000000
     3  O    2.430990   2.512566   0.000000
     4  C    2.901022   1.531717   1.456802   0.000000
     5  C    1.530869   2.818310   1.423672   2.500924   0.000000
     6  C    1.541959   1.543730   2.923706   2.586299   2.548998
     7  H    3.274119   2.159406   2.040036   1.098485   3.144482
     8  H    2.139502   2.145964   3.576797   3.083238   3.369498
     9  H    3.083553   1.100394   2.874192   2.116747   3.007131
    10  H    2.146364   3.871596   2.005553   3.346342   1.102442
    11  H    1.101408   3.438798   3.360474   3.926012   2.144301
    12  C    2.572215   3.293258   2.474481   3.290594   1.542192
    13  H    3.488870   3.805438   2.588512   3.466976   2.157276
    14  H    2.766847   2.814131   2.907319   3.239859   2.191152
    15  O    4.138779   2.350191   2.311026   1.385023   3.443734
    16  H    4.649394   3.205263   2.465716   1.915602   3.786604
    17  O    3.081050   4.451188   3.695111   4.616077   2.446870
    18  H    3.564221   5.120296   3.900633   5.037422   2.720010
    19  O    3.753507   1.408752   3.667657   2.360697   4.168477
    20  H    4.207237   1.941065   4.413878   3.185721   4.719399
    21  O    2.462497   2.382465   4.027924   3.714369   3.376488
    22  H    2.651687   3.233150   4.648908   4.483976   3.815829
    23  O    1.425966   3.338495   2.883381   3.320400   2.439772
    24  H    1.960773   4.080454   3.013670   3.793775   2.510248
    25  O    5.188748   4.615184   2.804828   3.103060   4.105313
    26  H    5.397324   4.917504   3.185639   3.391210   4.503024
    27  H    4.314245   4.085559   1.951749   2.614947   3.171963
    28  O    4.944113   3.204764   5.655318   4.665355   5.579890
    29  H    5.355821   3.508360   5.830081   4.875899   5.769326
    30  H    4.152324   2.840592   5.156055   4.364650   4.878943
                    6          7          8          9         10
     6  C    0.000000
     7  H    2.977346   0.000000
     8  H    1.095573   3.096676   0.000000
     9  H    2.147553   3.020574   2.989477   0.000000
    10  H    3.479830   3.808255   4.161411   4.104141   0.000000
    11  H    2.170371   4.369320   2.743469   3.706501   2.513778
    12  C    3.199249   4.219073   4.238381   2.929138   2.133363
    13  H    4.062416   4.433788   5.087485   3.347603   2.534132
    14  H    2.847532   4.248471   3.942778   2.183951   3.053243
    15  O    3.726833   2.066609   4.299351   2.413932   4.249282
    16  H    4.466274   2.273594   4.977762   3.359699   4.388903
    17  O    3.950613   5.463442   4.926916   4.095416   2.584211
    18  H    4.653306   5.822300   5.578172   4.840532   2.464149
    19  O    2.438429   2.494949   2.465296   2.074233   5.175714
    20  H    2.733044   3.459272   2.792992   2.208325   5.777051
    21  O    1.444981   4.288927   2.093192   2.381757   4.310195
    22  H    1.975912   4.950638   2.310979   3.340626   4.595243
    23  O    2.359096   3.218633   2.300019   4.120506   2.623762
    24  H    3.210509   3.692333   3.265393   4.783345   2.266372
    25  O    5.515886   3.131683   5.972462   4.898544   4.227633
    26  H    5.731894   3.093106   6.022487   5.383893   4.557808
    27  H    4.801036   2.785838   5.320801   4.378547   3.249657
    28  O    3.472852   5.136151   3.658211   2.977477   6.653198
    29  H    3.981152   5.491972   4.367021   2.983139   6.858238
    30  H    2.757610   4.897267   3.057606   2.624925   5.920199
                   11         12         13         14         15
    11  H    0.000000
    12  C    2.707313   0.000000
    13  H    3.754217   1.098635   0.000000
    14  H    2.895203   1.091739   1.771384   0.000000
    15  O    5.079484   3.785200   3.605040   3.628566   0.000000
    16  H    5.625986   4.248874   3.900054   4.301158   0.982043
    17  O    2.679587   1.424607   2.104151   2.014772   5.206229
    18  H    3.207781   1.953692   2.276821   2.809174   5.603661
    19  O    4.577877   4.692992   5.153238   4.129608   2.869078
    20  H    4.860951   5.009213   5.525474   4.266382   3.548518
    21  O    2.478461   3.421495   4.369797   2.741170   4.586082
    22  H    2.340040   3.935566   4.972008   3.394710   5.467924
    23  O    2.092746   3.816962   4.591976   4.139728   4.685945
    24  H    2.428187   3.930110   4.604681   4.482104   5.091668
    25  O    6.133397   4.799018   4.300984   5.253148   2.792691
    26  H    6.390805   5.426053   5.057957   5.891587   3.307692
    27  H    5.217633   3.943588   3.533320   4.490802   2.645755
    28  O    5.238824   5.477501   6.104206   4.518954   4.969637
    29  H    5.625779   5.431022   5.941044   4.397467   4.948782
    30  H    4.334963   4.768250   5.508023   3.839839   4.865239
                   16         17         18         19         20
    16  H    0.000000
    17  O    5.653429   0.000000
    18  H    5.902302   0.969774   0.000000
    19  O    3.684856   5.831808   6.523925   0.000000
    20  H    4.442723   6.046679   6.832255   0.983781   0.000000
    21  O    5.443420   3.867667   4.744523   3.105078   2.923309
    22  H    6.284422   4.082698   4.926617   3.875747   3.685476
    23  O    5.018263   4.290218   4.572623   4.174857   4.788330
    24  H    5.277927   4.265079   4.339470   5.011569   5.669932
    25  O    1.911769   6.028301   5.974057   5.260987   6.116741
    26  H    2.456564   6.620227   6.557630   5.419022   6.341447
    27  H    2.022690   5.124956   5.061287   4.934054   5.774987
    28  O    5.934897   6.223913   7.135753   2.778107   1.838109
    29  H    5.923232   6.190358   7.108546   3.242986   2.350854
    30  H    5.827774   5.396306   6.318003   2.805506   2.063743
                   21         22         23         24         25
    21  O    0.000000
    22  H    0.970773   0.000000
    23  O    3.531582   3.559080   0.000000
    24  H    4.317612   4.315914   0.970038   0.000000
    25  O    6.654788   7.366510   5.255145   5.174275   0.000000
    26  H    6.989791   7.647311   5.207025   5.099492   0.969464
    27  H    5.932089   6.592135   4.438211   4.317276   0.978057
    28  O    2.802793   3.392217   5.779257   6.673895   7.639204
    29  H    3.228500   3.905801   6.335126   7.176436   7.690964
    30  H    1.865165   2.434536   5.070374   5.942729   7.400134
                   26         27         28         29         30
    26  H    0.000000
    27  H    1.539046   0.000000
    28  O    7.976169   7.208164   0.000000
    29  H    8.128339   7.293092   0.969210   0.000000
    30  H    7.749684   6.859860   0.981407   1.544325   0.000000
 Symmetry turned off by external request.
 Stoichiometry    C6H16O8
 Framework group  C1[X(C6H16O8)]
 Deg. of freedom    84
 Full point group                 C1      NOp   1
 Rotational constants (GHZ):      0.6448278      0.5037973      0.3764643
 Standard basis: 6-31G(d) (6D, 7F)
   242 basis functions,   456 primitive gaussians,   242 cartesian basis functions
    58 alpha electrons       58 beta electrons
       nuclear repulsion energy      1099.0631130892 Hartrees.
 NAtoms=   30 NActive=   30 NUniq=   30 SFac= 1.00D+00 NAtFMM=   60 NAOKFM=F Big=F
 Integral buffers will be    131072 words long.
 Raffenetti 2 integral format.
 Two-electron integral symmetry is turned off.
 One-electron integrals computed using PRISM.
 NBasis=   242 RedAO= T EigKep=  1.45D-03  NBF=   242
 NBsUse=   242 1.00D-06 EigRej= -1.00D+00 NBFU=   242
 Initial guess from the checkpoint file:  "/scratch/10502183.yak.local/Gau-14581.chk"
 B after Tr=    -0.004278    0.017448   -0.011763
         Rot=    1.000000    0.000009   -0.000014    0.000020 Ang=   0.00 deg.
 ExpMin= 1.61D-01 ExpMax= 5.48D+03 ExpMxC= 8.25D+02 IAcc=1 IRadAn=         1 AccDes= 0.00D+00
 Harris functional with IExCor=  402 and IRadAn=       1 diagonalized for initial guess.
 HarFok:  IExCor=  402 AccDes= 0.00D+00 IRadAn=         1 IDoV= 1 UseB2=F ITyADJ=14
 ICtDFT=  3500011 ScaDFX=  1.000000  1.000000  1.000000  1.000000
 FoFCou: FMM=F IPFlag=           0 FMFlag=      100000 FMFlg1=           0
         NFxFlg=           0 DoJE=T BraDBF=F KetDBF=T FulRan=T
         wScrn=  0.000000 ICntrl=     500 IOpCl=  0 I1Cent=   200000004 NGrid=           0
         NMat0=    1 NMatS0=      1 NMatT0=    0 NMatD0=    1 NMtDS0=    0 NMtDT0=    0
 Symmetry not used in FoFCou.
 Requested convergence on RMS density matrix=1.00D-08 within 128 cycles.
 Requested convergence on MAX density matrix=1.00D-06.
 Requested convergence on             energy=1.00D-06.
 No special actions if energy rises.
 Integral accuracy reduced to 1.0D-05 until final iterations.
 Initial convergence to 1.0D-05 achieved.  Increase integral accuracy.
 SCF Done:  E(RB3LYP) =  -839.980411491     A.U. after   10 cycles
            NFock= 10  Conv=0.41D-08     -V/T= 2.0085
 DoSCS=F DFT=T ScalE2(SS,OS)=  1.000000  1.000000
 Range of M.O.s used for correlation:     1   242
 NBasis=   242 NAE=    58 NBE=    58 NFC=     0 NFV=     0
 NROrb=    242 NOA=    58 NOB=    58 NVA=   184 NVB=   184
 Symmetrizing basis deriv contribution to polar:
 IMax=3 JMax=2 DiffMx= 0.00D+00
 Calling FoFJK, ICntrl=      2147 FMM=F ISym2X=0 I1Cent= 0 IOpClX= 0 NMat=1 NMatS=1 NMatT=0.
 -------------------------------------------------------------------
 Center     Atomic                   Forces (Hartrees/Bohr)
 Number     Number              X              Y              Z
 -------------------------------------------------------------------
      1        6           0.000000813   -0.000000028    0.000008716
      2        6          -0.000011819   -0.000014621   -0.000002689
      3        8           0.000047634   -0.000040889   -0.000041146
      4        6          -0.000037619   -0.000016485    0.000010328
      5        6           0.000002007    0.000000319   -0.000003244
      6        6           0.000007150   -0.000001120   -0.000001751
      7        1          -0.000002848    0.000027145   -0.000058132
      8        1          -0.000001559   -0.000002511   -0.000006830
      9        1           0.000002089   -0.000001406   -0.000001728
     10        1           0.000001743    0.000003657    0.000002950
     11        1          -0.000004167   -0.000016611    0.000005294
     12        6           0.000009606    0.000016497    0.000010156
     13        1           0.000006663    0.000007629    0.000005505
     14        1          -0.000004287    0.000006749    0.000001250
     15        8          -0.000011431    0.000034731    0.000090993
     16        1           0.000000048    0.000005736    0.000000212
     17        8           0.000020036    0.000017418    0.000021909
     18        1           0.000007750    0.000003424    0.000004208
     19        8          -0.000000711   -0.000000956   -0.000013109
     20        1          -0.000008395   -0.000003812    0.000000406
     21        8          -0.000002152    0.000003250   -0.000002743
     22        1          -0.000006120   -0.000015088   -0.000007642
     23        8          -0.000002910   -0.000016936   -0.000017661
     24        1           0.000010873   -0.000008269   -0.000000196
     25        8          -0.000009069    0.000025766    0.000086409
     26        1           0.000014563    0.000034412   -0.000072520
     27        1          -0.000018069   -0.000034042   -0.000001517
     28        8          -0.000009639   -0.000000485   -0.000018515
     29        1          -0.000001989   -0.000003213    0.000004872
     30        1           0.000001808   -0.000010261   -0.000003784
 -------------------------------------------------------------------
 Cartesian Forces:  Max     0.000090993 RMS     0.000021708
 IRC-IRC-IRC-IRC-IRC-IRC-IRC-IRC-IRC-IRC-IRC-IRC-IRC-IRC-IRC-IRC-IRC-IRC
 Pt  1 Step number   1 out of a maximum of  20
 Modified Bulirsch-Stoer Extrapolation Cycles:
    EPS =    0.000010000000000
 Maximum DWI energy   std dev =  0.000000151 at pt  1536
 Maximum DWI gradient std dev =  1.183392921 at pt     3
 WARNING: Bulirsch-Stoer Method is not Converging
 CORRECTOR INTEGRATION CONVERGENCE:
   Recorrection delta-x convergence threshold:    0.010000
   Delta-x Convergence NOT Met
 IRC-IRC-IRC-IRC-IRC-IRC-IRC-IRC-IRC-IRC-IRC-IRC-IRC-IRC-IRC-IRC-IRC-IRC
                          Input orientation:                          
 ---------------------------------------------------------------------
 Center     Atomic      Atomic             Coordinates (Angstroms)
 Number     Number       Type             X           Y           Z
 ---------------------------------------------------------------------
      1          6           0        0.107145    1.414920    1.019046
      2          6           0        0.764507   -0.898190    0.019824
      3          8           0       -1.603495   -0.065087    0.129250
      4          6           0       -0.725454   -1.227009    0.154627
      5          6           0       -1.061274    1.248492    0.044026
      6          6           0        1.212696    0.365978    0.784104
      7          1           0       -0.905423   -1.699602    1.129648
      8          1           0        1.571777    0.047393    1.768898
      9          1           0        0.936949   -0.714269   -1.051287
     10          1           0       -1.881445    1.905441    0.377337
     11          1           0        0.527305    2.423119    0.877538
     12          6           0       -0.726444    1.670910   -1.400870
     13          1           0       -1.528305    1.313070   -2.061126
     14          1           0        0.211433    1.226395   -1.739495
     15          8           0       -1.058922   -2.061802   -0.898987
     16          1           0       -1.993906   -2.330031   -0.763877
     17          8           0       -0.537945    3.080061   -1.491641
     18          1           0       -1.410279    3.500612   -1.440388
     19          8           0        1.471795   -2.036203    0.454913
     20          1           0        2.363040   -1.999137    0.040040
     21          8           0        2.300178    0.923176    0.012816
     22          1           0        2.704344    1.636992    0.531933
     23          8           0       -0.315253    1.218193    2.366696
     24          1           0       -1.130964    1.723828    2.507750
     25          8           0       -3.747662   -1.847466   -0.175122
     26          1           0       -3.938708   -2.147935    0.726487
     27          1           0       -3.319589   -0.976243   -0.055891
     28          8           0        3.846508   -1.278758   -0.771804
     29          1           0        3.767098   -1.361268   -1.734218
     30          1           0        3.495493   -0.385037   -0.568829
 ---------------------------------------------------------------------
                    Distance matrix (angstroms):
                    1          2          3          4          5
     1  C    0.000000
     2  C    2.604044   0.000000
     3  O    2.430730   2.512662   0.000000
     4  C    2.901764   1.531757   1.456593   0.000000
     5  C    1.530870   2.818209   1.423642   2.500623   0.000000
     6  C    1.541986   1.543735   2.923283   2.586557   2.549017
     7  H    3.276854   2.159314   2.039544   1.098362   3.145492
     8  H    2.139522   2.145944   3.575396   3.083383   3.369092
     9  H    3.083553   1.100382   2.875580   2.116770   3.007497
    10  H    2.146367   3.871591   2.005438   3.346365   1.102433
    11  H    1.101375   3.438464   3.360270   3.926251   2.144312
    12  C    2.572236   3.292655   2.474706   3.288998   1.542165
    13  H    3.488916   3.804866   2.588961   3.464987   2.157303
    14  H    2.766942   2.813352   2.907593   3.238000   2.191169
    15  O    4.138376   2.350128   2.310996   1.384984   3.441994
    16  H    4.649504   3.205183   2.465779   1.915535   3.785279
    17  O    3.080972   4.450549   3.695219   4.614782   2.446793
    18  H    3.563917   5.119704   3.900680   5.036215   2.719804
    19  O    3.753767   1.408770   3.667256   2.360693   4.168271
    20  H    4.207528   1.941082   4.413832   3.185610   4.719431
    21  O    2.462460   2.382374   4.028509   3.714547   3.377301
    22  H    2.651799   3.233012   4.649376   4.484236   3.816917
    23  O    1.425932   3.339576   2.883148   3.322729   2.439726
    24  H    1.960759   4.081367   3.013430   3.795928   2.510126
    25  O    5.189291   4.615063   2.804812   3.102812   4.104834
    26  H    5.398930   4.917465   3.185618   3.391183   4.503454
    27  H    4.314586   4.085543   1.951784   2.614715   3.171658
    28  O    4.944277   3.204721   5.655743   4.665168   5.580223
    29  H    5.355646   3.508085   5.830598   4.875325   5.769418
    30  H    4.152360   2.840444   5.156487   4.364482   4.879358
                    6          7          8          9         10
     6  C    0.000000
     7  H    2.978666   0.000000
     8  H    1.095562   3.097927   0.000000
     9  H    2.147471   3.020214   2.989412   0.000000
    10  H    3.479815   3.809846   4.160952   4.104533   0.000000
    11  H    2.170328   4.371853   2.743997   3.705588   2.514014
    12  C    3.199566   4.218520   4.238521   2.928851   2.133319
    13  H    4.062685   4.432293   5.087390   3.347739   2.534110
    14  H    2.848052   4.247447   3.943274   2.183158   3.053231
    15  O    3.726548   2.066425   4.299639   2.412994   4.247889
    16  H    4.466207   2.273252   4.978071   3.359047   4.387965
    17  O    3.950950   5.463642   4.927385   4.094651   2.584145
    18  H    4.653417   5.822559   5.578252   4.840052   2.463878
    19  O    2.438437   2.493939   2.465346   2.074176   5.175596
    20  H    2.733256   3.458297   2.793445   2.208080   5.777122
    21  O    1.444982   4.289774   2.093177   2.381583   4.310880
    22  H    1.975874   4.951822   2.310761   3.340464   4.596240
    23  O    2.359130   3.223680   2.299786   4.121290   2.623513
    24  H    3.210522   3.697283   3.265141   4.784070   2.266023
    25  O    5.515850   3.130913   5.972114   4.898712   4.227563
    26  H    5.732368   3.092630   6.022585   5.384041   4.558957
    27  H    4.800912   2.785130   5.320070   4.379219   3.249622
    28  O    3.473178   5.135511   3.658995   2.976960   6.653502
    29  H    3.981243   5.490779   4.367561   2.982407   6.858286
    30  H    2.757827   4.897036   3.058210   2.624368   5.920555
                   11         12         13         14         15
    11  H    0.000000
    12  C    2.707185   0.000000
    13  H    3.754130   1.098621   0.000000
    14  H    2.894960   1.091730   1.771340   0.000000
    15  O    5.078058   3.780948   3.600090   3.623878   0.000000
    16  H    5.625228   4.244967   3.895103   4.296919   0.982037
    17  O    2.679429   1.424597   2.104135   2.014715   5.202058
    18  H    3.207492   1.953715   2.276969   2.809178   5.599734
    19  O    4.577798   4.692427   5.152541   4.128981   2.870231
    20  H    4.860831   5.009030   5.525231   4.266171   3.549017
    21  O    2.478035   3.423165   4.371560   2.743245   4.585306
    22  H    2.340286   3.937916   4.974353   3.397437   5.467245
    23  O    2.092688   3.816882   4.591962   4.139840   4.687867
    24  H    2.428261   3.929853   4.604479   4.482026   5.093332
    25  O    6.133624   4.796790   4.297854   5.250745   2.792713
    26  H    6.392388   5.424745   5.055629   5.889893   3.307983
    27  H    5.217810   3.942180   3.531377   4.489348   2.645726
    28  O    5.238448   5.477970   6.104796   4.519511   4.969162
    29  H    5.624867   5.431128   5.941401   4.397589   4.947609
    30  H    4.334497   4.769063   5.508998   3.840862   4.864487
                   16         17         18         19         20
    16  H    0.000000
    17  O    5.649651   0.000000
    18  H    5.898702   0.969772   0.000000
    19  O    3.685493   5.831319   6.523407   0.000000
    20  H    4.442831   6.046487   6.832045   0.983774   0.000000
    21  O    5.442955   3.869171   4.745784   3.104770   2.923116
    22  H    6.284102   4.085307   4.928818   3.875238   3.685088
    23  O    5.020783   4.289862   4.571915   4.176068   4.789341
    24  H    5.280339   4.264525   4.338521   5.012617   5.670813
    25  O    1.911848   6.026279   5.972119   5.260732   6.116370
    26  H    2.456949   6.619458   6.557011   5.418466   6.340771
    27  H    2.022727   5.123722   5.060092   4.933740   5.774754
    28  O    5.934279   6.224218   7.136048   2.778097   1.838128
    29  H    5.921928   6.190125   7.108407   3.242877   2.350798
    30  H    5.827052   5.396953   6.318582   2.805308   2.063611
                   21         22         23         24         25
    21  O    0.000000
    22  H    0.970755   0.000000
    23  O    3.531043   3.558049   0.000000
    24  H    4.317230   4.315203   0.970025   0.000000
    25  O    6.654935   7.366801   5.257427   5.176780   0.000000
    26  H    6.990332   7.648114   5.210617   5.103613   0.969370
    27  H    5.932478   6.592594   4.439652   4.318879   0.978005
    28  O    2.802726   3.392029   5.779723   6.674295   7.638775
    29  H    3.228416   3.905695   6.335354   7.176568   7.690176
    30  H    1.865076   2.434378   5.070448   5.942790   7.399797
                   26         27         28         29         30
    26  H    0.000000
    27  H    1.538924   0.000000
    28  O    7.975583   7.208120   0.000000
    29  H    8.127322   7.292885   0.969203   0.000000
    30  H    7.749386   6.859881   0.981400   1.544321   0.000000
 Symmetry turned off by external request.
 Stoichiometry    C6H16O8
 Framework group  C1[X(C6H16O8)]
 Deg. of freedom    84
 Full point group                 C1      NOp   1
 Rotational constants (GHZ):      0.6449271      0.5037010      0.3765264
 Standard basis: 6-31G(d) (6D, 7F)
   242 basis functions,   456 primitive gaussians,   242 cartesian basis functions
    58 alpha electrons       58 beta electrons
       nuclear repulsion energy      1099.0758522424 Hartrees.
 NAtoms=   30 NActive=   30 NUniq=   30 SFac= 1.00D+00 NAtFMM=   60 NAOKFM=F Big=F
 Integral buffers will be    131072 words long.
 Raffenetti 2 integral format.
 Two-electron integral symmetry is turned off.
 One-electron integrals computed using PRISM.
 NBasis=   242 RedAO= T EigKep=  1.45D-03  NBF=   242
 NBsUse=   242 1.00D-06 EigRej= -1.00D+00 NBFU=   242
 Initial guess from the checkpoint file:  "/scratch/10502183.yak.local/Gau-14581.chk"
 B after Tr=    -0.000006   -0.000011   -0.000005
         Rot=    1.000000   -0.000172   -0.000121    0.000256 Ang=  -0.04 deg.
 ExpMin= 1.61D-01 ExpMax= 5.48D+03 ExpMxC= 8.25D+02 IAcc=1 IRadAn=         1 AccDes= 0.00D+00
 Harris functional with IExCor=  402 and IRadAn=       1 diagonalized for initial guess.
 HarFok:  IExCor=  402 AccDes= 0.00D+00 IRadAn=         1 IDoV= 1 UseB2=F ITyADJ=14
 ICtDFT=  3500011 ScaDFX=  1.000000  1.000000  1.000000  1.000000
 FoFCou: FMM=F IPFlag=           0 FMFlag=      100000 FMFlg1=           0
         NFxFlg=           0 DoJE=T BraDBF=F KetDBF=T FulRan=T
         wScrn=  0.000000 ICntrl=     500 IOpCl=  0 I1Cent=   200000004 NGrid=           0
         NMat0=    1 NMatS0=      1 NMatT0=    0 NMatD0=    1 NMtDS0=    0 NMtDT0=    0
 Symmetry not used in FoFCou.
 Requested convergence on RMS density matrix=1.00D-08 within 128 cycles.
 Requested convergence on MAX density matrix=1.00D-06.
 Requested convergence on             energy=1.00D-06.
 No special actions if energy rises.
 Integral accuracy reduced to 1.0D-05 until final iterations.
 Initial convergence to 1.0D-05 achieved.  Increase integral accuracy.
 SCF Done:  E(RB3LYP) =  -839.980411378     A.U. after    9 cycles
            NFock=  9  Conv=0.38D-08     -V/T= 2.0085
 DoSCS=F DFT=T ScalE2(SS,OS)=  1.000000  1.000000
 Range of M.O.s used for correlation:     1   242
 NBasis=   242 NAE=    58 NBE=    58 NFC=     0 NFV=     0
 NROrb=    242 NOA=    58 NOB=    58 NVA=   184 NVB=   184
 Symmetrizing basis deriv contribution to polar:
 IMax=3 JMax=2 DiffMx= 0.00D+00
 Calling FoFJK, ICntrl=      2147 FMM=F ISym2X=0 I1Cent= 0 IOpClX= 0 NMat=1 NMatS=1 NMatT=0.
 -------------------------------------------------------------------
 Center     Atomic                   Forces (Hartrees/Bohr)
 Number     Number              X              Y              Z
 -------------------------------------------------------------------
      1        6           0.000005335   -0.000005887    0.000003435
      2        6          -0.000004984   -0.000003870   -0.000002083
      3        8          -0.000004850    0.000017777   -0.000025593
      4        6           0.000002548    0.000008085    0.000004583
      5        6           0.000007599    0.000005795   -0.000000325
      6        6           0.000003676   -0.000006501   -0.000005597
      7        1          -0.000000578   -0.000002835    0.000007547
      8        1           0.000000516   -0.000001906   -0.000000654
      9        1          -0.000000320    0.000000075   -0.000001382
     10        1           0.000000846    0.000000883    0.000001911
     11        1           0.000002448   -0.000000095    0.000000965
     12        6           0.000011588    0.000019280    0.000005160
     13        1           0.000000165    0.000002030    0.000000857
     14        1           0.000000400    0.000001608    0.000000030
     15        8          -0.000017367   -0.000025469    0.000015609
     16        1          -0.000000928    0.000001023   -0.000001240
     17        8           0.000025168    0.000024564    0.000022568
     18        1           0.000002473    0.000001035    0.000002149
     19        8          -0.000007842   -0.000007791   -0.000010996
     20        1          -0.000002063   -0.000001870   -0.000001079
     21        8          -0.000001531   -0.000006323   -0.000012775
     22        1           0.000001200   -0.000002088   -0.000000247
     23        8          -0.000001137   -0.000026666    0.000002141
     24        1           0.000002534   -0.000001567    0.000001483
     25        8          -0.000012522    0.000019364    0.000000325
     26        1          -0.000003558    0.000000175    0.000009592
     27        1           0.000001253    0.000006948    0.000000489
     28        8          -0.000008033   -0.000012070   -0.000014200
     29        1          -0.000001420   -0.000001992   -0.000001708
     30        1          -0.000000618   -0.000001713   -0.000000965
 -------------------------------------------------------------------
 Cartesian Forces:  Max     0.000026666 RMS     0.000008986
 IRC-IRC-IRC-IRC-IRC-IRC-IRC-IRC-IRC-IRC-IRC-IRC-IRC-IRC-IRC-IRC-IRC-IRC
 Error in corrector energy =           0.0000001359
 Magnitude of corrector gradient =     0.0000831304
 Magnitude of analytic gradient =      0.0000852492
 Magnitude of difference =             0.0000287504
 Angle between gradients (degrees)=   19.6102
 Pt  1 Step number   2 out of a maximum of  20
 Modified Bulirsch-Stoer Extrapolation Cycles:
    EPS =    0.000010000000000
 Maximum DWI energy   std dev =  0.000000168 at pt     2
 Maximum DWI gradient std dev =  1.051971149 at pt     3
 WARNING: Bulirsch-Stoer Method is not Converging
 CORRECTOR INTEGRATION CONVERGENCE:
   Recorrection delta-x convergence threshold:    0.010000
   Delta-x Convergence NOT Met
 IRC-IRC-IRC-IRC-IRC-IRC-IRC-IRC-IRC-IRC-IRC-IRC-IRC-IRC-IRC-IRC-IRC-IRC
                          Input orientation:                          
 ---------------------------------------------------------------------
 Center     Atomic      Atomic             Coordinates (Angstroms)
 Number     Number       Type             X           Y           Z
 ---------------------------------------------------------------------
      1          6           0        0.107599    1.414734    1.019253
      2          6           0        0.764307   -0.898396    0.019604
      3          8           0       -1.603513   -0.064777    0.129519
      4          6           0       -0.725725   -1.226905    0.154405
      5          6           0       -1.060998    1.248687    0.044374
      6          6           0        1.212841    0.365512    0.784104
      7          1           0       -0.905725   -1.699796    1.129284
      8          1           0        1.571845    0.046637    1.768832
      9          1           0        0.936751   -0.714315   -1.051479
     10          1           0       -1.880967    1.905777    0.377901
     11          1           0        0.528029    2.422822    0.877750
     12          6           0       -0.726301    1.671209   -1.400521
     13          1           0       -1.528354    1.313638   -2.060690
     14          1           0        0.211416    1.226518   -1.739358
     15          8           0       -1.059456   -2.061285   -0.899475
     16          1           0       -1.994497   -2.329331   -0.764389
     17          8           0       -0.537482    3.080324   -1.491158
     18          1           0       -1.409698    3.501083   -1.439607
     19          8           0        1.471346   -2.036658    0.454454
     20          1           0        2.362557   -1.999771    0.039496
     21          8           0        2.300473    0.922548    0.012906
     22          1           0        2.704998    1.635987    0.532256
     23          8           0       -0.314688    1.218040    2.366945
     24          1           0       -1.130109    1.724083    2.508202
     25          8           0       -3.748064   -1.846618   -0.175226
     26          1           0       -3.939151   -2.147292    0.726313
     27          1           0       -3.319830   -0.975500   -0.055764
     28          8           0        3.846142   -1.279628   -0.772354
     29          1           0        3.766549   -1.361995   -1.734766
     30          1           0        3.495325   -0.385872   -0.569193
 ---------------------------------------------------------------------
                    Distance matrix (angstroms):
                    1          2          3          4          5
     1  C    0.000000
     2  C    2.604061   0.000000
     3  O    2.430737   2.512682   0.000000
     4  C    2.901836   1.531758   1.456597   0.000000
     5  C    1.530875   2.818211   1.423643   2.500614   0.000000
     6  C    1.541987   1.543731   2.923265   2.586571   2.549028
     7  H    3.277077   2.159314   2.039541   1.098370   3.145583
     8  H    2.139527   2.145927   3.575284   3.083360   3.369056
     9  H    3.083549   1.100383   2.875691   2.116774   3.007536
    10  H    2.146357   3.871594   2.005432   3.346376   1.102433
    11  H    1.101374   3.438420   3.360278   3.926275   2.144322
    12  C    2.572250   3.292649   2.474706   3.288899   1.542163
    13  H    3.488927   3.804867   2.588956   3.464855   2.157298
    14  H    2.766973   2.813343   2.907596   3.237878   2.191171
    15  O    4.138386   2.350133   2.311032   1.385001   3.441913
    16  H    4.649539   3.205186   2.465795   1.915544   3.785199
    17  O    3.080986   4.450535   3.695223   4.614708   2.446798
    18  H    3.563851   5.119669   3.900651   5.036126   2.719757
    19  O    3.753787   1.408772   3.667241   2.360688   4.168264
    20  H    4.207566   1.941089   4.413844   3.185594   4.719452
    21  O    2.462454   2.382370   4.028587   3.714572   3.377402
    22  H    2.651905   3.232986   4.649523   4.484282   3.817166
    23  O    1.425935   3.339692   2.883186   3.322957   2.439724
    24  H    1.960762   4.081584   3.013679   3.796343   2.510225
    25  O    5.189348   4.615038   2.804804   3.102779   4.104810
    26  H    5.399076   4.917488   3.185630   3.391209   4.503496
    27  H    4.314643   4.085559   1.951791   2.614719   3.171649
    28  O    4.944304   3.204722   5.655791   4.665150   5.580272
    29  H    5.355629   3.508019   5.830600   4.875217   5.769420
    30  H    4.152352   2.840391   5.156495   4.364423   4.879377
                    6          7          8          9         10
     6  C    0.000000
     7  H    2.978753   0.000000
     8  H    1.095561   3.097967   0.000000
     9  H    2.147467   3.020202   2.989406   0.000000
    10  H    3.479809   3.809965   4.160890   4.104577   0.000000
    11  H    2.170314   4.372059   2.744054   3.705484   2.514050
    12  C    3.199641   4.218504   4.238573   2.928873   2.133322
    13  H    4.062751   4.432199   5.087412   3.347812   2.534106
    14  H    2.848165   4.247402   3.943385   2.183144   3.053236
    15  O    3.726542   2.066439   4.299644   2.412939   4.247841
    16  H    4.466209   2.273266   4.978074   3.359004   4.387922
    17  O    3.951031   5.463686   4.927479   4.094626   2.584162
    18  H    4.653430   5.822571   5.578250   4.840046   2.463825
    19  O    2.438424   2.493860   2.465321   2.074179   5.175583
    20  H    2.733286   3.458220   2.793495   2.208064   5.777138
    21  O    1.444984   4.289836   2.093178   2.381590   4.310964
    22  H    1.975872   4.951890   2.310669   3.340485   4.596487
    23  O    2.359139   3.224112   2.299768   4.121374   2.623453
    24  H    3.210553   3.697933   3.265126   4.784248   2.266050
    25  O    5.515833   3.130846   5.972035   4.898716   4.227585
    26  H    5.732411   3.092622   6.022561   5.384086   4.559043
    27  H    4.800916   2.785111   5.319999   4.379286   3.249638
    28  O    3.473229   5.135466   3.659102   2.976919   6.653546
    29  H    3.981257   5.490632   4.367627   2.982302   6.858290
    30  H    2.757847   4.896985   3.058300   2.624266   5.920571
                   11         12         13         14         15
    11  H    0.000000
    12  C    2.707173   0.000000
    13  H    3.754122   1.098622   0.000000
    14  H    2.894934   1.091731   1.771340   0.000000
    15  O    5.077977   3.780681   3.599776   3.623557   0.000000
    16  H    5.625186   4.244679   3.894728   4.296589   0.982037
    17  O    2.679430   1.424595   2.104132   2.014708   5.201796
    18  H    3.207426   1.953714   2.277002   2.809183   5.599495
    19  O    4.577771   4.692426   5.152537   4.128989   2.870312
    20  H    4.860812   5.009070   5.525274   4.266224   3.549031
[...]
 ICtDFT=  3500011 ScaDFX=  1.000000  1.000000  1.000000  1.000000
 FoFCou: FMM=F IPFlag=           0 FMFlag=      100000 FMFlg1=           0
         NFxFlg=           0 DoJE=T BraDBF=F KetDBF=T FulRan=T
         wScrn=  0.000000 ICntrl=     500 IOpCl=  0 I1Cent=   200000004 NGrid=           0
         NMat0=    1 NMatS0=      1 NMatT0=    0 NMatD0=    1 NMtDS0=    0 NMtDT0=    0
 Symmetry not used in FoFCou.
 Requested convergence on RMS density matrix=1.00D-08 within 128 cycles.
 Requested convergence on MAX density matrix=1.00D-06.
 Requested convergence on             energy=1.00D-06.
 No special actions if energy rises.
 Integral accuracy reduced to 1.0D-05 until final iterations.
 Initial convergence to 1.0D-05 achieved.  Increase integral accuracy.
 SCF Done:  E(RB3LYP) =  -839.980411552     A.U. after    8 cycles
            NFock=  8  Conv=0.67D-08     -V/T= 2.0085
 DoSCS=F DFT=T ScalE2(SS,OS)=  1.000000  1.000000
 Range of M.O.s used for correlation:     1   242
 NBasis=   242 NAE=    58 NBE=    58 NFC=     0 NFV=     0
 NROrb=    242 NOA=    58 NOB=    58 NVA=   184 NVB=   184
 Symmetrizing basis deriv contribution to polar:
 IMax=3 JMax=2 DiffMx= 0.00D+00
 Calling FoFJK, ICntrl=      2147 FMM=F ISym2X=0 I1Cent= 0 IOpClX= 0 NMat=1 NMatS=1 NMatT=0.
 -------------------------------------------------------------------
 Center     Atomic                   Forces (Hartrees/Bohr)
 Number     Number              X              Y              Z
 -------------------------------------------------------------------
      1        6           0.000005147   -0.000006734    0.000004188
      2        6          -0.000004311   -0.000004196   -0.000004674
      3        8           0.000000900    0.000010360   -0.000022433
      4        6          -0.000004849    0.000002996    0.000002770
      5        6           0.000006437    0.000006610    0.000000446
      6        6           0.000002744   -0.000006935   -0.000004388
      7        1          -0.000000498    0.000001582    0.000000872
      8        1           0.000000618   -0.000000863   -0.000000601
      9        1          -0.000000766   -0.000000293   -0.000000458
     10        1           0.000000731    0.000000602    0.000000427
     11        1           0.000000650   -0.000000525    0.000001285
     12        6           0.000011198    0.000018321    0.000004952
     13        1           0.000000860    0.000002392    0.000000051
     14        1           0.000000796    0.000001361    0.000000249
     15        8          -0.000014180   -0.000013941    0.000021282
     16        1          -0.000001048   -0.000000244    0.000001694
     17        8           0.000025054    0.000024018    0.000022847
     18        1           0.000001776    0.000001900    0.000001866
     19        8          -0.000008963   -0.000009361   -0.000011637
     20        1          -0.000000596   -0.000000688   -0.000000836
     21        8          -0.000000735   -0.000008769   -0.000011415
     22        1           0.000000280   -0.000000698   -0.000000761
     23        8           0.000003254   -0.000026059    0.000002033
     24        1           0.000000325   -0.000001536    0.000000475
     25        8          -0.000011027    0.000026011    0.000004027
     26        1          -0.000002437    0.000000936    0.000006189
     27        1          -0.000001167   -0.000000223   -0.000000974
     28        8          -0.000009021   -0.000013996   -0.000014992
     29        1          -0.000000798   -0.000001105   -0.000001415
     30        1          -0.000000376   -0.000000923   -0.000001071
 -------------------------------------------------------------------
 Cartesian Forces:  Max     0.000026059 RMS     0.000008585
 IRC-IRC-IRC-IRC-IRC-IRC-IRC-IRC-IRC-IRC-IRC-IRC-IRC-IRC-IRC-IRC-IRC-IRC
 Error in corrector energy =          -0.0000000000
 Magnitude of corrector gradient =     0.0000814398
 Magnitude of analytic gradient =      0.0000814398
 Magnitude of difference =             0.0000000000
 Angle between gradients (degrees)=    0.0000
 Pt  1 Step number  19 out of a maximum of  20
 Modified Bulirsch-Stoer Extrapolation Cycles:
    EPS =    0.000010000000000
 Maximum DWI energy   std dev =  0.000000213 at pt     2
 Maximum DWI gradient std dev =  1.031318342 at pt     3
 WARNING: Bulirsch-Stoer Method is not Converging
 CORRECTOR INTEGRATION CONVERGENCE:
   Recorrection delta-x convergence threshold:    0.010000
   Delta-x Convergence NOT Met
 IRC-IRC-IRC-IRC-IRC-IRC-IRC-IRC-IRC-IRC-IRC-IRC-IRC-IRC-IRC-IRC-IRC-IRC
                          Input orientation:                          
 ---------------------------------------------------------------------
 Center     Atomic      Atomic             Coordinates (Angstroms)
 Number     Number       Type             X           Y           Z
 ---------------------------------------------------------------------
      1          6           0        0.107637    1.414735    1.019252
      2          6           0        0.764306   -0.898419    0.019584
      3          8           0       -1.603526   -0.064816    0.129740
      4          6           0       -0.725736   -1.226941    0.154291
      5          6           0       -1.061008    1.248635    0.044439
      6          6           0        1.212834    0.365449    0.784152
      7          1           0       -0.905732   -1.700088    1.129049
      8          1           0        1.571756    0.046533    1.768897
      9          1           0        0.936810   -0.714292   -1.051481
     10          1           0       -1.880960    1.905745    0.377963
     11          1           0        0.528104    2.422791    0.877631
     12          6           0       -0.726379    1.671063   -1.400497
     13          1           0       -1.528455    1.313437   -2.060609
     14          1           0        0.211327    1.226363   -1.739353
     15          8           0       -1.059459   -2.061070   -0.899805
     16          1           0       -1.994510   -2.329120   -0.764806
     17          8           0       -0.537584    3.080177   -1.491222
     18          1           0       -1.409813    3.500915   -1.439734
     19          8           0        1.471314   -2.036712    0.454411
     20          1           0        2.362523   -1.999848    0.039447
     21          8           0        2.300548    0.922452    0.013041
     22          1           0        2.705112    1.635814    0.532470
     23          8           0       -0.314604    1.218186    2.366981
     24          1           0       -1.129925    1.724385    2.508260
     25          8           0       -3.748048   -1.846643   -0.175307
     26          1           0       -3.938993   -2.147708    0.726128
     27          1           0       -3.319832   -0.975553   -0.055541
     28          8           0        3.846131   -1.279720   -0.772369
     29          1           0        3.766533   -1.361990   -1.734789
     30          1           0        3.495348   -0.385970   -0.569121
 ---------------------------------------------------------------------
                    Distance matrix (angstroms):
                    1          2          3          4          5
     1  C    0.000000
     2  C    2.604080   0.000000
     3  O    2.430717   2.512699   0.000000
     4  C    2.901917   1.531762   1.456589   0.000000
     5  C    1.530876   2.818196   1.423642   2.500590   0.000000
     6  C    1.541991   1.543730   2.923229   2.586597   2.549030
     7  H    3.277362   2.159308   2.039522   1.098372   3.145705
     8  H    2.139529   2.145927   3.575143   3.083368   3.369013
     9  H    3.083540   1.100382   2.875832   2.116778   3.007558
    10  H    2.146360   3.871590   2.005417   3.346386   1.102431
    11  H    1.101374   3.438382   3.360265   3.926306   2.144325
    12  C    2.572251   3.292570   2.474731   3.288738   1.542162
    13  H    3.488926   3.804769   2.588986   3.464630   2.157298
    14  H    2.766973   2.813245   2.907636   3.237696   2.191175
    15  O    4.138371   2.350139   2.311060   1.385013   3.441765
    16  H    4.649553   3.205189   2.465796   1.915549   3.785054
    17  O    3.080988   4.450469   3.695231   4.614583   2.446788
    18  H    3.563904   5.119623   3.900668   5.036020   2.719779
    19  O    3.753818   1.408775   3.667210   2.360684   4.168242
    20  H    4.207602   1.941092   4.413848   3.185580   4.719453
    21  O    2.462451   2.382364   4.028662   3.714598   3.377491
    22  H    2.651926   3.232974   4.649592   4.484317   3.817296
    23  O    1.425935   3.339810   2.883169   3.323202   2.439722
    24  H    1.960762   4.081754   3.013784   3.796691   2.510279
    25  O    5.189399   4.615024   2.804805   3.102746   4.104779
    26  H    5.399272   4.917413   3.185674   3.391141   4.503626
    27  H    4.314650   4.085557   1.951788   2.614682   3.171639
    28  O    4.944324   3.204720   5.655843   4.665132   5.580302
    29  H    5.355601   3.508004   5.830666   4.875175   5.769417
    30  H    4.152355   2.840382   5.156556   4.364413   4.879423
                    6          7          8          9         10
     6  C    0.000000
     7  H    2.978879   0.000000
     8  H    1.095561   3.098070   0.000000
     9  H    2.147458   3.020176   2.989405   0.000000
    10  H    3.479808   3.810149   4.160843   4.104599   0.000000
    11  H    2.170311   4.372325   2.744114   3.705375   2.514079
    12  C    3.199667   4.218464   4.238582   2.928811   2.133320
    13  H    4.062759   4.432047   5.087383   3.347769   2.534112
    14  H    2.848204   4.247313   3.943422   2.183034   3.053237
    15  O    3.726530   2.066443   4.299681   2.412863   4.247726
    16  H    4.466210   2.273280   4.978115   3.358942   4.387813
    17  O    3.951080   5.463724   4.927543   4.094534   2.584144
    18  H    4.653503   5.822643   5.578334   4.839974   2.463852
    19  O    2.438425   2.493753   2.465334   2.074174   5.175573
    20  H    2.733313   3.458118   2.793562   2.208039   5.777145
    21  O    1.444987   4.289922   2.093180   2.381580   4.311038
    22  H    1.975871   4.952004   2.310641   3.340478   4.596607
    23  O    2.359147   3.224629   2.299745   4.121454   2.623433
    24  H    3.210572   3.698581   3.265106   4.784380   2.266078
    25  O    5.515819   3.130748   5.971964   4.898754   4.227593
    26  H    5.732421   3.092472   6.022493   5.384053   4.559299
    27  H    4.800879   2.784975   5.319856   4.379401   3.249640
    28  O    3.473268   5.135398   3.659203   2.976871   6.653573
    29  H    3.981266   5.490531   4.367699   2.982240   6.858279
    30  H    2.757870   4.896958   3.058364   2.624230   5.920610
                   11         12         13         14         15
    11  H    0.000000
    12  C    2.707155   0.000000
    13  H    3.754112   1.098622   0.000000
    14  H    2.894891   1.091731   1.771335   0.000000
    15  O    5.077858   3.780272   3.599266   3.623114   0.000000
    16  H    5.625108   4.244258   3.894167   4.296152   0.982037
    17  O    2.679424   1.424596   2.104138   2.014712   5.201398
    18  H    3.207500   1.953709   2.276976   2.809173   5.599102
    19  O    4.577764   4.692349   5.152421   4.128901   2.870420
    20  H    4.860801   5.009027   5.525197   4.266170   3.549071
    21  O    2.477921   3.423566   4.371974   2.743737   4.585231
    22  H    2.340477   3.938622   4.975045   3.398205   5.467208
    23  O    2.092700   3.816877   4.591956   4.139885   4.688306
    24  H    2.428123   3.929895   4.604592   4.482098   5.094069
    25  O    6.133695   4.796439   4.297332   5.250357   2.792738
    26  H    6.392759   5.424614   5.055307   5.889661   3.308002
    27  H    5.217870   3.942015   3.531120   4.489181   2.645829
    28  O    5.238358   5.478095   6.104933   4.519658   4.969061
    29  H    5.624653   5.431153   5.941461   4.397622   4.947333
    30  H    4.334370   4.769230   5.509185   3.841074   4.864317
                   16         17         18         19         20
    16  H    0.000000
    17  O    5.648965   0.000000
    18  H    5.898026   0.969771   0.000000
    19  O    3.685639   5.831270   6.523342   0.000000
    20  H    4.442857   6.046505   6.832049   0.983772   0.000000
    21  O    5.442913   3.869571   4.746136   3.104688   2.923077
    22  H    6.284113   4.086146   4.929584   3.875022   3.684899
    23  O    5.021310   4.289809   4.571806   4.176336   4.789589
    24  H    5.281228   4.264375   4.338324   5.013041   5.671168
    25  O    1.911854   6.025965   5.971808   5.260648   6.116262
    26  H    2.456991   6.619441   6.557031   5.418263   6.340544
    27  H    2.022790   5.123576   5.059934   4.933680   5.774718
    28  O    5.934172   6.224340   7.136161   2.778090   1.838131
    29  H    5.921640   6.190120   7.108408   3.242819   2.350748
    30  H    5.826892   5.397127   6.318738   2.805224   2.063553
                   21         22         23         24         25
    21  O    0.000000
    22  H    0.970754   0.000000
    23  O    3.530937   3.557883   0.000000
    24  H    4.317101   4.314985   0.970023   0.000000
    25  O    6.654989   7.366935   5.257845   5.177677   0.000000
    26  H    6.990441   7.648312   5.211318   5.104896   0.969374
    27  H    5.932606   6.592795   4.439876   4.319541   0.978013
    28  O    2.802723   3.391882   5.779859   6.674452   7.638681
    29  H    3.228420   3.905625   6.335416   7.176661   7.689980
    30  H    1.865054   2.434253   5.070477   5.942812   7.399691
                   26         27         28         29         30
    26  H    0.000000
    27  H    1.538933   0.000000
    28  O    7.975404   7.208148   0.000000
    29  H    8.127028   7.292858   0.969203   0.000000
    30  H    7.749246   6.859887   0.981401   1.544324   0.000000
 Symmetry turned off by external request.
 Stoichiometry    C6H16O8
 Framework group  C1[X(C6H16O8)]
 Deg. of freedom    84
 Full point group                 C1      NOp   1
 Rotational constants (GHZ):      0.6449288      0.5036820      0.3765329
 Standard basis: 6-31G(d) (6D, 7F)
   242 basis functions,   456 primitive gaussians,   242 cartesian basis functions
    58 alpha electrons       58 beta electrons
       nuclear repulsion energy      1099.0710939365 Hartrees.
 NAtoms=   30 NActive=   30 NUniq=   30 SFac= 1.00D+00 NAtFMM=   60 NAOKFM=F Big=F
 Integral buffers will be    131072 words long.
 Raffenetti 2 integral format.
 Two-electron integral symmetry is turned off.
 One-electron integrals computed using PRISM.
 NBasis=   242 RedAO= T EigKep=  1.45D-03  NBF=   242
 NBsUse=   242 1.00D-06 EigRej= -1.00D+00 NBFU=   242
 Initial guess from the checkpoint file:  "/scratch/10502183.yak.local/Gau-14581.chk"
 B after Tr=     0.000000   -0.000000   -0.000000
         Rot=    1.000000    0.000000    0.000000   -0.000000 Ang=   0.00 deg.
 ExpMin= 1.61D-01 ExpMax= 5.48D+03 ExpMxC= 8.25D+02 IAcc=1 IRadAn=         1 AccDes= 0.00D+00
 Harris functional with IExCor=  402 and IRadAn=       1 diagonalized for initial guess.
 HarFok:  IExCor=  402 AccDes= 0.00D+00 IRadAn=         1 IDoV= 1 UseB2=F ITyADJ=14
 ICtDFT=  3500011 ScaDFX=  1.000000  1.000000  1.000000  1.000000
 FoFCou: FMM=F IPFlag=           0 FMFlag=      100000 FMFlg1=           0
         NFxFlg=           0 DoJE=T BraDBF=F KetDBF=T FulRan=T
         wScrn=  0.000000 ICntrl=     500 IOpCl=  0 I1Cent=   200000004 NGrid=           0
         NMat0=    1 NMatS0=      1 NMatT0=    0 NMatD0=    1 NMtDS0=    0 NMtDT0=    0
 Symmetry not used in FoFCou.
 Requested convergence on RMS density matrix=1.00D-08 within 128 cycles.
 Requested convergence on MAX density matrix=1.00D-06.
 Requested convergence on             energy=1.00D-06.
 No special actions if energy rises.
 Integral accuracy reduced to 1.0D-05 until final iterations.
 Initial convergence to 1.0D-05 achieved.  Increase integral accuracy.
 SCF Done:  E(RB3LYP) =  -839.980411552     A.U. after    8 cycles
            NFock=  8  Conv=0.67D-08     -V/T= 2.0085
 DoSCS=F DFT=T ScalE2(SS,OS)=  1.000000  1.000000
 Range of M.O.s used for correlation:     1   242
 NBasis=   242 NAE=    58 NBE=    58 NFC=     0 NFV=     0
 NROrb=    242 NOA=    58 NOB=    58 NVA=   184 NVB=   184
 Symmetrizing basis deriv contribution to polar:
 IMax=3 JMax=2 DiffMx= 0.00D+00
 Calling FoFJK, ICntrl=      2147 FMM=F ISym2X=0 I1Cent= 0 IOpClX= 0 NMat=1 NMatS=1 NMatT=0.
 -------------------------------------------------------------------
 Center     Atomic                   Forces (Hartrees/Bohr)
 Number     Number              X              Y              Z
 -------------------------------------------------------------------
      1        6           0.000005147   -0.000006734    0.000004188
      2        6          -0.000004311   -0.000004196   -0.000004674
      3        8           0.000000900    0.000010360   -0.000022433
      4        6          -0.000004849    0.000002996    0.000002770
      5        6           0.000006437    0.000006610    0.000000446
      6        6           0.000002744   -0.000006935   -0.000004388
      7        1          -0.000000498    0.000001582    0.000000872
      8        1           0.000000618   -0.000000863   -0.000000601
      9        1          -0.000000766   -0.000000293   -0.000000458
     10        1           0.000000731    0.000000602    0.000000427
     11        1           0.000000650   -0.000000525    0.000001285
     12        6           0.000011198    0.000018321    0.000004952
     13        1           0.000000860    0.000002392    0.000000051
     14        1           0.000000796    0.000001361    0.000000249
     15        8          -0.000014180   -0.000013941    0.000021282
     16        1          -0.000001048   -0.000000244    0.000001694
     17        8           0.000025054    0.000024018    0.000022847
     18        1           0.000001776    0.000001900    0.000001866
     19        8          -0.000008963   -0.000009361   -0.000011637
     20        1          -0.000000596   -0.000000688   -0.000000836
     21        8          -0.000000735   -0.000008769   -0.000011415
     22        1           0.000000280   -0.000000698   -0.000000761
     23        8           0.000003254   -0.000026059    0.000002033
     24        1           0.000000325   -0.000001536    0.000000475
     25        8          -0.000011027    0.000026011    0.000004027
     26        1          -0.000002437    0.000000936    0.000006189
     27        1          -0.000001167   -0.000000223   -0.000000974
     28        8          -0.000009021   -0.000013996   -0.000014992
     29        1          -0.000000798   -0.000001105   -0.000001415
     30        1          -0.000000376   -0.000000923   -0.000001071
 -------------------------------------------------------------------
 Cartesian Forces:  Max     0.000026059 RMS     0.000008584
 IRC-IRC-IRC-IRC-IRC-IRC-IRC-IRC-IRC-IRC-IRC-IRC-IRC-IRC-IRC-IRC-IRC-IRC
 Error in corrector energy =           0.0000000000
 Magnitude of corrector gradient =     0.0000814397
 Magnitude of analytic gradient =      0.0000814396
 Magnitude of difference =             0.0000000002
 Angle between gradients (degrees)=    0.0001
 Pt  1 Step number  20 out of a maximum of  20
 Modified Bulirsch-Stoer Extrapolation Cycles:
    EPS =    0.000010000000000
 Maximum DWI energy   std dev =  0.000000213 at pt     2
 Maximum DWI gradient std dev =  1.031320062 at pt     3
 WARNING: Bulirsch-Stoer Method is not Converging
 CORRECTOR INTEGRATION CONVERGENCE:
   Recorrection delta-x convergence threshold:    0.010000
   Delta-x Convergence NOT Met
 Maximum number of corrector steps exceded.
 Error termination via Lnk1e in /global/software/gaussian/g09.e01/l123.exe at Tue Jan 31 15:41:08 2017.
 Job cpu time:       0 days  4 hours 23 minutes 16.4 seconds.
 File lengths (MBytes):  RWF=    220 Int=      0 D2E=      0 Chk=      8 Scr=      1
