 Entering Gaussian System, Link 0=g09
 Initial command:
 /global/software/gaussian/g09.d01/l1.exe "/home/iawad/Gau-25950.inp" -scrdir="/home/iawad/"
 Entering Link 1 = /global/software/gaussian/g09.d01/l1.exe PID=     25953.
  
 Copyright (c) 1988,1990,1992,1993,1995,1998,2003,2009,2013,
            Gaussian, Inc.  All Rights Reserved.
  
 This is part of the Gaussian(R) 09 program.  It is based on
 the Gaussian(R) 03 system (copyright 2003, Gaussian, Inc.),
 the Gaussian(R) 98 system (copyright 1998, Gaussian, Inc.),
 the Gaussian(R) 94 system (copyright 1995, Gaussian, Inc.),
 the Gaussian 92(TM) system (copyright 1992, Gaussian, Inc.),
 the Gaussian 90(TM) system (copyright 1990, Gaussian, Inc.),
 the Gaussian 88(TM) system (copyright 1988, Gaussian, Inc.),
 the Gaussian 86(TM) system (copyright 1986, Carnegie Mellon
 University), and the Gaussian 82(TM) system (copyright 1983,
 Carnegie Mellon University). Gaussian is a federally registered
 trademark of Gaussian, Inc.
  
 This software contains proprietary and confidential information,
 including trade secrets, belonging to Gaussian, Inc.
  
 This software is provided under written license and may be
 used, copied, transmitted, or stored only in accord with that
 written license.
  
 The following legend is applicable only to US Government
 contracts under FAR:
  
                    RESTRICTED RIGHTS LEGEND
  
 Use, reproduction and disclosure by the US Government is
 subject to restrictions as set forth in subparagraphs (a)
 and (c) of the Commercial Computer Software - Restricted
 Rights clause in FAR 52.227-19.
  
 Gaussian, Inc.
 340 Quinnipiac St., Bldg. 40, Wallingford CT 06492
  
  
 ---------------------------------------------------------------
 Warning -- This program may not be used in any manner that
 competes with the business of Gaussian, Inc. or will provide
 assistance to any competitor of Gaussian, Inc.  The licensee
 of this program is prohibited from giving any competitor of
 Gaussian, Inc. access to this program.  By using this program,
 the user acknowledges that Gaussian, Inc. is engaged in the
 business of creating and licensing software in the field of
 computational chemistry and represents and warrants to the
 licensee that it is not a competitor of Gaussian, Inc. and that
 it will not use this program in any manner prohibited above.
 ---------------------------------------------------------------
  

 Cite this work as:
 Gaussian 09, Revision D.01,
 M. J. Frisch, G. W. Trucks, H. B. Schlegel, G. E. Scuseria, 
 M. A. Robb, J. R. Cheeseman, G. Scalmani, V. Barone, B. Mennucci, 
 G. A. Petersson, H. Nakatsuji, M. Caricato, X. Li, H. P. Hratchian, 
 A. F. Izmaylov, J. Bloino, G. Zheng, J. L. Sonnenberg, M. Hada, 
 M. Ehara, K. Toyota, R. Fukuda, J. Hasegawa, M. Ishida, T. Nakajima, 
 Y. Honda, O. Kitao, H. Nakai, T. Vreven, J. A. Montgomery, Jr., 
 J. E. Peralta, F. Ogliaro, M. Bearpark, J. J. Heyd, E. Brothers, 
 K. N. Kudin, V. N. Staroverov, T. Keith, R. Kobayashi, J. Normand, 
 K. Raghavachari, A. Rendell, J. C. Burant, S. S. Iyengar, J. Tomasi, 
 M. Cossi, N. Rega, J. M. Millam, M. Klene, J. E. Knox, J. B. Cross, 
 V. Bakken, C. Adamo, J. Jaramillo, R. Gomperts, R. E. Stratmann, 
 O. Yazyev, A. J. Austin, R. Cammi, C. Pomelli, J. W. Ochterski, 
 R. L. Martin, K. Morokuma, V. G. Zakrzewski, G. A. Voth, 
 P. Salvador, J. J. Dannenberg, S. Dapprich, A. D. Daniels, 
 O. Farkas, J. B. Foresman, J. V. Ortiz, J. Cioslowski, 
 and D. J. Fox, Gaussian, Inc., Wallingford CT, 2013.
 
 ******************************************
 Gaussian 09:  ES64L-G09RevD.01 24-Apr-2013
                17-Mar-2017 
 ******************************************
 %nprocshared=10
 Will use up to   10 processors via shared memory.
 ---------------------------------
 # opt=modredundant b3lyp/6-31G(d)
 ---------------------------------
 1/14=-1,18=120,19=15,26=3,38=1/1,3;
 2/9=110,12=2,17=6,18=5,40=1/2;
 3/5=1,6=6,7=1,11=2,16=1,25=1,30=1,71=1,74=-5/1,2,3;
 4//1;
 5/5=2,38=5/2;
 6/7=2,8=2,9=2,10=2,28=1/1;
 7//1,2,3,16;
 1/14=-1,18=20,19=15,26=3/3(2);
 2/9=110/2;
 99//99;
 2/9=110/2;
 3/5=1,6=6,7=1,11=2,16=1,25=1,30=1,71=1,74=-5/1,2,3;
 4/5=5,16=3,69=1/1;
 5/5=2,38=5/2;
 7//1,2,3,16;
 1/14=-1,18=20,19=15,26=3/3(-5);
 2/9=110/2;
 6/7=2,8=2,9=2,10=2,19=2,28=1/1;
 99/9=1/99;
 ------------------------
 Glo_A_ch2_GS_b3lyp_631Gd
 ------------------------
 Symbolic Z-matrix:
 Charge =  0 Multiplicity = 1
 C                    -0.6877   -1.2145    0.20718 
 O                    -0.12648  -0.96856  -1.07134 
 C                    -1.24917   0.07065   0.8336 
 C                    -0.19248   1.18808   0.86991 
 C                     0.48864   1.33861  -0.5037 
 C                     0.94578  -0.0076   -1.11534 
 H                    -1.58921  -0.16004   1.85811 
 H                     1.36345   1.98842  -0.38663 
 H                     1.07347   0.19828  -2.18407 
 H                    -0.69412   2.13782   1.09253 
 O                    -2.3382    0.54421   0.04728 
 O                     0.81724   0.92705   1.85332 
 O                    -0.39784   2.00677  -1.38729 
 H                     0.39235   0.83623   2.72094 
 H                    -2.77119  -0.26373  -0.28992 
 H                    -1.2589    1.55388  -1.30016 
 C                     2.28374  -0.5904   -0.63154 
 O                     2.32172  -1.07587   0.69722 
 H                     3.06239   0.17297  -0.8101 
 H                     2.51951  -1.44812  -1.27008 
 H                     2.02763  -0.35188   1.2835 
 H                     0.05683  -1.68279   0.86048 
 O                    -1.80034  -2.05384  -0.0007 
 H                    -1.52381  -2.72823  -0.64307 
 
 The following ModRedundant input section has been read:
 D       4       5       6       2 S  19 -5.502                                
 

 GradGradGradGradGradGradGradGradGradGradGradGradGradGradGradGradGradGrad
 Berny optimization.
 Initialization pass.
                           ----------------------------
                           !    Initial Parameters    !
                           ! (Angstroms and Degrees)  !
 --------------------------                            --------------------------
 ! Name  Definition              Value          Derivative Info.                !
 --------------------------------------------------------------------------------
 ! R1    R(1,2)                  1.4178         estimate D2E/DX2                !
 ! R2    R(1,3)                  1.536          estimate D2E/DX2                !
 ! R3    R(1,22)                 1.0956         estimate D2E/DX2                !
 ! R4    R(1,23)                 1.4091         estimate D2E/DX2                !
 ! R5    R(2,6)                  1.4405         estimate D2E/DX2                !
 ! R6    R(3,4)                  1.5384         estimate D2E/DX2                !
 ! R7    R(3,7)                  1.1038         estimate D2E/DX2                !
 ! R8    R(3,11)                 1.4243         estimate D2E/DX2                !
 ! R9    R(4,5)                  1.5406         estimate D2E/DX2                !
 ! R10   R(4,10)                 1.0969         estimate D2E/DX2                !
 ! R11   R(4,12)                 1.4334         estimate D2E/DX2                !
 ! R12   R(5,6)                  1.5477         estimate D2E/DX2                !
 ! R13   R(5,8)                  1.096          estimate D2E/DX2                !
 ! R14   R(5,13)                 1.4188         estimate D2E/DX2                !
 ! R15   R(6,9)                  1.0958         estimate D2E/DX2                !
 ! R16   R(6,17)                 1.5375         estimate D2E/DX2                !
 ! R17   R(11,15)                0.9767         estimate D2E/DX2                !
 ! R18   R(12,14)                0.9703         estimate D2E/DX2                !
 ! R19   R(13,16)                0.9768         estimate D2E/DX2                !
 ! R20   R(17,18)                1.4152         estimate D2E/DX2                !
 ! R21   R(17,19)                1.1049         estimate D2E/DX2                !
 ! R22   R(17,20)                1.095          estimate D2E/DX2                !
 ! R23   R(18,21)                0.9769         estimate D2E/DX2                !
 ! R24   R(23,24)                0.9715         estimate D2E/DX2                !
 ! A1    A(2,1,3)              111.5511         estimate D2E/DX2                !
 ! A2    A(2,1,22)             110.0512         estimate D2E/DX2                !
 ! A3    A(2,1,23)             106.4303         estimate D2E/DX2                !
 ! A4    A(3,1,22)             111.2742         estimate D2E/DX2                !
 ! A5    A(3,1,23)             105.6586         estimate D2E/DX2                !
 ! A6    A(22,1,23)            111.712          estimate D2E/DX2                !
 ! A7    A(1,2,6)              115.9707         estimate D2E/DX2                !
 ! A8    A(1,3,4)              111.4873         estimate D2E/DX2                !
 ! A9    A(1,3,7)              108.4378         estimate D2E/DX2                !
 ! A10   A(1,3,11)             109.4232         estimate D2E/DX2                !
 ! A11   A(4,3,7)              109.9678         estimate D2E/DX2                !
 ! A12   A(4,3,11)             107.2611         estimate D2E/DX2                !
 ! A13   A(7,3,11)             110.2637         estimate D2E/DX2                !
 ! A14   A(3,4,5)              110.7087         estimate D2E/DX2                !
 ! A15   A(3,4,10)             108.6374         estimate D2E/DX2                !
 ! A16   A(3,4,12)             111.5778         estimate D2E/DX2                !
 ! A17   A(5,4,10)             107.3704         estimate D2E/DX2                !
 ! A18   A(5,4,12)             108.5455         estimate D2E/DX2                !
 ! A19   A(10,4,12)            109.9118         estimate D2E/DX2                !
 ! A20   A(4,5,6)              113.4507         estimate D2E/DX2                !
 ! A21   A(4,5,8)              108.396          estimate D2E/DX2                !
 ! A22   A(4,5,13)             108.9687         estimate D2E/DX2                !
 ! A23   A(6,5,8)              108.7933         estimate D2E/DX2                !
 ! A24   A(6,5,13)             110.3684         estimate D2E/DX2                !
 ! A25   A(8,5,13)             106.6195         estimate D2E/DX2                !
 ! A26   A(2,6,5)              110.3841         estimate D2E/DX2                !
 ! A27   A(2,6,9)              103.9953         estimate D2E/DX2                !
 ! A28   A(2,6,17)             112.6609         estimate D2E/DX2                !
 ! A29   A(5,6,9)              104.8577         estimate D2E/DX2                !
 ! A30   A(5,6,17)             117.5421         estimate D2E/DX2                !
 ! A31   A(9,6,17)             106.0634         estimate D2E/DX2                !
 ! A32   A(3,11,15)            104.7457         estimate D2E/DX2                !
 ! A33   A(4,12,14)            108.7859         estimate D2E/DX2                !
 ! A34   A(5,13,16)            106.0742         estimate D2E/DX2                !
 ! A35   A(6,17,18)            116.6696         estimate D2E/DX2                !
 ! A36   A(6,17,19)            107.4878         estimate D2E/DX2                !
 ! A37   A(6,17,20)            107.5058         estimate D2E/DX2                !
 ! A38   A(18,17,19)           111.7044         estimate D2E/DX2                !
 ! A39   A(18,17,20)           105.846          estimate D2E/DX2                !
 ! A40   A(19,17,20)           107.1692         estimate D2E/DX2                !
 ! A41   A(17,18,21)           107.5288         estimate D2E/DX2                !
 ! A42   A(1,23,24)            106.6339         estimate D2E/DX2                !
 ! D1    D(3,1,2,6)             58.6957         estimate D2E/DX2                !
 ! D2    D(22,1,2,6)           -65.32           estimate D2E/DX2                !
 ! D3    D(23,1,2,6)           173.4679         estimate D2E/DX2                !
 ! D4    D(2,1,3,4)            -53.7969         estimate D2E/DX2                !
 ! D5    D(2,1,3,7)           -175.0017         estimate D2E/DX2                !
 ! D6    D(2,1,3,11)            64.6889         estimate D2E/DX2                !
 ! D7    D(22,1,3,4)            69.5264         estimate D2E/DX2                !
 ! D8    D(22,1,3,7)           -51.6783         estimate D2E/DX2                !
 ! D9    D(22,1,3,11)         -171.9878         estimate D2E/DX2                !
 ! D10   D(23,1,3,4)          -169.0448         estimate D2E/DX2                !
 ! D11   D(23,1,3,7)            69.7504         estimate D2E/DX2                !
 ! D12   D(23,1,3,11)          -50.559          estimate D2E/DX2                !
 ! D13   D(2,1,23,24)           43.2438         estimate D2E/DX2                !
 ! D14   D(3,1,23,24)          161.9548         estimate D2E/DX2                !
 ! D15   D(22,1,23,24)         -76.9002         estimate D2E/DX2                !
 ! D16   D(1,2,6,5)            -55.6961         estimate D2E/DX2                !
 ! D17   D(1,2,6,9)           -167.6914         estimate D2E/DX2                !
 ! D18   D(1,2,6,17)            77.91           estimate D2E/DX2                !
 ! D19   D(1,3,4,5)             48.8257         estimate D2E/DX2                !
 ! D20   D(1,3,4,10)           166.4928         estimate D2E/DX2                !
 ! D21   D(1,3,4,12)           -72.1825         estimate D2E/DX2                !
 ! D22   D(7,3,4,5)            169.135          estimate D2E/DX2                !
 ! D23   D(7,3,4,10)           -73.198          estimate D2E/DX2                !
 ! D24   D(7,3,4,12)            48.1268         estimate D2E/DX2                !
 ! D25   D(11,3,4,5)           -70.9465         estimate D2E/DX2                !
 ! D26   D(11,3,4,10)           46.7206         estimate D2E/DX2                !
 ! D27   D(11,3,4,12)          168.0453         estimate D2E/DX2                !
 ! D28   D(1,3,11,15)           34.066          estimate D2E/DX2                !
 ! D29   D(4,3,11,15)          155.1491         estimate D2E/DX2                !
 ! D30   D(7,3,11,15)          -85.1214         estimate D2E/DX2                !
 ! D31   D(3,4,5,6)            -47.5691         estimate D2E/DX2                !
 ! D32   D(3,4,5,8)           -168.5225         estimate D2E/DX2                !
 ! D33   D(3,4,5,13)            75.817          estimate D2E/DX2                !
 ! D34   D(10,4,5,6)          -166.0089         estimate D2E/DX2                !
 ! D35   D(10,4,5,8)            73.0377         estimate D2E/DX2                !
 ! D36   D(10,4,5,13)          -42.6228         estimate D2E/DX2                !
 ! D37   D(12,4,5,6)            75.2185         estimate D2E/DX2                !
 ! D38   D(12,4,5,8)           -45.7349         estimate D2E/DX2                !
 ! D39   D(12,4,5,13)         -161.3954         estimate D2E/DX2                !
 ! D40   D(3,4,12,14)          -58.0343         estimate D2E/DX2                !
 ! D41   D(5,4,12,14)          179.7052         estimate D2E/DX2                !
 ! D42   D(10,4,12,14)          62.5475         estimate D2E/DX2                !
 ! D43   D(4,5,6,2)             49.3575         Scan                            !
 ! D44   D(4,5,6,9)            160.7959         estimate D2E/DX2                !
 ! D45   D(4,5,6,17)           -81.7389         estimate D2E/DX2                !
 ! D46   D(8,5,6,2)            170.0871         estimate D2E/DX2                !
 ! D47   D(8,5,6,9)            -78.4746         estimate D2E/DX2                !
 ! D48   D(8,5,6,17)            38.9906         estimate D2E/DX2                !
 ! D49   D(13,5,6,2)           -73.2582         estimate D2E/DX2                !
 ! D50   D(13,5,6,9)            38.1802         estimate D2E/DX2                !
 ! D51   D(13,5,6,17)          155.6454         estimate D2E/DX2                !
 ! D52   D(4,5,13,16)          -48.2947         estimate D2E/DX2                !
 ! D53   D(6,5,13,16)           76.9094         estimate D2E/DX2                !
 ! D54   D(8,5,13,16)         -165.0926         estimate D2E/DX2                !
 ! D55   D(2,6,17,18)          -60.1479         estimate D2E/DX2                !
 ! D56   D(2,6,17,19)          173.5422         estimate D2E/DX2                !
 ! D57   D(2,6,17,20)           58.4608         estimate D2E/DX2                !
 ! D58   D(5,6,17,18)           69.8998         estimate D2E/DX2                !
 ! D59   D(5,6,17,19)          -56.4101         estimate D2E/DX2                !
 ! D60   D(5,6,17,20)         -171.4915         estimate D2E/DX2                !
 ! D61   D(9,6,17,18)         -173.2855         estimate D2E/DX2                !
 ! D62   D(9,6,17,19)           60.4045         estimate D2E/DX2                !
 ! D63   D(9,6,17,20)          -54.6769         estimate D2E/DX2                !
 ! D64   D(6,17,18,21)         -54.9605         estimate D2E/DX2                !
 ! D65   D(19,17,18,21)         69.2245         estimate D2E/DX2                !
 ! D66   D(20,17,18,21)       -174.4642         estimate D2E/DX2                !
 --------------------------------------------------------------------------------
 Trust Radius=3.00D-01 FncErr=1.00D-07 GrdErr=1.00D-06
 Number of optimizations in scan=  20
 Number of steps in this run=    142 maximum allowed number of steps=    144.
 GradGradGradGradGradGradGradGradGradGradGradGradGradGradGradGradGradGrad

                          Input orientation:                          
 ---------------------------------------------------------------------
 Center     Atomic      Atomic             Coordinates (Angstroms)
 Number     Number       Type             X           Y           Z
 ---------------------------------------------------------------------
      1          6           0       -0.687704   -1.214500    0.207178
      2          8           0       -0.126483   -0.968558   -1.071344
      3          6           0       -1.249167    0.070646    0.833599
      4          6           0       -0.192479    1.188080    0.869909
      5          6           0        0.488641    1.338611   -0.503701
      6          6           0        0.945784   -0.007598   -1.115339
      7          1           0       -1.589213   -0.160035    1.858111
      8          1           0        1.363451    1.988423   -0.386634
      9          1           0        1.073472    0.198279   -2.184071
     10          1           0       -0.694122    2.137815    1.092529
     11          8           0       -2.338204    0.544212    0.047284
     12          8           0        0.817236    0.927050    1.853318
     13          8           0       -0.397835    2.006768   -1.387293
     14          1           0        0.392349    0.836234    2.720944
     15          1           0       -2.771193   -0.263733   -0.289924
     16          1           0       -1.258904    1.553880   -1.300162
     17          6           0        2.283741   -0.590404   -0.631539
     18          8           0        2.321719   -1.075866    0.697215
     19          1           0        3.062386    0.172970   -0.810099
     20          1           0        2.519512   -1.448118   -1.270077
     21          1           0        2.027626   -0.351878    1.283501
     22          1           0        0.056830   -1.682788    0.860482
     23          8           0       -1.800343   -2.053836   -0.000702
     24          1           0       -1.523810   -2.728229   -0.643066
 ---------------------------------------------------------------------
                    Distance matrix (angstroms):
                    1          2          3          4          5
     1  C    0.000000
     2  O    1.417771   0.000000
     3  C    1.535983   2.443189   0.000000
     4  C    2.541033   2.902397   1.538365   0.000000
     5  C    2.899571   2.454307   2.532999   1.540581   0.000000
     6  C    2.423623   1.440533   2.936374   2.581956   1.547695
     7  H    2.156431   3.372684   1.103843   2.178261   3.484476
     8  H    3.849489   3.381193   3.463035   2.154151   1.096017
     9  H    3.288732   2.009866   3.810154   3.450961   2.113298
    10  H    3.467262   3.828069   2.155993   1.096906   2.141403
    11  O    2.417185   2.903707   1.424274   2.386507   2.987592
    12  O    3.092064   3.610759   2.458308   1.433441   2.415139
    13  O    3.605957   3.004334   3.066871   2.409851   1.418805
    14  H    3.419217   4.231774   2.615869   1.972853   3.264964
    15  H    2.343501   2.846381   1.921113   3.178481   3.638643
    16  H    3.203478   2.774424   2.598656   2.445461   1.932512
    17  C    3.149988   2.479034   3.881373   3.398384   2.638148
    18  O    3.052209   3.022087   3.752908   3.387693   3.260686
    19  H    4.125906   3.397090   4.615377   3.800924   2.841964
    20  H    3.538798   2.696435   4.575482   4.345570   3.532369
    21  H    3.045588   3.250504   3.334413   2.733385   2.901779
    22  H    1.095642   2.067772   2.186523   2.881688   3.343099
    23  O    1.409136   2.264047   2.348037   3.721990   4.123245
    24  H    1.927009   2.287441   3.176424   4.404431   4.539666
                    6          7          8          9         10
     6  C    0.000000
     7  H    3.910352   0.000000
     8  H    2.165538   4.286371   0.000000
     9  H    1.095846   4.853609   2.553328   0.000000
    10  H    3.488090   2.582134   2.538474   4.197892   0.000000
    11  O    3.527147   2.082317   3.997034   4.091228   2.516965
    12  O    3.114966   2.640601   2.538158   4.110629   2.080614
    13  O    2.436584   4.080081   2.025780   2.463784   2.500895
    14  H    3.966788   2.379836   3.453639   4.993004   2.350802
    15  H    3.816128   2.453953   4.709229   4.310765   3.463067
    16  H    2.707955   3.608503   2.810713   2.838825   2.526842
    17  C    1.537483   4.624213   2.749047   2.120643   4.391271
    18  O    2.513910   4.181126   3.388639   3.388713   4.424852
    19  H    2.146108   5.372859   2.522216   2.417482   4.646715
    20  H    2.139080   5.322249   3.731858   2.374245   5.363606
    21  H    2.653930   3.667220   2.950845   3.638288   3.693637
    22  H    2.738680   2.454282   4.091497   3.720387   3.900613
    23  O    3.601488   2.662000   5.147659   4.254167   4.470885
    24  H    3.704561   3.585496   5.536139   4.205356   5.232500
                   11         12         13         14         15
    11  O    0.000000
    12  O    3.655834   0.000000
    13  O    2.821722   3.625431   0.000000
    14  H    3.832708   0.970336   4.344209   0.000000
    15  H    0.976711   4.346064   3.462979   4.503693   0.000000
    16  H    1.999982   3.827233   0.976800   4.405785   2.571248
    17  C    4.807341   3.260033   3.808847   4.105095   5.076985
    18  O    4.976138   2.758934   4.609098   3.387340   5.250881
    19  H    5.480812   3.564144   3.958421   4.476302   5.872984
    20  H    5.413153   4.277238   4.523372   5.066689   5.509540
    21  H    4.625114   1.850782   4.310361   2.480319   5.050950
    22  H    3.370016   2.893993   4.344196   3.149502   3.366729
    23  O    2.653573   4.378903   4.514218   4.535169   2.056859
    24  H    3.442193   5.007344   4.923605   5.262473   2.784675
                   16         17         18         19         20
    16  H    0.000000
    17  C    4.194680   0.000000
    18  O    4.870928   1.415169   0.000000
    19  H    4.562962   1.104949   2.092887   0.000000
    20  H    4.825901   1.094985   2.011947   1.770372   0.000000
    21  H    4.594400   1.946758   0.976924   2.393607   2.822137
    22  H    4.107987   2.894575   2.350475   3.907435   3.264836
    23  O    3.872643   4.383986   4.293589   5.409244   4.543056
    24  H    4.340323   4.366678   4.394855   5.429369   4.287223
                   21         22         23         24
    21  H    0.000000
    22  H    2.415430   0.000000
    23  O    4.381687   2.080482   0.000000
    24  H    4.687366   2.419096   0.971549   0.000000
 Stoichiometry    C6H12O6
 Framework group  C1[X(C6H12O6)]
 Deg. of freedom    66
 Full point group                 C1      NOp   1
 Largest Abelian subgroup         C1      NOp   1
 Largest concise Abelian subgroup C1      NOp   1
                         Standard orientation:                         
 ---------------------------------------------------------------------
 Center     Atomic      Atomic             Coordinates (Angstroms)
 Number     Number       Type             X           Y           Z
 ---------------------------------------------------------------------
      1          6           0        0.687704    1.214500    0.207178
      2          8           0        0.126483    0.968558   -1.071344
      3          6           0        1.249167   -0.070646    0.833599
      4          6           0        0.192479   -1.188080    0.869909
      5          6           0       -0.488641   -1.338611   -0.503701
      6          6           0       -0.945784    0.007598   -1.115339
      7          1           0        1.589213    0.160035    1.858111
      8          1           0       -1.363451   -1.988423   -0.386634
      9          1           0       -1.073472   -0.198279   -2.184071
     10          1           0        0.694122   -2.137815    1.092529
     11          8           0        2.338204   -0.544212    0.047284
     12          8           0       -0.817236   -0.927050    1.853318
     13          8           0        0.397835   -2.006768   -1.387293
     14          1           0       -0.392349   -0.836234    2.720944
     15          1           0        2.771193    0.263733   -0.289924
     16          1           0        1.258904   -1.553880   -1.300162
     17          6           0       -2.283741    0.590404   -0.631539
     18          8           0       -2.321719    1.075866    0.697215
     19          1           0       -3.062386   -0.172970   -0.810099
     20          1           0       -2.519512    1.448118   -1.270077
     21          1           0       -2.027626    0.351878    1.283501
     22          1           0       -0.056830    1.682788    0.860482
     23          8           0        1.800343    2.053836   -0.000702
     24          1           0        1.523810    2.728229   -0.643066
 ---------------------------------------------------------------------
 Rotational constants (GHZ):      1.1351661      0.9116115      0.7813197
 Standard basis: 6-31G(d) (6D, 7F)
 There are   204 symmetry adapted cartesian basis functions of A   symmetry.
 There are   204 symmetry adapted basis functions of A   symmetry.
   204 basis functions,   384 primitive gaussians,   204 cartesian basis functions
    48 alpha electrons       48 beta electrons
       nuclear repulsion energy       862.4821999598 Hartrees.
 NAtoms=   24 NActive=   24 NUniq=   24 SFac= 1.00D+00 NAtFMM=   60 NAOKFM=F Big=F
 Integral buffers will be    131072 words long.
 Raffenetti 2 integral format.
 Two-electron integral symmetry is turned on.
 One-electron integrals computed using PRISM.
 NBasis=   204 RedAO= T EigKep=  1.81D-03  NBF=   204
 NBsUse=   204 1.00D-06 EigRej= -1.00D+00 NBFU=   204
 ExpMin= 1.61D-01 ExpMax= 5.48D+03 ExpMxC= 8.25D+02 IAcc=1 IRadAn=         1 AccDes= 0.00D+00
 Harris functional with IExCor=  402 and IRadAn=       1 diagonalized for initial guess.
 HarFok:  IExCor=  402 AccDes= 0.00D+00 IRadAn=         1 IDoV= 1 UseB2=F ITyADJ=14
 ICtDFT=  3500011 ScaDFX=  1.000000  1.000000  1.000000  1.000000
 FoFCou: FMM=F IPFlag=           0 FMFlag=      100000 FMFlg1=           0
         NFxFlg=           0 DoJE=T BraDBF=F KetDBF=T FulRan=T
         wScrn=  0.000000 ICntrl=     500 IOpCl=  0 I1Cent=   200000004 NGrid=           0
         NMat0=    1 NMatS0=      1 NMatT0=    0 NMatD0=    1 NMtDS0=    0 NMtDT0=    0
 Petite list used in FoFCou.
 Requested convergence on RMS density matrix=1.00D-08 within 128 cycles.
 Requested convergence on MAX density matrix=1.00D-06.
 Requested convergence on             energy=1.00D-06.
 No special actions if energy rises.
 Integral accuracy reduced to 1.0D-05 until final iterations.
 Initial convergence to 1.0D-05 achieved.  Increase integral accuracy.
 SCF Done:  E(RB3LYP) =  -687.148268673     A.U. after   14 cycles
            NFock= 14  Conv=0.43D-08     -V/T= 2.0086

 **********************************************************************

            Population analysis using the SCF density.

 **********************************************************************

 Orbital symmetries:
       Occupied  (A) (A) (A) (A) (A) (A) (A) (A) (A) (A) (A) (A)
                 (A) (A) (A) (A) (A) (A) (A) (A) (A) (A) (A) (A)
                 (A) (A) (A) (A) (A) (A) (A) (A) (A) (A) (A) (A)
                 (A) (A) (A) (A) (A) (A) (A) (A) (A) (A) (A) (A)
       Virtual   (A) (A) (A) (A) (A) (A) (A) (A) (A) (A) (A) (A)
                 (A) (A) (A) (A) (A) (A) (A) (A) (A) (A) (A) (A)
                 (A) (A) (A) (A) (A) (A) (A) (A) (A) (A) (A) (A)
                 (A) (A) (A) (A) (A) (A) (A) (A) (A) (A) (A) (A)
                 (A) (A) (A) (A) (A) (A) (A) (A) (A) (A) (A) (A)
                 (A) (A) (A) (A) (A) (A) (A) (A) (A) (A) (A) (A)
                 (A) (A) (A) (A) (A) (A) (A) (A) (A) (A) (A) (A)
                 (A) (A) (A) (A) (A) (A) (A) (A) (A) (A) (A) (A)
                 (A) (A) (A) (A) (A) (A) (A) (A) (A) (A) (A) (A)
                 (A) (A) (A) (A) (A) (A) (A) (A) (A) (A) (A) (A)
                 (A) (A) (A) (A) (A) (A) (A) (A) (A) (A) (A) (A)
                 (A) (A) (A) (A) (A) (A) (A) (A) (A) (A) (A) (A)
                 (A) (A) (A) (A) (A) (A) (A) (A) (A) (A) (A) (A)
 The electronic state is 1-A.
 Alpha  occ. eigenvalues --  -19.18740 -19.17463 -19.16626 -19.16081 -19.13477
 Alpha  occ. eigenvalues --  -19.13172 -10.29156 -10.25729 -10.25400 -10.24320
 Alpha  occ. eigenvalues --  -10.23953 -10.22936  -1.08744  -1.05747  -1.03490
 Alpha  occ. eigenvalues --   -1.02248  -1.00832  -0.99994  -0.78377  -0.76899
 Alpha  occ. eigenvalues --   -0.69661  -0.65741  -0.63631  -0.57841  -0.54904
 Alpha  occ. eigenvalues --   -0.53246  -0.52999  -0.52324  -0.50039  -0.48131
 Alpha  occ. eigenvalues --   -0.46720  -0.45178  -0.44173  -0.43447  -0.41899
 Alpha  occ. eigenvalues --   -0.40268  -0.38780  -0.37394  -0.36880  -0.34863
 Alpha  occ. eigenvalues --   -0.33137  -0.32597  -0.31271  -0.30773  -0.28489
 Alpha  occ. eigenvalues --   -0.28443  -0.26550  -0.24085
 Alpha virt. eigenvalues --    0.03334   0.06275   0.09584   0.09899   0.12120
 Alpha virt. eigenvalues --    0.12838   0.13185   0.14403   0.15082   0.16728
 Alpha virt. eigenvalues --    0.16977   0.17466   0.17996   0.19560   0.20620
 Alpha virt. eigenvalues --    0.21083   0.21776   0.24427   0.25365   0.26393
 Alpha virt. eigenvalues --    0.27937   0.30529   0.31305   0.33244   0.50655
 Alpha virt. eigenvalues --    0.52930   0.53483   0.55009   0.56620   0.58171
 Alpha virt. eigenvalues --    0.58910   0.59193   0.61409   0.63984   0.64550
 Alpha virt. eigenvalues --    0.65921   0.69231   0.70424   0.71664   0.74402
 Alpha virt. eigenvalues --    0.76591   0.78315   0.79541   0.80496   0.82109
 Alpha virt. eigenvalues --    0.82534   0.84366   0.85614   0.86985   0.87783
 Alpha virt. eigenvalues --    0.89501   0.90970   0.91625   0.92476   0.94557
 Alpha virt. eigenvalues --    0.95711   0.98120   0.99276   1.00546   1.02189
 Alpha virt. eigenvalues --    1.04846   1.07163   1.09326   1.09804   1.12499
 Alpha virt. eigenvalues --    1.13445   1.15157   1.17356   1.22093   1.22770
 Alpha virt. eigenvalues --    1.24217   1.25834   1.27583   1.30946   1.32385
 Alpha virt. eigenvalues --    1.35685   1.36473   1.40089   1.40325   1.46905
 Alpha virt. eigenvalues --    1.50287   1.54913   1.56685   1.58279   1.60330
 Alpha virt. eigenvalues --    1.63343   1.65209   1.68032   1.68155   1.69888
 Alpha virt. eigenvalues --    1.72594   1.74285   1.75494   1.77581   1.79967
 Alpha virt. eigenvalues --    1.82134   1.83690   1.86115   1.87144   1.88560
 Alpha virt. eigenvalues --    1.90905   1.94415   1.98335   1.99387   2.01824
 Alpha virt. eigenvalues --    2.03253   2.04836   2.06546   2.08317   2.10464
 Alpha virt. eigenvalues --    2.12149   2.13529   2.14376   2.16603   2.19707
 Alpha virt. eigenvalues --    2.23439   2.24635   2.30522   2.33756   2.36894
 Alpha virt. eigenvalues --    2.38061   2.39374   2.42679   2.43426   2.44036
 Alpha virt. eigenvalues --    2.47144   2.50019   2.52781   2.54535   2.57050
 Alpha virt. eigenvalues --    2.61066   2.62175   2.69705   2.72515   2.74593
 Alpha virt. eigenvalues --    2.77610   2.79536   2.86956   2.88129   2.90834
 Alpha virt. eigenvalues --    2.94473   2.95972   3.02219   3.05967   3.74161
 Alpha virt. eigenvalues --    3.80943   3.88575   3.92745   3.97002   4.10055
 Alpha virt. eigenvalues --    4.30300   4.36000   4.47944   4.63106   4.70485
 Alpha virt. eigenvalues --    4.75463
          Condensed to atoms (all electrons):
               1          2          3          4          5          6
     1  C    4.749757   0.221451   0.262826  -0.023648  -0.028101  -0.018496
     2  O    0.221451   8.328751  -0.032309  -0.013351  -0.038374   0.219649
     3  C    0.262826  -0.032309   5.117564   0.310819  -0.012538  -0.027127
     4  C   -0.023648  -0.013351   0.310819   5.021236   0.306667  -0.024056
     5  C   -0.028101  -0.038374  -0.012538   0.306667   4.907634   0.307681
     6  C   -0.018496   0.219649  -0.027127  -0.024056   0.307681   5.051011
     7  H   -0.041395   0.003247   0.346122  -0.055880   0.005319   0.000386
     8  H    0.000444   0.003022   0.005887  -0.045892   0.367275  -0.051467
     9  H    0.004747  -0.037299  -0.000121   0.006034  -0.044963   0.352628
    10  H    0.005472  -0.000189  -0.060526   0.378316  -0.050176   0.006019
    11  O   -0.016250  -0.002998   0.190487  -0.040199   0.005265  -0.000856
    12  O    0.001700  -0.000251  -0.037168   0.170578  -0.036533   0.003491
    13  O   -0.001051   0.000688   0.002195  -0.039122   0.263466  -0.046658
    14  H   -0.000701  -0.000001  -0.003141  -0.018667   0.005564  -0.000174
    15  H   -0.009724   0.002380  -0.042968   0.004825   0.000120  -0.000162
    16  H    0.000408   0.004656  -0.004256  -0.012523  -0.027100  -0.005016
    17  C   -0.007687  -0.041779   0.000237  -0.002889  -0.037437   0.278674
    18  O   -0.004361   0.000830  -0.000875   0.004316  -0.002360  -0.047016
    19  H    0.000385   0.003641  -0.000038   0.000398  -0.005126  -0.049449
    20  H   -0.000151  -0.000065   0.000060  -0.000131   0.004938  -0.029714
    21  H    0.001435  -0.000249   0.000038  -0.005853   0.001212  -0.000513
    22  H    0.355196  -0.051374  -0.067738  -0.004437  -0.000377  -0.001402
    23  O    0.236372  -0.057723  -0.042027   0.002328  -0.000043   0.002747
    24  H   -0.023739   0.007998   0.007928  -0.000187   0.000060  -0.000052
               7          8          9         10         11         12
     1  C   -0.041395   0.000444   0.004747   0.005472  -0.016250   0.001700
     2  O    0.003247   0.003022  -0.037299  -0.000189  -0.002998  -0.000251
     3  C    0.346122   0.005887  -0.000121  -0.060526   0.190487  -0.037168
     4  C   -0.055880  -0.045892   0.006034   0.378316  -0.040199   0.170578
     5  C    0.005319   0.367275  -0.044963  -0.050176   0.005265  -0.036533
     6  C    0.000386  -0.051467   0.352628   0.006019  -0.000856   0.003491
     7  H    0.648858  -0.000138   0.000024  -0.005382  -0.035464  -0.000912
     8  H   -0.000138   0.603098  -0.000944  -0.006189  -0.000137   0.002845
     9  H    0.000024  -0.000944   0.592242  -0.000175   0.000022  -0.000064
    10  H   -0.005382  -0.006189  -0.000175   0.593095   0.004448  -0.029260
    11  O   -0.035464  -0.000137   0.000022   0.004448   8.294252   0.001462
    12  O   -0.000912   0.002845  -0.000064  -0.029260   0.001462   8.301797
    13  O   -0.000238  -0.037702   0.002612   0.007047  -0.015341   0.001360
    14  H    0.007270  -0.000282   0.000012  -0.004274  -0.000008   0.230843
    15  H    0.000810   0.000025  -0.000019  -0.000480   0.231046  -0.000092
    16  H    0.000755   0.006008  -0.000349  -0.000962   0.046031   0.000082
    17  C   -0.000004   0.002938  -0.034794  -0.000178   0.000007   0.001065
    18  O   -0.000007  -0.000155   0.003120  -0.000048  -0.000001  -0.019873
    19  H   -0.000003   0.003689   0.003933  -0.000003   0.000000   0.000078
    20  H   -0.000002  -0.000182  -0.004331   0.000004   0.000000  -0.000046
    21  H   -0.000074  -0.000127  -0.000257   0.000610  -0.000002   0.050459
    22  H    0.003515   0.000042  -0.000243  -0.000160   0.003282   0.004554
    23  O   -0.000332   0.000003  -0.000070  -0.000058  -0.014770   0.000012
    24  H   -0.000475  -0.000002  -0.000067   0.000009   0.000279   0.000003
              13         14         15         16         17         18
     1  C   -0.001051  -0.000701  -0.009724   0.000408  -0.007687  -0.004361
     2  O    0.000688  -0.000001   0.002380   0.004656  -0.041779   0.000830
     3  C    0.002195  -0.003141  -0.042968  -0.004256   0.000237  -0.000875
     4  C   -0.039122  -0.018667   0.004825  -0.012523  -0.002889   0.004316
     5  C    0.263466   0.005564   0.000120  -0.027100  -0.037437  -0.002360
     6  C   -0.046658  -0.000174  -0.000162  -0.005016   0.278674  -0.047016
     7  H   -0.000238   0.007270   0.000810   0.000755  -0.000004  -0.000007
     8  H   -0.037702  -0.000282   0.000025   0.006008   0.002938  -0.000155
     9  H    0.002612   0.000012  -0.000019  -0.000349  -0.034794   0.003120
    10  H    0.007047  -0.004274  -0.000480  -0.000962  -0.000178  -0.000048
    11  O   -0.015341  -0.000008   0.231046   0.046031   0.000007  -0.000001
    12  O    0.001360   0.230843  -0.000092   0.000082   0.001065  -0.019873
    13  O    8.279062  -0.000124   0.000467   0.226176   0.003251  -0.000006
    14  H   -0.000124   0.374770  -0.000005   0.000017  -0.000070   0.001065
    15  H    0.000467  -0.000005   0.354192  -0.000536   0.000013  -0.000002
    16  H    0.226176   0.000017  -0.000536   0.349110   0.000157  -0.000001
    17  C    0.003251  -0.000070   0.000013   0.000157   4.914605   0.283638
    18  O   -0.000006   0.001065  -0.000002  -0.000001   0.283638   8.260134
    19  H   -0.000005   0.000001   0.000000  -0.000008   0.340701  -0.036986
    20  H   -0.000084   0.000000   0.000000   0.000002   0.367567  -0.041119
    21  H   -0.000002  -0.002529   0.000003   0.000002  -0.030678   0.218894
    22  H   -0.000021   0.000407   0.001558   0.000096   0.002608   0.023018
    23  O    0.000008  -0.000008   0.038308  -0.000025  -0.000095   0.000110
    24  H    0.000001   0.000000  -0.001926  -0.000013   0.000000   0.000001
              19         20         21         22         23         24
     1  C    0.000385  -0.000151   0.001435   0.355196   0.236372  -0.023739
     2  O    0.003641  -0.000065  -0.000249  -0.051374  -0.057723   0.007998
     3  C   -0.000038   0.000060   0.000038  -0.067738  -0.042027   0.007928
     4  C    0.000398  -0.000131  -0.005853  -0.004437   0.002328  -0.000187
     5  C   -0.005126   0.004938   0.001212  -0.000377  -0.000043   0.000060
     6  C   -0.049449  -0.029714  -0.000513  -0.001402   0.002747  -0.000052
     7  H   -0.000003  -0.000002  -0.000074   0.003515  -0.000332  -0.000475
     8  H    0.003689  -0.000182  -0.000127   0.000042   0.000003  -0.000002
     9  H    0.003933  -0.004331  -0.000257  -0.000243  -0.000070  -0.000067
    10  H   -0.000003   0.000004   0.000610  -0.000160  -0.000058   0.000009
    11  O    0.000000   0.000000  -0.000002   0.003282  -0.014770   0.000279
    12  O    0.000078  -0.000046   0.050459   0.004554   0.000012   0.000003
    13  O   -0.000005  -0.000084  -0.000002  -0.000021   0.000008   0.000001
    14  H    0.000001   0.000000  -0.002529   0.000407  -0.000008   0.000000
    15  H    0.000000   0.000000   0.000003   0.001558   0.038308  -0.001926
    16  H   -0.000008   0.000002   0.000002   0.000096  -0.000025  -0.000013
    17  C    0.340701   0.367567  -0.030678   0.002608  -0.000095   0.000000
    18  O   -0.036986  -0.041119   0.218894   0.023018   0.000110   0.000001
    19  H    0.667781  -0.043080  -0.005899   0.000226   0.000003   0.000000
    20  H   -0.043080   0.591262   0.006539  -0.000818  -0.000019   0.000035
    21  H   -0.005899   0.006539   0.346902  -0.002378  -0.000019   0.000004
    22  H    0.000226  -0.000818  -0.002378   0.625820  -0.041317  -0.001814
    23  O    0.000003  -0.000019  -0.000019  -0.041317   8.285320   0.235077
    24  H    0.000000   0.000035   0.000004  -0.001814   0.235077   0.364959
 Mulliken charges:
               1
     1  C    0.335111
     2  O   -0.520348
     3  C    0.086670
     4  C    0.081318
     5  C    0.107928
     6  C    0.079874
     7  H    0.124000
     8  H    0.147940
     9  H    0.158323
    10  H    0.163041
    11  O   -0.650554
    12  O   -0.646130
    13  O   -0.645981
    14  H    0.410035
    15  H    0.422168
    16  H    0.417288
    17  C   -0.039848
    18  O   -0.642317
    19  H    0.119761
    20  H    0.149337
    21  H    0.422484
    22  H    0.151759
    23  O   -0.643781
    24  H    0.411923
 Sum of Mulliken charges =   0.00000
 Mulliken charges with hydrogens summed into heavy atoms:
               1
     1  C    0.486870
     2  O   -0.520348
     3  C    0.210670
     4  C    0.244359
     5  C    0.255868
     6  C    0.238197
    11  O   -0.228387
    12  O   -0.236094
    13  O   -0.228693
    17  C    0.229250
    18  O   -0.219833
    23  O   -0.231858
 Electronic spatial extent (au):  <R**2>=           1779.8148
 Charge=              0.0000 electrons
 Dipole moment (field-independent basis, Debye):
    X=              0.7477    Y=              0.8499    Z=              1.5952  Tot=              1.9560
 Quadrupole moment (field-independent basis, Debye-Ang):
   XX=            -74.1391   YY=            -73.6005   ZZ=            -64.4123
   XY=              5.4353   XZ=              2.4684   YZ=             -7.3257
 Traceless Quadrupole moment (field-independent basis, Debye-Ang):
   XX=             -3.4218   YY=             -2.8832   ZZ=              6.3050
   XY=              5.4353   XZ=              2.4684   YZ=             -7.3257
 Octapole moment (field-independent basis, Debye-Ang**2):
  XXX=             16.8332  YYY=             28.2905  ZZZ=             29.3276  XYY=              8.2189
  XXY=             -5.4633  XXZ=            -18.5776  XZZ=              3.8532  YZZ=              2.5513
  YYZ=              0.0794  XYZ=             -2.1987
 Hexadecapole moment (field-independent basis, Debye-Ang**3):
 XXXX=           -974.6413 YYYY=           -650.8967 ZZZZ=           -401.9011 XXXY=             38.4035
 XXXZ=            -17.2860 YYYX=             30.3980 YYYZ=            -54.3410 ZZZX=            -16.8388
 ZZZY=            -25.1392 XXYY=           -287.8957 XXZZ=           -228.2023 YYZZ=           -203.4896
 XXYZ=            -13.6844 YYXZ=             -7.8964 ZZXY=             -1.3244
 N-N= 8.624821999598D+02 E-N=-3.336291504349D+03  KE= 6.812885409775D+02
 Calling FoFJK, ICntrl=      2127 FMM=F ISym2X=0 I1Cent= 0 IOpClX= 0 NMat=1 NMatS=1 NMatT=0.
 ***** Axes restored to original set *****
 -------------------------------------------------------------------
 Center     Atomic                   Forces (Hartrees/Bohr)
 Number     Number              X              Y              Z
 -------------------------------------------------------------------
      1        6           0.000025294    0.000009584   -0.000025176
      2        8           0.000000250   -0.000016991    0.000021397
      3        6          -0.000001503   -0.000002827   -0.000003701
      4        6           0.000012977    0.000002037    0.000020587
      5        6          -0.000030101    0.000000877   -0.000024338
      6        6          -0.000006202    0.000014675   -0.000000287
      7        1          -0.000004137   -0.000003262   -0.000005056
      8        1          -0.000000533    0.000000461   -0.000005047
      9        1           0.000002204   -0.000006803    0.000003800
     10        1          -0.000008845    0.000001219   -0.000006889
     11        8          -0.000002480   -0.000005344   -0.000014807
     12        8          -0.000010461    0.000007501   -0.000006185
     13        8           0.000010357   -0.000010929    0.000008209
     14        1          -0.000006558    0.000013163   -0.000006691
     15        1          -0.000003083   -0.000007017   -0.000005780
     16        1           0.000011048   -0.000002733   -0.000004447
     17        6           0.000018877    0.000002718   -0.000012683
     18        8          -0.000008274    0.000000473    0.000016257
     19        1           0.000000689    0.000002637    0.000007597
     20        1           0.000009194    0.000000432    0.000012580
     21        1           0.000001169    0.000006531    0.000021136
     22        1          -0.000003036    0.000001804    0.000006451
     23        8          -0.000013442   -0.000002522   -0.000007437
     24        1           0.000006594   -0.000005682    0.000010508
 -------------------------------------------------------------------
 Cartesian Forces:  Max     0.000030101 RMS     0.000010640

 GradGradGradGradGradGradGradGradGradGradGradGradGradGradGradGradGradGrad
 Berny optimization.
 FormGI is forming the generalized inverse of G from B-inverse, IUseBI=4.
 Internal  Forces:  Max     0.000025206 RMS     0.000005710
 Search for a local minimum.
 Step number   1 out of a maximum of  142 on scan point     1 out of    20
 All quantities printed in internal units (Hartrees-Bohrs-Radians)
 Mixed Optimization -- En-DIIS/RFO-DIIS
 Second derivative matrix not updated -- first step.
 ITU=  0
     Eigenvalues ---    0.00270   0.00466   0.01047   0.01249   0.01371
     Eigenvalues ---    0.01443   0.01491   0.01537   0.01571   0.02936
     Eigenvalues ---    0.03409   0.04198   0.04353   0.04485   0.04703
     Eigenvalues ---    0.05127   0.05327   0.05961   0.06028   0.06546
     Eigenvalues ---    0.06678   0.07037   0.07213   0.07540   0.09058
     Eigenvalues ---    0.10130   0.11180   0.11996   0.14253   0.14349
     Eigenvalues ---    0.16000   0.16000   0.16000   0.16000   0.16000
     Eigenvalues ---    0.16368   0.16977   0.18694   0.19671   0.20377
     Eigenvalues ---    0.22121   0.26384   0.27734   0.27981   0.28482
     Eigenvalues ---    0.28743   0.33141   0.33261   0.34027   0.34126
     Eigenvalues ---    0.34146   0.34169   0.34243   0.38132   0.40499
     Eigenvalues ---    0.41103   0.41823   0.42641   0.43196   0.44139
     Eigenvalues ---    0.51987   0.52011   0.52029   0.53062   0.53308
     Eigenvalues --- 1000.000001000.000001000.000001000.000001000.00000
     Eigenvalues --- 1000.000001000.000001000.000001000.000001000.00000
     Eigenvalues --- 1000.000001000.000001000.000001000.000001000.00000
     Eigenvalues --- 1000.000001000.000001000.000001000.000001000.00000
     Eigenvalues --- 1000.000001000.000001000.000001000.000001000.00000
     Eigenvalues --- 1000.000001000.000001000.000001000.000001000.00000
     Eigenvalues --- 1000.000001000.000001000.000001000.000001000.00000
     Eigenvalues --- 1000.000001000.000001000.000001000.000001000.00000
     Eigenvalues --- 1000.000001000.000001000.000001000.000001000.00000
     Eigenvalues --- 1000.000001000.000001000.000001000.000001000.00000
     Eigenvalues --- 1000.000001000.000001000.000001000.000001000.00000
     Eigenvalues --- 1000.000001000.000001000.000001000.000001000.00000
     Eigenvalues --- 1000.000001000.000001000.000001000.000001000.00000
     Eigenvalues --- 1000.000001000.00000
 RFO step:  Lambda=-3.34552329D-08 EMin= 2.70118207D-03
 Linear search not attempted -- first point.
 Iteration  1 RMS(Cart)=  0.00016385 RMS(Int)=  0.00000002
 Iteration  2 RMS(Cart)=  0.00000003 RMS(Int)=  0.00000000
 Iteration  1 RMS(Cart)=  0.00000000 RMS(Int)=  0.00000000
 Variable       Old X    -DE/DX   Delta X   Delta X   Delta X     New X
                                 (Linear)    (Quad)   (Total)
    R1        2.67920  -0.00002   0.00000  -0.00005  -0.00005   2.67915
    R2        2.90259   0.00000   0.00000  -0.00001  -0.00001   2.90258
    R3        2.07046   0.00000   0.00000   0.00000   0.00000   2.07046
    R4        2.66288   0.00001   0.00000   0.00003   0.00003   2.66291
    R5        2.72221   0.00000   0.00000   0.00001   0.00001   2.72223
    R6        2.90709   0.00001   0.00000   0.00003   0.00003   2.90712
    R7        2.08596   0.00000   0.00000   0.00000   0.00000   2.08596
    R8        2.69149   0.00001   0.00000   0.00002   0.00002   2.69151
    R9        2.91128   0.00000   0.00000   0.00000   0.00000   2.91127
   R10        2.07285   0.00000   0.00000   0.00000   0.00000   2.07285
   R11        2.70881  -0.00001   0.00000  -0.00003  -0.00003   2.70879
   R12        2.92472   0.00000   0.00000  -0.00001  -0.00001   2.92471
   R13        2.07117   0.00000   0.00000   0.00000   0.00000   2.07117
   R14        2.68115  -0.00003   0.00000  -0.00006  -0.00006   2.68109
   R15        2.07085   0.00000   0.00000  -0.00001  -0.00001   2.07084
   R16        2.90542   0.00002   0.00000   0.00005   0.00005   2.90548
   R17        1.84572   0.00000   0.00000   0.00001   0.00001   1.84572
   R18        1.83367  -0.00001   0.00000  -0.00001  -0.00001   1.83366
   R19        1.84589  -0.00001   0.00000  -0.00002  -0.00002   1.84587
   R20        2.67428   0.00002   0.00000   0.00005   0.00005   2.67433
   R21        2.08805   0.00000   0.00000   0.00000   0.00000   2.08805
   R22        2.06922   0.00000   0.00000   0.00000   0.00000   2.06922
   R23        1.84612   0.00001   0.00000   0.00002   0.00002   1.84613
   R24        1.83596   0.00000   0.00000  -0.00001  -0.00001   1.83595
    A1        1.94693   0.00000   0.00000   0.00004   0.00004   1.94698
    A2        1.92076   0.00000   0.00000   0.00005   0.00005   1.92081
    A3        1.85756   0.00000   0.00000   0.00001   0.00001   1.85757
    A4        1.94210   0.00000   0.00000  -0.00003  -0.00003   1.94207
    A5        1.84409  -0.00001   0.00000  -0.00008  -0.00008   1.84401
    A6        1.94974   0.00000   0.00000   0.00000   0.00000   1.94975
    A7        2.02407   0.00000   0.00000   0.00004   0.00004   2.02411
    A8        1.94582   0.00000   0.00000   0.00005   0.00005   1.94587
    A9        1.89260   0.00000   0.00000  -0.00004  -0.00004   1.89255
   A10        1.90979   0.00000   0.00000  -0.00003  -0.00003   1.90976
   A11        1.91930   0.00000   0.00000   0.00002   0.00002   1.91932
   A12        1.87206   0.00000   0.00000   0.00002   0.00002   1.87208
   A13        1.92446   0.00000   0.00000   0.00000   0.00000   1.92446
   A14        1.93223  -0.00001   0.00000  -0.00005  -0.00005   1.93218
   A15        1.89608   0.00000   0.00000  -0.00002  -0.00002   1.89606
   A16        1.94740   0.00001   0.00000   0.00008   0.00008   1.94748
   A17        1.87397   0.00000   0.00000   0.00000   0.00000   1.87396
   A18        1.89448   0.00000   0.00000  -0.00001  -0.00001   1.89446
   A19        1.91832   0.00000   0.00000   0.00000   0.00000   1.91832
   A20        1.98009   0.00000   0.00000   0.00000   0.00000   1.98009
   A21        1.89187   0.00000   0.00000   0.00000   0.00000   1.89187
   A22        1.90186   0.00000   0.00000   0.00001   0.00001   1.90187
   A23        1.89880   0.00000   0.00000  -0.00005  -0.00005   1.89875
   A24        1.92629   0.00001   0.00000   0.00007   0.00007   1.92636
   A25        1.86086   0.00000   0.00000  -0.00004  -0.00004   1.86082
   A26        1.92657   0.00000   0.00000   0.00004   0.00004   1.92661
   A27        1.81506   0.00000   0.00000  -0.00002  -0.00002   1.81504
   A28        1.96630   0.00000   0.00000  -0.00002  -0.00002   1.96628
   A29        1.83011   0.00000   0.00000   0.00001   0.00001   1.83012
   A30        2.05150   0.00000   0.00000  -0.00003  -0.00003   2.05147
   A31        1.85116   0.00000   0.00000   0.00001   0.00001   1.85117
   A32        1.82816   0.00000   0.00000   0.00002   0.00002   1.82818
   A33        1.89867   0.00000   0.00000  -0.00002  -0.00002   1.89865
   A34        1.85134  -0.00001   0.00000  -0.00005  -0.00005   1.85130
   A35        2.03627   0.00000   0.00000  -0.00001  -0.00001   2.03626
   A36        1.87602   0.00000   0.00000   0.00002   0.00002   1.87603
   A37        1.87633   0.00000   0.00000   0.00001   0.00001   1.87634
   A38        1.94961   0.00000   0.00000   0.00002   0.00002   1.94963
   A39        1.84736   0.00000   0.00000  -0.00004  -0.00004   1.84732
   A40        1.87046   0.00000   0.00000  -0.00001  -0.00001   1.87045
   A41        1.87673   0.00002   0.00000   0.00014   0.00014   1.87688
   A42        1.86111   0.00000   0.00000   0.00001   0.00001   1.86112
    D1        1.02443   0.00000   0.00000  -0.00019  -0.00019   1.02424
    D2       -1.14005   0.00000   0.00000  -0.00022  -0.00022  -1.14027
    D3        3.02759  -0.00001   0.00000  -0.00026  -0.00026   3.02733
    D4       -0.93893   0.00000   0.00000   0.00008   0.00008  -0.93885
    D5       -3.05436   0.00000   0.00000   0.00006   0.00006  -3.05430
    D6        1.12903   0.00000   0.00000   0.00011   0.00011   1.12914
    D7        1.21347   0.00000   0.00000   0.00015   0.00015   1.21362
    D8       -0.90196   0.00000   0.00000   0.00013   0.00013  -0.90182
    D9       -3.00175   0.00000   0.00000   0.00018   0.00018  -3.00157
   D10       -2.95039   0.00000   0.00000   0.00009   0.00009  -2.95030
   D11        1.21737   0.00000   0.00000   0.00007   0.00007   1.21745
   D12       -0.88242   0.00000   0.00000   0.00012   0.00012  -0.88230
   D13        0.75475   0.00001   0.00000   0.00027   0.00027   0.75501
   D14        2.82664   0.00001   0.00000   0.00028   0.00028   2.82693
   D15       -1.34216   0.00000   0.00000   0.00020   0.00020  -1.34197
   D16       -0.97208   0.00000   0.00000   0.00014   0.00014  -0.97194
   D17       -2.92677   0.00000   0.00000   0.00012   0.00012  -2.92665
   D18        1.35979   0.00000   0.00000   0.00012   0.00012   1.35990
   D19        0.85217   0.00000   0.00000   0.00002   0.00002   0.85219
   D20        2.90585   0.00000   0.00000  -0.00003  -0.00003   2.90582
   D21       -1.25982   0.00000   0.00000   0.00001   0.00001  -1.25981
   D22        2.95196   0.00000   0.00000   0.00000   0.00000   2.95197
   D23       -1.27755   0.00000   0.00000  -0.00004  -0.00004  -1.27758
   D24        0.83997   0.00000   0.00000   0.00000   0.00000   0.83997
   D25       -1.23825   0.00000   0.00000   0.00002   0.00002  -1.23823
   D26        0.81543   0.00000   0.00000  -0.00002  -0.00002   0.81541
   D27        2.93294   0.00000   0.00000   0.00002   0.00002   2.93296
   D28        0.59456   0.00000   0.00000   0.00011   0.00011   0.59467
   D29        2.70786   0.00000   0.00000   0.00015   0.00015   2.70802
   D30       -1.48565   0.00000   0.00000   0.00018   0.00018  -1.48547
   D31       -0.83024   0.00000   0.00000  -0.00005  -0.00005  -0.83029
   D32       -2.94127   0.00000   0.00000   0.00001   0.00001  -2.94126
   D33        1.32326   0.00000   0.00000   0.00005   0.00005   1.32331
   D34       -2.89740   0.00000   0.00000   0.00000   0.00000  -2.89740
   D35        1.27475   0.00000   0.00000   0.00006   0.00006   1.27481
   D36       -0.74391   0.00000   0.00000   0.00010   0.00010  -0.74381
   D37        1.31281   0.00000   0.00000   0.00001   0.00001   1.31282
   D38       -0.79822   0.00000   0.00000   0.00007   0.00007  -0.79815
   D39       -2.81688   0.00001   0.00000   0.00011   0.00011  -2.81677
   D40       -1.01289  -0.00001   0.00000  -0.00025  -0.00025  -1.01314
   D41        3.13645   0.00000   0.00000  -0.00023  -0.00023   3.13622
   D42        1.09166   0.00000   0.00000  -0.00022  -0.00022   1.09144
   D43        0.86145   0.00000   0.00000   0.00000   0.00000   0.86145
   D44        2.80642   0.00000   0.00000   0.00000   0.00000   2.80642
   D45       -1.42661   0.00000   0.00000   0.00001   0.00001  -1.42660
   D46        2.96858   0.00000   0.00000  -0.00003  -0.00003   2.96855
   D47       -1.36964   0.00000   0.00000  -0.00003  -0.00003  -1.36967
   D48        0.68052   0.00000   0.00000  -0.00002  -0.00002   0.68050
   D49       -1.27860   0.00000   0.00000  -0.00007  -0.00007  -1.27867
   D50        0.66637   0.00000   0.00000  -0.00007  -0.00007   0.66630
   D51        2.71652   0.00000   0.00000  -0.00006  -0.00006   2.71647
   D52       -0.84290   0.00000   0.00000   0.00004   0.00004  -0.84286
   D53        1.34232   0.00000   0.00000   0.00010   0.00010   1.34242
   D54       -2.88141   0.00000   0.00000   0.00005   0.00005  -2.88136
   D55       -1.04978   0.00000   0.00000   0.00033   0.00033  -1.04944
   D56        3.02888   0.00000   0.00000   0.00030   0.00030   3.02918
   D57        1.02033   0.00000   0.00000   0.00029   0.00029   1.02062
   D58        1.21998   0.00000   0.00000   0.00035   0.00035   1.22033
   D59       -0.98454   0.00000   0.00000   0.00031   0.00031  -0.98423
   D60       -2.99309   0.00000   0.00000   0.00030   0.00030  -2.99279
   D61       -3.02440   0.00000   0.00000   0.00036   0.00036  -3.02404
   D62        1.05426   0.00000   0.00000   0.00032   0.00032   1.05458
   D63       -0.95429   0.00000   0.00000   0.00031   0.00031  -0.95398
   D64       -0.95924   0.00000   0.00000  -0.00021  -0.00021  -0.95946
   D65        1.20820   0.00000   0.00000  -0.00018  -0.00018   1.20802
   D66       -3.04497   0.00000   0.00000  -0.00020  -0.00020  -3.04517
         Item               Value     Threshold  Converged?
 Maximum Force            0.000025     0.000450     YES
 RMS     Force            0.000006     0.000300     YES
 Maximum Displacement     0.000898     0.001800     YES
 RMS     Displacement     0.000164     0.001200     YES
 Predicted change in Energy=-1.672779D-08
 Optimization completed.
    -- Stationary point found.
                           ----------------------------
                           !   Optimized Parameters   !
                           ! (Angstroms and Degrees)  !
 --------------------------                            --------------------------
 ! Name  Definition              Value          Derivative Info.                !
 --------------------------------------------------------------------------------
 ! R1    R(1,2)                  1.4178         -DE/DX =    0.0                 !
 ! R2    R(1,3)                  1.536          -DE/DX =    0.0                 !
 ! R3    R(1,22)                 1.0956         -DE/DX =    0.0                 !
 ! R4    R(1,23)                 1.4091         -DE/DX =    0.0                 !
 ! R5    R(2,6)                  1.4405         -DE/DX =    0.0                 !
 ! R6    R(3,4)                  1.5384         -DE/DX =    0.0                 !
 ! R7    R(3,7)                  1.1038         -DE/DX =    0.0                 !
 ! R8    R(3,11)                 1.4243         -DE/DX =    0.0                 !
 ! R9    R(4,5)                  1.5406         -DE/DX =    0.0                 !
 ! R10   R(4,10)                 1.0969         -DE/DX =    0.0                 !
 ! R11   R(4,12)                 1.4334         -DE/DX =    0.0                 !
 ! R12   R(5,6)                  1.5477         -DE/DX =    0.0                 !
 ! R13   R(5,8)                  1.096          -DE/DX =    0.0                 !
 ! R14   R(5,13)                 1.4188         -DE/DX =    0.0                 !
 ! R15   R(6,9)                  1.0958         -DE/DX =    0.0                 !
 ! R16   R(6,17)                 1.5375         -DE/DX =    0.0                 !
 ! R17   R(11,15)                0.9767         -DE/DX =    0.0                 !
 ! R18   R(12,14)                0.9703         -DE/DX =    0.0                 !
 ! R19   R(13,16)                0.9768         -DE/DX =    0.0                 !
 ! R20   R(17,18)                1.4152         -DE/DX =    0.0                 !
 ! R21   R(17,19)                1.1049         -DE/DX =    0.0                 !
 ! R22   R(17,20)                1.095          -DE/DX =    0.0                 !
 ! R23   R(18,21)                0.9769         -DE/DX =    0.0                 !
 ! R24   R(23,24)                0.9715         -DE/DX =    0.0                 !
 ! A1    A(2,1,3)              111.5511         -DE/DX =    0.0                 !
 ! A2    A(2,1,22)             110.0512         -DE/DX =    0.0                 !
 ! A3    A(2,1,23)             106.4303         -DE/DX =    0.0                 !
 ! A4    A(3,1,22)             111.2742         -DE/DX =    0.0                 !
 ! A5    A(3,1,23)             105.6586         -DE/DX =    0.0                 !
 ! A6    A(22,1,23)            111.712          -DE/DX =    0.0                 !
 ! A7    A(1,2,6)              115.9707         -DE/DX =    0.0                 !
 ! A8    A(1,3,4)              111.4873         -DE/DX =    0.0                 !
 ! A9    A(1,3,7)              108.4378         -DE/DX =    0.0                 !
 ! A10   A(1,3,11)             109.4232         -DE/DX =    0.0                 !
 ! A11   A(4,3,7)              109.9678         -DE/DX =    0.0                 !
 ! A12   A(4,3,11)             107.2611         -DE/DX =    0.0                 !
 ! A13   A(7,3,11)             110.2637         -DE/DX =    0.0                 !
 ! A14   A(3,4,5)              110.7087         -DE/DX =    0.0                 !
 ! A15   A(3,4,10)             108.6374         -DE/DX =    0.0                 !
 ! A16   A(3,4,12)             111.5778         -DE/DX =    0.0                 !
 ! A17   A(5,4,10)             107.3704         -DE/DX =    0.0                 !
 ! A18   A(5,4,12)             108.5455         -DE/DX =    0.0                 !
 ! A19   A(10,4,12)            109.9118         -DE/DX =    0.0                 !
 ! A20   A(4,5,6)              113.4507         -DE/DX =    0.0                 !
 ! A21   A(4,5,8)              108.396          -DE/DX =    0.0                 !
 ! A22   A(4,5,13)             108.9687         -DE/DX =    0.0                 !
 ! A23   A(6,5,8)              108.7933         -DE/DX =    0.0                 !
 ! A24   A(6,5,13)             110.3684         -DE/DX =    0.0                 !
 ! A25   A(8,5,13)             106.6195         -DE/DX =    0.0                 !
 ! A26   A(2,6,5)              110.3841         -DE/DX =    0.0                 !
 ! A27   A(2,6,9)              103.9953         -DE/DX =    0.0                 !
 ! A28   A(2,6,17)             112.6609         -DE/DX =    0.0                 !
 ! A29   A(5,6,9)              104.8577         -DE/DX =    0.0                 !
 ! A30   A(5,6,17)             117.5421         -DE/DX =    0.0                 !
 ! A31   A(9,6,17)             106.0634         -DE/DX =    0.0                 !
 ! A32   A(3,11,15)            104.7457         -DE/DX =    0.0                 !
 ! A33   A(4,12,14)            108.7859         -DE/DX =    0.0                 !
 ! A34   A(5,13,16)            106.0742         -DE/DX =    0.0                 !
 ! A35   A(6,17,18)            116.6696         -DE/DX =    0.0                 !
 ! A36   A(6,17,19)            107.4878         -DE/DX =    0.0                 !
 ! A37   A(6,17,20)            107.5058         -DE/DX =    0.0                 !
 ! A38   A(18,17,19)           111.7044         -DE/DX =    0.0                 !
 ! A39   A(18,17,20)           105.846          -DE/DX =    0.0                 !
 ! A40   A(19,17,20)           107.1692         -DE/DX =    0.0                 !
 ! A41   A(17,18,21)           107.5288         -DE/DX =    0.0                 !
 ! A42   A(1,23,24)            106.6339         -DE/DX =    0.0                 !
 ! D1    D(3,1,2,6)             58.6957         -DE/DX =    0.0                 !
 ! D2    D(22,1,2,6)           -65.32           -DE/DX =    0.0                 !
 ! D3    D(23,1,2,6)           173.4679         -DE/DX =    0.0                 !
 ! D4    D(2,1,3,4)            -53.7969         -DE/DX =    0.0                 !
 ! D5    D(2,1,3,7)           -175.0017         -DE/DX =    0.0                 !
 ! D6    D(2,1,3,11)            64.6889         -DE/DX =    0.0                 !
 ! D7    D(22,1,3,4)            69.5264         -DE/DX =    0.0                 !
 ! D8    D(22,1,3,7)           -51.6783         -DE/DX =    0.0                 !
 ! D9    D(22,1,3,11)         -171.9878         -DE/DX =    0.0                 !
 ! D10   D(23,1,3,4)          -169.0448         -DE/DX =    0.0                 !
 ! D11   D(23,1,3,7)            69.7504         -DE/DX =    0.0                 !
 ! D12   D(23,1,3,11)          -50.559          -DE/DX =    0.0                 !
 ! D13   D(2,1,23,24)           43.2438         -DE/DX =    0.0                 !
 ! D14   D(3,1,23,24)          161.9548         -DE/DX =    0.0                 !
 ! D15   D(22,1,23,24)         -76.9002         -DE/DX =    0.0                 !
 ! D16   D(1,2,6,5)            -55.6961         -DE/DX =    0.0                 !
 ! D17   D(1,2,6,9)           -167.6914         -DE/DX =    0.0                 !
 ! D18   D(1,2,6,17)            77.91           -DE/DX =    0.0                 !
 ! D19   D(1,3,4,5)             48.8257         -DE/DX =    0.0                 !
 ! D20   D(1,3,4,10)           166.4928         -DE/DX =    0.0                 !
 ! D21   D(1,3,4,12)           -72.1825         -DE/DX =    0.0                 !
 ! D22   D(7,3,4,5)            169.135          -DE/DX =    0.0                 !
 ! D23   D(7,3,4,10)           -73.198          -DE/DX =    0.0                 !
 ! D24   D(7,3,4,12)            48.1268         -DE/DX =    0.0                 !
 ! D25   D(11,3,4,5)           -70.9465         -DE/DX =    0.0                 !
 ! D26   D(11,3,4,10)           46.7206         -DE/DX =    0.0                 !
 ! D27   D(11,3,4,12)          168.0453         -DE/DX =    0.0                 !
 ! D28   D(1,3,11,15)           34.066          -DE/DX =    0.0                 !
 ! D29   D(4,3,11,15)          155.1491         -DE/DX =    0.0                 !
 ! D30   D(7,3,11,15)          -85.1214         -DE/DX =    0.0                 !
 ! D31   D(3,4,5,6)            -47.5691         -DE/DX =    0.0                 !
 ! D32   D(3,4,5,8)           -168.5225         -DE/DX =    0.0                 !
 ! D33   D(3,4,5,13)            75.817          -DE/DX =    0.0                 !
 ! D34   D(10,4,5,6)          -166.0089         -DE/DX =    0.0                 !
 ! D35   D(10,4,5,8)            73.0377         -DE/DX =    0.0                 !
 ! D36   D(10,4,5,13)          -42.6228         -DE/DX =    0.0                 !
 ! D37   D(12,4,5,6)            75.2185         -DE/DX =    0.0                 !
 ! D38   D(12,4,5,8)           -45.7349         -DE/DX =    0.0                 !
 ! D39   D(12,4,5,13)         -161.3954         -DE/DX =    0.0                 !
 ! D40   D(3,4,12,14)          -58.0343         -DE/DX =    0.0                 !
 ! D41   D(5,4,12,14)          179.7052         -DE/DX =    0.0                 !
 ! D42   D(10,4,12,14)          62.5475         -DE/DX =    0.0                 !
 ! D43   D(4,5,6,2)             49.3575         -DE/DX =    0.0                 !
 ! D44   D(4,5,6,9)            160.7959         -DE/DX =    0.0                 !
 ! D45   D(4,5,6,17)           -81.7389         -DE/DX =    0.0                 !
 ! D46   D(8,5,6,2)            170.0871         -DE/DX =    0.0                 !
 ! D47   D(8,5,6,9)            -78.4746         -DE/DX =    0.0                 !
 ! D48   D(8,5,6,17)            38.9906         -DE/DX =    0.0                 !
 ! D49   D(13,5,6,2)           -73.2582         -DE/DX =    0.0                 !
 ! D50   D(13,5,6,9)            38.1802         -DE/DX =    0.0                 !
 ! D51   D(13,5,6,17)          155.6454         -DE/DX =    0.0                 !
 ! D52   D(4,5,13,16)          -48.2947         -DE/DX =    0.0                 !
 ! D53   D(6,5,13,16)           76.9094         -DE/DX =    0.0                 !
 ! D54   D(8,5,13,16)         -165.0926         -DE/DX =    0.0                 !
 ! D55   D(2,6,17,18)          -60.1479         -DE/DX =    0.0                 !
 ! D56   D(2,6,17,19)          173.5422         -DE/DX =    0.0                 !
 ! D57   D(2,6,17,20)           58.4608         -DE/DX =    0.0                 !
 ! D58   D(5,6,17,18)           69.8998         -DE/DX =    0.0                 !
 ! D59   D(5,6,17,19)          -56.4101         -DE/DX =    0.0                 !
 ! D60   D(5,6,17,20)         -171.4915         -DE/DX =    0.0                 !
 ! D61   D(9,6,17,18)         -173.2855         -DE/DX =    0.0                 !
 ! D62   D(9,6,17,19)           60.4045         -DE/DX =    0.0                 !
 ! D63   D(9,6,17,20)          -54.6769         -DE/DX =    0.0                 !
 ! D64   D(6,17,18,21)         -54.9605         -DE/DX =    0.0                 !
 ! D65   D(19,17,18,21)         69.2245         -DE/DX =    0.0                 !
 ! D66   D(20,17,18,21)       -174.4642         -DE/DX =    0.0                 !
 --------------------------------------------------------------------------------
 Iteration  1 RMS(Cart)=  0.00753680 RMS(Int)=  0.00723817
 Iteration  2 RMS(Cart)=  0.00007462 RMS(Int)=  0.00723810
 Iteration  3 RMS(Cart)=  0.00000031 RMS(Int)=  0.00723810
 Iteration  1 RMS(Cart)=  0.00562491 RMS(Int)=  0.00542836
 Iteration  2 RMS(Cart)=  0.00420427 RMS(Int)=  0.00591603
 Iteration  3 RMS(Cart)=  0.00314644 RMS(Int)=  0.00681143
 Iteration  4 RMS(Cart)=  0.00235703 RMS(Int)=  0.00768266
 Iteration  5 RMS(Cart)=  0.00176694 RMS(Int)=  0.00841405
 Iteration  6 RMS(Cart)=  0.00132530 RMS(Int)=  0.00899596
 Iteration  7 RMS(Cart)=  0.00099444 RMS(Int)=  0.00944791
 Iteration  8 RMS(Cart)=  0.00074641 RMS(Int)=  0.00979458
 Iteration  9 RMS(Cart)=  0.00056037 RMS(Int)=  0.01005859
 Iteration 10 RMS(Cart)=  0.00042077 RMS(Int)=  0.01025879
 Iteration 11 RMS(Cart)=  0.00031599 RMS(Int)=  0.01041018
 Iteration 12 RMS(Cart)=  0.00023732 RMS(Int)=  0.01052444
 Iteration 13 RMS(Cart)=  0.00017825 RMS(Int)=  0.01061056
 Iteration 14 RMS(Cart)=  0.00013389 RMS(Int)=  0.01067543
 Iteration 15 RMS(Cart)=  0.00010058 RMS(Int)=  0.01072424
 Iteration 16 RMS(Cart)=  0.00007555 RMS(Int)=  0.01076097
 Iteration 17 RMS(Cart)=  0.00005676 RMS(Int)=  0.01078858
 Iteration 18 RMS(Cart)=  0.00004264 RMS(Int)=  0.01080935
 Iteration 19 RMS(Cart)=  0.00003203 RMS(Int)=  0.01082495
 Iteration 20 RMS(Cart)=  0.00002406 RMS(Int)=  0.01083668
 Iteration 21 RMS(Cart)=  0.00001808 RMS(Int)=  0.01084550
 Iteration 22 RMS(Cart)=  0.00001358 RMS(Int)=  0.01085212
 Iteration 23 RMS(Cart)=  0.00001020 RMS(Int)=  0.01085710
 Iteration 24 RMS(Cart)=  0.00000766 RMS(Int)=  0.01086084
 Iteration 25 RMS(Cart)=  0.00000576 RMS(Int)=  0.01086365
 Iteration 26 RMS(Cart)=  0.00000433 RMS(Int)=  0.01086576
 Iteration 27 RMS(Cart)=  0.00000325 RMS(Int)=  0.01086735
 Iteration 28 RMS(Cart)=  0.00000244 RMS(Int)=  0.01086854
 Iteration 29 RMS(Cart)=  0.00000183 RMS(Int)=  0.01086943
 Iteration 30 RMS(Cart)=  0.00000138 RMS(Int)=  0.01087010
 Iteration 31 RMS(Cart)=  0.00000104 RMS(Int)=  0.01087061
 Iteration 32 RMS(Cart)=  0.00000078 RMS(Int)=  0.01087099
 GradGradGradGradGradGradGradGradGradGradGradGradGradGradGradGradGradGrad

                          Input orientation:                          
 ---------------------------------------------------------------------
 Center     Atomic      Atomic             Coordinates (Angstroms)
 Number     Number       Type             X           Y           Z
 ---------------------------------------------------------------------
      1          6           0       -0.684046   -1.214410    0.233283
      2          8           0       -0.117444   -0.967966   -1.036239
      3          6           0       -1.268520    0.077188    0.830546
      4          6           0       -0.207286    1.187710    0.863958
      5          6           0        0.520827    1.345261   -0.490342
      6          6           0        0.944532    0.003681   -1.131045
      7          1           0       -1.620795   -0.138616    1.854182
      8          1           0        1.401157    1.987597   -0.373355
      9          1           0        1.069904    0.204559   -2.200999
     10          1           0       -0.699456    2.145631    1.072267
     11          8           0       -2.351083    0.535208    0.026240
     12          8           0        0.773899    0.906401    1.870435
     13          8           0       -0.367734    2.028762   -1.359963
     14          1           0        0.326672    0.819613    2.727201
     15          1           0       -2.777957   -0.279171   -0.303224
     16          1           0       -1.230372    1.578786   -1.273380
     17          6           0        2.281034   -0.594130   -0.661617
     18          8           0        2.328712   -1.077378    0.667664
     19          1           0        3.066622    0.159503   -0.850878
     20          1           0        2.499078   -1.455904   -1.301006
     21          1           0        2.050340   -0.348773    1.255935
     22          1           0        0.056095   -1.667028    0.902459
     23          8           0       -1.782556   -2.070763    0.019540
     24          1           0       -1.488336   -2.748335   -0.611543
 ---------------------------------------------------------------------
                    Distance matrix (angstroms):
                    1          2          3          4          5
     1  C    0.000000
     2  O    1.411900   0.000000
     3  C    1.538363   2.429447   0.000000
     4  C    2.528880   2.875024   1.536422   0.000000
     5  C    2.920149   2.460978   2.560179   1.545672   0.000000
     6  C    2.448960   1.442525   2.958183   2.590106   1.545919
     7  H    2.159200   3.361908   1.103857   2.176624   3.505029
     8  H    3.868971   3.388350   3.496601   2.181250   1.096021
     9  H    3.318967   2.035012   3.830759   3.462913   2.128153
    10  H    3.463236   3.805131   2.158869   1.096921   2.138090
    11  O    2.425498   2.894397   1.424300   2.392362   3.028351
    12  O    3.050199   3.571625   2.437302   1.433477   2.414521
    13  O    3.627210   3.024536   3.068938   2.383052   1.418786
    14  H    3.373192   4.190007   2.587109   1.972886   3.265973
    15  H    2.355202   2.844306   1.921152   3.181573   3.681816
    16  H    3.220318   2.789407   2.585102   2.401637   1.932455
    17  C    3.158685   2.456174   3.908523   3.419659   2.624671
    18  O    3.046994   2.983109   3.781486   3.405942   3.237068
    19  H    4.138907   3.382871   4.650529   3.836189   2.831445
    20  H    3.541842   2.674766   4.592242   4.358919   3.523802
    21  H    3.044997   3.215081   3.373015   2.758859   2.873786
    22  H    1.095659   2.068177   2.191363   2.867122   3.351084
    23  O    1.409167   2.259078   2.352798   3.716473   4.151479
    24  H    1.927055   2.286794   3.179862   4.394388   4.561683
                    6          7          8          9         10
     6  C    0.000000
     7  H    3.938621   0.000000
     8  H    2.172217   4.314499   0.000000
     9  H    1.095843   4.878742   2.574730   0.000000
    10  H    3.485001   2.584190   2.554872   4.196745   0.000000
    11  O    3.533116   2.080560   4.043317   4.095494   2.532885
    12  O    3.138934   2.612831   2.568469   4.142074   2.084116
    13  O    2.423922   4.074115   2.025849   2.470194   2.457528
    14  H    3.991686   2.339443   3.483124   5.021736   2.355858
    15  H    3.823901   2.452178   4.754803   4.317589   3.477328
    16  H    2.689131   3.589365   2.811071   2.835533   2.470880
    17  C    1.537523   4.664870   2.742735   2.115287   4.404084
    18  O    2.513961   4.229386   3.367218   3.384847   4.440866
    19  H    2.146168   5.420157   2.518676   2.410755   4.671887
    20  H    2.139132   5.353860   3.731443   2.368473   5.369739
    21  H    2.654187   3.725493   2.921413   3.635632   3.717144
    22  H    2.777721   2.460444   4.097949   3.763257   3.890509
    23  O    3.614440   2.669320   5.173073   4.271348   4.478763
    24  H    3.709760   3.592768   5.552923   4.217884   5.235308
                   11         12         13         14         15
    11  O    0.000000
    12  O    3.647514   0.000000
    13  O    2.843578   3.605342   0.000000
    14  H    3.813980   0.970356   4.318466   0.000000
    15  H    0.976719   4.329672   3.500346   4.475435   0.000000
    16  H    2.008497   3.788507   0.976791   4.359515   2.605422
    17  C    4.817162   3.306711   3.792521   4.159601   5.081440
    18  O    4.991226   2.792755   4.585869   3.442155   5.259071
    19  H    5.501092   3.635929   3.943107   4.554747   5.886549
    20  H    5.408343   4.314484   4.512758   5.111142   5.497942
    21  H    4.654685   1.892716   4.282835   2.549662   5.074275
    22  H    3.378181   2.841612   4.353970   3.096171   3.378116
    23  O    2.667274   4.338754   4.550918   4.487153   2.074801
    24  H    3.454381   4.963368   4.963520   5.212650   2.802669
                   16         17         18         19         20
    16  H    0.000000
    17  C    4.174421   0.000000
    18  O    4.846642   1.415200   0.000000
    19  H    4.545001   1.104957   2.092930   0.000000
    20  H    4.808212   1.094996   2.011957   1.770384   0.000000
    21  H    4.569025   1.946901   0.976944   2.393707   2.822243
    22  H    4.113950   2.923662   2.359577   3.933660   3.296665
    23  O    3.910979   4.376892   4.278949   5.407979   4.522642
    24  H    4.385037   4.341803   4.358707   5.409292   4.247965
                   21         22         23         24
    21  H    0.000000
    22  H    2.416558   0.000000
    23  O    4.380070   2.079228   0.000000
    24  H    4.665576   2.417994   0.971563   0.000000
 Stoichiometry    C6H12O6
 Framework group  C1[X(C6H12O6)]
 Deg. of freedom    66
 Full point group                 C1      NOp   1
 Largest Abelian subgroup         C1      NOp   1
 Largest concise Abelian subgroup C1      NOp   1
                         Standard orientation:                         
 ---------------------------------------------------------------------
 Center     Atomic      Atomic             Coordinates (Angstroms)
 Number     Number       Type             X           Y           Z
 ---------------------------------------------------------------------
      1          6           0        0.688866    1.216839    0.198200
      2          8           0        0.090000    0.954714   -1.053243
      3          6           0        1.289964   -0.067028    0.795632
      4          6           0        0.231168   -1.177909    0.869712
      5          6           0       -0.531440   -1.352294   -0.463375
      6          6           0       -0.972997   -0.018842   -1.108976
      7          1           0        1.668271    0.161335    1.807182
      8          1           0       -1.407753   -1.993875   -0.316033
      9          1           0       -1.125685   -0.232658   -2.172856
     10          1           0        0.729598   -2.132868    1.076728
     11          8           0        2.351938   -0.533819   -0.030775
     12          8           0       -0.724057   -0.885307    1.897712
     13          8           0        0.335162   -2.045487   -1.347365
     14          1           0       -0.254990   -0.787879    2.741557
     15          1           0        2.769280    0.276881   -0.380877
     16          1           0        1.199250   -1.593821   -1.288458
     17          6           0       -2.297611    0.583505   -0.612438
     18          8           0       -2.311541    1.082649    0.711742
[...]
                   16         17         18         19         20
    16  H    0.000000
    17  C    3.370527   0.000000
    18  O    4.257618   1.416984   0.000000
    19  H    2.993222   1.093025   2.027461   0.000000
    20  H    4.149929   1.102321   2.087120   1.781770   0.000000
    21  H    4.701975   1.924432   0.971635   2.811152   2.375690
    22  H    5.089394   4.325796   4.419820   5.229363   4.648683
    23  O    5.132834   4.384762   5.016142   5.245258   4.311190
    24  H    5.665854   4.304119   4.839738   5.257861   4.044627
                   21         22         23         24
    21  H    0.000000
    22  H    3.724924   0.000000
    23  O    4.476646   2.075398   0.000000
    24  H    4.224277   2.401600   0.970561   0.000000
 Stoichiometry    C6H12O6
 Framework group  C1[X(C6H12O6)]
 Deg. of freedom    66
 Full point group                 C1      NOp   1
 Largest Abelian subgroup         C1      NOp   1
 Largest concise Abelian subgroup C1      NOp   1
                         Standard orientation:                         
 ---------------------------------------------------------------------
 Center     Atomic      Atomic             Coordinates (Angstroms)
 Number     Number       Type             X           Y           Z
 ---------------------------------------------------------------------
      1          6           0        1.186398    1.050640    0.603558
      2          8           0       -0.213307    1.217904    0.508174
      3          6           0        1.716711   -0.245601   -0.047941
      4          6           0        0.767094   -1.430882    0.193665
      5          6           0       -0.719891   -1.060490   -0.037289
      6          6           0       -0.867498    0.400195   -0.486968
      7          1           0        2.694477   -0.466743    0.412103
      8          1           0       -1.255333   -1.185413    0.905397
      9          1           0       -0.415910    0.553106   -1.473540
     10          1           0        1.038971   -2.223566   -0.517426
     11          8           0        1.860406   -0.094539   -1.452003
     12          8           0        0.880788   -1.888244    1.540888
     13          8           0       -1.351460   -1.938884   -0.965624
     14          1           0        1.758104   -2.288251    1.650520
     15          1           0        2.139377    0.829798   -1.587518
     16          1           0       -0.864225   -1.873680   -1.803554
     17          6           0       -2.319540    0.872612   -0.499562
     18          8           0       -2.908069    0.815745    0.788166
     19          1           0       -2.904687    0.216029   -1.148566
     20          1           0       -2.356168    1.894558   -0.911139
     21          1           0       -2.292096    1.276415    1.381828
     22          1           0        1.414861    1.059280    1.675734
     23          8           0        1.864352    2.107971   -0.057899
     24          1           0        1.401292    2.929997    0.169774
 ---------------------------------------------------------------------
 Rotational constants (GHZ):      1.1294059      0.8418492      0.6419895

 **********************************************************************

            Population analysis using the SCF density.

 **********************************************************************

 Orbital symmetries:
       Occupied  (A) (A) (A) (A) (A) (A) (A) (A) (A) (A) (A) (A)
                 (A) (A) (A) (A) (A) (A) (A) (A) (A) (A) (A) (A)
                 (A) (A) (A) (A) (A) (A) (A) (A) (A) (A) (A) (A)
                 (A) (A) (A) (A) (A) (A) (A) (A) (A) (A) (A) (A)
       Virtual   (A) (A) (A) (A) (A) (A) (A) (A) (A) (A) (A) (A)
                 (A) (A) (A) (A) (A) (A) (A) (A) (A) (A) (A) (A)
                 (A) (A) (A) (A) (A) (A) (A) (A) (A) (A) (A) (A)
                 (A) (A) (A) (A) (A) (A) (A) (A) (A) (A) (A) (A)
                 (A) (A) (A) (A) (A) (A) (A) (A) (A) (A) (A) (A)
                 (A) (A) (A) (A) (A) (A) (A) (A) (A) (A) (A) (A)
                 (A) (A) (A) (A) (A) (A) (A) (A) (A) (A) (A) (A)
                 (A) (A) (A) (A) (A) (A) (A) (A) (A) (A) (A) (A)
                 (A) (A) (A) (A) (A) (A) (A) (A) (A) (A) (A) (A)
                 (A) (A) (A) (A) (A) (A) (A) (A) (A) (A) (A) (A)
                 (A) (A) (A) (A) (A) (A) (A) (A) (A) (A) (A) (A)
                 (A) (A) (A) (A) (A) (A) (A) (A) (A) (A) (A) (A)
                 (A) (A) (A) (A) (A) (A) (A) (A) (A) (A) (A) (A)
 The electronic state is 1-A.
 Alpha  occ. eigenvalues --  -19.17564 -19.17219 -19.15633 -19.15591 -19.14810
 Alpha  occ. eigenvalues --  -19.13702 -10.29984 -10.24960 -10.24513 -10.23866
 Alpha  occ. eigenvalues --  -10.23377 -10.22677  -1.08797  -1.03564  -1.03270
 Alpha  occ. eigenvalues --   -1.01975  -1.01588  -1.00476  -0.77679  -0.77017
 Alpha  occ. eigenvalues --   -0.69585  -0.65251  -0.62779  -0.57556  -0.55894
 Alpha  occ. eigenvalues --   -0.53729  -0.52815  -0.50325  -0.49763  -0.48006
 Alpha  occ. eigenvalues --   -0.45864  -0.44968  -0.43219  -0.42372  -0.41414
 Alpha  occ. eigenvalues --   -0.40262  -0.39119  -0.37519  -0.35638  -0.34628
 Alpha  occ. eigenvalues --   -0.33365  -0.31989  -0.31000  -0.30268  -0.28056
 Alpha  occ. eigenvalues --   -0.27398  -0.26721  -0.25527
 Alpha virt. eigenvalues --    0.05088   0.06124   0.07550   0.09004   0.10999
 Alpha virt. eigenvalues --    0.11565   0.12946   0.13716   0.15118   0.15827
 Alpha virt. eigenvalues --    0.16807   0.17524   0.18221   0.19268   0.20428
 Alpha virt. eigenvalues --    0.21919   0.22084   0.22826   0.24942   0.26731
 Alpha virt. eigenvalues --    0.28248   0.30726   0.31642   0.35831   0.51746
 Alpha virt. eigenvalues --    0.52545   0.54201   0.55075   0.56510   0.58898
 Alpha virt. eigenvalues --    0.59626   0.60168   0.61515   0.61672   0.65219
 Alpha virt. eigenvalues --    0.68411   0.70122   0.70469   0.72119   0.75103
 Alpha virt. eigenvalues --    0.77391   0.78378   0.79963   0.80869   0.81951
 Alpha virt. eigenvalues --    0.82851   0.85187   0.85485   0.86588   0.87179
 Alpha virt. eigenvalues --    0.88490   0.89143   0.89670   0.91779   0.93524
 Alpha virt. eigenvalues --    0.96272   0.97837   0.99554   1.00286   1.01788
 Alpha virt. eigenvalues --    1.03488   1.05161   1.05756   1.07540   1.09060
 Alpha virt. eigenvalues --    1.10586   1.11398   1.13582   1.16557   1.18583
 Alpha virt. eigenvalues --    1.24588   1.25309   1.29050   1.30812   1.32066
 Alpha virt. eigenvalues --    1.36529   1.37457   1.40416   1.44185   1.46899
 Alpha virt. eigenvalues --    1.49722   1.53673   1.57023   1.60127   1.61922
 Alpha virt. eigenvalues --    1.62860   1.65247   1.67257   1.69107   1.70277
 Alpha virt. eigenvalues --    1.71301   1.73098   1.76981   1.78888   1.81013
 Alpha virt. eigenvalues --    1.82346   1.84144   1.85993   1.88428   1.89795
 Alpha virt. eigenvalues --    1.92080   1.94038   1.95515   1.97970   1.99631
 Alpha virt. eigenvalues --    2.00084   2.04812   2.05410   2.09134   2.12336
 Alpha virt. eigenvalues --    2.12642   2.13600   2.16363   2.19127   2.20602
 Alpha virt. eigenvalues --    2.22411   2.27844   2.29341   2.33241   2.36014
 Alpha virt. eigenvalues --    2.37756   2.39177   2.40902   2.43005   2.47808
 Alpha virt. eigenvalues --    2.48579   2.50348   2.52089   2.55775   2.59368
 Alpha virt. eigenvalues --    2.59707   2.62798   2.65551   2.69442   2.72246
 Alpha virt. eigenvalues --    2.75362   2.80385   2.82548   2.87884   2.89305
 Alpha virt. eigenvalues --    2.93788   2.97323   3.02869   3.07510   3.67045
 Alpha virt. eigenvalues --    3.76191   3.83830   3.84771   3.94499   4.10409
 Alpha virt. eigenvalues --    4.29124   4.36801   4.41062   4.53800   4.61309
 Alpha virt. eigenvalues --    4.82490
          Condensed to atoms (all electrons):
               1          2          3          4          5          6
     1  C    4.694922   0.233373   0.274641  -0.029735  -0.022804  -0.031672
     2  O    0.233373   8.361946  -0.022138  -0.000203  -0.036061   0.160596
     3  C    0.274641  -0.022138   5.116225   0.296683  -0.032716   0.003310
     4  C   -0.029735  -0.000203   0.296683   5.002951   0.311856  -0.055438
     5  C   -0.022804  -0.036061  -0.032716   0.311856   4.950469   0.307079
     6  C   -0.031672   0.160596   0.003310  -0.055438   0.307079   5.104113
     7  H   -0.045079   0.003075   0.348061  -0.046836   0.004663   0.000473
     8  H    0.001684   0.001888   0.001982  -0.048335   0.358616  -0.040315
     9  H    0.000628  -0.035414  -0.005270  -0.009107  -0.043669   0.327423
    10  H    0.006573  -0.000058  -0.057199   0.361005  -0.048499   0.003944
    11  O   -0.020673  -0.001500   0.177830  -0.036959   0.003215  -0.008419
    12  O    0.004827  -0.000665  -0.042001   0.197594  -0.038095   0.002026
    13  O    0.000329   0.001627   0.001908  -0.031202   0.227623  -0.038092
    14  H   -0.000560   0.000050  -0.003603  -0.021893   0.007512  -0.000349
    15  H   -0.012851   0.000316  -0.034518   0.005227  -0.000189   0.001001
    16  H    0.000192  -0.000024  -0.000727  -0.006976  -0.030043  -0.005112
    17  C    0.003229  -0.041340  -0.000006   0.004914  -0.032485   0.328442
    18  O    0.000198  -0.006534  -0.000057   0.000301  -0.006460  -0.040650
    19  H   -0.000098   0.003161  -0.000030   0.000305  -0.008364  -0.033382
    20  H   -0.000424  -0.001474   0.000041  -0.000130   0.006493  -0.045788
    21  H   -0.000141   0.022317   0.000061  -0.000126  -0.000817  -0.012504
    22  H    0.378590  -0.055951  -0.052991  -0.003093   0.000494   0.006406
    23  O    0.238402  -0.063422  -0.047487   0.001715   0.000272  -0.000239
    24  H   -0.019489   0.008203   0.007498  -0.000202   0.000067  -0.000161
               7          8          9         10         11         12
     1  C   -0.045079   0.001684   0.000628   0.006573  -0.020673   0.004827
     2  O    0.003075   0.001888  -0.035414  -0.000058  -0.001500  -0.000665
     3  C    0.348061   0.001982  -0.005270  -0.057199   0.177830  -0.042001
     4  C   -0.046836  -0.048335  -0.009107   0.361005  -0.036959   0.197594
     5  C    0.004663   0.358616  -0.043669  -0.048499   0.003215  -0.038095
     6  C    0.000473  -0.040315   0.327423   0.003944  -0.008419   0.002026
     7  H    0.648471  -0.000255   0.000336  -0.004158  -0.036779   0.000752
     8  H   -0.000255   0.547593   0.006022   0.003712  -0.000029   0.004958
     9  H    0.000336   0.006022   0.625952   0.000298   0.017548   0.000044
    10  H   -0.004158   0.003712   0.000298   0.617326   0.004745  -0.027115
    11  O   -0.036779  -0.000029   0.017548   0.004745   8.330049   0.001667
    12  O    0.000752   0.004958   0.000044  -0.027115   0.001667   8.293202
    13  O   -0.000071  -0.032369   0.000728   0.002351  -0.000267   0.001144
    14  H    0.006495  -0.000203   0.000011  -0.007372  -0.000032   0.228354
    15  H   -0.000186   0.000013  -0.000524  -0.000334   0.231399  -0.000117
    16  H   -0.000008   0.006805   0.005998   0.004501   0.001300  -0.000044
    17  C    0.000024  -0.014319  -0.037302  -0.000194   0.000412  -0.000040
    18  O    0.000000   0.017116   0.003003  -0.000001  -0.000001  -0.000002
    19  H    0.000000  -0.000640   0.001621  -0.000012  -0.000004  -0.000002
    20  H    0.000000   0.000604  -0.000481   0.000004  -0.000006   0.000000
    21  H   -0.000003   0.000733   0.000686   0.000002  -0.000002   0.000000
    22  H   -0.000564   0.000045  -0.000110  -0.000066   0.003254   0.005134
    23  O    0.000914   0.000006   0.003040  -0.000061  -0.014948   0.000016
    24  H   -0.000395   0.000000  -0.000230   0.000008   0.000392   0.000004
              13         14         15         16         17         18
     1  C    0.000329  -0.000560  -0.012851   0.000192   0.003229   0.000198
     2  O    0.001627   0.000050   0.000316  -0.000024  -0.041340  -0.006534
     3  C    0.001908  -0.003603  -0.034518  -0.000727  -0.000006  -0.000057
     4  C   -0.031202  -0.021893   0.005227  -0.006976   0.004914   0.000301
     5  C    0.227623   0.007512  -0.000189  -0.030043  -0.032485  -0.006460
     6  C   -0.038092  -0.000349   0.001001  -0.005112   0.328442  -0.040650
     7  H   -0.000071   0.006495  -0.000186  -0.000008   0.000024   0.000000
     8  H   -0.032369  -0.000203   0.000013   0.006805  -0.014319   0.017116
     9  H    0.000728   0.000011  -0.000524   0.005998  -0.037302   0.003003
    10  H    0.002351  -0.007372  -0.000334   0.004501  -0.000194  -0.000001
    11  O   -0.000267  -0.000032   0.231399   0.001300   0.000412  -0.000001
    12  O    0.001144   0.228354  -0.000117  -0.000044  -0.000040  -0.000002
    13  O    8.253950  -0.000208   0.000011   0.231171  -0.001821  -0.000020
    14  H   -0.000208   0.398672  -0.000005   0.000017   0.000006   0.000000
    15  H    0.000011  -0.000005   0.354613  -0.000034  -0.000044   0.000000
    16  H    0.231171   0.000017  -0.000034   0.403873  -0.000850  -0.000014
    17  C   -0.001821   0.000006  -0.000044  -0.000850   4.872943   0.269417
    18  O   -0.000020   0.000000   0.000000  -0.000014   0.269417   8.220652
    19  H    0.011128   0.000000   0.000000   0.000142   0.369316  -0.035329
    20  H    0.000046   0.000000   0.000001  -0.000056   0.352062  -0.038727
    21  H   -0.000033   0.000000   0.000000   0.000008  -0.039200   0.236782
    22  H   -0.000001  -0.000034   0.001314  -0.000001  -0.000212   0.000026
    23  O    0.000000  -0.000002   0.036402  -0.000001  -0.000261  -0.000001
    24  H    0.000000  -0.000001  -0.001556   0.000000  -0.000057  -0.000003
              19         20         21         22         23         24
     1  C   -0.000098  -0.000424  -0.000141   0.378590   0.238402  -0.019489
     2  O    0.003161  -0.001474   0.022317  -0.055951  -0.063422   0.008203
     3  C   -0.000030   0.000041   0.000061  -0.052991  -0.047487   0.007498
     4  C    0.000305  -0.000130  -0.000126  -0.003093   0.001715  -0.000202
     5  C   -0.008364   0.006493  -0.000817   0.000494   0.000272   0.000067
     6  C   -0.033382  -0.045788  -0.012504   0.006406  -0.000239  -0.000161
     7  H    0.000000   0.000000  -0.000003  -0.000564   0.000914  -0.000395
     8  H   -0.000640   0.000604   0.000733   0.000045   0.000006   0.000000
     9  H    0.001621  -0.000481   0.000686  -0.000110   0.003040  -0.000230
    10  H   -0.000012   0.000004   0.000002  -0.000066  -0.000061   0.000008
    11  O   -0.000004  -0.000006  -0.000002   0.003254  -0.014948   0.000392
    12  O   -0.000002   0.000000   0.000000   0.005134   0.000016   0.000004
    13  O    0.011128   0.000046  -0.000033  -0.000001   0.000000   0.000000
    14  H    0.000000   0.000000   0.000000  -0.000034  -0.000002  -0.000001
    15  H    0.000000   0.000001   0.000000   0.001314   0.036402  -0.001556
    16  H    0.000142  -0.000056   0.000008  -0.000001  -0.000001   0.000000
    17  C    0.369316   0.352062  -0.039200  -0.000212  -0.000261  -0.000057
    18  O   -0.035329  -0.038727   0.236782   0.000026  -0.000001  -0.000003
    19  H    0.563753  -0.042171   0.006991   0.000007   0.000001   0.000001
    20  H   -0.042171   0.650939  -0.002901   0.000006  -0.000003   0.000094
    21  H    0.006991  -0.002901   0.387562  -0.000064   0.000024   0.000027
    22  H    0.000007   0.000006  -0.000064   0.628741  -0.052292  -0.001254
    23  O    0.000001  -0.000003   0.000024  -0.052292   8.306721   0.230678
    24  H    0.000001   0.000094   0.000027  -0.001254   0.230678   0.371229
 Mulliken charges:
               1
     1  C    0.345938
     2  O   -0.531769
     3  C    0.070504
     4  C    0.107685
     5  C    0.121844
     6  C    0.067307
     7  H    0.121071
     8  H    0.184688
     9  H    0.138768
    10  H    0.140599
    11  O   -0.652190
    12  O   -0.631643
    13  O   -0.627931
    14  H    0.393146
    15  H    0.420061
    16  H    0.389883
    17  C   -0.032633
    18  O   -0.619698
    19  H    0.163608
    20  H    0.121872
    21  H    0.400600
    22  H    0.142618
    23  O   -0.639473
    24  H    0.405146
 Sum of Mulliken charges =   0.00000
 Mulliken charges with hydrogens summed into heavy atoms:
               1
     1  C    0.488555
     2  O   -0.531769
     3  C    0.191575
     4  C    0.248284
     5  C    0.306532
     6  C    0.206076
    11  O   -0.232130
    12  O   -0.238497
    13  O   -0.238048
    17  C    0.252847
    18  O   -0.219098
    23  O   -0.234327
 Electronic spatial extent (au):  <R**2>=           1957.9562
 Charge=              0.0000 electrons
 Dipole moment (field-independent basis, Debye):
    X=              3.4966    Y=              1.9889    Z=             -0.5410  Tot=              4.0589
 Quadrupole moment (field-independent basis, Debye-Ang):
   XX=            -77.9178   YY=            -65.1825   ZZ=            -67.6761
   XY=             -5.0858   XZ=              6.3514   YZ=              0.9676
 Traceless Quadrupole moment (field-independent basis, Debye-Ang):
   XX=             -7.6590   YY=              5.0764   ZZ=              2.5827
   XY=             -5.0858   XZ=              6.3514   YZ=              0.9676
 Octapole moment (field-independent basis, Debye-Ang**2):
  XXX=             39.4477  YYY=             27.0389  ZZZ=             -3.6165  XYY=             20.9874
  XXY=             -7.6804  XXZ=              2.7471  XZZ=             -1.5503  YZZ=              4.0729
  YYZ=              3.6607  XYZ=             -6.0605
 Hexadecapole moment (field-independent basis, Debye-Ang**3):
 XXXX=          -1283.6816 YYYY=           -698.5050 ZZZZ=           -342.0741 XXXY=            -11.2960
 XXXZ=             42.2582 YYYX=            -19.9079 YYYZ=              7.7926 ZZZX=             -1.4398
 ZZZY=             17.1727 XXYY=           -319.2528 XXZZ=           -239.6730 YYZZ=           -169.7740
 XXYZ=            -31.3119 YYXZ=              6.4501 ZZXY=              1.8223
 N-N= 8.425537153438D+02 E-N=-3.296717914784D+03  KE= 6.813201243563D+02
 1\1\GINC-TATANKA\Scan\RB3LYP\6-31G(d)\C6H12O6\IAWAD\17-Mar-2017\0\\# o
 pt=modredundant b3lyp/6-31G(d)\\Glo_A_ch2_GS_b3lyp_631Gd\\0,1\C,-0.686
 2783976,-1.3146865663,0.7023355361\O,0.5754939157,-1.2375412727,0.0712
 795311\C,-1.4710967252,0.01563889,0.7171049153\C,-0.5439870567,1.21790
 17716,0.9621955961\C,0.7537229029,1.1522964813,0.1176265307\C,0.769847
 1442,-0.0900562187,-0.7845388753\H,-2.2057349262,-0.0469150987,1.53744
 84756\H,1.604216869,1.0930925531,0.7988873588\H,-0.0190182486,-0.03284
 53889,-1.5428624011\H,-1.0951199592,2.1249298194,0.6767663008\O,-2.135
 4407486,0.2351249978,-0.5179379863\O,-0.1498961345,1.2663648707,2.3331
 292695\O,0.9505897189,2.335741884,-0.6524127944\H,-0.9321665823,1.4847
 686708,2.8642232439\H,-2.4120379254,-0.6477175825,-0.8256249177\H,0.18
 25528331,2.4302177381,-1.2397551415\C,2.1224365795,-0.3176300067,-1.45
 5713465\O,3.1563327957,-0.5280256225,-0.5098618398\H,2.3911546247,0.57
 16300918,-2.0316563023\H,2.0350991609,-1.1702607735,-2.1488972591\H,2.
 8310338214,-1.2206353782,0.0889256438\H,-0.4868138855,-1.650807162,1.7
 265751209\O,-1.5276943664,-2.2396651339,0.0303761214\H,-0.9839054097,-
 3.0134965643,-0.1874936616\\Version=ES64L-G09RevD.01\State=1-A\HF=-687
 .1482687,-687.1477465,-687.1464247,-687.1445828,-687.1423119,-687.1397
 81,-687.1371912,-687.1389043,-687.1398137,-687.1407604,-687.141677,-68
 7.1424707,-687.1431348,-687.1434178,-687.1432527,-687.1426842,-687.141
 6442,-687.1403089,-687.1388562,-687.137281\RMSD=4.326e-09,9.228e-09,5.
 745e-09,2.019e-09,8.086e-09,8.981e-09,3.859e-09,6.595e-09,6.775e-09,3.
 810e-09,4.567e-09,2.564e-09,5.674e-09,7.163e-09,4.503e-09,8.263e-09,4.
 955e-09,6.170e-09,3.282e-09,6.829e-09\PG=C01 [X(C6H12O6)]\\@


 THE HURRIEDER I GO, THE BEHINDER I GET.
 Job cpu time:       0 days  6 hours 12 minutes 47.8 seconds.
 File lengths (MBytes):  RWF=    140 Int=      0 D2E=      0 Chk=      8 Scr=      2
 Normal termination of Gaussian 09 at Fri Mar 17 19:29:04 2017.
