 Entering Gaussian System, Link 0=g09
 Initial command:
 /global/software/gaussian/g09.d01/l1.exe "/home/iawad/Gau-2646.inp" -scrdir="/home/iawad/"
 Entering Link 1 = /global/software/gaussian/g09.d01/l1.exe PID=      2651.
  
 Copyright (c) 1988,1990,1992,1993,1995,1998,2003,2009,2013,
            Gaussian, Inc.  All Rights Reserved.
  
 This is part of the Gaussian(R) 09 program.  It is based on
 the Gaussian(R) 03 system (copyright 2003, Gaussian, Inc.),
 the Gaussian(R) 98 system (copyright 1998, Gaussian, Inc.),
 the Gaussian(R) 94 system (copyright 1995, Gaussian, Inc.),
 the Gaussian 92(TM) system (copyright 1992, Gaussian, Inc.),
 the Gaussian 90(TM) system (copyright 1990, Gaussian, Inc.),
 the Gaussian 88(TM) system (copyright 1988, Gaussian, Inc.),
 the Gaussian 86(TM) system (copyright 1986, Carnegie Mellon
 University), and the Gaussian 82(TM) system (copyright 1983,
 Carnegie Mellon University). Gaussian is a federally registered
 trademark of Gaussian, Inc.
  
 This software contains proprietary and confidential information,
 including trade secrets, belonging to Gaussian, Inc.
  
 This software is provided under written license and may be
 used, copied, transmitted, or stored only in accord with that
 written license.
  
 The following legend is applicable only to US Government
 contracts under FAR:
  
                    RESTRICTED RIGHTS LEGEND
  
 Use, reproduction and disclosure by the US Government is
 subject to restrictions as set forth in subparagraphs (a)
 and (c) of the Commercial Computer Software - Restricted
 Rights clause in FAR 52.227-19.
  
 Gaussian, Inc.
 340 Quinnipiac St., Bldg. 40, Wallingford CT 06492
  
  
 ---------------------------------------------------------------
 Warning -- This program may not be used in any manner that
 competes with the business of Gaussian, Inc. or will provide
 assistance to any competitor of Gaussian, Inc.  The licensee
 of this program is prohibited from giving any competitor of
 Gaussian, Inc. access to this program.  By using this program,
 the user acknowledges that Gaussian, Inc. is engaged in the
 business of creating and licensing software in the field of
 computational chemistry and represents and warrants to the
 licensee that it is not a competitor of Gaussian, Inc. and that
 it will not use this program in any manner prohibited above.
 ---------------------------------------------------------------
  

 Cite this work as:
 Gaussian 09, Revision D.01,
 M. J. Frisch, G. W. Trucks, H. B. Schlegel, G. E. Scuseria, 
 M. A. Robb, J. R. Cheeseman, G. Scalmani, V. Barone, B. Mennucci, 
 G. A. Petersson, H. Nakatsuji, M. Caricato, X. Li, H. P. Hratchian, 
 A. F. Izmaylov, J. Bloino, G. Zheng, J. L. Sonnenberg, M. Hada, 
 M. Ehara, K. Toyota, R. Fukuda, J. Hasegawa, M. Ishida, T. Nakajima, 
 Y. Honda, O. Kitao, H. Nakai, T. Vreven, J. A. Montgomery, Jr., 
 J. E. Peralta, F. Ogliaro, M. Bearpark, J. J. Heyd, E. Brothers, 
 K. N. Kudin, V. N. Staroverov, T. Keith, R. Kobayashi, J. Normand, 
 K. Raghavachari, A. Rendell, J. C. Burant, S. S. Iyengar, J. Tomasi, 
 M. Cossi, N. Rega, J. M. Millam, M. Klene, J. E. Knox, J. B. Cross, 
 V. Bakken, C. Adamo, J. Jaramillo, R. Gomperts, R. E. Stratmann, 
 O. Yazyev, A. J. Austin, R. Cammi, C. Pomelli, J. W. Ochterski, 
 R. L. Martin, K. Morokuma, V. G. Zakrzewski, G. A. Voth, 
 P. Salvador, J. J. Dannenberg, S. Dapprich, A. D. Daniels, 
 O. Farkas, J. B. Foresman, J. V. Ortiz, J. Cioslowski, 
 and D. J. Fox, Gaussian, Inc., Wallingford CT, 2013.
 
 ******************************************
 Gaussian 09:  ES64L-G09RevD.01 24-Apr-2013
                17-Mar-2017 
 ******************************************
 %nprocshared=10
 Will use up to   10 processors via shared memory.
 --------------------
 # opt b3lyp/6-31g(d)
 --------------------
 1/14=-1,18=20,19=15,26=3,38=1/1,3;
 2/9=110,12=2,17=6,18=5,40=1/2;
 3/5=1,6=6,7=1,11=2,16=1,25=1,30=1,71=1,74=-5/1,2,3;
 4//1;
 5/5=2,38=5/2;
 6/7=2,8=2,9=2,10=2,28=1/1;
 7//1,2,3,16;
 1/14=-1,18=20,19=15,26=3/3(2);
 2/9=110/2;
 99//99;
 2/9=110/2;
 3/5=1,6=6,7=1,11=2,16=1,25=1,30=1,71=1,74=-5/1,2,3;
 4/5=5,16=3,69=1/1;
 5/5=2,38=5/2;
 7//1,2,3,16;
 1/14=-1,18=20,19=15,26=3/3(-5);
 2/9=110/2;
 6/7=2,8=2,9=2,10=2,19=2,28=1/1;
 99/9=1/99;
 -------------------
 Title Card Required
 -------------------
 Symbolic Z-matrix:
 Charge =  0 Multiplicity = 1
 C                     0.81061   1.18712   0.21042 
 O                     0.07902   1.0384   -0.98378 
 C                     1.37901  -0.1481    0.6926 
 C                     0.24806  -1.15033   0.91751 
 C                    -0.63918  -1.29539  -0.33165 
 C                    -0.94948   0.03556  -1.07541 
 H                     1.92501   0.025     1.63614 
 H                    -1.58194  -1.76493  -0.03464 
 H                    -1.01151  -0.22015  -2.13755 
 H                     0.66573  -2.14101   1.13393 
 O                     2.24881  -0.6914   -0.29282 
 O                    -0.60305  -0.7236    1.9926 
 O                    -0.00439  -2.21601  -1.21817 
 H                    -0.06428  -0.56659   2.78425 
 H                     2.6785    0.08088  -0.70643 
 H                     0.90705  -1.88486  -1.33074 
 C                    -2.28756   0.6608   -0.64575 
 O                    -2.28878   1.1649    0.67847 
 H                    -3.09168  -0.07929  -0.80731 
 H                    -2.49478   1.51862  -1.29323 
 H                    -1.97326   0.46468   1.28066 
 H                     0.18847   1.65708   0.98266 
 O                     1.92849   1.98599  -0.10661 
 H                     1.60317   2.70635  -0.67167 
 

 GradGradGradGradGradGradGradGradGradGradGradGradGradGradGradGradGradGrad
 Berny optimization.
 Initialization pass.
                           ----------------------------
                           !    Initial Parameters    !
                           ! (Angstroms and Degrees)  !
 --------------------------                            --------------------------
 ! Name  Definition              Value          Derivative Info.                !
 --------------------------------------------------------------------------------
 ! R1    R(1,2)                  1.4084         estimate D2E/DX2                !
 ! R2    R(1,3)                  1.5292         estimate D2E/DX2                !
 ! R3    R(1,22)                 1.0974         estimate D2E/DX2                !
 ! R4    R(1,23)                 1.4101         estimate D2E/DX2                !
 ! R5    R(2,6)                  1.4394         estimate D2E/DX2                !
 ! R6    R(3,4)                  1.5278         estimate D2E/DX2                !
 ! R7    R(3,7)                  1.1038         estimate D2E/DX2                !
 ! R8    R(3,11)                 1.4222         estimate D2E/DX2                !
 ! R9    R(4,5)                  1.539          estimate D2E/DX2                !
 ! R10   R(4,10)                 1.0967         estimate D2E/DX2                !
 ! R11   R(4,12)                 1.4361         estimate D2E/DX2                !
 ! R12   R(5,6)                  1.5559         estimate D2E/DX2                !
 ! R13   R(5,8)                  1.0943         estimate D2E/DX2                !
 ! R14   R(5,13)                 1.427          estimate D2E/DX2                !
 ! R15   R(6,9)                  1.0942         estimate D2E/DX2                !
 ! R16   R(6,17)                 1.5382         estimate D2E/DX2                !
 ! R17   R(11,15)                0.9758         estimate D2E/DX2                !
 ! R18   R(12,14)                0.9704         estimate D2E/DX2                !
 ! R19   R(13,16)                0.9762         estimate D2E/DX2                !
 ! R20   R(17,18)                1.4169         estimate D2E/DX2                !
 ! R21   R(17,19)                1.1047         estimate D2E/DX2                !
 ! R22   R(17,20)                1.0945         estimate D2E/DX2                !
 ! R23   R(18,21)                0.976          estimate D2E/DX2                !
 ! R24   R(23,24)                0.9716         estimate D2E/DX2                !
 ! A1    A(2,1,3)              111.6084         estimate D2E/DX2                !
 ! A2    A(2,1,22)             110.3296         estimate D2E/DX2                !
 ! A3    A(2,1,23)             106.3198         estimate D2E/DX2                !
 ! A4    A(3,1,22)             111.2706         estimate D2E/DX2                !
 ! A5    A(3,1,23)             105.7177         estimate D2E/DX2                !
 ! A6    A(22,1,23)            111.4093         estimate D2E/DX2                !
 ! A7    A(1,2,6)              119.915          estimate D2E/DX2                !
 ! A8    A(1,3,4)              110.1244         estimate D2E/DX2                !
 ! A9    A(1,3,7)              108.4501         estimate D2E/DX2                !
 ! A10   A(1,3,11)             110.023          estimate D2E/DX2                !
 ! A11   A(4,3,7)              110.0727         estimate D2E/DX2                !
 ! A12   A(4,3,11)             107.7051         estimate D2E/DX2                !
 ! A13   A(7,3,11)             110.467          estimate D2E/DX2                !
 ! A14   A(3,4,5)              111.6598         estimate D2E/DX2                !
 ! A15   A(3,4,10)             109.8596         estimate D2E/DX2                !
 ! A16   A(3,4,12)             110.7322         estimate D2E/DX2                !
 ! A17   A(5,4,10)             107.1327         estimate D2E/DX2                !
 ! A18   A(5,4,12)             107.0957         estimate D2E/DX2                !
 ! A19   A(10,4,12)            110.2678         estimate D2E/DX2                !
 ! A20   A(4,5,6)              114.9819         estimate D2E/DX2                !
 ! A21   A(4,5,8)              108.47           estimate D2E/DX2                !
 ! A22   A(4,5,13)             107.9738         estimate D2E/DX2                !
 ! A23   A(6,5,8)              108.9637         estimate D2E/DX2                !
 ! A24   A(6,5,13)             110.0964         estimate D2E/DX2                !
 ! A25   A(8,5,13)             105.9642         estimate D2E/DX2                !
 ! A26   A(2,6,5)              115.0269         estimate D2E/DX2                !
 ! A27   A(2,6,9)              105.3731         estimate D2E/DX2                !
 ! A28   A(2,6,17)             108.6992         estimate D2E/DX2                !
 ! A29   A(5,6,9)              105.9861         estimate D2E/DX2                !
 ! A30   A(5,6,17)             112.8096         estimate D2E/DX2                !
 ! A31   A(9,6,17)             108.4696         estimate D2E/DX2                !
 ! A32   A(3,11,15)            105.109          estimate D2E/DX2                !
 ! A33   A(4,12,14)            109.2546         estimate D2E/DX2                !
 ! A34   A(5,13,16)            105.5518         estimate D2E/DX2                !
 ! A35   A(6,17,18)            113.98           estimate D2E/DX2                !
 ! A36   A(6,17,19)            108.6655         estimate D2E/DX2                !
 ! A37   A(6,17,20)            108.544          estimate D2E/DX2                !
 ! A38   A(18,17,19)           111.9862         estimate D2E/DX2                !
 ! A39   A(18,17,20)           105.8937         estimate D2E/DX2                !
 ! A40   A(19,17,20)           107.5004         estimate D2E/DX2                !
 ! A41   A(17,18,21)           108.7301         estimate D2E/DX2                !
 ! A42   A(1,23,24)            106.5797         estimate D2E/DX2                !
 ! D1    D(3,1,2,6)             51.0741         estimate D2E/DX2                !
 ! D2    D(22,1,2,6)           -73.1804         estimate D2E/DX2                !
 ! D3    D(23,1,2,6)           165.8824         estimate D2E/DX2                !
 ! D4    D(2,1,3,4)            -58.5334         estimate D2E/DX2                !
 ! D5    D(2,1,3,7)           -179.0365         estimate D2E/DX2                !
 ! D6    D(2,1,3,11)            60.0388         estimate D2E/DX2                !
 ! D7    D(22,1,3,4)            65.1909         estimate D2E/DX2                !
 ! D8    D(22,1,3,7)           -55.3122         estimate D2E/DX2                !
 ! D9    D(22,1,3,11)         -176.2369         estimate D2E/DX2                !
 ! D10   D(23,1,3,4)          -173.7125         estimate D2E/DX2                !
 ! D11   D(23,1,3,7)            65.7844         estimate D2E/DX2                !
 ! D12   D(23,1,3,11)          -55.1403         estimate D2E/DX2                !
 ! D13   D(2,1,23,24)           43.3415         estimate D2E/DX2                !
 ! D14   D(3,1,23,24)          162.0939         estimate D2E/DX2                !
 ! D15   D(22,1,23,24)         -76.8994         estimate D2E/DX2                !
 ! D16   D(1,2,6,5)            -36.7148         estimate D2E/DX2                !
 ! D17   D(1,2,6,9)           -153.0475         estimate D2E/DX2                !
 ! D18   D(1,2,6,17)            90.8534         estimate D2E/DX2                !
 ! D19   D(1,3,4,5)             53.8392         estimate D2E/DX2                !
 ! D20   D(1,3,4,10)           172.5542         estimate D2E/DX2                !
 ! D21   D(1,3,4,12)           -65.4043         estimate D2E/DX2                !
 ! D22   D(7,3,4,5)            173.3607         estimate D2E/DX2                !
 ! D23   D(7,3,4,10)           -67.9243         estimate D2E/DX2                !
 ! D24   D(7,3,4,12)            54.1172         estimate D2E/DX2                !
 ! D25   D(11,3,4,5)           -66.1457         estimate D2E/DX2                !
 ! D26   D(11,3,4,10)           52.5694         estimate D2E/DX2                !
 ! D27   D(11,3,4,12)          174.6108         estimate D2E/DX2                !
 ! D28   D(1,3,11,15)           34.192          estimate D2E/DX2                !
 ! D29   D(4,3,11,15)          154.2409         estimate D2E/DX2                !
 ! D30   D(7,3,11,15)          -85.5139         estimate D2E/DX2                !
 ! D31   D(3,4,5,6)            -40.5858         estimate D2E/DX2                !
 ! D32   D(3,4,5,8)           -162.8352         estimate D2E/DX2                !
 ! D33   D(3,4,5,13)            82.7583         estimate D2E/DX2                !
 ! D34   D(10,4,5,6)          -160.9121         estimate D2E/DX2                !
 ! D35   D(10,4,5,8)            76.8386         estimate D2E/DX2                !
 ! D36   D(10,4,5,13)          -37.568          estimate D2E/DX2                !
 ! D37   D(12,4,5,6)            80.7897         estimate D2E/DX2                !
 ! D38   D(12,4,5,8)           -41.4596         estimate D2E/DX2                !
 ! D39   D(12,4,5,13)         -155.8662         estimate D2E/DX2                !
 ! D40   D(3,4,12,14)          -54.4144         estimate D2E/DX2                !
 ! D41   D(5,4,12,14)         -176.3731         estimate D2E/DX2                !
 ! D42   D(10,4,12,14)          67.3878         estimate D2E/DX2                !
 ! D43   D(4,5,6,2)             30.4692         estimate D2E/DX2                !
 ! D44   D(4,5,6,9)            146.4515         estimate D2E/DX2                !
 ! D45   D(4,5,6,17)           -94.9946         estimate D2E/DX2                !
 ! D46   D(8,5,6,2)            152.452          estimate D2E/DX2                !
 ! D47   D(8,5,6,9)            -91.5656         estimate D2E/DX2                !
 ! D48   D(8,5,6,17)            26.9883         estimate D2E/DX2                !
 ! D49   D(13,5,6,2)           -91.7374         estimate D2E/DX2                !
 ! D50   D(13,5,6,9)            24.245          estimate D2E/DX2                !
 ! D51   D(13,5,6,17)          142.7988         estimate D2E/DX2                !
 ! D52   D(4,5,13,16)          -52.3832         estimate D2E/DX2                !
 ! D53   D(6,5,13,16)           73.879          estimate D2E/DX2                !
 ! D54   D(8,5,13,16)         -168.4378         estimate D2E/DX2                !
 ! D55   D(2,6,17,18)          -59.6702         estimate D2E/DX2                !
 ! D56   D(2,6,17,19)          174.685          estimate D2E/DX2                !
 ! D57   D(2,6,17,20)           58.0626         estimate D2E/DX2                !
 ! D58   D(5,6,17,18)           69.1482         estimate D2E/DX2                !
 ! D59   D(5,6,17,19)          -56.4967         estimate D2E/DX2                !
 ! D60   D(5,6,17,20)         -173.1191         estimate D2E/DX2                !
 ! D61   D(9,6,17,18)         -173.7572         estimate D2E/DX2                !
 ! D62   D(9,6,17,19)           60.5979         estimate D2E/DX2                !
 ! D63   D(9,6,17,20)          -56.0245         estimate D2E/DX2                !
 ! D64   D(6,17,18,21)         -52.1428         estimate D2E/DX2                !
 ! D65   D(19,17,18,21)         71.7292         estimate D2E/DX2                !
 ! D66   D(20,17,18,21)       -171.3891         estimate D2E/DX2                !
 --------------------------------------------------------------------------------
 Trust Radius=3.00D-01 FncErr=1.00D-07 GrdErr=1.00D-06
 Number of steps in this run=    142 maximum allowed number of steps=    144.
 GradGradGradGradGradGradGradGradGradGradGradGradGradGradGradGradGradGrad

                          Input orientation:                          
 ---------------------------------------------------------------------
 Center     Atomic      Atomic             Coordinates (Angstroms)
 Number     Number       Type             X           Y           Z
 ---------------------------------------------------------------------
      1          6           0        0.810613    1.187116    0.210421
      2          8           0        0.079018    1.038401   -0.983784
      3          6           0        1.379014   -0.148097    0.692603
      4          6           0        0.248056   -1.150333    0.917513
      5          6           0       -0.639184   -1.295387   -0.331648
      6          6           0       -0.949479    0.035558   -1.075406
      7          1           0        1.925007    0.025002    1.636138
      8          1           0       -1.581940   -1.764927   -0.034644
      9          1           0       -1.011515   -0.220151   -2.137546
     10          1           0        0.665727   -2.141009    1.133932
     11          8           0        2.248808   -0.691401   -0.292819
     12          8           0       -0.603054   -0.723601    1.992602
     13          8           0       -0.004385   -2.216006   -1.218168
     14          1           0       -0.064284   -0.566585    2.784245
     15          1           0        2.678495    0.080884   -0.706430
     16          1           0        0.907047   -1.884858   -1.330738
     17          6           0       -2.287556    0.660796   -0.645754
     18          8           0       -2.288780    1.164903    0.678474
     19          1           0       -3.091680   -0.079285   -0.807312
     20          1           0       -2.494784    1.518622   -1.293234
     21          1           0       -1.973262    0.464680    1.280655
     22          1           0        0.188474    1.657084    0.982657
     23          8           0        1.928488    1.985988   -0.106610
     24          1           0        1.603167    2.706349   -0.671665
 ---------------------------------------------------------------------
                    Distance matrix (angstroms):
                    1          2          3          4          5
     1  C    0.000000
     2  O    1.408358   0.000000
     3  C    1.529174   2.430646   0.000000
     4  C    2.506016   2.904145   1.527785   0.000000
     5  C    2.925504   2.527382   2.537418   1.539038   0.000000
     6  C    2.465230   1.439408   2.929414   2.610010   1.555916
     7  H    2.150593   3.361346   1.103780   2.170253   3.491516
     8  H    3.807745   3.393862   3.451127   2.152490   1.094289
     9  H    3.288389   2.025927   3.705343   3.432950   2.134486
    10  H    3.456918   3.864919   2.162232   1.096688   2.136772
    11  O    2.418777   2.859657   1.422244   2.382967   2.950729
    12  O    2.970768   3.525443   2.439220   1.436073   2.393822
    13  O    3.779726   3.263902   3.137051   2.400108   1.427034
    14  H    3.235040   4.098116   2.575501   1.980658   3.251223
    15  H    2.356554   2.784070   1.923116   3.171769   3.611312
    16  H    3.438240   3.058014   2.707951   2.455286   1.933000
    17  C    3.257100   2.420232   3.986131   3.486161   2.577294
    18  O    3.134614   2.895785   3.895752   3.442818   3.129623
    19  H    4.226990   3.366555   4.716098   3.908453   2.778470
    20  H    3.646440   2.636442   4.661310   4.419717   3.505217
    21  H    3.068758   3.109452   3.458187   2.770269   2.734432
    22  H    1.097395   2.064374   2.181787   2.808805   3.336091
    23  O    1.410089   2.255636   2.344138   3.702592   4.172649
    24  H    1.927248   2.280899   3.171645   4.385865   4.599744
                    6          7          8          9         10
     6  C    0.000000
     7  H    3.951614   0.000000
     8  H    2.173692   4.277153   0.000000
     9  H    1.094247   4.787896   2.670939   0.000000
    10  H    3.496785   2.555308   2.561057   4.147940   0.000000
    11  O    3.371936   2.083016   3.986696   3.775553   2.577426
    12  O    3.179466   2.660557   2.480384   4.180721   2.087143
    13  O    2.446043   4.109955   2.023087   2.417231   2.446845
    14  H    4.005378   2.371793   3.418397   5.024071   2.394840
    15  H    3.646970   2.461400   4.691441   3.969243   3.517808
    16  H    2.683259   3.672351   2.808790   2.665158   2.489668
    17  C    1.538172   4.832903   2.599131   2.151695   4.442890
    18  O    2.478960   4.469060   3.097106   3.388178   4.457085
    19  H    2.161964   5.581082   2.391175   2.473146   4.705023
    20  H    2.152881   5.508781   3.633047   2.436448   5.410440
    21  H    2.604477   3.939059   2.618070   3.616359   3.711523
    22  H    2.856555   2.471088   3.984900   3.834012   3.830948
    23  O    3.609077   2.623480   5.137864   4.199449   4.490614
    24  H    3.716468   3.552345   5.526573   4.189245   5.256981
                   11         12         13         14         15
    11  O    0.000000
    12  O    3.654764   0.000000
    13  O    2.873599   3.590922   0.000000
    14  H    3.851532   0.970374   4.329375   0.000000
    15  H    0.975771   4.324411   3.568673   4.486297   0.000000
    16  H    2.074111   3.830602   0.976237   4.428816   2.718810
    17  C    4.746746   3.422722   3.717058   4.267821   5.000164
    18  O    4.997898   2.852201   4.499584   3.518623   5.269429
    19  H    5.400019   3.801042   3.777005   4.722486   5.773279
    20  H    5.327917   4.404875   4.489451   5.184713   5.401319
    21  H    4.651690   1.948422   4.160129   2.639789   5.072933
    22  H    3.374492   2.704472   4.458885   2.873031   3.396708
    23  O    2.702904   4.261135   4.756923   4.340946   2.133475
    24  H    3.479236   4.871374   5.206963   5.043392   2.837359
                   16         17         18         19         20
    16  H    0.000000
    17  C    4.141865   0.000000
    18  O    4.852967   1.416935   0.000000
    19  H    4.418584   1.104734   2.097668   0.000000
    20  H    4.812228   1.094550   2.013750   1.773615   0.000000
    21  H    4.542673   1.961707   0.975954   2.430301   2.829785
    22  H    4.291095   3.126506   2.543925   4.120483   3.521182
    23  O    4.186321   4.452172   4.367595   5.473429   4.603460
    24  H    4.690218   4.395757   4.398430   5.460746   4.311641
                   21         22         23         24
    21  H    0.000000
    22  H    2.486711   0.000000
    23  O    4.411636   2.079021   0.000000
    24  H    4.650535   2.416422   0.971618   0.000000
 Stoichiometry    C6H12O6
 Framework group  C1[X(C6H12O6)]
 Deg. of freedom    66
 Full point group                 C1      NOp   1
 Largest Abelian subgroup         C1      NOp   1
 Largest concise Abelian subgroup C1      NOp   1
                         Standard orientation:                         
 ---------------------------------------------------------------------
 Center     Atomic      Atomic             Coordinates (Angstroms)
 Number     Number       Type             X           Y           Z
 ---------------------------------------------------------------------
      1          6           0       -0.810613   -1.187116    0.210421
      2          8           0       -0.079018   -1.038401   -0.983784
      3          6           0       -1.379014    0.148097    0.692603
      4          6           0       -0.248056    1.150333    0.917513
      5          6           0        0.639184    1.295387   -0.331648
      6          6           0        0.949479   -0.035558   -1.075406
      7          1           0       -1.925007   -0.025002    1.636138
      8          1           0        1.581940    1.764927   -0.034644
      9          1           0        1.011515    0.220151   -2.137546
     10          1           0       -0.665726    2.141009    1.133932
     11          8           0       -2.248808    0.691402   -0.292819
     12          8           0        0.603054    0.723601    1.992602
     13          8           0        0.004386    2.216006   -1.218168
     14          1           0        0.064284    0.566585    2.784245
     15          1           0       -2.678495   -0.080883   -0.706430
     16          1           0       -0.907047    1.884858   -1.330738
     17          6           0        2.287556   -0.660797   -0.645754
     18          8           0        2.288780   -1.164904    0.678474
     19          1           0        3.091680    0.079284   -0.807312
     20          1           0        2.494784   -1.518623   -1.293234
     21          1           0        1.973262   -0.464681    1.280655
     22          1           0       -0.188474   -1.657084    0.982657
     23          8           0       -1.928489   -1.985988   -0.106610
     24          1           0       -1.603168   -2.706349   -0.671665
 ---------------------------------------------------------------------
 Rotational constants (GHZ):      1.1188642      0.9179292      0.7681526
 Standard basis: 6-31G(d) (6D, 7F)
 There are   204 symmetry adapted cartesian basis functions of A   symmetry.
 There are   204 symmetry adapted basis functions of A   symmetry.
   204 basis functions,   384 primitive gaussians,   204 cartesian basis functions
    48 alpha electrons       48 beta electrons
       nuclear repulsion energy       860.6495062589 Hartrees.
 NAtoms=   24 NActive=   24 NUniq=   24 SFac= 1.00D+00 NAtFMM=   60 NAOKFM=F Big=F
 Integral buffers will be    131072 words long.
 Raffenetti 2 integral format.
 Two-electron integral symmetry is turned on.
 One-electron integrals computed using PRISM.
 NBasis=   204 RedAO= T EigKep=  1.86D-03  NBF=   204
 NBsUse=   204 1.00D-06 EigRej= -1.00D+00 NBFU=   204
 ExpMin= 1.61D-01 ExpMax= 5.48D+03 ExpMxC= 8.25D+02 IAcc=1 IRadAn=         1 AccDes= 0.00D+00
 Harris functional with IExCor=  402 and IRadAn=       1 diagonalized for initial guess.
 HarFok:  IExCor=  402 AccDes= 0.00D+00 IRadAn=         1 IDoV= 1 UseB2=F ITyADJ=14
 ICtDFT=  3500011 ScaDFX=  1.000000  1.000000  1.000000  1.000000
 FoFCou: FMM=F IPFlag=           0 FMFlag=      100000 FMFlg1=           0
         NFxFlg=           0 DoJE=T BraDBF=F KetDBF=T FulRan=T
         wScrn=  0.000000 ICntrl=     500 IOpCl=  0 I1Cent=   200000004 NGrid=           0
         NMat0=    1 NMatS0=      1 NMatT0=    0 NMatD0=    1 NMtDS0=    0 NMtDT0=    0
 Petite list used in FoFCou.
 Requested convergence on RMS density matrix=1.00D-08 within 128 cycles.
 Requested convergence on MAX density matrix=1.00D-06.
 Requested convergence on             energy=1.00D-06.
 No special actions if energy rises.
 Integral accuracy reduced to 1.0D-05 until final iterations.
 Initial convergence to 1.0D-05 achieved.  Increase integral accuracy.
 SCF Done:  E(RB3LYP) =  -687.143645405     A.U. after   14 cycles
            NFock= 14  Conv=0.30D-08     -V/T= 2.0086

 **********************************************************************

            Population analysis using the SCF density.

 **********************************************************************

 Orbital symmetries:
       Occupied  (A) (A) (A) (A) (A) (A) (A) (A) (A) (A) (A) (A)
                 (A) (A) (A) (A) (A) (A) (A) (A) (A) (A) (A) (A)
                 (A) (A) (A) (A) (A) (A) (A) (A) (A) (A) (A) (A)
                 (A) (A) (A) (A) (A) (A) (A) (A) (A) (A) (A) (A)
       Virtual   (A) (A) (A) (A) (A) (A) (A) (A) (A) (A) (A) (A)
                 (A) (A) (A) (A) (A) (A) (A) (A) (A) (A) (A) (A)
                 (A) (A) (A) (A) (A) (A) (A) (A) (A) (A) (A) (A)
                 (A) (A) (A) (A) (A) (A) (A) (A) (A) (A) (A) (A)
                 (A) (A) (A) (A) (A) (A) (A) (A) (A) (A) (A) (A)
                 (A) (A) (A) (A) (A) (A) (A) (A) (A) (A) (A) (A)
                 (A) (A) (A) (A) (A) (A) (A) (A) (A) (A) (A) (A)
                 (A) (A) (A) (A) (A) (A) (A) (A) (A) (A) (A) (A)
                 (A) (A) (A) (A) (A) (A) (A) (A) (A) (A) (A) (A)
                 (A) (A) (A) (A) (A) (A) (A) (A) (A) (A) (A) (A)
                 (A) (A) (A) (A) (A) (A) (A) (A) (A) (A) (A) (A)
                 (A) (A) (A) (A) (A) (A) (A) (A) (A) (A) (A) (A)
                 (A) (A) (A) (A) (A) (A) (A) (A) (A) (A) (A) (A)
 The electronic state is 1-A.
 Alpha  occ. eigenvalues --  -19.18388 -19.17277 -19.16764 -19.15974 -19.13714
 Alpha  occ. eigenvalues --  -19.13174 -10.29338 -10.25668 -10.25397 -10.24565
 Alpha  occ. eigenvalues --  -10.24178 -10.22611  -1.08739  -1.05418  -1.03557
 Alpha  occ. eigenvalues --   -1.02104  -1.00922  -0.99907  -0.78515  -0.77129
 Alpha  occ. eigenvalues --   -0.69635  -0.65975  -0.63578  -0.57870  -0.54970
 Alpha  occ. eigenvalues --   -0.53026  -0.52928  -0.52215  -0.50418  -0.48170
 Alpha  occ. eigenvalues --   -0.47092  -0.44857  -0.44057  -0.43249  -0.41878
 Alpha  occ. eigenvalues --   -0.40222  -0.38736  -0.37531  -0.36935  -0.35137
 Alpha  occ. eigenvalues --   -0.32967  -0.32039  -0.31232  -0.30367  -0.28795
 Alpha  occ. eigenvalues --   -0.28223  -0.26748  -0.24180
 Alpha virt. eigenvalues --    0.03353   0.06290   0.09298   0.09839   0.11526
 Alpha virt. eigenvalues --    0.12613   0.13056   0.13836   0.14932   0.16607
 Alpha virt. eigenvalues --    0.16998   0.17446   0.17907   0.18626   0.20237
 Alpha virt. eigenvalues --    0.20945   0.21707   0.24897   0.25232   0.26295
 Alpha virt. eigenvalues --    0.28236   0.29605   0.32445   0.33799   0.51337
 Alpha virt. eigenvalues --    0.53145   0.54249   0.55085   0.56947   0.58061
 Alpha virt. eigenvalues --    0.58756   0.59010   0.61301   0.62653   0.64597
 Alpha virt. eigenvalues --    0.66520   0.69440   0.70228   0.71415   0.74104
 Alpha virt. eigenvalues --    0.77104   0.78645   0.79306   0.80719   0.82143
 Alpha virt. eigenvalues --    0.82505   0.84303   0.85307   0.87367   0.87726
 Alpha virt. eigenvalues --    0.89729   0.90445   0.91444   0.92282   0.94380
 Alpha virt. eigenvalues --    0.95282   0.97650   0.98654   0.99300   1.02022
 Alpha virt. eigenvalues --    1.04755   1.06373   1.07261   1.08376   1.11245
 Alpha virt. eigenvalues --    1.12586   1.13983   1.17032   1.21375   1.21986
 Alpha virt. eigenvalues --    1.25095   1.26321   1.27224   1.31286   1.31662
 Alpha virt. eigenvalues --    1.34174   1.37779   1.40968   1.42851   1.47057
 Alpha virt. eigenvalues --    1.49552   1.51861   1.56433   1.59945   1.61055
 Alpha virt. eigenvalues --    1.62084   1.65382   1.66640   1.68908   1.69425
 Alpha virt. eigenvalues --    1.73187   1.74380   1.75528   1.77712   1.81132
 Alpha virt. eigenvalues --    1.82933   1.83636   1.86268   1.87557   1.88222
 Alpha virt. eigenvalues --    1.92100   1.95277   1.97729   2.00339   2.01248
 Alpha virt. eigenvalues --    2.03670   2.04274   2.06136   2.07773   2.10311
 Alpha virt. eigenvalues --    2.11954   2.13336   2.15118   2.17316   2.18808
 Alpha virt. eigenvalues --    2.23894   2.25157   2.29516   2.34051   2.36703
 Alpha virt. eigenvalues --    2.37675   2.39479   2.41553   2.42616   2.44994
 Alpha virt. eigenvalues --    2.46562   2.50100   2.51867   2.54526   2.56882
 Alpha virt. eigenvalues --    2.58638   2.63093   2.67056   2.72014   2.72552
 Alpha virt. eigenvalues --    2.77806   2.78627   2.86959   2.88233   2.92709
 Alpha virt. eigenvalues --    2.93310   2.97188   3.01719   3.05328   3.74778
 Alpha virt. eigenvalues --    3.81132   3.83746   3.90974   3.99153   4.07193
 Alpha virt. eigenvalues --    4.31670   4.33957   4.48852   4.63709   4.66777
 Alpha virt. eigenvalues --    4.73211
          Condensed to atoms (all electrons):
               1          2          3          4          5          6
     1  C    4.719295   0.228554   0.267169  -0.025690  -0.030121  -0.016853
     2  O    0.228554   8.326226  -0.033286  -0.010394  -0.026860   0.215095
     3  C    0.267169  -0.033286   5.103411   0.312050  -0.011822  -0.025511
     4  C   -0.025690  -0.010394   0.312050   5.021305   0.300136  -0.025404
     5  C   -0.030121  -0.026860  -0.011822   0.300136   4.927415   0.299875
     6  C   -0.016853   0.215095  -0.025511  -0.025404   0.299875   5.049139
     7  H   -0.044027   0.003340   0.348115  -0.055437   0.005843   0.000458
     8  H    0.000453   0.002529   0.005396  -0.044992   0.373430  -0.053752
     9  H    0.004471  -0.036849   0.000029   0.005138  -0.048436   0.354119
    10  H    0.005878  -0.000168  -0.057764   0.378888  -0.053447   0.005769
    11  O   -0.016580  -0.003569   0.195873  -0.042876   0.006110   0.000345
    12  O    0.000737  -0.000420  -0.038313   0.173574  -0.039462   0.003935
    13  O   -0.000319   0.001108   0.000589  -0.039084   0.254855  -0.046846
    14  H   -0.001057   0.000003  -0.002949  -0.020200   0.006059  -0.000213
    15  H   -0.008039   0.003071  -0.044132   0.005035   0.000138  -0.000047
    16  H    0.000475   0.001329  -0.003786  -0.010252  -0.029326  -0.002869
    17  C   -0.006224  -0.049934   0.000057  -0.002423  -0.030662   0.279414
    18  O    0.000828   0.000191  -0.000667   0.002029  -0.001447  -0.046678
    19  H    0.000377   0.004027  -0.000038   0.000527  -0.006799  -0.048992
    20  H   -0.000313  -0.000261   0.000049  -0.000203   0.005142  -0.028010
    21  H    0.001080  -0.000081  -0.000014  -0.005691   0.002608  -0.001853
    22  H    0.359309  -0.054252  -0.071368  -0.005506  -0.000070   0.001510
    23  O    0.239949  -0.060965  -0.041231   0.002586  -0.000008   0.002556
    24  H   -0.023925   0.008248   0.007767  -0.000226   0.000050  -0.000087
               7          8          9         10         11         12
     1  C   -0.044027   0.000453   0.004471   0.005878  -0.016580   0.000737
     2  O    0.003340   0.002529  -0.036849  -0.000168  -0.003569  -0.000420
     3  C    0.348115   0.005396   0.000029  -0.057764   0.195873  -0.038313
     4  C   -0.055437  -0.044992   0.005138   0.378888  -0.042876   0.173574
     5  C    0.005843   0.373430  -0.048436  -0.053447   0.006110  -0.039462
     6  C    0.000458  -0.053752   0.354119   0.005769   0.000345   0.003935
     7  H    0.648295  -0.000133   0.000019  -0.006383  -0.036159  -0.001253
     8  H   -0.000133   0.586075   0.001344  -0.005168  -0.000065   0.002726
     9  H    0.000019   0.001344   0.589089  -0.000161  -0.000006  -0.000070
    10  H   -0.006383  -0.005168  -0.000161   0.593556   0.003697  -0.029371
    11  O   -0.036159  -0.000065  -0.000006   0.003697   8.291663   0.001558
    12  O   -0.001253   0.002726  -0.000070  -0.029371   0.001558   8.302926
    13  O   -0.000224  -0.036815   0.004259   0.007199  -0.011896   0.001549
    14  H    0.007380  -0.000207   0.000011  -0.003528   0.000004   0.230368
    15  H    0.001026   0.000022  -0.000065  -0.000485   0.232835  -0.000097
    16  H    0.000511   0.006015   0.000029  -0.000593   0.039619   0.000080
    17  C    0.000008   0.001466  -0.037164  -0.000218   0.000055   0.000181
    18  O   -0.000003  -0.000051   0.003170  -0.000039  -0.000001  -0.012859
    19  H   -0.000002   0.003911   0.005373  -0.000002   0.000000   0.000013
    20  H   -0.000001  -0.000020  -0.003666   0.000004   0.000000  -0.000034
    21  H   -0.000048   0.000562  -0.000185   0.000514  -0.000004   0.042460
    22  H    0.003570  -0.000018  -0.000338  -0.000095   0.003461   0.008150
    23  O   -0.000297   0.000003  -0.000046  -0.000054  -0.011984   0.000039
    24  H   -0.000469  -0.000002  -0.000059   0.000008   0.000184   0.000005
              13         14         15         16         17         18
     1  C   -0.000319  -0.001057  -0.008039   0.000475  -0.006224   0.000828
     2  O    0.001108   0.000003   0.003071   0.001329  -0.049934   0.000191
     3  C    0.000589  -0.002949  -0.044132  -0.003786   0.000057  -0.000667
     4  C   -0.039084  -0.020200   0.005035  -0.010252  -0.002423   0.002029
     5  C    0.254855   0.006059   0.000138  -0.029326  -0.030662  -0.001447
     6  C   -0.046846  -0.000213  -0.000047  -0.002869   0.279414  -0.046678
     7  H   -0.000224   0.007380   0.001026   0.000511   0.000008  -0.000003
     8  H   -0.036815  -0.000207   0.000022   0.006015   0.001466  -0.000051
     9  H    0.004259   0.000011  -0.000065   0.000029  -0.037164   0.003170
    10  H    0.007199  -0.003528  -0.000485  -0.000593  -0.000218  -0.000039
    11  O   -0.011896   0.000004   0.232835   0.039619   0.000055  -0.000001
    12  O    0.001549   0.230368  -0.000097   0.000080   0.000181  -0.012859
    13  O    8.282151  -0.000132   0.000394   0.229082   0.003514   0.000005
    14  H   -0.000132   0.377446  -0.000003   0.000017  -0.000012   0.000684
    15  H    0.000394  -0.000003   0.357275  -0.000722   0.000021  -0.000002
    16  H    0.229082   0.000017  -0.000722   0.356344   0.000152   0.000000
    17  C    0.003514  -0.000012   0.000021   0.000152   4.915110   0.283325
    18  O    0.000005   0.000684  -0.000002   0.000000   0.283325   8.261526
    19  H   -0.000012  -0.000001  -0.000001  -0.000002   0.337693  -0.037257
    20  H   -0.000089   0.000000   0.000000   0.000005   0.367472  -0.041025
    21  H    0.000006  -0.001955   0.000002   0.000002  -0.031198   0.220404
    22  H   -0.000007   0.000853   0.001586   0.000018   0.002843   0.014432
    23  O    0.000003  -0.000023   0.033884   0.000002  -0.000120   0.000063
    24  H    0.000000   0.000000  -0.001757  -0.000003   0.000002   0.000001
              19         20         21         22         23         24
     1  C    0.000377  -0.000313   0.001080   0.359309   0.239949  -0.023925
     2  O    0.004027  -0.000261  -0.000081  -0.054252  -0.060965   0.008248
     3  C   -0.000038   0.000049  -0.000014  -0.071368  -0.041231   0.007767
     4  C    0.000527  -0.000203  -0.005691  -0.005506   0.002586  -0.000226
     5  C   -0.006799   0.005142   0.002608  -0.000070  -0.000008   0.000050
     6  C   -0.048992  -0.028010  -0.001853   0.001510   0.002556  -0.000087
     7  H   -0.000002  -0.000001  -0.000048   0.003570  -0.000297  -0.000469
     8  H    0.003911  -0.000020   0.000562  -0.000018   0.000003  -0.000002
     9  H    0.005373  -0.003666  -0.000185  -0.000338  -0.000046  -0.000059
    10  H   -0.000002   0.000004   0.000514  -0.000095  -0.000054   0.000008
    11  O    0.000000   0.000000  -0.000004   0.003461  -0.011984   0.000184
    12  O    0.000013  -0.000034   0.042460   0.008150   0.000039   0.000005
    13  O   -0.000012  -0.000089   0.000006  -0.000007   0.000003   0.000000
    14  H   -0.000001   0.000000  -0.001955   0.000853  -0.000023   0.000000
    15  H   -0.000001   0.000000   0.000002   0.001586   0.033884  -0.001757
    16  H   -0.000002   0.000005   0.000002   0.000018   0.000002  -0.000003
    17  C    0.337693   0.367472  -0.031198   0.002843  -0.000120   0.000002
    18  O   -0.037257  -0.041025   0.220404   0.014432   0.000063   0.000001
    19  H    0.673156  -0.044379  -0.005108   0.000064   0.000002   0.000000
    20  H   -0.044379   0.592409   0.006533  -0.000395  -0.000016   0.000030
    21  H   -0.005108   0.006533   0.351880  -0.001838  -0.000007   0.000002
    22  H    0.000064  -0.000395  -0.001838   0.645101  -0.044878  -0.001608
    23  O    0.000002  -0.000016  -0.000007  -0.044878   8.287556   0.234550
    24  H    0.000000   0.000030   0.000002  -0.001608   0.234550   0.366963
 Mulliken charges:
               1
     1  C    0.344571
     2  O   -0.516683
     3  C    0.090376
     4  C    0.087110
     5  C    0.096797
     6  C    0.084901
     7  H    0.125870
     8  H    0.157291
     9  H    0.159992
    10  H    0.161962
    11  O   -0.652262
    12  O   -0.646421
    13  O   -0.649287
    14  H    0.407453
    15  H    0.420056
    16  H    0.413873
    17  C   -0.033357
    18  O   -0.646629
    19  H    0.117449
    20  H    0.146770
    21  H    0.421930
    22  H    0.139475
    23  O   -0.641563
    24  H    0.410327
 Sum of Mulliken charges =   0.00000
 Mulliken charges with hydrogens summed into heavy atoms:
               1
     1  C    0.484046
     2  O   -0.516683
     3  C    0.216246
     4  C    0.249073
     5  C    0.254088
     6  C    0.244893
    11  O   -0.232207
    12  O   -0.238968
    13  O   -0.235414
    17  C    0.230863
    18  O   -0.224699
    23  O   -0.231236
 Electronic spatial extent (au):  <R**2>=           1793.0634
 Charge=              0.0000 electrons
 Dipole moment (field-independent basis, Debye):
    X=             -1.3977    Y=             -0.8374    Z=              1.2405  Tot=              2.0479
 Quadrupole moment (field-independent basis, Debye-Ang):
   XX=            -74.0223   YY=            -74.9837   ZZ=            -63.4979
   XY=              4.1135   XZ=             -2.5835   YZ=              6.3219
 Traceless Quadrupole moment (field-independent basis, Debye-Ang):
   XX=             -3.1877   YY=             -4.1491   ZZ=              7.3368
   XY=              4.1135   XZ=             -2.5835   YZ=              6.3219
 Octapole moment (field-independent basis, Debye-Ang**2):
  XXX=            -11.2282  YYY=            -31.7519  ZZZ=             22.8426  XYY=            -12.3912
  XXY=              8.3668  XXZ=            -16.1833  XZZ=            -10.8025  YZZ=             -3.4730
  YYZ=              0.1327  XYZ=              0.0548
 Hexadecapole moment (field-independent basis, Debye-Ang**3):
 XXXX=           -990.2979 YYYY=           -683.9635 ZZZZ=           -387.7727 XXXY=             34.0493
 XXXZ=             16.3094 YYYX=             24.6570 YYYZ=             51.4415 ZZZX=              9.7485
 ZZZY=              8.8365 XXYY=           -294.4451 XXZZ=           -224.3012 YYZZ=           -202.4097
 XXYZ=             17.8172 YYXZ=             14.0613 ZZXY=             -7.9292
 N-N= 8.606495062589D+02 E-N=-3.332630554215D+03  KE= 6.812922755717D+02
 Calling FoFJK, ICntrl=      2127 FMM=F ISym2X=0 I1Cent= 0 IOpClX= 0 NMat=1 NMatS=1 NMatT=0.
 ***** Axes restored to original set *****
 -------------------------------------------------------------------
 Center     Atomic                   Forces (Hartrees/Bohr)
 Number     Number              X              Y              Z
 -------------------------------------------------------------------
      1        6           0.000032072    0.000001186   -0.000007588
      2        8           0.004153655   -0.003472913   -0.007982837
      3        6          -0.000029673   -0.000000710    0.000027277
      4        6          -0.007360200    0.001143622    0.005133183
      5        6           0.012051133   -0.003009955   -0.010359350
      6        6          -0.008914821    0.005354379    0.013218606
      7        1           0.000000617    0.000004888   -0.000013517
      8        1          -0.000003608    0.000012132    0.000014729
      9        1           0.000006072   -0.000001272    0.000005254
     10        1          -0.000003136    0.000004224   -0.000006859
     11        8           0.000008329   -0.000031282   -0.000034343
     12        8           0.000043200    0.000011460    0.000005710
     13        8          -0.000023357    0.000008538    0.000024788
     14        1           0.000001771    0.000011234   -0.000008046
     15        1           0.000000304    0.000001179   -0.000004740
     16        1          -0.000007754   -0.000007618    0.000001165
     17        6           0.000050174   -0.000034425   -0.000110562
     18        8           0.000013310   -0.000039816    0.000092914
     19        1          -0.000000723    0.000020353    0.000031182
     20        1          -0.000015117   -0.000000033   -0.000027982
     21        1          -0.000004611    0.000042850    0.000034373
     22        1           0.000011622    0.000007574   -0.000005872
     23        8          -0.000014972   -0.000011233   -0.000008393
     24        1           0.000005713   -0.000014362   -0.000019093
 -------------------------------------------------------------------
 Cartesian Forces:  Max     0.013218606 RMS     0.003160944

 GradGradGradGradGradGradGradGradGradGradGradGradGradGradGradGradGradGrad
 Berny optimization.
 FormGI is forming the generalized inverse of G from B-inverse, IUseBI=4.
 Internal  Forces:  Max     0.005869334 RMS     0.001027985
 Search for a local minimum.
 Step number   1 out of a maximum of  142
 All quantities printed in internal units (Hartrees-Bohrs-Radians)
 Mixed Optimization -- RFO/linear search
 Second derivative matrix not updated -- first step.
 ITU=  0
     Eigenvalues ---    0.00261   0.00377   0.00630   0.01192   0.01215
     Eigenvalues ---    0.01334   0.01398   0.01468   0.01558   0.02907
     Eigenvalues ---    0.03387   0.04344   0.04412   0.04604   0.04673
     Eigenvalues ---    0.04867   0.05294   0.05509   0.05894   0.06098
     Eigenvalues ---    0.06809   0.06898   0.06980   0.07246   0.07564
     Eigenvalues ---    0.09211   0.10746   0.11441   0.11753   0.14077
     Eigenvalues ---    0.15055   0.16000   0.16000   0.16000   0.16000
     Eigenvalues ---    0.16000   0.16552   0.17575   0.18415   0.19662
     Eigenvalues ---    0.20262   0.22077   0.26092   0.28029   0.28681
     Eigenvalues ---    0.28696   0.28859   0.33164   0.33268   0.33972
     Eigenvalues ---    0.34051   0.34292   0.34322   0.34326   0.38420
     Eigenvalues ---    0.40129   0.41418   0.42124   0.42734   0.42925
     Eigenvalues ---    0.43989   0.52123   0.52179   0.52215   0.53048
     Eigenvalues ---    0.53301
 RFO step:  Lambda=-5.14474406D-03 EMin= 2.61003534D-03
 Linear search not attempted -- first point.
 Iteration  1 RMS(Cart)=  0.10147242 RMS(Int)=  0.00316421
 Iteration  2 RMS(Cart)=  0.00472329 RMS(Int)=  0.00114316
 Iteration  3 RMS(Cart)=  0.00001249 RMS(Int)=  0.00114314
 Iteration  4 RMS(Cart)=  0.00000002 RMS(Int)=  0.00114314
 Variable       Old X    -DE/DX   Delta X   Delta X   Delta X     New X
                                 (Linear)    (Quad)   (Total)
    R1        2.66141   0.00045   0.00000   0.00387   0.00474   2.66615
    R2        2.88972  -0.00063   0.00000   0.00563   0.00723   2.89695
    R3        2.07378   0.00000   0.00000   0.00000   0.00000   2.07378
    R4        2.66468  -0.00002   0.00000  -0.00005  -0.00005   2.66463
    R5        2.72009   0.00004   0.00000  -0.00267  -0.00311   2.71698
    R6        2.88710   0.00023   0.00000   0.00530   0.00582   2.89292
    R7        2.08584  -0.00001   0.00000  -0.00002  -0.00002   2.08582
    R8        2.68765   0.00003   0.00000   0.00007   0.00007   2.68772
    R9        2.90836  -0.00034   0.00000  -0.00547  -0.00636   2.90200
   R10        2.07244   0.00000   0.00000  -0.00001  -0.00001   2.07243
   R11        2.71378  -0.00002   0.00000  -0.00006  -0.00006   2.71373
   R12        2.94025   0.00035   0.00000  -0.00782  -0.00942   2.93084
   R13        2.06791   0.00000   0.00000  -0.00001  -0.00001   2.06790
   R14        2.69670  -0.00002   0.00000  -0.00005  -0.00005   2.69665
   R15        2.06783   0.00000   0.00000  -0.00001  -0.00001   2.06782
   R16        2.90672  -0.00005   0.00000  -0.00017  -0.00017   2.90655
   R17        1.84394   0.00001   0.00000   0.00001   0.00001   1.84395
   R18        1.83374  -0.00001   0.00000  -0.00002  -0.00002   1.83372
   R19        1.84482   0.00000   0.00000   0.00000   0.00000   1.84483
   R20        2.67762   0.00011   0.00000   0.00024   0.00024   2.67786
   R21        2.08764  -0.00002   0.00000  -0.00005  -0.00005   2.08760
   R22        2.06840   0.00002   0.00000   0.00006   0.00006   2.06846
   R23        1.84429  -0.00001   0.00000  -0.00002  -0.00002   1.84427
   R24        1.83609   0.00000   0.00000  -0.00001  -0.00001   1.83608
    A1        1.94793   0.00076   0.00000   0.01529   0.01373   1.96167
    A2        1.92561  -0.00054   0.00000  -0.01058  -0.00996   1.91565
    A3        1.85563   0.00013   0.00000   0.00347   0.00372   1.85935
    A4        1.94204  -0.00017   0.00000  -0.00569  -0.00566   1.93638
    A5        1.84512  -0.00025   0.00000  -0.00012   0.00067   1.84580
    A6        1.94446   0.00011   0.00000  -0.00134  -0.00156   1.94290
    A7        2.09291  -0.00162   0.00000  -0.02424  -0.02843   2.06448
    A8        1.92203   0.00111   0.00000   0.01540   0.01359   1.93562
    A9        1.89281  -0.00017   0.00000  -0.00064   0.00005   1.89286
   A10        1.92026  -0.00047   0.00000  -0.00593  -0.00566   1.91460
   A11        1.92113   0.00003   0.00000   0.00392   0.00423   1.92536
   A12        1.87981  -0.00069   0.00000  -0.00908  -0.00832   1.87149
   A13        1.92801   0.00020   0.00000  -0.00354  -0.00389   1.92413
   A14        1.94883  -0.00159   0.00000  -0.02304  -0.02587   1.92296
   A15        1.91741  -0.00050   0.00000  -0.00735  -0.00623   1.91119
   A16        1.93264   0.00143   0.00000   0.01482   0.01513   1.94777
   A17        1.86982   0.00055   0.00000   0.00003   0.00082   1.87064
   A18        1.86917   0.00036   0.00000   0.00988   0.01072   1.87989
   A19        1.92454  -0.00027   0.00000   0.00567   0.00513   1.92967
   A20        2.00681  -0.00007   0.00000  -0.02512  -0.03162   1.97519
   A21        1.89316  -0.00185   0.00000  -0.02063  -0.02001   1.87315
   A22        1.88450   0.00192   0.00000   0.02913   0.03165   1.91615
   A23        1.90177  -0.00087   0.00000  -0.01667  -0.01550   1.88628
   A24        1.92154   0.00080   0.00000   0.02656   0.02815   1.94969
   A25        1.84942   0.00006   0.00000   0.00901   0.00828   1.85771
   A26        2.00760  -0.00030   0.00000  -0.02025  -0.02561   1.98199
   A27        1.83911  -0.00179   0.00000  -0.02281  -0.02261   1.81650
   A28        1.89716   0.00174   0.00000   0.02733   0.02971   1.92687
   A29        1.84981  -0.00139   0.00000  -0.01813  -0.01755   1.83226
   A30        1.96890   0.00110   0.00000   0.02421   0.02570   1.99460
   A31        1.89315   0.00036   0.00000   0.00590   0.00522   1.89838
   A32        1.83450  -0.00002   0.00000  -0.00010  -0.00010   1.83440
   A33        1.90685   0.00000   0.00000   0.00001   0.00001   1.90687
   A34        1.84223   0.00000   0.00000   0.00002   0.00002   1.84225
   A35        1.98933   0.00001   0.00000   0.00004   0.00004   1.98936
   A36        1.89657   0.00001   0.00000   0.00001   0.00001   1.89658
   A37        1.89445  -0.00001   0.00000   0.00004   0.00004   1.89449
   A38        1.95453  -0.00002   0.00000  -0.00026  -0.00026   1.95427
   A39        1.84819   0.00002   0.00000   0.00026   0.00026   1.84846
   A40        1.87624  -0.00001   0.00000  -0.00008  -0.00008   1.87615
   A41        1.89770   0.00008   0.00000   0.00050   0.00050   1.89819
   A42        1.86017   0.00000   0.00000  -0.00001  -0.00001   1.86016
    D1        0.89141   0.00010   0.00000   0.00502   0.00392   0.89533
    D2       -1.27724   0.00017   0.00000   0.00913   0.00875  -1.26849
    D3        2.89519   0.00026   0.00000   0.01460   0.01397   2.90917
    D4       -1.02160   0.00083   0.00000   0.06115   0.06120  -0.96041
    D5       -3.12478   0.00024   0.00000   0.04746   0.04764  -3.07714
    D6        1.04787   0.00038   0.00000   0.05580   0.05577   1.10364
    D7        1.13780   0.00057   0.00000   0.05439   0.05407   1.19186
    D8       -0.96538  -0.00003   0.00000   0.04070   0.04051  -0.92487
    D9       -3.07591   0.00011   0.00000   0.04904   0.04864  -3.02728
   D10       -3.03185   0.00045   0.00000   0.04949   0.04943  -2.98243
   D11        1.14815  -0.00015   0.00000   0.03580   0.03587   1.18403
   D12       -0.96238  -0.00001   0.00000   0.04414   0.04400  -0.91838
   D13        0.75645  -0.00044   0.00000  -0.01039  -0.00972   0.74673
   D14        2.82907   0.00037   0.00000   0.00878   0.00824   2.83731
   D15       -1.34215   0.00007   0.00000   0.00106   0.00093  -1.34121
   D16       -0.64079  -0.00358   0.00000  -0.14635  -0.14517  -0.78596
   D17       -2.67118  -0.00054   0.00000  -0.09821  -0.09718  -2.76837
   D18        1.58569  -0.00085   0.00000  -0.10626  -0.10528   1.48041
   D19        0.93967  -0.00005   0.00000   0.00355   0.00267   0.94235
   D20        3.01164  -0.00070   0.00000  -0.01569  -0.01601   2.99563
   D21       -1.14152  -0.00042   0.00000  -0.00367  -0.00367  -1.14519
   D22        3.02571   0.00045   0.00000   0.01489   0.01413   3.03984
   D23       -1.18550  -0.00019   0.00000  -0.00436  -0.00456  -1.19006
   D24        0.94452   0.00008   0.00000   0.00766   0.00778   0.95231
   D25       -1.15446   0.00029   0.00000   0.00732   0.00679  -1.14767
   D26        0.91751  -0.00036   0.00000  -0.01193  -0.01189   0.90562
   D27        3.04753  -0.00008   0.00000   0.00010   0.00045   3.04798
   D28        0.59676  -0.00034   0.00000  -0.00534  -0.00452   0.59224
   D29        2.69201   0.00031   0.00000   0.00439   0.00364   2.69565
   D30       -1.49250   0.00004   0.00000   0.00148   0.00142  -1.49108
   D31       -0.70836  -0.00319   0.00000  -0.13889  -0.13734  -0.84569
   D32       -2.84201  -0.00060   0.00000  -0.08420  -0.08316  -2.92517
   D33        1.44440  -0.00072   0.00000  -0.09925  -0.09864   1.34577
   D34       -2.80845  -0.00199   0.00000  -0.11632  -0.11544  -2.92388
   D35        1.34109   0.00060   0.00000  -0.06163  -0.06126   1.27982
   D36       -0.65569   0.00048   0.00000  -0.07667  -0.07674  -0.73243
   D37        1.41005  -0.00215   0.00000  -0.12804  -0.12748   1.28256
   D38       -0.72361   0.00044   0.00000  -0.07335  -0.07331  -0.79692
   D39       -2.72038   0.00032   0.00000  -0.08840  -0.08879  -2.80917
   D40       -0.94971  -0.00034   0.00000  -0.00575  -0.00714  -0.95685
   D41       -3.07829   0.00053   0.00000   0.00730   0.00864  -3.06965
   D42        1.17614  -0.00019   0.00000  -0.00127  -0.00122   1.17491
   D43        0.53179   0.00587   0.00000   0.21668   0.21669   0.74848
   D44        2.55606   0.00259   0.00000   0.16558   0.16534   2.72140
   D45       -1.65797   0.00274   0.00000   0.17469   0.17462  -1.48335
   D46        2.66079   0.00274   0.00000   0.15956   0.15958   2.82037
   D47       -1.59812  -0.00054   0.00000   0.10846   0.10823  -1.48989
   D48        0.47103  -0.00039   0.00000   0.11757   0.11751   0.58855
   D49       -1.60112   0.00276   0.00000   0.17569   0.17626  -1.42486
   D50        0.42315  -0.00052   0.00000   0.12459   0.12491   0.54806
   D51        2.49231  -0.00037   0.00000   0.13370   0.13419   2.62650
   D52       -0.91426  -0.00099   0.00000  -0.00395  -0.00196  -0.91621
   D53        1.28943   0.00079   0.00000   0.00241   0.00032   1.28975
   D54       -2.93979   0.00020   0.00000   0.00145   0.00154  -2.93825
   D55       -1.04144  -0.00097   0.00000  -0.00801  -0.00672  -1.04816
   D56        3.04883  -0.00095   0.00000  -0.00771  -0.00642   3.04241
   D57        1.01338  -0.00095   0.00000  -0.00763  -0.00634   1.00704
   D58        1.20686   0.00089   0.00000   0.00592   0.00461   1.21147
   D59       -0.98605   0.00091   0.00000   0.00623   0.00491  -0.98114
   D60       -3.02150   0.00091   0.00000   0.00630   0.00498  -3.01651
   D61       -3.03264   0.00004   0.00000   0.00161   0.00164  -3.03100
   D62        1.05763   0.00006   0.00000   0.00191   0.00194   1.05958
   D63       -0.97781   0.00007   0.00000   0.00199   0.00202  -0.97579
   D64       -0.91006   0.00000   0.00000   0.00006   0.00006  -0.91001
   D65        1.25191   0.00000   0.00000  -0.00011  -0.00011   1.25180
   D66       -2.99130  -0.00001   0.00000  -0.00019  -0.00019  -2.99149
         Item               Value     Threshold  Converged?
 Maximum Force            0.005869     0.000450     NO 
 RMS     Force            0.001028     0.000300     NO 
 Maximum Displacement     0.365981     0.001800     NO 
 RMS     Displacement     0.103210     0.001200     NO 
 Predicted change in Energy=-3.388637D-03
 GradGradGradGradGradGradGradGradGradGradGradGradGradGradGradGradGradGrad

                          Input orientation:                          
 ---------------------------------------------------------------------
 Center     Atomic      Atomic             Coordinates (Angstroms)
 Number     Number       Type             X           Y           Z
 ---------------------------------------------------------------------
      1          6           0        0.809635    1.183864    0.143694
      2          8           0        0.084486    1.005674   -1.053363
      3          6           0        1.330741   -0.140451    0.713542
      4          6           0        0.187037   -1.139467    0.907080
      5          6           0       -0.592374   -1.312989   -0.404677
      6          6           0       -0.975778    0.034723   -1.069555
      7          1           0        1.827089    0.065312    1.677702
      8          1           0       -1.516176   -1.848940   -0.166342
      9          1           0       -1.105513   -0.200039   -2.130414
     10          1           0        0.598950   -2.120886    1.171374
     11          8           0        2.251444   -0.725753   -0.198932
     12          8           0       -0.739388   -0.694590    1.910095
     13          8           0        0.142285   -2.151084   -1.295866
     14          1           0       -0.257953   -0.514872    2.733214
     15          1           0        2.709993    0.027879   -0.615962
     16          1           0        1.033779   -1.757030   -1.350669
     17          6           0       -2.278727    0.654686   -0.536954
     18          8           0       -2.187303    1.132316    0.794053
     19          1           0       -3.094875   -0.080029   -0.657284
     20          1           0       -2.526671    1.525602   -1.151881
     21          1           0       -1.834044    0.419723    1.359638
     22          1           0        0.187921    1.709875    0.879263
     23          8           0        1.955717    1.934735   -0.189418
     24          1           0        1.661735    2.635483   -0.794858
 ---------------------------------------------------------------------
                    Distance matrix (angstroms):
                    1          2          3          4          5
     1  C    0.000000
     2  O    1.410865   0.000000
     3  C    1.533000   2.447183   0.000000
     4  C    2.523540   2.907831   1.530865   0.000000
     5  C    2.915582   2.501026   2.514683   1.535675   0.000000
     6  C    2.445444   1.437764   2.920641   2.576420   1.550932
     7  H    2.153962   3.373376   1.103769   2.176034   3.477042
     8  H    3.834504   3.390832   3.434831   2.134600   1.094283
     9  H    3.279413   2.007456   3.745259   3.432139   2.116634
    10  H    3.467260   3.871628   2.160382   1.096681   2.134452
    11  O    2.417197   2.902343   1.422280   2.378276   2.911096
    12  O    3.008029   3.514506   2.454434   1.436042   2.400458
    13  O    3.693179   3.166586   3.081037   2.424529   1.427005
    14  H    3.275831   4.094813   2.596771   1.980631   3.255025
    15  H    2.350476   2.835611   1.923084   3.169805   3.570462
    16  H    3.306391   2.936338   2.638651   2.489134   1.932989
    17  C    3.206446   2.444310   3.901825   3.374049   2.594808
    18  O    3.067126   2.930872   3.742064   3.288048   3.155989
    19  H    4.181411   3.382894   4.633454   3.786897   2.801163
    20  H    3.595308   2.664239   4.597299   4.325057   3.515312
    21  H    3.008567   3.137941   3.278276   2.592421   2.767100
    22  H    1.097396   2.059525   2.181102   2.849477   3.375659
    23  O    1.410062   2.260766   2.347835   3.712311   4.133621
    24  H    1.927213   2.282722   3.176576   4.395631   4.563298
                    6          7          8          9         10
     6  C    0.000000
     7  H    3.924846   0.000000
     8  H    2.157779   4.271098   0.000000
     9  H    1.094243   4.813763   2.597133   0.000000
    10  H    3.485424   2.558155   2.517379   4.182900   0.000000
    11  O    3.428012   2.080292   3.931611   3.908473   2.560248
    12  O    3.076702   2.686683   2.499502   4.087095   2.090736
    13  O    2.465570   4.073461   2.029189   2.461717   2.509328
    14  H    3.908757   2.407929   3.430785   4.946955   2.398522
    15  H    3.713583   2.458010   4.645978   4.111399   3.502608
    16  H    2.706976   3.622334   2.813067   2.758404   2.584989
    17  C    1.538082   4.702105   2.643289   2.155482   4.347782
    18  O    2.479019   4.246725   3.203226   3.390862   4.299872
    19  H    2.161877   5.449681   2.421232   2.478321   4.599286
    20  H    2.152851   5.393905   3.657858   2.440298   5.335157
    21  H    2.604961   3.691973   2.752541   3.618746   3.522726
    22  H    2.821032   2.455395   4.081960   3.791952   3.863807
    23  O    3.602548   2.645265   5.135248   4.206645   4.487832
    24  H    3.714281   3.570249   5.532106   4.181096   5.255343
                   11         12         13         14         15
    11  O    0.000000
    12  O    3.659787   0.000000
    13  O    2.771892   3.630001   0.000000
    14  H    3.865103   0.970362   4.367020   0.000000
    15  H    0.975778   4.336030   3.435589   4.507801   0.000000
    16  H    1.967928   3.860762   0.976239   4.459779   2.556441
    17  C    4.747875   3.190323   3.782802   4.018133   5.028564
    18  O    4.913339   2.584491   4.536017   3.193112   5.214540
    19  H    5.404644   3.538000   3.895672   4.442150   5.806018
    20  H    5.367224   4.183220   4.545556   4.940099   5.472936
    21  H    4.520228   1.656191   4.191256   2.290031   4.970393
    22  H    3.369408   2.775603   4.431735   2.930092   3.380186
    23  O    2.676890   4.311021   4.605072   4.409387   2.094510
    24  H    3.464216   4.916458   5.046877   5.104629   2.816105
                   16         17         18         19         20
    16  H    0.000000
    17  C    4.177463   0.000000
    18  O    4.829443   1.417063   0.000000
    19  H    4.509867   1.104709   2.097581   0.000000
    20  H    4.846854   1.094581   2.014076   1.773565   0.000000
    21  H    4.506487   1.962145   0.975944   2.430519   2.830270
    22  H    4.208028   3.033719   2.445920   4.042461   3.395366
    23  O    3.978392   4.437323   4.333094   5.457716   4.602774
    24  H    4.471848   4.417841   4.427103   5.478894   4.347648
                   21         22         23         24
    21  H    0.000000
    22  H    2.446139   0.000000
    23  O    4.365447   2.077918   0.000000
    24  H    4.666039   2.414863   0.971613   0.000000
 Stoichiometry    C6H12O6
 Framework group  C1[X(C6H12O6)]
 Deg. of freedom    66
 Full point group                 C1      NOp   1
 Largest Abelian subgroup         C1      NOp   1
 Largest concise Abelian subgroup C1      NOp   1
                         Standard orientation:                         
 ---------------------------------------------------------------------
 Center     Atomic      Atomic             Coordinates (Angstroms)
 Number     Number       Type             X           Y           Z
 ---------------------------------------------------------------------
      1          6           0       -0.772345   -1.205204    0.177777
      2          8           0       -0.135766   -0.986154   -1.062111
      3          6           0       -1.272223    0.096082    0.815637
      4          6           0       -0.133053    1.109356    0.953904
      5          6           0        0.549670    1.327406   -0.404271
      6          6           0        0.905888    0.002683   -1.127879
      7          1           0       -1.696515   -0.141083    1.806614
      8          1           0        1.479676    1.873024   -0.217604
      9          1           0        0.957288    0.264957   -2.188981
     10          1           0       -0.540256    2.077060    1.270831
     11          8           0       -2.263460    0.687439   -0.015401
     12          8           0        0.868112    0.656290    1.878359
     13          8           0       -0.258347    2.174081   -1.220723
     14          1           0        0.448404    0.448791    2.728295
     15          1           0       -2.738649   -0.063624   -0.418194
     16          1           0       -1.145405    1.766446   -1.223058
     17          6           0        2.252257   -0.607759   -0.703208
     18          8           0        2.261711   -1.118622    0.618533
     19          1           0        3.046704    0.143314   -0.861721
     20          1           0        2.469632   -1.459377   -1.355589
     21          1           0        1.938233   -0.425857    1.225085
     22          1           0       -0.092638   -1.738109    0.854748
     23          8           0       -1.927446   -1.967136   -0.093287
     24          1           0       -1.666069   -2.648108   -0.735152
 ---------------------------------------------------------------------
 Rotational constants (GHZ):      1.1474152      0.9246557      0.7840643
 Standard basis: 6-31G(d) (6D, 7F)
 There are   204 symmetry adapted cartesian basis functions of A   symmetry.
 There are   204 symmetry adapted basis functions of A   symmetry.
   204 basis functions,   384 primitive gaussians,   204 cartesian basis functions
    48 alpha electrons       48 beta electrons
       nuclear repulsion energy       865.6892078701 Hartrees.
 NAtoms=   24 NActive=   24 NUniq=   24 SFac= 1.00D+00 NAtFMM=   60 NAOKFM=F Big=F
 Integral buffers will be    131072 words long.
 Raffenetti 2 integral format.
 Two-electron integral symmetry is turned on.
 One-electron integrals computed using PRISM.
 NBasis=   204 RedAO= T EigKep=  1.80D-03  NBF=   204
 NBsUse=   204 1.00D-06 EigRej= -1.00D+00 NBFU=   204
 Initial guess from the checkpoint file:  "/home/iawad/Gau-2651.chk"
 B after Tr=     0.000000    0.000000    0.000000
         Rot=    0.999256   -0.010652   -0.036302   -0.007480 Ang=  -4.42 deg.
 ExpMin= 1.61D-01 ExpMax= 5.48D+03 ExpMxC= 8.25D+02 IAcc=1 IRadAn=         1 AccDes= 0.00D+00
 Harris functional with IExCor=  402 and IRadAn=       1 diagonalized for initial guess.
 HarFok:  IExCor=  402 AccDes= 0.00D+00 IRadAn=         1 IDoV= 1 UseB2=F ITyADJ=14
 ICtDFT=  3500011 ScaDFX=  1.000000  1.000000  1.000000  1.000000
 FoFCou: FMM=F IPFlag=           0 FMFlag=      100000 FMFlg1=           0
         NFxFlg=           0 DoJE=T BraDBF=F KetDBF=T FulRan=T
         wScrn=  0.000000 ICntrl=     500 IOpCl=  0 I1Cent=   200000004 NGrid=           0
         NMat0=    1 NMatS0=      1 NMatT0=    0 NMatD0=    1 NMtDS0=    0 NMtDT0=    0
 Petite list used in FoFCou.
 Requested convergence on RMS density matrix=1.00D-08 within 128 cycles.
 Requested convergence on MAX density matrix=1.00D-06.
 Requested convergence on             energy=1.00D-06.
 No special actions if energy rises.
 Integral accuracy reduced to 1.0D-05 until final iterations.
 Initial convergence to 1.0D-05 achieved.  Increase integral accuracy.
 SCF Done:  E(RB3LYP) =  -687.144415402     A.U. after   12 cycles
            NFock= 12  Conv=0.45D-08     -V/T= 2.0085
 Calling FoFJK, ICntrl=      2127 FMM=F ISym2X=0 I1Cent= 0 IOpClX= 0 NMat=1 NMatS=1 NMatT=0.
 ***** Axes restored to original set *****
 -------------------------------------------------------------------
 Center     Atomic                   Forces (Hartrees/Bohr)
 Number     Number              X              Y              Z
 -------------------------------------------------------------------
      1        6          -0.002130616    0.002551115    0.002307497
      2        8           0.005073871   -0.003605210   -0.003852471
      3        6           0.000697968    0.001457000    0.000774450
      4        6           0.000071807   -0.001671678   -0.001864490
      5        6           0.002741773   -0.001679879   -0.005238385
      6        6          -0.004864224   -0.000271433    0.002921221
      7        1          -0.000054343    0.000482549   -0.000047253
      8        1          -0.000740581   -0.001160148   -0.001720409
      9        1          -0.002269195    0.000523461   -0.000624693
     10        1          -0.000206103    0.000481152    0.001547908
     11        8           0.001938141   -0.000234391   -0.000089120
     12        8           0.008483682   -0.009022012    0.005460497
     13        8          -0.003540775    0.003962015    0.003387050
     14        1           0.000104051   -0.000358830    0.000614706
     15        1           0.000227942    0.000884505    0.000361335
     16        1           0.000464919   -0.000380995    0.000923680
     17        6           0.001480707    0.001311556    0.004177785
     18        8          -0.006326262    0.008211031   -0.006289464
     19        1           0.000158438   -0.000300151   -0.000450071
     20        1           0.000227429   -0.000419393   -0.000955105
     21        1          -0.002285521    0.000212792   -0.001267609
     22        1           0.000340182   -0.000135124    0.000114173
     23        8           0.000380140   -0.000712098   -0.000174844
     24        1           0.000026571   -0.000125832   -0.000016387
 -------------------------------------------------------------------
 Cartesian Forces:  Max     0.009022012 RMS     0.002813707

 GradGradGradGradGradGradGradGradGradGradGradGradGradGradGradGradGradGrad
 Berny optimization.
 Using GEDIIS/GDIIS optimizer.
 FormGI is forming the generalized inverse of G from B-inverse, IUseBI=4.
 Internal  Forces:  Max     0.024088386 RMS     0.004896882
 Search for a local minimum.
 Step number   2 out of a maximum of  142
 All quantities printed in internal units (Hartrees-Bohrs-Radians)
 Mixed Optimization -- RFO/linear search
 Update second derivatives using D2CorX and points    1    2
 DE= -7.70D-04 DEPred=-3.39D-03 R= 2.27D-01
 Trust test= 2.27D-01 RLast= 6.19D-01 DXMaxT set to 3.00D-01
 ITU=  0  0
 Use linear search instead of GDIIS.
     Eigenvalues ---    0.00222   0.00487   0.00928   0.01127   0.01216
     Eigenvalues ---    0.01339   0.01398   0.01481   0.01558   0.02541
     Eigenvalues ---    0.03353   0.03563   0.04475   0.04589   0.04763
     Eigenvalues ---    0.05026   0.05299   0.05732   0.06003   0.06392
     Eigenvalues ---    0.06662   0.06879   0.07052   0.07230   0.07384
     Eigenvalues ---    0.09214   0.10370   0.11376   0.11754   0.14077
     Eigenvalues ---    0.15674   0.16000   0.16000   0.16000   0.16000
     Eigenvalues ---    0.16015   0.16592   0.17691   0.18648   0.19784
     Eigenvalues ---    0.21379   0.25896   0.27627   0.28359   0.28686
     Eigenvalues ---    0.28894   0.33164   0.33268   0.33972   0.34051
     Eigenvalues ---    0.34292   0.34309   0.34325   0.37938   0.39457
     Eigenvalues ---    0.40680   0.42100   0.42296   0.42824   0.43989
     Eigenvalues ---    0.51295   0.52123   0.52211   0.53022   0.53070
     Eigenvalues ---    0.53463
 RFO step:  Lambda=-7.79127486D-03 EMin= 2.22029267D-03
 Quartic linear search produced a step of -0.39050.
 Iteration  1 RMS(Cart)=  0.08410334 RMS(Int)=  0.00286196
 Iteration  2 RMS(Cart)=  0.00377515 RMS(Int)=  0.00085324
 Iteration  3 RMS(Cart)=  0.00000724 RMS(Int)=  0.00085323
 Iteration  4 RMS(Cart)=  0.00000000 RMS(Int)=  0.00085323
 Variable       Old X    -DE/DX   Delta X   Delta X   Delta X     New X
                                 (Linear)    (Quad)   (Total)
    R1        2.66615   0.00520  -0.00185   0.00931   0.00686   2.67300
    R2        2.89695   0.00243  -0.00282   0.01206   0.00846   2.90541
    R3        2.07378  -0.00018   0.00000  -0.00019  -0.00020   2.07358
    R4        2.66463  -0.00007   0.00002  -0.00016  -0.00014   2.66449
    R5        2.71698   0.00295   0.00121  -0.00427  -0.00263   2.71436
    R6        2.89292   0.00243  -0.00227   0.01506   0.01228   2.90520
    R7        2.08582   0.00002   0.00001  -0.00001  -0.00001   2.08581
    R8        2.68772   0.00096  -0.00003   0.00100   0.00097   2.68869
    R9        2.90200   0.00675   0.00248   0.00292   0.00605   2.90805
   R10        2.07243  -0.00013   0.00001  -0.00017  -0.00017   2.07226
   R11        2.71373  -0.00422   0.00002  -0.00411  -0.00409   2.70964
   R12        2.93084   0.00820   0.00368  -0.00121   0.00324   2.93408
   R13        2.06790   0.00082   0.00000   0.00088   0.00089   2.06878
   R14        2.69665  -0.00638   0.00002  -0.00596  -0.00594   2.69071
   R15        2.06782   0.00076   0.00000   0.00082   0.00083   2.06865
   R16        2.90655   0.00770   0.00007   0.00982   0.00989   2.91644
   R17        1.84395   0.00064  -0.00001   0.00050   0.00049   1.84444
   R18        1.83372   0.00051   0.00001   0.00032   0.00033   1.83405
   R19        1.84483   0.00022   0.00000   0.00017   0.00017   1.84499
   R20        2.67786  -0.00481  -0.00009  -0.00381  -0.00390   2.67396
   R21        2.08760   0.00013   0.00002   0.00006   0.00008   2.08768
   R22        2.06846   0.00015  -0.00002   0.00027   0.00025   2.06871
   R23        1.84427  -0.00171   0.00001  -0.00129  -0.00128   1.84299
   R24        1.83608  -0.00009   0.00000  -0.00008  -0.00008   1.83601
    A1        1.96167  -0.00347  -0.00536   0.01250   0.00616   1.96783
    A2        1.91565   0.00220   0.00389  -0.00828  -0.00434   1.91132
    A3        1.85935   0.00021  -0.00145   0.00276   0.00190   1.86126
    A4        1.93638   0.00428   0.00221   0.00024   0.00295   1.93934
    A5        1.84580  -0.00364  -0.00026  -0.00628  -0.00658   1.83921
    A6        1.94290   0.00002   0.00061  -0.00063  -0.00013   1.94277
    A7        2.06448   0.00486   0.01110  -0.05273  -0.04151   2.02297
    A8        1.93562   0.00358  -0.00531   0.02991   0.02409   1.95971
    A9        1.89286   0.00250  -0.00002   0.00578   0.00558   1.89844
   A10        1.91460  -0.00580   0.00221  -0.01945  -0.01700   1.89761
   A11        1.92536  -0.00246  -0.00165   0.00593   0.00438   1.92973
   A12        1.87149   0.00211   0.00325  -0.01165  -0.00838   1.86311
   A13        1.92413  -0.00002   0.00152  -0.01099  -0.00955   1.91458
   A14        1.92296  -0.00538   0.01010  -0.03624  -0.02623   1.89673
   A15        1.91119   0.00176   0.00243  -0.01544  -0.01323   1.89796
   A16        1.94777   0.00052  -0.00591   0.02912   0.02335   1.97112
   A17        1.87064   0.00228  -0.00032   0.00161   0.00100   1.87164
   A18        1.87989   0.00653  -0.00419   0.04102   0.03679   1.91668
   A19        1.92967  -0.00565  -0.00200  -0.02079  -0.02265   1.90702
   A20        1.97519   0.00982   0.01235  -0.01397  -0.00028   1.97491
   A21        1.87315   0.00023   0.00781  -0.02382  -0.01624   1.85691
   A22        1.91615  -0.00580  -0.01236   0.03007   0.01709   1.93324
   A23        1.88628  -0.00117   0.00605  -0.02115  -0.01523   1.87104
   A24        1.94969  -0.00449  -0.01099   0.02530   0.01365   1.96334
   A25        1.85771   0.00122  -0.00323   0.00116  -0.00177   1.85594
   A26        1.98199  -0.01081   0.01000  -0.04534  -0.03942   1.94257
   A27        1.81650   0.00493   0.00883  -0.04826  -0.04095   1.77554
   A28        1.92687  -0.00437  -0.01160   0.05989   0.04621   1.97308
   A29        1.83226  -0.00505   0.00685  -0.05873  -0.05178   1.78048
   A30        1.99460   0.02409  -0.01004   0.10232   0.09034   2.08494
   A31        1.89838  -0.01099  -0.00204  -0.03303  -0.03215   1.86623
   A32        1.83440  -0.00117   0.00004  -0.00290  -0.00286   1.83154
   A33        1.90687   0.00015  -0.00001   0.00037   0.00036   1.90723
   A34        1.84225  -0.00033  -0.00001  -0.00073  -0.00073   1.84151
   A35        1.98936   0.02149  -0.00001   0.03952   0.03932   2.02868
   A36        1.89658  -0.00511  -0.00001  -0.00137  -0.00190   1.89469
   A37        1.89449  -0.00687  -0.00001  -0.02043  -0.02025   1.87424
   A38        1.95427  -0.00468   0.00010   0.00599   0.00558   1.95985
   A39        1.84846  -0.00793  -0.00010  -0.02074  -0.02052   1.82794
   A40        1.87615   0.00201   0.00003  -0.00696  -0.00703   1.86912
   A41        1.89819  -0.00139  -0.00019  -0.00229  -0.00248   1.89571
   A42        1.86016  -0.00004   0.00000  -0.00011  -0.00010   1.86005
    D1        0.89533   0.00869  -0.00153   0.05524   0.05441   0.94974
    D2       -1.26849   0.00400  -0.00342   0.05217   0.04942  -1.21907
    D3        2.90917   0.00263  -0.00546   0.05590   0.05087   2.96003
    D4       -0.96041  -0.00328  -0.02390   0.05872   0.03537  -0.92503
    D5       -3.07714  -0.00408  -0.01860   0.02900   0.01058  -3.06655
    D6        1.10364  -0.00212  -0.02178   0.05048   0.02885   1.13249
    D7        1.19186   0.00024  -0.02111   0.05721   0.03644   1.22830
    D8       -0.92487  -0.00056  -0.01582   0.02749   0.01165  -0.91322
    D9       -3.02728   0.00140  -0.01899   0.04896   0.02991  -2.99736
   D10       -2.98243   0.00041  -0.01930   0.05272   0.03388  -2.94855
   D11        1.18403  -0.00039  -0.01401   0.02300   0.00909   1.19312
   D12       -0.91838   0.00157  -0.01718   0.04448   0.02735  -0.89103
   D13        0.74673   0.00280   0.00380  -0.00821  -0.00399   0.74274
   D14        2.83731  -0.00294  -0.00322   0.00443   0.00073   2.83805
   D15       -1.34121  -0.00001  -0.00036   0.00047   0.00016  -1.34105
   D16       -0.78596  -0.00354   0.05669  -0.19868  -0.13964  -0.92560
   D17       -2.76837   0.00458   0.03795  -0.07978  -0.04232  -2.81069
   D18        1.48041   0.01674   0.04111  -0.04312  -0.00283   1.47758
   D19        0.94235  -0.00422  -0.00104  -0.05514  -0.05632   0.88603
   D20        2.99563  -0.00358   0.00625  -0.08391  -0.07761   2.91802
   D21       -1.14519  -0.00918   0.00143  -0.10142  -0.10008  -1.24527
   D22        3.03984  -0.00038  -0.00552  -0.02455  -0.03006   3.00978
   D23       -1.19006   0.00026   0.00178  -0.05331  -0.05136  -1.24142
   D24        0.95231  -0.00534  -0.00304  -0.07083  -0.07383   0.87848
   D25       -1.14767  -0.00054  -0.00265  -0.04153  -0.04417  -1.19184
   D26        0.90562   0.00011   0.00464  -0.07029  -0.06547   0.84015
   D27        3.04798  -0.00550  -0.00018  -0.08781  -0.08794   2.96004
   D28        0.59224  -0.00071   0.00177  -0.00554  -0.00356   0.58868
   D29        2.69565   0.00156  -0.00142   0.01246   0.01082   2.70647
   D30       -1.49108  -0.00016  -0.00056   0.00628   0.00573  -1.48535
   D31       -0.84569   0.00370   0.05363  -0.09118  -0.03786  -0.88355
   D32       -2.92517  -0.00085   0.03247  -0.04081  -0.00842  -2.93359
   D33        1.34577   0.00058   0.03852  -0.04468  -0.00609   1.33968
   D34       -2.92388   0.00324   0.04508  -0.05335  -0.00850  -2.93238
   D35        1.27982  -0.00130   0.02392  -0.00298   0.02094   1.30077
   D36       -0.73243   0.00012   0.02997  -0.00684   0.02328  -0.70915
   D37        1.28256   0.00520   0.04978  -0.05151  -0.00206   1.28050
   D38       -0.79692   0.00065   0.02863  -0.00115   0.02738  -0.76954
   D39       -2.80917   0.00208   0.03467  -0.00501   0.02972  -2.77945
   D40       -0.95685  -0.00053   0.00279  -0.00093   0.00244  -0.95441
[...]
    23  O    2.653573   4.378903   4.514218   4.535169   2.056858
    24  H    3.442193   5.007345   4.923605   5.262473   2.784675
                   16         17         18         19         20
    16  H    0.000000
    17  C    4.194680   0.000000
    18  O    4.870928   1.415169   0.000000
    19  H    4.562962   1.104949   2.092887   0.000000
    20  H    4.825902   1.094985   2.011947   1.770372   0.000000
    21  H    4.594400   1.946758   0.976925   2.393607   2.822137
    22  H    4.107987   2.894574   2.350475   3.907435   3.264836
    23  O    3.872643   4.383985   4.293590   5.409244   4.543056
    24  H    4.340323   4.366678   4.394855   5.429370   4.287223
                   21         22         23         24
    21  H    0.000000
    22  H    2.415430   0.000000
    23  O    4.381688   2.080483   0.000000
    24  H    4.687366   2.419097   0.971549   0.000000
 Stoichiometry    C6H12O6
 Framework group  C1[X(C6H12O6)]
 Deg. of freedom    66
 Full point group                 C1      NOp   1
 Largest Abelian subgroup         C1      NOp   1
 Largest concise Abelian subgroup C1      NOp   1
                         Standard orientation:                         
 ---------------------------------------------------------------------
 Center     Atomic      Atomic             Coordinates (Angstroms)
 Number     Number       Type             X           Y           Z
 ---------------------------------------------------------------------
      1          6           0       -0.687704   -1.214500    0.207178
      2          8           0       -0.126483   -0.968558   -1.071344
      3          6           0       -1.249167    0.070646    0.833599
      4          6           0       -0.192479    1.188080    0.869909
      5          6           0        0.488641    1.338611   -0.503701
      6          6           0        0.945784   -0.007598   -1.115339
      7          1           0       -1.589213   -0.160035    1.858111
      8          1           0        1.363451    1.988423   -0.386634
      9          1           0        1.073472    0.198279   -2.184071
     10          1           0       -0.694122    2.137815    1.092529
     11          8           0       -2.338204    0.544212    0.047284
     12          8           0        0.817236    0.927050    1.853318
     13          8           0       -0.397835    2.006768   -1.387293
     14          1           0        0.392349    0.836234    2.720944
     15          1           0       -2.771193   -0.263733   -0.289924
     16          1           0       -1.258904    1.553880   -1.300162
     17          6           0        2.283741   -0.590404   -0.631539
     18          8           0        2.321719   -1.075866    0.697215
     19          1           0        3.062386    0.172970   -0.810099
     20          1           0        2.519512   -1.448118   -1.270077
     21          1           0        2.027626   -0.351878    1.283501
     22          1           0        0.056830   -1.682788    0.860482
     23          8           0       -1.800343   -2.053836   -0.000702
     24          1           0       -1.523810   -2.728229   -0.643066
 ---------------------------------------------------------------------
 Rotational constants (GHZ):      1.1351661      0.9116115      0.7813197

 **********************************************************************

            Population analysis using the SCF density.

 **********************************************************************

 Orbital symmetries:
       Occupied  (A) (A) (A) (A) (A) (A) (A) (A) (A) (A) (A) (A)
                 (A) (A) (A) (A) (A) (A) (A) (A) (A) (A) (A) (A)
                 (A) (A) (A) (A) (A) (A) (A) (A) (A) (A) (A) (A)
                 (A) (A) (A) (A) (A) (A) (A) (A) (A) (A) (A) (A)
       Virtual   (A) (A) (A) (A) (A) (A) (A) (A) (A) (A) (A) (A)
                 (A) (A) (A) (A) (A) (A) (A) (A) (A) (A) (A) (A)
                 (A) (A) (A) (A) (A) (A) (A) (A) (A) (A) (A) (A)
                 (A) (A) (A) (A) (A) (A) (A) (A) (A) (A) (A) (A)
                 (A) (A) (A) (A) (A) (A) (A) (A) (A) (A) (A) (A)
                 (A) (A) (A) (A) (A) (A) (A) (A) (A) (A) (A) (A)
                 (A) (A) (A) (A) (A) (A) (A) (A) (A) (A) (A) (A)
                 (A) (A) (A) (A) (A) (A) (A) (A) (A) (A) (A) (A)
                 (A) (A) (A) (A) (A) (A) (A) (A) (A) (A) (A) (A)
                 (A) (A) (A) (A) (A) (A) (A) (A) (A) (A) (A) (A)
                 (A) (A) (A) (A) (A) (A) (A) (A) (A) (A) (A) (A)
                 (A) (A) (A) (A) (A) (A) (A) (A) (A) (A) (A) (A)
                 (A) (A) (A) (A) (A) (A) (A) (A) (A) (A) (A) (A)
 The electronic state is 1-A.
 Alpha  occ. eigenvalues --  -19.18740 -19.17463 -19.16626 -19.16081 -19.13477
 Alpha  occ. eigenvalues --  -19.13172 -10.29156 -10.25729 -10.25400 -10.24320
 Alpha  occ. eigenvalues --  -10.23953 -10.22936  -1.08744  -1.05747  -1.03490
 Alpha  occ. eigenvalues --   -1.02248  -1.00832  -0.99994  -0.78377  -0.76899
 Alpha  occ. eigenvalues --   -0.69661  -0.65741  -0.63631  -0.57841  -0.54904
 Alpha  occ. eigenvalues --   -0.53246  -0.52999  -0.52324  -0.50039  -0.48131
 Alpha  occ. eigenvalues --   -0.46720  -0.45178  -0.44173  -0.43447  -0.41899
 Alpha  occ. eigenvalues --   -0.40268  -0.38780  -0.37394  -0.36880  -0.34863
 Alpha  occ. eigenvalues --   -0.33137  -0.32597  -0.31271  -0.30773  -0.28489
 Alpha  occ. eigenvalues --   -0.28443  -0.26550  -0.24085
 Alpha virt. eigenvalues --    0.03334   0.06275   0.09584   0.09899   0.12120
 Alpha virt. eigenvalues --    0.12838   0.13185   0.14403   0.15082   0.16728
 Alpha virt. eigenvalues --    0.16977   0.17466   0.17996   0.19560   0.20620
 Alpha virt. eigenvalues --    0.21084   0.21776   0.24427   0.25365   0.26393
 Alpha virt. eigenvalues --    0.27937   0.30529   0.31305   0.33244   0.50655
 Alpha virt. eigenvalues --    0.52930   0.53483   0.55009   0.56620   0.58171
 Alpha virt. eigenvalues --    0.58910   0.59193   0.61409   0.63984   0.64550
 Alpha virt. eigenvalues --    0.65921   0.69231   0.70424   0.71664   0.74402
 Alpha virt. eigenvalues --    0.76591   0.78315   0.79541   0.80496   0.82109
 Alpha virt. eigenvalues --    0.82534   0.84366   0.85614   0.86985   0.87783
 Alpha virt. eigenvalues --    0.89501   0.90970   0.91625   0.92476   0.94557
 Alpha virt. eigenvalues --    0.95711   0.98120   0.99276   1.00546   1.02189
 Alpha virt. eigenvalues --    1.04846   1.07163   1.09326   1.09804   1.12499
 Alpha virt. eigenvalues --    1.13445   1.15157   1.17356   1.22093   1.22770
 Alpha virt. eigenvalues --    1.24217   1.25834   1.27583   1.30946   1.32385
 Alpha virt. eigenvalues --    1.35685   1.36473   1.40089   1.40325   1.46905
 Alpha virt. eigenvalues --    1.50287   1.54913   1.56685   1.58279   1.60330
 Alpha virt. eigenvalues --    1.63343   1.65209   1.68032   1.68155   1.69888
 Alpha virt. eigenvalues --    1.72594   1.74285   1.75494   1.77581   1.79967
 Alpha virt. eigenvalues --    1.82134   1.83690   1.86115   1.87144   1.88560
 Alpha virt. eigenvalues --    1.90905   1.94415   1.98335   1.99387   2.01824
 Alpha virt. eigenvalues --    2.03253   2.04836   2.06546   2.08317   2.10464
 Alpha virt. eigenvalues --    2.12149   2.13529   2.14376   2.16603   2.19707
 Alpha virt. eigenvalues --    2.23439   2.24635   2.30522   2.33756   2.36894
 Alpha virt. eigenvalues --    2.38061   2.39374   2.42679   2.43426   2.44036
 Alpha virt. eigenvalues --    2.47144   2.50019   2.52781   2.54535   2.57050
 Alpha virt. eigenvalues --    2.61066   2.62175   2.69705   2.72515   2.74593
 Alpha virt. eigenvalues --    2.77610   2.79536   2.86956   2.88129   2.90834
 Alpha virt. eigenvalues --    2.94473   2.95972   3.02219   3.05967   3.74161
 Alpha virt. eigenvalues --    3.80943   3.88575   3.92745   3.97002   4.10055
 Alpha virt. eigenvalues --    4.30300   4.36000   4.47944   4.63106   4.70485
 Alpha virt. eigenvalues --    4.75463
          Condensed to atoms (all electrons):
               1          2          3          4          5          6
     1  C    4.749757   0.221451   0.262826  -0.023648  -0.028101  -0.018496
     2  O    0.221451   8.328751  -0.032309  -0.013351  -0.038374   0.219649
     3  C    0.262826  -0.032309   5.117564   0.310819  -0.012538  -0.027127
     4  C   -0.023648  -0.013351   0.310819   5.021236   0.306667  -0.024056
     5  C   -0.028101  -0.038374  -0.012538   0.306667   4.907634   0.307681
     6  C   -0.018496   0.219649  -0.027127  -0.024056   0.307681   5.051011
     7  H   -0.041395   0.003247   0.346122  -0.055880   0.005319   0.000386
     8  H    0.000444   0.003022   0.005887  -0.045892   0.367275  -0.051467
     9  H    0.004747  -0.037299  -0.000121   0.006034  -0.044963   0.352628
    10  H    0.005472  -0.000189  -0.060526   0.378316  -0.050176   0.006019
    11  O   -0.016250  -0.002998   0.190487  -0.040198   0.005265  -0.000856
    12  O    0.001700  -0.000251  -0.037168   0.170579  -0.036533   0.003491
    13  O   -0.001051   0.000688   0.002195  -0.039122   0.263466  -0.046658
    14  H   -0.000701  -0.000001  -0.003141  -0.018667   0.005564  -0.000174
    15  H   -0.009724   0.002380  -0.042968   0.004825   0.000120  -0.000162
    16  H    0.000408   0.004656  -0.004256  -0.012523  -0.027100  -0.005016
    17  C   -0.007687  -0.041780   0.000237  -0.002889  -0.037437   0.278674
    18  O   -0.004361   0.000830  -0.000875   0.004316  -0.002360  -0.047016
    19  H    0.000385   0.003641  -0.000038   0.000398  -0.005126  -0.049449
    20  H   -0.000151  -0.000065   0.000060  -0.000131   0.004938  -0.029714
    21  H    0.001435  -0.000249   0.000038  -0.005853   0.001212  -0.000513
    22  H    0.355196  -0.051374  -0.067738  -0.004437  -0.000377  -0.001402
    23  O    0.236372  -0.057723  -0.042027   0.002328  -0.000043   0.002747
    24  H   -0.023739   0.007998   0.007928  -0.000187   0.000060  -0.000052
               7          8          9         10         11         12
     1  C   -0.041395   0.000444   0.004747   0.005472  -0.016250   0.001700
     2  O    0.003247   0.003022  -0.037299  -0.000189  -0.002998  -0.000251
     3  C    0.346122   0.005887  -0.000121  -0.060526   0.190487  -0.037168
     4  C   -0.055880  -0.045892   0.006034   0.378316  -0.040198   0.170579
     5  C    0.005319   0.367275  -0.044963  -0.050176   0.005265  -0.036533
     6  C    0.000386  -0.051467   0.352628   0.006019  -0.000856   0.003491
     7  H    0.648857  -0.000138   0.000024  -0.005382  -0.035464  -0.000912
     8  H   -0.000138   0.603098  -0.000944  -0.006189  -0.000137   0.002845
     9  H    0.000024  -0.000944   0.592241  -0.000175   0.000022  -0.000064
    10  H   -0.005382  -0.006189  -0.000175   0.593095   0.004448  -0.029260
    11  O   -0.035464  -0.000137   0.000022   0.004448   8.294252   0.001462
    12  O   -0.000912   0.002845  -0.000064  -0.029260   0.001462   8.301797
    13  O   -0.000238  -0.037702   0.002612   0.007047  -0.015341   0.001360
    14  H    0.007270  -0.000282   0.000012  -0.004274  -0.000008   0.230843
    15  H    0.000810   0.000025  -0.000019  -0.000480   0.231046  -0.000092
    16  H    0.000755   0.006008  -0.000349  -0.000962   0.046031   0.000082
    17  C   -0.000004   0.002938  -0.034794  -0.000178   0.000007   0.001065
    18  O   -0.000007  -0.000155   0.003120  -0.000048  -0.000001  -0.019873
    19  H   -0.000003   0.003689   0.003933  -0.000003   0.000000   0.000078
    20  H   -0.000002  -0.000182  -0.004331   0.000004   0.000000  -0.000046
    21  H   -0.000074  -0.000127  -0.000257   0.000610  -0.000002   0.050459
    22  H    0.003515   0.000042  -0.000243  -0.000160   0.003282   0.004554
    23  O   -0.000332   0.000003  -0.000070  -0.000058  -0.014770   0.000012
    24  H   -0.000475  -0.000002  -0.000067   0.000009   0.000279   0.000003
              13         14         15         16         17         18
     1  C   -0.001051  -0.000701  -0.009724   0.000408  -0.007687  -0.004361
     2  O    0.000688  -0.000001   0.002380   0.004656  -0.041780   0.000830
     3  C    0.002195  -0.003141  -0.042968  -0.004256   0.000237  -0.000875
     4  C   -0.039122  -0.018667   0.004825  -0.012523  -0.002889   0.004316
     5  C    0.263466   0.005564   0.000120  -0.027100  -0.037437  -0.002360
     6  C   -0.046658  -0.000174  -0.000162  -0.005016   0.278674  -0.047016
     7  H   -0.000238   0.007270   0.000810   0.000755  -0.000004  -0.000007
     8  H   -0.037702  -0.000282   0.000025   0.006008   0.002938  -0.000155
     9  H    0.002612   0.000012  -0.000019  -0.000349  -0.034794   0.003120
    10  H    0.007047  -0.004274  -0.000480  -0.000962  -0.000178  -0.000048
    11  O   -0.015341  -0.000008   0.231046   0.046031   0.000007  -0.000001
    12  O    0.001360   0.230843  -0.000092   0.000082   0.001065  -0.019873
    13  O    8.279062  -0.000124   0.000467   0.226176   0.003251  -0.000006
    14  H   -0.000124   0.374770  -0.000005   0.000017  -0.000070   0.001065
    15  H    0.000467  -0.000005   0.354192  -0.000536   0.000013  -0.000002
    16  H    0.226176   0.000017  -0.000536   0.349110   0.000157  -0.000001
    17  C    0.003251  -0.000070   0.000013   0.000157   4.914605   0.283638
    18  O   -0.000006   0.001065  -0.000002  -0.000001   0.283638   8.260134
    19  H   -0.000005   0.000001   0.000000  -0.000008   0.340701  -0.036986
    20  H   -0.000084   0.000000   0.000000   0.000002   0.367567  -0.041119
    21  H   -0.000002  -0.002529   0.000003   0.000002  -0.030678   0.218894
    22  H   -0.000021   0.000407   0.001558   0.000096   0.002608   0.023018
    23  O    0.000008  -0.000008   0.038308  -0.000025  -0.000095   0.000110
    24  H    0.000001   0.000000  -0.001926  -0.000013   0.000000   0.000001
              19         20         21         22         23         24
     1  C    0.000385  -0.000151   0.001435   0.355196   0.236372  -0.023739
     2  O    0.003641  -0.000065  -0.000249  -0.051374  -0.057723   0.007998
     3  C   -0.000038   0.000060   0.000038  -0.067738  -0.042027   0.007928
     4  C    0.000398  -0.000131  -0.005853  -0.004437   0.002328  -0.000187
     5  C   -0.005126   0.004938   0.001212  -0.000377  -0.000043   0.000060
     6  C   -0.049449  -0.029714  -0.000513  -0.001402   0.002747  -0.000052
     7  H   -0.000003  -0.000002  -0.000074   0.003515  -0.000332  -0.000475
     8  H    0.003689  -0.000182  -0.000127   0.000042   0.000003  -0.000002
     9  H    0.003933  -0.004331  -0.000257  -0.000243  -0.000070  -0.000067
    10  H   -0.000003   0.000004   0.000610  -0.000160  -0.000058   0.000009
    11  O    0.000000   0.000000  -0.000002   0.003282  -0.014770   0.000279
    12  O    0.000078  -0.000046   0.050459   0.004554   0.000012   0.000003
    13  O   -0.000005  -0.000084  -0.000002  -0.000021   0.000008   0.000001
    14  H    0.000001   0.000000  -0.002529   0.000407  -0.000008   0.000000
    15  H    0.000000   0.000000   0.000003   0.001558   0.038308  -0.001926
    16  H   -0.000008   0.000002   0.000002   0.000096  -0.000025  -0.000013
    17  C    0.340701   0.367567  -0.030678   0.002608  -0.000095   0.000000
    18  O   -0.036986  -0.041119   0.218894   0.023018   0.000110   0.000001
    19  H    0.667781  -0.043080  -0.005899   0.000226   0.000003   0.000000
    20  H   -0.043080   0.591262   0.006539  -0.000818  -0.000019   0.000035
    21  H   -0.005899   0.006539   0.346902  -0.002378  -0.000019   0.000004
    22  H    0.000226  -0.000818  -0.002378   0.625819  -0.041317  -0.001814
    23  O    0.000003  -0.000019  -0.000019  -0.041317   8.285320   0.235077
    24  H    0.000000   0.000035   0.000004  -0.001814   0.235077   0.364959
 Mulliken charges:
               1
     1  C    0.335111
     2  O   -0.520348
     3  C    0.086670
     4  C    0.081318
     5  C    0.107928
     6  C    0.079874
     7  H    0.124000
     8  H    0.147940
     9  H    0.158323
    10  H    0.163041
    11  O   -0.650554
    12  O   -0.646130
    13  O   -0.645981
    14  H    0.410035
    15  H    0.422168
    16  H    0.417288
    17  C   -0.039848
    18  O   -0.642317
    19  H    0.119761
    20  H    0.149337
    21  H    0.422484
    22  H    0.151759
    23  O   -0.643781
    24  H    0.411923
 Sum of Mulliken charges =   0.00000
 Mulliken charges with hydrogens summed into heavy atoms:
               1
     1  C    0.486870
     2  O   -0.520348
     3  C    0.210670
     4  C    0.244359
     5  C    0.255868
     6  C    0.238197
    11  O   -0.228387
    12  O   -0.236094
    13  O   -0.228693
    17  C    0.229250
    18  O   -0.219833
    23  O   -0.231858
 Electronic spatial extent (au):  <R**2>=           1779.8148
 Charge=              0.0000 electrons
 Dipole moment (field-independent basis, Debye):
    X=             -0.7477    Y=             -0.8499    Z=              1.5952  Tot=              1.9560
 Quadrupole moment (field-independent basis, Debye-Ang):
   XX=            -74.1391   YY=            -73.6005   ZZ=            -64.4122
   XY=              5.4353   XZ=             -2.4684   YZ=              7.3257
 Traceless Quadrupole moment (field-independent basis, Debye-Ang):
   XX=             -3.4218   YY=             -2.8832   ZZ=              6.3050
   XY=              5.4353   XZ=             -2.4684   YZ=              7.3257
 Octapole moment (field-independent basis, Debye-Ang**2):
  XXX=            -16.8332  YYY=            -28.2905  ZZZ=             29.3276  XYY=             -8.2189
  XXY=              5.4633  XXZ=            -18.5776  XZZ=             -3.8532  YZZ=             -2.5513
  YYZ=              0.0794  XYZ=             -2.1987
 Hexadecapole moment (field-independent basis, Debye-Ang**3):
 XXXX=           -974.6415 YYYY=           -650.8967 ZZZZ=           -401.9011 XXXY=             38.4036
 XXXZ=             17.2860 YYYX=             30.3981 YYYZ=             54.3410 ZZZX=             16.8388
 ZZZY=             25.1391 XXYY=           -287.8957 XXZZ=           -228.2023 YYZZ=           -203.4896
 XXYZ=             13.6844 YYXZ=              7.8964 ZZXY=             -1.3244
 N-N= 8.624821861022D+02 E-N=-3.336291477066D+03  KE= 6.812885413930D+02
 1\1\GINC-TATANKA\FOpt\RB3LYP\6-31G(d)\C6H12O6\IAWAD\17-Mar-2017\0\\# o
 pt b3lyp/6-31g(d)\\Title Card Required\\0,1\C,0.7919347846,1.166936910
 3,0.0902955686\O,0.1230281737,0.9064006092,-1.1323087487\C,1.315214052
 8,-0.1258719015,0.7337779096\C,0.1950640007,-1.1676341144,0.8967544188
 \C,-0.5941307182,-1.3289671155,-0.4164597273\C,-1.0086026145,0.0183462
 853,-1.0554584224\H,1.7442169555,0.1237377467,1.7197396451\H,-1.497492
 4223,-1.9133850224,-0.2075447002\H,-1.2279582807,-0.2225747519,-2.1017
 461044\H,0.6502750749,-2.1387784367,1.1266744062\O,2.3106218949,-0.703
 3794803,-0.1053929071\O,-0.7203455582,-0.7991555623,1.9364670636\O,0.1
 80079732,-2.0909337554,-1.3291553524\H,-0.227441212,-0.7011456658,2.76
 6521055\H,2.7680480885,0.0591345438,-0.5094931465\H,1.0723424786,-1.69
 34599738,-1.3245450703\C,-2.2671841644,0.7088925994,-0.505028547\O,-2.
 1756263082,1.2503785382,0.7992383815\H,-3.1039752181,-0.007403611,-0.5
 922815994\H,-2.4944659626,1.5532994186,-1.164052327\H,-1.8856505771,0.
 5332179636,1.3958758963\H,0.1291939143,1.7106264864,0.7726488345\O,1.9
 373391524,1.9206189404,-0.2347847487\H,1.6575257334,2.5848423492,-0.88
 62597778\\Version=ES64L-G09RevD.01\State=1-A\HF=-687.1482687\RMSD=9.67
 6e-09\RMSF=1.068e-05\Dipole=0.3605512,0.339644,0.5889505\Quadrupole=-1
 .7710395,-3.1323401,4.9033796,3.6895818,1.8115405,-5.5219703\PG=C01 [X
 (C6H12O6)]\\@


 THE MOST SERIOUS THREAT TO THE SURVIVAL OF MANKIND IS NOT NOW
 IGNORANCE IN THE TRADITIONAL SENSE,
 BUT A MORALLY NEUTRAL, AN INSENSITIVE OR INHIBITED HUMAN INTELLIGENCE.

                     -- MARGO JEFFERSON IN NEWSWEEK, SEPTEMBER 2, 1974
 Job cpu time:       0 days  0 hours 40 minutes 21.7 seconds.
 File lengths (MBytes):  RWF=    135 Int=      0 D2E=      0 Chk=      5 Scr=      2
 Normal termination of Gaussian 09 at Fri Mar 17 18:38:47 2017.
