 Entering Gaussian System, Link 0=g09
 Initial command:
 /global/software/gaussian/g09.e01/l1.exe "/scratch/10464859.yak.local/Gau-22526.inp" -scrdir="/scratch/10464859.yak.local/"
 Entering Link 1 = /global/software/gaussian/g09.e01/l1.exe PID=     22527.
  
 Copyright (c) 1988,1990,1992,1993,1995,1998,2003,2009,2015,
            Gaussian, Inc.  All Rights Reserved.
  
 This is part of the Gaussian(R) 09 program.  It is based on
 the Gaussian(R) 03 system (copyright 2003, Gaussian, Inc.),
 the Gaussian(R) 98 system (copyright 1998, Gaussian, Inc.),
 the Gaussian(R) 94 system (copyright 1995, Gaussian, Inc.),
 the Gaussian 92(TM) system (copyright 1992, Gaussian, Inc.),
 the Gaussian 90(TM) system (copyright 1990, Gaussian, Inc.),
 the Gaussian 88(TM) system (copyright 1988, Gaussian, Inc.),
 the Gaussian 86(TM) system (copyright 1986, Carnegie Mellon
 University), and the Gaussian 82(TM) system (copyright 1983,
 Carnegie Mellon University). Gaussian is a federally registered
 trademark of Gaussian, Inc.
  
 This software contains proprietary and confidential information,
 including trade secrets, belonging to Gaussian, Inc.
  
 This software is provided under written license and may be
 used, copied, transmitted, or stored only in accord with that
 written license.
  
 The following legend is applicable only to US Government
 contracts under FAR:
  
                    RESTRICTED RIGHTS LEGEND
  
 Use, reproduction and disclosure by the US Government is
 subject to restrictions as set forth in subparagraphs (a)
 and (c) of the Commercial Computer Software - Restricted
 Rights clause in FAR 52.227-19.
  
 Gaussian, Inc.
 340 Quinnipiac St., Bldg. 40, Wallingford CT 06492
  
  
 ---------------------------------------------------------------
 Warning -- This program may not be used in any manner that
 competes with the business of Gaussian, Inc. or will provide
 assistance to any competitor of Gaussian, Inc.  The licensee
 of this program is prohibited from giving any competitor of
 Gaussian, Inc. access to this program.  By using this program,
 the user acknowledges that Gaussian, Inc. is engaged in the
 business of creating and licensing software in the field of
 computational chemistry and represents and warrants to the
 licensee that it is not a competitor of Gaussian, Inc. and that
 it will not use this program in any manner prohibited above.
 ---------------------------------------------------------------
  

 Cite this work as:
 Gaussian 09, Revision E.01,
 M. J. Frisch, G. W. Trucks, H. B. Schlegel, G. E. Scuseria, 
 M. A. Robb, J. R. Cheeseman, G. Scalmani, V. Barone, B. Mennucci, 
 G. A. Petersson, H. Nakatsuji, M. Caricato, X. Li, H. P. Hratchian, 
 A. F. Izmaylov, J. Bloino, G. Zheng, J. L. Sonnenberg, M. Hada, 
 M. Ehara, K. Toyota, R. Fukuda, J. Hasegawa, M. Ishida, T. Nakajima, 
 Y. Honda, O. Kitao, H. Nakai, T. Vreven, J. A. Montgomery, Jr., 
 J. E. Peralta, F. Ogliaro, M. Bearpark, J. J. Heyd, E. Brothers, 
 K. N. Kudin, V. N. Staroverov, T. Keith, R. Kobayashi, J. Normand, 
 K. Raghavachari, A. Rendell, J. C. Burant, S. S. Iyengar, J. Tomasi, 
 M. Cossi, N. Rega, J. M. Millam, M. Klene, J. E. Knox, J. B. Cross, 
 V. Bakken, C. Adamo, J. Jaramillo, R. Gomperts, R. E. Stratmann, 
 O. Yazyev, A. J. Austin, R. Cammi, C. Pomelli, J. W. Ochterski, 
 R. L. Martin, K. Morokuma, V. G. Zakrzewski, G. A. Voth, 
 P. Salvador, J. J. Dannenberg, S. Dapprich, A. D. Daniels, 
 O. Farkas, J. B. Foresman, J. V. Ortiz, J. Cioslowski, 
 and D. J. Fox, Gaussian, Inc., Wallingford CT, 2013.
 
 ******************************************
 Gaussian 09:  ES64L-G09RevE.01 30-Nov-2015
                15-Jan-2017 
 ******************************************
 -------------------------
 # b3lyp/6-31g(d) opt freq
 -------------------------
 1/14=-1,18=20,19=15,26=3,38=1/1,3;
 2/9=110,12=2,17=6,18=5,40=1/2;
 3/5=1,6=6,7=1,11=2,16=1,25=1,30=1,71=1,74=-5/1,2,3;
 4//1;
 5/5=2,38=5/2;
 6/7=2,8=2,9=2,10=2,28=1/1;
 7//1,2,3,16;
 1/14=-1,18=20,19=15,26=3/3(2);
 2/9=110/2;
 99//99;
 2/9=110/2;
 3/5=1,6=6,7=1,11=2,16=1,25=1,30=1,71=1,74=-5/1,2,3;
 4/5=5,16=3,69=1/1;
 5/5=2,38=5/2;
 7//1,2,3,16;
 1/14=-1,18=20,19=15,26=3/3(-5);
 2/9=110/2;
 6/7=2,8=2,9=2,10=2,19=2,28=1/1;
 99/9=1/99;
 ----------------------------------
 glo_1w_beta_ircf_boat1_B3LYP_631Gd
 ----------------------------------
 Symbolic Z-matrix:
 Charge =  0 Multiplicity = 1
 1                    -0.03949   1.58585   1.43304 
 6                    -0.49249   1.11035   0.54998 
 6                     1.12399  -0.75481   0.05618 
 6                    -1.32516  -1.47863   0.08371 
 6                     0.08205  -1.783    -0.41286 
 8                    -1.26215   0.01164   1.01467 
 6                     0.67933   0.65594  -0.34428 
 1                    -1.61925  -2.07321   0.95191 
 1                     0.06318  -1.75124  -1.51332 
 1                     0.36897   0.62867  -1.40062 
 6                    -1.34657   2.1672   -0.17099 
 1                    -2.1399    2.53875   0.49529 
 1                    -1.81263   1.70982  -1.0558 
 8                    -2.23236  -1.32207  -0.87548 
 1                     1.20275  -0.81428   1.15284 
 8                    -0.46458   3.23365  -0.54537 
 1                    -0.92138   3.81888  -1.16702 
 8                     0.44697  -3.07157   0.05088 
 1                     1.40114  -3.12878  -0.14065 
 8                     2.32082  -1.17896  -0.56451 
 1                     3.08158  -0.72139  -0.1347 
 8                     1.75944   1.58308  -0.20755 
 1                     1.38721   2.45142  -0.44951 
 8                    -3.66648  -0.0646    0.62501 
 1                    -3.06475  -0.97492  -0.41132 
 1                    -2.74957   0.1918    0.96137 
 8                     4.14413   0.50539   0.62556 
 1                     3.44788   1.14065   0.35124 
 1                     4.08273   0.48157   1.59249 
 1                    -4.05991   0.71875   0.21512 
 
 Add virtual bond connecting atoms O24        and H25        Dist= 2.84D+00.
 Add virtual bond connecting atoms H26        and O6         Dist= 2.83D+00.
 Add virtual bond connecting atoms O27        and H21        Dist= 3.39D+00.
 Add virtual bond connecting atoms H28        and O22        Dist= 3.46D+00.

 GradGradGradGradGradGradGradGradGradGradGradGradGradGradGradGradGradGrad
 Berny optimization.
 Initialization pass.
                           ----------------------------
                           !    Initial Parameters    !
                           ! (Angstroms and Degrees)  !
 --------------------------                            --------------------------
 ! Name  Definition              Value          Derivative Info.                !
 --------------------------------------------------------------------------------
 ! R1    R(1,2)                  1.1005         estimate D2E/DX2                !
 ! R2    R(2,6)                  1.4197         estimate D2E/DX2                !
 ! R3    R(2,7)                  1.5425         estimate D2E/DX2                !
 ! R4    R(2,11)                 1.5382         estimate D2E/DX2                !
 ! R5    R(3,5)                  1.5371         estimate D2E/DX2                !
 ! R6    R(3,7)                  1.5324         estimate D2E/DX2                !
 ! R7    R(3,15)                 1.1011         estimate D2E/DX2                !
 ! R8    R(3,20)                 1.4134         estimate D2E/DX2                !
 ! R9    R(4,5)                  1.523          estimate D2E/DX2                !
 ! R10   R(4,8)                  1.0926         estimate D2E/DX2                !
 ! R11   R(4,14)                 1.3295         estimate D2E/DX2                !
 ! R12   R(5,9)                  1.1011         estimate D2E/DX2                !
 ! R13   R(5,18)                 1.4173         estimate D2E/DX2                !
 ! R14   R(6,26)                 1.4992         estimate D2E/DX2                !
 ! R15   R(7,10)                 1.1013         estimate D2E/DX2                !
 ! R16   R(7,22)                 1.43           estimate D2E/DX2                !
 ! R17   R(11,12)                1.1006         estimate D2E/DX2                !
 ! R18   R(11,13)                1.0997         estimate D2E/DX2                !
 ! R19   R(11,16)                1.4337         estimate D2E/DX2                !
 ! R20   R(14,25)                1.0143         estimate D2E/DX2                !
 ! R21   R(16,17)                0.9683         estimate D2E/DX2                !
 ! R22   R(18,19)                0.9749         estimate D2E/DX2                !
 ! R23   R(20,21)                0.9863         estimate D2E/DX2                !
 ! R24   R(21,27)                1.7922         estimate D2E/DX2                !
 ! R25   R(22,23)                0.9753         estimate D2E/DX2                !
 ! R26   R(22,28)                1.8327         estimate D2E/DX2                !
 ! R27   R(24,25)                1.5049         estimate D2E/DX2                !
 ! R28   R(24,26)                1.0098         estimate D2E/DX2                !
 ! R29   R(24,30)                0.9677         estimate D2E/DX2                !
 ! R30   R(27,28)                0.9816         estimate D2E/DX2                !
 ! R31   R(27,29)                0.9692         estimate D2E/DX2                !
 ! A1    A(1,2,6)              107.1514         estimate D2E/DX2                !
 ! A2    A(1,2,7)              106.2467         estimate D2E/DX2                !
 ! A3    A(1,2,11)             107.9258         estimate D2E/DX2                !
 ! A4    A(6,2,7)              111.9395         estimate D2E/DX2                !
 ! A5    A(6,2,11)             112.5893         estimate D2E/DX2                !
 ! A6    A(7,2,11)             110.6386         estimate D2E/DX2                !
 ! A7    A(5,3,7)              109.8378         estimate D2E/DX2                !
 ! A8    A(5,3,15)             108.4371         estimate D2E/DX2                !
 ! A9    A(5,3,20)             103.8426         estimate D2E/DX2                !
 ! A10   A(7,3,15)             109.3145         estimate D2E/DX2                !
 ! A11   A(7,3,20)             114.0308         estimate D2E/DX2                !
 ! A12   A(15,3,20)            111.1382         estimate D2E/DX2                !
 ! A13   A(5,4,8)              113.5176         estimate D2E/DX2                !
 ! A14   A(5,4,14)             114.7579         estimate D2E/DX2                !
 ! A15   A(8,4,14)             116.9814         estimate D2E/DX2                !
 ! A16   A(3,5,4)              113.1502         estimate D2E/DX2                !
 ! A17   A(3,5,9)              107.295          estimate D2E/DX2                !
 ! A18   A(3,5,18)             109.4983         estimate D2E/DX2                !
 ! A19   A(4,5,9)              107.7144         estimate D2E/DX2                !
 ! A20   A(4,5,18)             108.2356         estimate D2E/DX2                !
 ! A21   A(9,5,18)             110.9567         estimate D2E/DX2                !
 ! A22   A(2,6,26)             115.6726         estimate D2E/DX2                !
 ! A23   A(2,7,3)              109.8851         estimate D2E/DX2                !
 ! A24   A(2,7,10)             110.4423         estimate D2E/DX2                !
 ! A25   A(2,7,22)             109.109          estimate D2E/DX2                !
 ! A26   A(3,7,10)             108.0372         estimate D2E/DX2                !
 ! A27   A(3,7,22)             110.6535         estimate D2E/DX2                !
 ! A28   A(10,7,22)            108.7006         estimate D2E/DX2                !
 ! A29   A(2,11,12)            110.3904         estimate D2E/DX2                !
 ! A30   A(2,11,13)            109.0672         estimate D2E/DX2                !
 ! A31   A(2,11,16)            106.9709         estimate D2E/DX2                !
 ! A32   A(12,11,13)           108.784          estimate D2E/DX2                !
 ! A33   A(12,11,16)           110.5122         estimate D2E/DX2                !
 ! A34   A(13,11,16)           111.101          estimate D2E/DX2                !
 ! A35   A(4,14,25)            105.6716         estimate D2E/DX2                !
 ! A36   A(11,16,17)           109.0871         estimate D2E/DX2                !
 ! A37   A(5,18,19)            103.9504         estimate D2E/DX2                !
 ! A38   A(3,20,21)            108.8172         estimate D2E/DX2                !
 ! A39   A(20,21,27)           163.6746         estimate D2E/DX2                !
 ! A40   A(7,22,23)            105.3825         estimate D2E/DX2                !
 ! A41   A(7,22,28)            124.6451         estimate D2E/DX2                !
 ! A42   A(23,22,28)           129.9581         estimate D2E/DX2                !
 ! A43   A(25,24,26)            91.141          estimate D2E/DX2                !
 ! A44   A(25,24,30)           111.1337         estimate D2E/DX2                !
 ! A45   A(26,24,30)           107.7415         estimate D2E/DX2                !
 ! A46   A(14,25,24)           148.2429         estimate D2E/DX2                !
 ! A47   A(6,26,24)            151.9117         estimate D2E/DX2                !
 ! A48   A(21,27,28)            84.4868         estimate D2E/DX2                !
 ! A49   A(21,27,29)           111.6443         estimate D2E/DX2                !
 ! A50   A(28,27,29)           104.4642         estimate D2E/DX2                !
 ! A51   A(22,28,27)           153.4944         estimate D2E/DX2                !
 ! D1    D(1,2,6,26)           107.379          estimate D2E/DX2                !
 ! D2    D(7,2,6,26)          -136.5191         estimate D2E/DX2                !
 ! D3    D(11,2,6,26)          -11.1285         estimate D2E/DX2                !
 ! D4    D(1,2,7,3)             88.3163         estimate D2E/DX2                !
 ! D5    D(1,2,7,10)          -152.5917         estimate D2E/DX2                !
 ! D6    D(1,2,7,22)           -33.1681         estimate D2E/DX2                !
 ! D7    D(6,2,7,3)            -28.3329         estimate D2E/DX2                !
 ! D8    D(6,2,7,10)            90.7591         estimate D2E/DX2                !
 ! D9    D(6,2,7,22)          -149.8173         estimate D2E/DX2                !
 ! D10   D(11,2,7,3)          -154.7904         estimate D2E/DX2                !
 ! D11   D(11,2,7,10)          -35.6983         estimate D2E/DX2                !
 ! D12   D(11,2,7,22)           83.7253         estimate D2E/DX2                !
 ! D13   D(1,2,11,12)          -60.2788         estimate D2E/DX2                !
 ! D14   D(1,2,11,13)         -179.7472         estimate D2E/DX2                !
 ! D15   D(1,2,11,16)           60.0053         estimate D2E/DX2                !
 ! D16   D(6,2,11,12)           57.7739         estimate D2E/DX2                !
 ! D17   D(6,2,11,13)          -61.6946         estimate D2E/DX2                !
 ! D18   D(6,2,11,16)          178.0579         estimate D2E/DX2                !
 ! D19   D(7,2,11,12)         -176.1311         estimate D2E/DX2                !
 ! D20   D(7,2,11,13)           64.4004         estimate D2E/DX2                !
 ! D21   D(7,2,11,16)          -55.8471         estimate D2E/DX2                !
 ! D22   D(7,3,5,4)            -54.6588         estimate D2E/DX2                !
 ! D23   D(7,3,5,9)             64.0085         estimate D2E/DX2                !
 ! D24   D(7,3,5,18)          -175.4847         estimate D2E/DX2                !
 ! D25   D(15,3,5,4)            64.7419         estimate D2E/DX2                !
 ! D26   D(15,3,5,9)          -176.5908         estimate D2E/DX2                !
 ! D27   D(15,3,5,18)          -56.084          estimate D2E/DX2                !
 ! D28   D(20,3,5,4)          -176.9867         estimate D2E/DX2                !
 ! D29   D(20,3,5,9)           -58.3194         estimate D2E/DX2                !
 ! D30   D(20,3,5,18)           62.1874         estimate D2E/DX2                !
 ! D31   D(5,3,7,2)             73.1492         estimate D2E/DX2                !
 ! D32   D(5,3,7,10)           -47.4073         estimate D2E/DX2                !
 ! D33   D(5,3,7,22)          -166.2954         estimate D2E/DX2                !
 ! D34   D(15,3,7,2)           -45.7132         estimate D2E/DX2                !
 ! D35   D(15,3,7,10)         -166.2697         estimate D2E/DX2                !
 ! D36   D(15,3,7,22)           74.8422         estimate D2E/DX2                !
 ! D37   D(20,3,7,2)          -170.7889         estimate D2E/DX2                !
 ! D38   D(20,3,7,10)           68.6547         estimate D2E/DX2                !
 ! D39   D(20,3,7,22)          -50.2334         estimate D2E/DX2                !
 ! D40   D(5,3,20,21)         -165.2852         estimate D2E/DX2                !
 ! D41   D(7,3,20,21)           75.2068         estimate D2E/DX2                !
 ! D42   D(15,3,20,21)         -48.8943         estimate D2E/DX2                !
 ! D43   D(8,4,5,3)           -100.0492         estimate D2E/DX2                !
 ! D44   D(8,4,5,9)            141.5267         estimate D2E/DX2                !
 ! D45   D(8,4,5,18)            21.4897         estimate D2E/DX2                !
 ! D46   D(14,4,5,3)           121.7422         estimate D2E/DX2                !
 ! D47   D(14,4,5,9)             3.3181         estimate D2E/DX2                !
 ! D48   D(14,4,5,18)         -116.7188         estimate D2E/DX2                !
 ! D49   D(5,4,14,25)         -170.663          estimate D2E/DX2                !
 ! D50   D(8,4,14,25)           52.6279         estimate D2E/DX2                !
 ! D51   D(3,5,18,19)          -45.1937         estimate D2E/DX2                !
 ! D52   D(4,5,18,19)         -168.9578         estimate D2E/DX2                !
 ! D53   D(9,5,18,19)           73.0571         estimate D2E/DX2                !
 ! D54   D(2,6,26,24)          117.7479         estimate D2E/DX2                !
 ! D55   D(2,7,22,23)          -57.0703         estimate D2E/DX2                !
 ! D56   D(2,7,22,28)          121.67           estimate D2E/DX2                !
 ! D57   D(3,7,22,23)         -178.0871         estimate D2E/DX2                !
 ! D58   D(3,7,22,28)            0.6533         estimate D2E/DX2                !
 ! D59   D(10,7,22,23)          63.4275         estimate D2E/DX2                !
 ! D60   D(10,7,22,28)        -117.8322         estimate D2E/DX2                !
 ! D61   D(2,11,16,17)         167.5559         estimate D2E/DX2                !
 ! D62   D(12,11,16,17)        -72.238          estimate D2E/DX2                !
 ! D63   D(13,11,16,17)         48.6178         estimate D2E/DX2                !
 ! D64   D(4,14,25,24)          41.0017         estimate D2E/DX2                !
 ! D65   D(3,20,21,27)         -41.5181         estimate D2E/DX2                !
 ! D66   D(20,21,27,28)         -8.8903         estimate D2E/DX2                !
 ! D67   D(20,21,27,29)         94.505          estimate D2E/DX2                !
 ! D68   D(7,22,28,27)           4.802          estimate D2E/DX2                !
 ! D69   D(23,22,28,27)       -176.7826         estimate D2E/DX2                !
 ! D70   D(26,24,25,14)         -6.5556         estimate D2E/DX2                !
 ! D71   D(30,24,25,14)        102.9841         estimate D2E/DX2                !
 ! D72   D(25,24,26,6)         -10.7574         estimate D2E/DX2                !
 ! D73   D(30,24,26,6)        -123.4009         estimate D2E/DX2                !
 ! D74   D(21,27,28,22)         17.2177         estimate D2E/DX2                !
 ! D75   D(29,27,28,22)        -93.7468         estimate D2E/DX2                !
 --------------------------------------------------------------------------------
 Trust Radius=3.00D-01 FncErr=1.00D-07 GrdErr=1.00D-06
 Number of steps in this run=    167 maximum allowed number of steps=    180.
 GradGradGradGradGradGradGradGradGradGradGradGradGradGradGradGradGradGrad

                          Input orientation:                          
 ---------------------------------------------------------------------
 Center     Atomic      Atomic             Coordinates (Angstroms)
 Number     Number       Type             X           Y           Z
 ---------------------------------------------------------------------
      1          1           0       -0.039494    1.585851    1.433044
      2          6           0       -0.492492    1.110351    0.549980
      3          6           0        1.123991   -0.754805    0.056178
      4          6           0       -1.325158   -1.478627    0.083713
      5          6           0        0.082047   -1.782997   -0.412863
      6          8           0       -1.262154    0.011644    1.014673
      7          6           0        0.679334    0.655937   -0.344283
      8          1           0       -1.619245   -2.073214    0.951906
      9          1           0        0.063176   -1.751241   -1.513322
     10          1           0        0.368967    0.628671   -1.400616
     11          6           0       -1.346568    2.167199   -0.170993
     12          1           0       -2.139895    2.538751    0.495285
     13          1           0       -1.812633    1.709821   -1.055798
     14          8           0       -2.232363   -1.322073   -0.875484
     15          1           0        1.202745   -0.814276    1.152836
     16          8           0       -0.464576    3.233646   -0.545370
     17          1           0       -0.921377    3.818875   -1.167019
     18          8           0        0.446969   -3.071571    0.050884
     19          1           0        1.401138   -3.128782   -0.140648
     20          8           0        2.320821   -1.178958   -0.564512
     21          1           0        3.081583   -0.721394   -0.134703
     22          8           0        1.759443    1.583084   -0.207545
     23          1           0        1.387209    2.451422   -0.449507
     24          8           0       -3.666482   -0.064604    0.625005
     25          1           0       -3.064755   -0.974920   -0.411320
     26          1           0       -2.749570    0.191803    0.961366
     27          8           0        4.144130    0.505387    0.625555
     28          1           0        3.447884    1.140646    0.351242
     29          1           0        4.082732    0.481571    1.592487
     30          1           0       -4.059914    0.718746    0.215117
 ---------------------------------------------------------------------
                    Distance matrix (angstroms):
                    1          2          3          4          5
     1  H    0.000000
     2  C    1.100504   0.000000
     3  C    2.954341   2.517075   0.000000
     4  C    3.586733   2.759265   2.554018   0.000000
     5  C    3.843343   3.103002   1.537149   1.522976   0.000000
     6  O    2.036679   1.419675   2.683253   1.758284   2.658095
     7  C    2.130809   1.542522   1.532410   2.959313   2.511942
     8  H    4.014457   3.400912   3.172676   1.092602   2.200276
     9  H    4.452841   3.571371   2.140454   2.133614   1.101079
    10  H    3.018719   2.186081   2.146233   3.084477   2.621855
    11  C    2.149266   1.538238   3.833194   3.654775   4.207552
    12  H    2.489798   2.181113   4.657604   4.119771   4.943608
    13  H    3.058386   2.163483   3.991821   3.420865   4.025289
    14  O    4.312076   3.312972   3.529150   1.329507   2.404779
    15  H    2.717036   2.634664   1.101089   2.823948   2.155411
    16  O    2.609606   2.389341   4.335106   4.831342   5.048075
    17  H    3.538989   3.235449   5.157353   5.458104   5.740782
    18  O    4.882478   4.315108   2.413668   2.383062   1.417269
    19  H    5.174910   4.693938   2.398191   3.194689   1.904006
    20  O    4.147950   3.794438   1.413352   3.715260   2.323783
    21  H    4.185968   4.074076   1.967160   4.476659   3.193993
    22  O    2.434690   2.422505   2.437022   4.355878   3.766472
    23  H    2.515689   2.516093   3.256515   4.804846   4.431151
    24  O    4.065953   3.385315   4.873251   2.788235   4.252236
    25  H    4.371662   3.448041   4.220497   1.877492   3.248900
    26  H    3.083887   2.471309   4.088998   2.364225   3.715696
    27  O    4.395697   4.676533   3.321673   5.843203   4.776561
    28  H    3.678357   3.945501   3.013350   5.451063   4.523318
    29  H    4.270551   4.734433   3.555702   5.946768   5.015494
    30  H    4.289405   3.604440   5.391612   3.510642   4.879438
                    6          7          8          9         10
     6  O    0.000000
     7  C    2.455860   0.000000
     8  H    2.116149   3.796292   0.000000
     9  H    3.354850   2.746053   3.001925   0.000000
    10  H    2.979077   1.101322   4.097259   2.402122   0.000000
    11  C    2.461574   2.533421   4.395038   4.375317   2.611915
    12  H    2.725154   3.492551   4.663668   5.224180   3.679298
    13  H    2.733804   2.797646   4.287147   3.963198   2.459098
    14  O    2.508545   3.559870   2.068691   2.420851   3.293643
    15  H    2.603259   2.162603   3.096599   3.047117   3.049164
    16  O    3.667583   2.827287   5.633636   5.105345   2.865682
    17  H    4.401240   3.639141   6.300284   5.667051   3.449197
    18  O    3.654614   3.755591   2.465319   2.082621   3.975516
    19  H    4.276700   3.858311   3.380919   2.360507   4.095284
    20  O    4.092563   2.471805   4.315477   2.514897   2.788607
    21  H    4.552632   2.777006   5.010581   3.474472   3.283824
    22  O    3.618465   1.430012   5.111592   3.962335   2.065852
    23  H    3.887861   1.932854   5.610263   4.532896   2.294307
    24  O    2.436893   4.510523   2.886617   4.618174   4.568218
    25  H    2.501227   4.084408   2.270272   3.406029   3.916715
    26  H    1.499235   3.698313   2.531408   4.220313   3.936380
    27  O    5.442711   3.601120   6.322356   5.130434   4.286307
    28  H    4.888685   2.895439   6.030381   4.826578   3.579225
    29  H    5.396527   3.919770   6.280909   5.548723   4.772039
    30  H    2.994452   4.772562   3.780842   5.107662   4.715262
                   11         12         13         14         15
    11  C    0.000000
    12  H    1.100611   0.000000
    13  H    1.099678   1.788878   0.000000
    14  O    3.668237   4.097990   3.066116   0.000000
    15  H    4.140134   4.780001   4.510170   4.021431   0.000000
    16  O    1.433659   2.091061   2.097579   4.897818   4.695693
    17  H    1.975067   2.426264   2.292339   5.313476   5.599974
    18  O    5.541725   6.193954   5.402986   3.331324   2.623142
    19  H    5.966425   6.712992   5.880298   4.123895   2.658834
    20  O    4.980097   5.902755   5.066739   4.566034   2.081435
    21  H    5.287136   6.187832   5.541893   5.398851   2.279565
    22  O    3.160669   4.075795   3.673598   4.982027   2.812096
    23  H    2.762587   3.652495   3.340142   5.246144   3.642295
    24  O    3.316106   3.020721   3.067644   2.426807   4.954794
    25  H    3.589267   3.744754   3.031665   1.014317   4.547961
    26  H    2.674480   2.469231   2.692802   2.435845   4.082848
    27  O    5.791707   6.606096   6.305603   6.800911   3.266693
    28  H    4.930853   5.761833   5.475104   6.311501   3.083005
    29  H    5.952185   6.645068   6.578552   7.016013   3.188548
    30  H    3.099894   2.660336   2.765452   2.948609   5.561030
                   16         17         18         19         20
    16  O    0.000000
    17  H    0.968301   0.000000
    18  O    6.398609   7.129790   0.000000
    19  H    6.642679   7.397125   0.974883   0.000000
    20  O    5.218225   5.987754   2.733499   2.197110   0.000000
    21  H    5.327873   6.140310   3.535388   2.935890   0.986336
    22  O    2.790115   3.620241   4.843056   4.725943   2.841029
    23  H    2.012504   2.777467   5.624757   5.588762   3.750269
    24  O    4.743462   5.082161   5.127567   5.971280   6.205202
    25  H    4.948831   5.305245   4.116040   4.965540   5.391616
    26  H    4.091975   4.585626   4.657945   5.428545   5.469566
    27  O    5.482211   6.312835   5.176280   4.617170   2.752768
    28  H    4.526799   5.344948   5.180587   4.760162   2.736684
    29  H    5.729080   6.617672   5.312262   4.819684   3.242581
    30  H    4.453035   4.622934   5.891135   6.689778   6.702453
                   21         22         23         24         25
    21  H    0.000000
    22  O    2.657815   0.000000
    23  H    3.610646   0.975251   0.000000
    24  O    6.822383   5.731377   5.746717   0.000000
    25  H    6.157781   5.464229   5.617941   1.504899   0.000000
    26  H    6.003136   4.861400   4.920303   1.009758   1.828893
    27  O    1.792203   2.746310   3.541670   7.831382   7.431988
    28  H    1.958957   1.832710   2.570158   7.220926   6.889963
    29  H    2.330796   3.138649   3.913553   7.828451   7.564600
    30  H    7.293652   5.898359   5.754567   0.967695   2.061861
                   26         27         28         29         30
    26  H    0.000000
    27  O    6.908994   0.000000
    28  H    6.299285   0.981611   0.000000
    29  H    6.867505   0.969172   1.542109   0.000000
    30  H    1.597360   8.217075   7.520875   8.261724   0.000000
 Stoichiometry    C6H16O8
 Framework group  C1[X(C6H16O8)]
 Deg. of freedom    84
 Full point group                 C1      NOp   1
 Largest Abelian subgroup         C1      NOp   1
 Largest concise Abelian subgroup C1      NOp   1
                         Standard orientation:                         
 ---------------------------------------------------------------------
 Center     Atomic      Atomic             Coordinates (Angstroms)
 Number     Number       Type             X           Y           Z
 ---------------------------------------------------------------------
      1          1           0       -0.035861    1.560323    1.430020
      2          6           0       -0.487978    1.084799    0.546518
      3          6           0        1.130590   -0.778507    0.052560
      4          6           0       -1.317849   -1.504782    0.078616
      5          6           0        0.089887   -1.807510   -0.417458
      6          8           0       -1.256759   -0.014899    1.010325
      7          6           0        0.684712    0.631985   -0.347424
      8          1           0       -1.611744   -2.100081    0.946386
      9          1           0        0.071491   -1.775240   -1.517910
     10          1           0        0.374859    0.604920   -1.403913
     11          6           0       -1.342775    2.141144   -0.174338
     12          1           0       -2.136778    2.511583    0.491753
     13          1           0       -1.807976    1.683730   -1.059579
     14          8           0       -2.224768   -1.348668   -0.880923
     15          1           0        1.208898   -0.838430    1.149226
     16          8           0       -0.461673    3.208650   -0.547793
     17          1           0       -0.918771    3.793724   -1.169370
     18          8           0        0.455879   -3.095944    0.045835
     19          1           0        1.410193   -3.152111   -0.145285
     20          8           0        2.328128   -1.201167   -0.567782
     21          1           0        3.088235   -0.743054   -0.137402
     22          8           0        1.763833    1.560141   -0.209740
     23          1           0        1.390846    2.428225   -0.451454
     24          8           0       -3.660830   -0.093354    0.619512
     25          1           0       -3.057719   -1.002569   -0.416975
     26          1           0       -2.744329    0.163804    0.956419
     27          8           0        4.149209    0.484418    0.623939
     28          1           0        3.452457    1.119115    0.349612
     29          1           0        4.087389    0.460073    1.590831
     30          1           0       -4.054854    0.689802    0.209821
 ---------------------------------------------------------------------
 Rotational constants (GHZ):      0.7330772      0.5222443      0.3352261
 Standard basis: 6-31G(d) (6D, 7F)
 There are   242 symmetry adapted cartesian basis functions of A   symmetry.
 There are   242 symmetry adapted basis functions of A   symmetry.
   242 basis functions,   456 primitive gaussians,   242 cartesian basis functions
    58 alpha electrons       58 beta electrons
       nuclear repulsion energy      1103.2268666663 Hartrees.
 NAtoms=   30 NActive=   30 NUniq=   30 SFac= 1.00D+00 NAtFMM=   60 NAOKFM=F Big=F
 Integral buffers will be    131072 words long.
 Raffenetti 2 integral format.
 Two-electron integral symmetry is turned on.
 One-electron integrals computed using PRISM.
 NBasis=   242 RedAO= T EigKep=  1.56D-03  NBF=   242
 NBsUse=   242 1.00D-06 EigRej= -1.00D+00 NBFU=   242
 ExpMin= 1.61D-01 ExpMax= 5.48D+03 ExpMxC= 8.25D+02 IAcc=1 IRadAn=         1 AccDes= 0.00D+00
 Harris functional with IExCor=  402 and IRadAn=       1 diagonalized for initial guess.
 HarFok:  IExCor=  402 AccDes= 0.00D+00 IRadAn=         1 IDoV= 1 UseB2=F ITyADJ=14
 ICtDFT=  3500011 ScaDFX=  1.000000  1.000000  1.000000  1.000000
 FoFCou: FMM=F IPFlag=           0 FMFlag=      100000 FMFlg1=           0
         NFxFlg=           0 DoJE=T BraDBF=F KetDBF=T FulRan=T
         wScrn=  0.000000 ICntrl=     500 IOpCl=  0 I1Cent=   200000004 NGrid=           0
         NMat0=    1 NMatS0=      1 NMatT0=    0 NMatD0=    1 NMtDS0=    0 NMtDT0=    0
 Petite list used in FoFCou.
 Requested convergence on RMS density matrix=1.00D-08 within 128 cycles.
 Requested convergence on MAX density matrix=1.00D-06.
 Requested convergence on             energy=1.00D-06.
 No special actions if energy rises.
 Integral accuracy reduced to 1.0D-05 until final iterations.
 Initial convergence to 1.0D-05 achieved.  Increase integral accuracy.
 SCF Done:  E(RB3LYP) =  -839.969312671     A.U. after   14 cycles
            NFock= 14  Conv=0.36D-08     -V/T= 2.0085

 **********************************************************************

            Population analysis using the SCF density.

 **********************************************************************

 Orbital symmetries:
       Occupied  (A) (A) (A) (A) (A) (A) (A) (A) (A) (A) (A) (A)
                 (A) (A) (A) (A) (A) (A) (A) (A) (A) (A) (A) (A)
                 (A) (A) (A) (A) (A) (A) (A) (A) (A) (A) (A) (A)
                 (A) (A) (A) (A) (A) (A) (A) (A) (A) (A) (A) (A)
                 (A) (A) (A) (A) (A) (A) (A) (A) (A) (A)
       Virtual   (A) (A) (A) (A) (A) (A) (A) (A) (A) (A) (A) (A)
                 (A) (A) (A) (A) (A) (A) (A) (A) (A) (A) (A) (A)
                 (A) (A) (A) (A) (A) (A) (A) (A) (A) (A) (A) (A)
                 (A) (A) (A) (A) (A) (A) (A) (A) (A) (A) (A) (A)
                 (A) (A) (A) (A) (A) (A) (A) (A) (A) (A) (A) (A)
                 (A) (A) (A) (A) (A) (A) (A) (A) (A) (A) (A) (A)
                 (A) (A) (A) (A) (A) (A) (A) (A) (A) (A) (A) (A)
                 (A) (A) (A) (A) (A) (A) (A) (A) (A) (A) (A) (A)
                 (A) (A) (A) (A) (A) (A) (A) (A) (A) (A) (A) (A)
                 (A) (A) (A) (A) (A) (A) (A) (A) (A) (A) (A) (A)
                 (A) (A) (A) (A) (A) (A) (A) (A) (A) (A) (A) (A)
                 (A) (A) (A) (A) (A) (A) (A) (A) (A) (A) (A) (A)
                 (A) (A) (A) (A) (A) (A) (A) (A) (A) (A) (A) (A)
                 (A) (A) (A) (A) (A) (A) (A) (A) (A) (A) (A) (A)
                 (A) (A) (A) (A) (A) (A) (A) (A) (A) (A) (A) (A)
                 (A) (A) (A) (A)
 The electronic state is 1-A.
 Alpha  occ. eigenvalues --  -19.18525 -19.16181 -19.16054 -19.15111 -19.15026
 Alpha  occ. eigenvalues --  -19.14861 -19.14013 -19.13207 -10.30179 -10.25721
 Alpha  occ. eigenvalues --  -10.24724 -10.24366 -10.24061 -10.23724  -1.07151
 Alpha  occ. eigenvalues --   -1.05559  -1.03836  -1.02480  -1.01092  -1.00730
 Alpha  occ. eigenvalues --   -0.99429  -0.98817  -0.77968  -0.76342  -0.70453
 Alpha  occ. eigenvalues --   -0.64054  -0.61808  -0.57464  -0.56503  -0.55438
 Alpha  occ. eigenvalues --   -0.53951  -0.53567  -0.52728  -0.51142  -0.48892
 Alpha  occ. eigenvalues --   -0.47570  -0.45478  -0.44794  -0.43591  -0.43433
 Alpha  occ. eigenvalues --   -0.42630  -0.41186  -0.40428  -0.39391  -0.38393
 Alpha  occ. eigenvalues --   -0.37527  -0.35692  -0.34596  -0.33635  -0.33085
 Alpha  occ. eigenvalues --   -0.30828  -0.30436  -0.30219  -0.29535  -0.27354
 Alpha  occ. eigenvalues --   -0.27105  -0.26694  -0.25460
 Alpha virt. eigenvalues --    0.01211   0.03981   0.05435   0.06675   0.09728
 Alpha virt. eigenvalues --    0.11127   0.11766   0.12254   0.13242   0.14340
 Alpha virt. eigenvalues --    0.15441   0.15636   0.16878   0.17989   0.19019
 Alpha virt. eigenvalues --    0.19844   0.20714   0.21629   0.23059   0.24331
 Alpha virt. eigenvalues --    0.25704   0.27074   0.27423   0.28273   0.30160
 Alpha virt. eigenvalues --    0.31647   0.32227   0.33608   0.50781   0.52601
 Alpha virt. eigenvalues --    0.54171   0.54742   0.56817   0.58798   0.59118
 Alpha virt. eigenvalues --    0.59752   0.61656   0.62423   0.64664   0.67061
 Alpha virt. eigenvalues --    0.68470   0.70401   0.71225   0.72741   0.74247
 Alpha virt. eigenvalues --    0.75757   0.76549   0.78841   0.79907   0.81043
 Alpha virt. eigenvalues --    0.81697   0.83385   0.83691   0.83932   0.84918
 Alpha virt. eigenvalues --    0.86043   0.86190   0.86972   0.88488   0.90169
 Alpha virt. eigenvalues --    0.90560   0.92143   0.93253   0.94140   0.95383
 Alpha virt. eigenvalues --    0.96980   0.97827   0.99227   0.99986   1.03282
 Alpha virt. eigenvalues --    1.03650   1.05394   1.05999   1.06576   1.07632
 Alpha virt. eigenvalues --    1.10125   1.11936   1.14852   1.15272   1.16153
 Alpha virt. eigenvalues --    1.19077   1.19963   1.23153   1.23918   1.24959
 Alpha virt. eigenvalues --    1.29169   1.30606   1.32024   1.35279   1.37144
 Alpha virt. eigenvalues --    1.39910   1.44155   1.45649   1.47378   1.50039
 Alpha virt. eigenvalues --    1.50662   1.53207   1.55341   1.59525   1.62150
 Alpha virt. eigenvalues --    1.62708   1.64059   1.65139   1.66182   1.68109
 Alpha virt. eigenvalues --    1.69515   1.70991   1.71848   1.72532   1.73833
 Alpha virt. eigenvalues --    1.75026   1.75542   1.76394   1.79020   1.80232
 Alpha virt. eigenvalues --    1.81141   1.82107   1.84123   1.84460   1.86431
 Alpha virt. eigenvalues --    1.88924   1.89667   1.90892   1.92428   1.93912
 Alpha virt. eigenvalues --    1.97228   1.99359   2.02337   2.04142   2.04937
 Alpha virt. eigenvalues --    2.06847   2.08129   2.11063   2.11405   2.15374
 Alpha virt. eigenvalues --    2.15427   2.21577   2.24273   2.25480   2.27032
 Alpha virt. eigenvalues --    2.29288   2.30366   2.33222   2.34597   2.36278
 Alpha virt. eigenvalues --    2.44559   2.45421   2.46607   2.49205   2.49855
 Alpha virt. eigenvalues --    2.51607   2.53775   2.56061   2.57598   2.58421
 Alpha virt. eigenvalues --    2.59699   2.61787   2.63404   2.67984   2.70286
 Alpha virt. eigenvalues --    2.72954   2.73619   2.75662   2.83560   2.90373
 Alpha virt. eigenvalues --    2.92927   2.95806   2.97824   3.02586   3.09678
 Alpha virt. eigenvalues --    3.73697   3.75737   3.80299   3.84244   3.90172
 Alpha virt. eigenvalues --    3.92299   3.99048   4.15361   4.26172   4.34305
 Alpha virt. eigenvalues --    4.41635   4.48360   4.67231   4.76167
          Condensed to atoms (all electrons):
               1          2          3          4          5          6
     1  H    0.624741   0.362312  -0.006912   0.002145   0.000332  -0.035274
     2  C    0.362312   4.915387  -0.027237  -0.010057  -0.009129   0.180770
     3  C   -0.006912  -0.027237   4.965975  -0.029187   0.329055  -0.003118
     4  C    0.002145  -0.010057  -0.029187   4.787513   0.306772   0.131137
     5  C    0.000332  -0.009129   0.329055   0.306772   4.911142  -0.015933
     6  O   -0.035274   0.180770  -0.003118   0.131137  -0.015933   8.485255
     7  C   -0.050817   0.284619   0.272726  -0.009968  -0.029970  -0.030873
     8  H   -0.000208   0.003522  -0.000004   0.355176  -0.047266  -0.032893
     9  H    0.000021   0.001079  -0.044457  -0.059887   0.350421   0.001818
    10  H    0.007257  -0.056282  -0.055104   0.000108  -0.004949   0.002648
    11  C   -0.060760   0.335289   0.003797  -0.000069  -0.000310  -0.036808
    12  H   -0.007356  -0.037082  -0.000074  -0.000137  -0.000003   0.000975
    13  H    0.006397  -0.029054  -0.000340   0.001001  -0.000172   0.001761
    14  O   -0.000132   0.005253   0.000766   0.290927  -0.034395  -0.049202
    15  H    0.002980  -0.001462   0.344889  -0.004436  -0.038061   0.003836
    16  O    0.004180  -0.044745   0.000225  -0.000002  -0.000004   0.001103
    17  H   -0.000272   0.004729   0.000008   0.000001  -0.000000  -0.000080
    18  O    0.000003   0.000031  -0.030378  -0.033559   0.233505   0.000522
    19  H   -0.000002  -0.000055  -0.010397   0.006843  -0.037775  -0.000083
    20  O   -0.000070   0.002888   0.233922   0.003201  -0.049456   0.000136
    21  H   -0.000008  -0.000072  -0.017160  -0.000154   0.004811   0.000001
    22  O    0.005942  -0.037106  -0.026342   0.000098   0.001541   0.001563
    23  H    0.001162  -0.005571   0.004577   0.000007  -0.000124   0.000011
    24  O   -0.000071   0.000663   0.000059   0.009330  -0.000222  -0.068300
    25  H    0.000008  -0.000352  -0.000155  -0.030335   0.004995   0.004935
    26  H   -0.000460  -0.006040  -0.000004  -0.010020   0.001124   0.082628
    27  O   -0.000027  -0.000031   0.005655   0.000000   0.000086   0.000000
    28  H    0.000210   0.000401  -0.001515  -0.000002   0.000069  -0.000006
    29  H    0.000022  -0.000001   0.000500  -0.000000   0.000018  -0.000000
    30  H    0.000027  -0.000790  -0.000004  -0.000273  -0.000016   0.003735
               7          8          9         10         11         12
     1  H   -0.050817  -0.000208   0.000021   0.007257  -0.060760  -0.007356
     2  C    0.284619   0.003522   0.001079  -0.056282   0.335289  -0.037082
     3  C    0.272726  -0.000004  -0.044457  -0.055104   0.003797  -0.000074
     4  C   -0.009968   0.355176  -0.059887   0.000108  -0.000069  -0.000137
     5  C   -0.029970  -0.047266   0.350421  -0.004949  -0.000310  -0.000003
     6  O   -0.030873  -0.032893   0.001818   0.002648  -0.036808   0.000975
     7  C    5.071226   0.000226  -0.007101   0.356626  -0.036388   0.006288
     8  H    0.000226   0.572342   0.005391   0.000053  -0.000086   0.000006
     9  H   -0.007101   0.005391   0.618734   0.009856   0.000006  -0.000000
    10  H    0.356626   0.000053   0.009856   0.644773  -0.006559   0.000212
    11  C   -0.036388  -0.000086   0.000006  -0.006559   5.005490   0.358243
    12  H    0.006288   0.000006  -0.000000   0.000212   0.358243   0.632320
    13  H   -0.012256   0.000069   0.000060   0.005044   0.349120  -0.053708
    14  O    0.000567  -0.038874   0.005142   0.000635  -0.001255   0.000071
    15  H   -0.061975   0.001070   0.007659   0.007506   0.000270   0.000005
    16  O    0.007807   0.000000  -0.000000   0.001027   0.199563  -0.035999
    17  H   -0.000015  -0.000000   0.000000  -0.000099  -0.017569  -0.001680
    18  O    0.003694   0.005967  -0.037905   0.000014   0.000001  -0.000000
    19  H    0.001233  -0.000380  -0.001891  -0.000034   0.000001  -0.000000
    20  O   -0.041594  -0.000091  -0.001232   0.000943  -0.000039   0.000000
    21  H   -0.003538   0.000004  -0.000200  -0.000415  -0.000001  -0.000000
    22  O    0.199086   0.000001  -0.000083  -0.040201  -0.000119  -0.000265
    23  H   -0.022508  -0.000000   0.000004  -0.002437  -0.004402   0.000306
    24  O   -0.000212   0.001102   0.000014   0.000005   0.005109  -0.000311
    25  H   -0.000016  -0.004614   0.000006  -0.000009   0.000150  -0.000118
    26  H    0.001806  -0.000249  -0.000099  -0.000128  -0.003489   0.004778
    27  O   -0.000829  -0.000000  -0.000000  -0.000073  -0.000000  -0.000000
    28  H   -0.003768   0.000000   0.000001   0.000574  -0.000010   0.000001
    29  H   -0.000212   0.000000   0.000000   0.000007  -0.000000   0.000000
    30  H    0.000037  -0.000047  -0.000000  -0.000004   0.001066   0.002157
              13         14         15         16         17         18
     1  H    0.006397  -0.000132   0.002980   0.004180  -0.000272   0.000003
     2  C   -0.029054   0.005253  -0.001462  -0.044745   0.004729   0.000031
     3  C   -0.000340   0.000766   0.344889   0.000225   0.000008  -0.030378
     4  C    0.001001   0.290927  -0.004436  -0.000002   0.000001  -0.033559
     5  C   -0.000172  -0.034395  -0.038061  -0.000004  -0.000000   0.233505
     6  O    0.001761  -0.049202   0.003836   0.001103  -0.000080   0.000522
     7  C   -0.012256   0.000567  -0.061975   0.007807  -0.000015   0.003694
     8  H    0.000069  -0.038874   0.001070   0.000000  -0.000000   0.005967
     9  H    0.000060   0.005142   0.007659  -0.000000   0.000000  -0.037905
    10  H    0.005044   0.000635   0.007506   0.001027  -0.000099   0.000014
    11  C    0.349120  -0.001255   0.000270   0.199563  -0.017569   0.000001
    12  H   -0.053708   0.000071   0.000005  -0.035999  -0.001680  -0.000000
    13  H    0.619739   0.003766   0.000009  -0.030383  -0.005980   0.000001
    14  O    0.003766   8.275062   0.000064   0.000003  -0.000001   0.000500
    15  H    0.000009   0.000064   0.654230  -0.000010   0.000001   0.002180
    16  O   -0.030383   0.000003  -0.000010   8.271537   0.236444  -0.000000
    17  H   -0.005980  -0.000001   0.000001   0.236444   0.373833   0.000000
    18  O    0.000001   0.000500   0.002180  -0.000000   0.000000   8.282017
    19  H   -0.000000  -0.000118  -0.000450   0.000000  -0.000000   0.235915
    20  O   -0.000002  -0.000013  -0.042658  -0.000000  -0.000000  -0.008784
    21  H    0.000000   0.000000  -0.004240   0.000000  -0.000000  -0.000046
    22  O    0.000076   0.000001   0.000027  -0.012674   0.000546  -0.000010
    23  H    0.000535  -0.000000  -0.000206   0.039909  -0.001414   0.000001
    24  O    0.001429  -0.072604   0.000004   0.000015   0.000003   0.000000
    25  H    0.000007   0.190102   0.000005  -0.000003   0.000000  -0.000119
    26  H   -0.001060   0.011559  -0.000054  -0.000003  -0.000007  -0.000015
    27  O    0.000000  -0.000000   0.000958  -0.000000   0.000000  -0.000000
    28  H   -0.000000  -0.000000   0.000423   0.000010  -0.000001  -0.000000
    29  H    0.000000  -0.000000   0.000392   0.000000  -0.000000   0.000000
    30  H    0.001085   0.003757  -0.000000   0.000006  -0.000006   0.000000
              19         20         21         22         23         24
     1  H   -0.000002  -0.000070  -0.000008   0.005942   0.001162  -0.000071
     2  C   -0.000055   0.002888  -0.000072  -0.037106  -0.005571   0.000663
     3  C   -0.010397   0.233922  -0.017160  -0.026342   0.004577   0.000059
     4  C    0.006843   0.003201  -0.000154   0.000098   0.000007   0.009330
     5  C   -0.037775  -0.049456   0.004811   0.001541  -0.000124  -0.000222
     6  O   -0.000083   0.000136   0.000001   0.001563   0.000011  -0.068300
     7  C    0.001233  -0.041594  -0.003538   0.199086  -0.022508  -0.000212
     8  H   -0.000380  -0.000091   0.000004   0.000001  -0.000000   0.001102
     9  H   -0.001891  -0.001232  -0.000200  -0.000083   0.000004   0.000014
    10  H   -0.000034   0.000943  -0.000415  -0.040201  -0.002437   0.000005
    11  C    0.000001  -0.000039  -0.000001  -0.000119  -0.004402   0.005109
    12  H   -0.000000   0.000000  -0.000000  -0.000265   0.000306  -0.000311
    13  H   -0.000000  -0.000002   0.000000   0.000076   0.000535   0.001429
    14  O   -0.000118  -0.000013   0.000000   0.000001  -0.000000  -0.072604
    15  H   -0.000450  -0.042658  -0.004240   0.000027  -0.000206   0.000004
    16  O    0.000000  -0.000000   0.000000  -0.012674   0.039909   0.000015
    17  H   -0.000000  -0.000000  -0.000000   0.000546  -0.001414   0.000003
    18  O    0.235915  -0.008784  -0.000046  -0.000010   0.000001   0.000000
    19  H    0.364241   0.031069  -0.000438  -0.000007   0.000000  -0.000000
    20  O    0.031069   8.372716   0.203405   0.000438  -0.000083   0.000000
    21  H   -0.000438   0.203405   0.316134   0.002414  -0.000008   0.000000
    22  O   -0.000007   0.000438   0.002414   8.324399   0.228605   0.000000
    23  H    0.000000  -0.000083  -0.000008   0.228605   0.333293  -0.000000
    24  O   -0.000000   0.000000   0.000000   0.000000  -0.000000   8.451442
    25  H    0.000010   0.000001  -0.000000  -0.000000   0.000000   0.101809
    26  H    0.000001  -0.000000  -0.000000  -0.000013   0.000001   0.167773
    27  O    0.000011  -0.027298   0.080119  -0.019174   0.000565   0.000000
    28  H   -0.000007   0.005371  -0.011398   0.052768  -0.001650  -0.000000
    29  H   -0.000003   0.001312  -0.004336   0.001159  -0.000025  -0.000000
    30  H    0.000000  -0.000000  -0.000000  -0.000000   0.000000   0.233663
              25         26         27         28         29         30
     1  H    0.000008  -0.000460  -0.000027   0.000210   0.000022   0.000027
     2  C   -0.000352  -0.006040  -0.000031   0.000401  -0.000001  -0.000790
     3  C   -0.000155  -0.000004   0.005655  -0.001515   0.000500  -0.000004
     4  C   -0.030335  -0.010020   0.000000  -0.000002  -0.000000  -0.000273
     5  C    0.004995   0.001124   0.000086   0.000069   0.000018  -0.000016
     6  O    0.004935   0.082628   0.000000  -0.000006  -0.000000   0.003735
     7  C   -0.000016   0.001806  -0.000829  -0.003768  -0.000212   0.000037
     8  H   -0.004614  -0.000249  -0.000000   0.000000   0.000000  -0.000047
     9  H    0.000006  -0.000099  -0.000000   0.000001   0.000000  -0.000000
    10  H   -0.000009  -0.000128  -0.000073   0.000574   0.000007  -0.000004
    11  C    0.000150  -0.003489  -0.000000  -0.000010  -0.000000   0.001066
    12  H   -0.000118   0.004778  -0.000000   0.000001   0.000000   0.002157
    13  H    0.000007  -0.001060   0.000000  -0.000000   0.000000   0.001085
    14  O    0.190102   0.011559  -0.000000  -0.000000  -0.000000   0.003757
    15  H    0.000005  -0.000054   0.000958   0.000423   0.000392  -0.000000
    16  O   -0.000003  -0.000003  -0.000000   0.000010   0.000000   0.000006
    17  H    0.000000  -0.000007   0.000000  -0.000001  -0.000000  -0.000006
    18  O   -0.000119  -0.000015  -0.000000  -0.000000   0.000000   0.000000
    19  H    0.000010   0.000001   0.000011  -0.000007  -0.000003   0.000000
    20  O    0.000001  -0.000000  -0.027298   0.005371   0.001312  -0.000000
    21  H   -0.000000  -0.000000   0.080119  -0.011398  -0.004336  -0.000000
    22  O   -0.000000  -0.000013  -0.019174   0.052768   0.001159  -0.000000
    23  H    0.000000   0.000001   0.000565  -0.001650  -0.000025   0.000000
    24  O    0.101809   0.167773   0.000000  -0.000000  -0.000000   0.233663
    25  H    0.303932  -0.014643   0.000000   0.000000  -0.000000  -0.005165
    26  H   -0.014643   0.321381  -0.000000   0.000000   0.000000  -0.008855
    27  O    0.000000  -0.000000   8.303749   0.217295   0.241070  -0.000000
    28  H    0.000000   0.000000   0.217295   0.323475  -0.016039   0.000000
    29  H   -0.000000   0.000000   0.241070  -0.016039   0.382152   0.000000
    30  H   -0.005165  -0.008855  -0.000000   0.000000   0.000000   0.375884
 Mulliken charges:
               1
     1  H    0.144630
     2  C    0.168124
     3  C    0.090233
     4  C    0.293828
     5  C    0.123913
     6  O   -0.630263
     7  C    0.106101
     8  H    0.179783
     9  H    0.152642
    10  H    0.129006
    11  C   -0.090240
    12  H    0.131370
    13  H    0.142855
    14  O   -0.591584
    15  H    0.127041
    16  O   -0.638009
    17  H    0.411560
    18  O   -0.653536
    19  H    0.412312
    20  O   -0.684081
    21  H    0.435126
    22  O   -0.682671
    23  H    0.429452
    24  O   -0.830701
    25  H    0.449572
    26  H    0.454088
    27  O   -0.802076
    28  H    0.433797
    29  H    0.393986
    30  H    0.393743
 Sum of Mulliken charges =  -0.00000
 Mulliken charges with hydrogens summed into heavy atoms:
               1
     2  C    0.312754
     3  C    0.217274
     4  C    0.473611
     5  C    0.276556
     6  O   -0.630263
     7  C    0.235107
    11  C    0.183985
    14  O   -0.142012
    16  O   -0.226449
    18  O   -0.241224
    20  O   -0.248955
    22  O   -0.253219
    24  O    0.017130
    27  O    0.025707
 Electronic spatial extent (au):  <R**2>=           3291.0057
 Charge=              0.0000 electrons
 Dipole moment (field-independent basis, Debye):
    X=             -2.0681    Y=              5.2856    Z=              0.0873  Tot=              5.6765
 Quadrupole moment (field-independent basis, Debye-Ang):
   XX=            -88.9752   YY=            -78.5809   ZZ=            -82.1412
   XY=             -9.7190   XZ=             10.6306   YZ=             -5.1936
 Traceless Quadrupole moment (field-independent basis, Debye-Ang):
   XX=             -5.7428   YY=              4.6516   ZZ=              1.0912
   XY=             -9.7190   XZ=             10.6306   YZ=             -5.1936
 Octapole moment (field-independent basis, Debye-Ang**2):
  XXX=            -46.7298  YYY=             58.9308  ZZZ=              4.2456  XYY=             -7.8231
  XXY=             25.6969  XXZ=             11.1613  XZZ=             19.3816  YZZ=             13.6635
  YYZ=            -17.8556  XYZ=              8.2997
 Hexadecapole moment (field-independent basis, Debye-Ang**3):
 XXXX=          -2276.1677 YYYY=          -1387.6289 ZZZZ=           -246.1115 XXXY=           -105.2028
 XXXZ=            151.5643 YYYX=            -72.7117 YYYZ=            -83.6305 ZZZX=             39.4574
 ZZZY=            -12.4754 XXYY=           -517.4144 XXZZ=           -355.1624 YYZZ=           -258.8321
 XXYZ=             -8.0566 YYXZ=             11.6907 ZZXY=             -2.7888
 N-N= 1.103226866666D+03 E-N=-4.178802710244D+03  KE= 8.328515927014D+02
 Calling FoFJK, ICntrl=      2127 FMM=F ISym2X=0 I1Cent= 0 IOpClX= 0 NMat=1 NMatS=1 NMatT=0.
 ***** Axes restored to original set *****
 -------------------------------------------------------------------
 Center     Atomic                   Forces (Hartrees/Bohr)
 Number     Number              X              Y              Z
 -------------------------------------------------------------------
      1        1          -0.000378859   -0.000897775    0.000189019
      2        6           0.001624989   -0.005090464   -0.003182948
      3        6           0.001270733   -0.000350818   -0.001034334
      4        6           0.005581379    0.023836763    0.015371611
      5        6          -0.000581085    0.002374793    0.002534772
      6        8           0.009990247   -0.019819233   -0.011083444
      7        6           0.001774450    0.000239545   -0.001181917
      8        1           0.000132182    0.000409514    0.000075414
      9        1          -0.000710071    0.000093392    0.000244114
     10        1           0.000150947    0.000037489   -0.000092383
     11        6          -0.000109475   -0.001894566    0.000168252
     12        1           0.000090007   -0.000182015    0.000139590
     13        1          -0.000115180   -0.000003922    0.000012448
     14        8           0.010075648   -0.004617800   -0.008806636
     15        1           0.000096865    0.000058960   -0.000061708
     16        8          -0.000020359   -0.000841533    0.000699547
     17        1          -0.000071936   -0.000074469    0.000072331
     18        8          -0.001325785    0.000762457   -0.000420792
     19        1          -0.000086904    0.000117046   -0.000073892
     20        8           0.000619708   -0.000364450   -0.000269042
     21        1           0.000057118   -0.000032665   -0.000070020
     22        8           0.001206037    0.000599865   -0.000331692
     23        1           0.000069568    0.000058298    0.000075730
     24        8          -0.025337089    0.006789862    0.006970457
     25        1          -0.000212349   -0.002279752   -0.002039132
     26        1          -0.002808564    0.000059575    0.001154928
     27        8          -0.000037264    0.000030936    0.000004257
     28        1          -0.000003134   -0.000015688   -0.000014941
     29        1          -0.000026096   -0.000010472   -0.000002486
     30        1          -0.000915729    0.001007126    0.000952897
 -------------------------------------------------------------------
 Cartesian Forces:  Max     0.025337089 RMS     0.005249148

 GradGradGradGradGradGradGradGradGradGradGradGradGradGradGradGradGradGrad
 Berny optimization.
 FormGI is forming the generalized inverse of G from B-inverse, IUseBI=4.
 Internal  Forces:  Max     0.028585624 RMS     0.005750549
 Search for a local minimum.
 Step number   1 out of a maximum of  167
 All quantities printed in internal units (Hartrees-Bohrs-Radians)
 Mixed Optimization -- RFO/linear search
 Second derivative matrix not updated -- first step.
 ITU=  0
     Eigenvalues ---    0.00260   0.00332   0.00391   0.00527   0.00554
     Eigenvalues ---    0.00601   0.00689   0.00822   0.01053   0.01247
     Eigenvalues ---    0.01463   0.01578   0.02098   0.02460   0.02686
     Eigenvalues ---    0.03934   0.04278   0.04385   0.04553   0.04829
     Eigenvalues ---    0.04943   0.05305   0.05374   0.05835   0.05876
     Eigenvalues ---    0.06022   0.06354   0.06659   0.06869   0.07212
     Eigenvalues ---    0.07960   0.08441   0.08882   0.09448   0.09692
     Eigenvalues ---    0.10671   0.10915   0.11497   0.12739   0.13253
     Eigenvalues ---    0.13515   0.14082   0.15714   0.15997   0.16000
     Eigenvalues ---    0.16000   0.16456   0.16891   0.17127   0.18084
     Eigenvalues ---    0.19437   0.19517   0.20205   0.20599   0.20828
     Eigenvalues ---    0.21992   0.22488   0.27859   0.27944   0.28555
     Eigenvalues ---    0.28676   0.29745   0.33536   0.33562   0.33563
     Eigenvalues ---    0.33615   0.33626   0.33718   0.34514   0.39434
     Eigenvalues ---    0.40468   0.41632   0.42146   0.42874   0.44072
     Eigenvalues ---    0.45425   0.48188   0.49977   0.52318   0.52392
     Eigenvalues ---    0.53546   0.53726   0.53851   0.58338
 RFO step:  Lambda=-3.87921465D-02 EMin= 2.60134450D-03
 Linear search not attempted -- first point.
 Maximum step size (   0.300) exceeded in Quadratic search.
    -- Step size scaled by   0.937
 Iteration  1 RMS(Cart)=  0.13017475 RMS(Int)=  0.00644748
 Iteration  2 RMS(Cart)=  0.01372721 RMS(Int)=  0.00192596
 Iteration  3 RMS(Cart)=  0.00015974 RMS(Int)=  0.00192348
 Iteration  4 RMS(Cart)=  0.00000092 RMS(Int)=  0.00192348
 Variable       Old X    -DE/DX   Delta X   Delta X   Delta X     New X
                                 (Linear)    (Quad)   (Total)
    R1        2.07965  -0.00039   0.00000  -0.00098  -0.00098   2.07867
    R2        2.68280   0.00913   0.00000   0.02199   0.02010   2.70290
    R3        2.91494  -0.00331   0.00000  -0.00794  -0.00939   2.90555
    R4        2.90685  -0.00243   0.00000  -0.00700  -0.00700   2.89985
    R5        2.90479  -0.01516   0.00000  -0.04480  -0.04480   2.85999
    R6        2.89584  -0.01221   0.00000  -0.04224  -0.03973   2.85611
    R7        2.08076  -0.00006   0.00000  -0.00014  -0.00014   2.08062
    R8        2.67085   0.00105   0.00000  -0.00019  -0.00001   2.67084
    R9        2.87801   0.00080   0.00000   0.00148   0.00194   2.87995
   R10        2.06472  -0.00019   0.00000  -0.00047  -0.00047   2.06425
   R11        2.51240   0.00583   0.00000   0.01081   0.00832   2.52073
   R12        2.08074  -0.00024   0.00000  -0.00059  -0.00059   2.08015
   R13        2.67825  -0.00132   0.00000  -0.00264  -0.00264   2.67561
   R14        2.83314   0.01896   0.00000   0.11491   0.11512   2.94826
   R15        2.08120   0.00005   0.00000   0.00012   0.00012   2.08132
   R16        2.70233   0.00182   0.00000   0.00135   0.00129   2.70363
   R17        2.07985  -0.00005   0.00000  -0.00011  -0.00011   2.07974
   R18        2.07809   0.00005   0.00000   0.00011   0.00011   2.07820
   R19        2.70922  -0.00094   0.00000  -0.00199  -0.00199   2.70724
   R20        1.91678   0.00725   0.00000   0.01329   0.01409   1.93087
   R21        1.82982  -0.00005   0.00000  -0.00008  -0.00008   1.82974
   R22        1.84226  -0.00008   0.00000  -0.00013  -0.00013   1.84213
   R23        1.86391  -0.00101   0.00000   0.00090   0.00104   1.86495
   R24        3.38677  -0.00090   0.00000   0.00843   0.00850   3.39527
   R25        1.84296   0.00001   0.00000   0.00001   0.00001   1.84297
   R26        3.46332   0.00084   0.00000   0.00530   0.00500   3.46832
   R27        2.84385   0.00357   0.00000   0.02025   0.02169   2.86553
   R28        1.90817   0.00883   0.00000   0.01614   0.01696   1.92512
   R29        1.82868   0.00078   0.00000   0.00127   0.00127   1.82995
   R30        1.85498   0.00071   0.00000   0.00182   0.00150   1.85647
   R31        1.83147  -0.00001   0.00000  -0.00001  -0.00001   1.83146
    A1        1.87015   0.00225   0.00000   0.00836   0.01014   1.88029
    A2        1.85435  -0.00476   0.00000  -0.02239  -0.02165   1.83270
    A3        1.88366   0.00174   0.00000   0.00359   0.00277   1.88643
    A4        1.95371   0.00701   0.00000   0.02709   0.02390   1.97761
    A5        1.96505  -0.00919   0.00000  -0.02914  -0.02905   1.93600
    A6        1.93101   0.00298   0.00000   0.01180   0.01352   1.94453
    A7        1.91703  -0.01194   0.00000  -0.07407  -0.07309   1.84395
    A8        1.89258  -0.00082   0.00000  -0.01635  -0.02087   1.87172
    A9        1.81240   0.00878   0.00000   0.06201   0.06399   1.87639
   A10        1.90790   0.00247   0.00000  -0.00915  -0.01018   1.89772
   A11        1.99021   0.00241   0.00000   0.03017   0.02953   2.01975
   A12        1.93973  -0.00119   0.00000   0.00593   0.00628   1.94601
   A13        1.98126  -0.00031   0.00000  -0.02401  -0.02802   1.95324
   A14        2.00290  -0.01764   0.00000  -0.07390  -0.07481   1.92810
   A15        2.04171   0.00743   0.00000  -0.00467  -0.01039   2.03132
   A16        1.97484  -0.00341   0.00000  -0.03221  -0.03459   1.94025
   A17        1.87265   0.00196   0.00000   0.01530   0.01525   1.88790
   A18        1.91111   0.00086   0.00000   0.00791   0.00921   1.92032
   A19        1.87997   0.00003   0.00000  -0.00938  -0.00729   1.87269
   A20        1.88907   0.00110   0.00000   0.01519   0.01452   1.90359
   A21        1.93656  -0.00058   0.00000   0.00282   0.00227   1.93883
   A22        2.01887  -0.01999   0.00000  -0.07144  -0.06751   1.95136
   A23        1.91786  -0.01231   0.00000  -0.08433  -0.08319   1.83466
   A24        1.92758  -0.00073   0.00000  -0.00294  -0.00492   1.92266
   A25        1.90431   0.00973   0.00000   0.05497   0.05585   1.96016
   A26        1.88560   0.00670   0.00000   0.03848   0.03870   1.92430
   A27        1.93127  -0.00109   0.00000  -0.00625  -0.00662   1.92465
   A28        1.89718  -0.00229   0.00000   0.00037  -0.00009   1.89709
   A29        1.92668  -0.00005   0.00000  -0.00130  -0.00130   1.92537
   A30        1.90358   0.00040   0.00000   0.00189   0.00190   1.90548
   A31        1.86700  -0.00110   0.00000  -0.00419  -0.00419   1.86281
   A32        1.89864  -0.00008   0.00000   0.00037   0.00037   1.89901
   A33        1.92880   0.00039   0.00000   0.00084   0.00083   1.92963
   A34        1.93908   0.00044   0.00000   0.00234   0.00235   1.94143
   A35        1.84432   0.00208   0.00000  -0.00036   0.00082   1.84514
   A36        1.90393  -0.00020   0.00000  -0.00094  -0.00094   1.90299
   A37        1.81428  -0.00025   0.00000  -0.00117  -0.00117   1.81311
   A38        1.89922   0.00165   0.00000  -0.01971  -0.01937   1.87985
   A39        2.85666  -0.00200   0.00000  -0.00482  -0.00401   2.85265
   A40        1.83927   0.00016   0.00000   0.00604   0.00591   1.84518
   A41        2.17547  -0.00010   0.00000  -0.01092  -0.01072   2.16475
   A42        2.26820  -0.00008   0.00000   0.00514   0.00501   2.27321
   A43        1.59071  -0.02859   0.00000  -0.16986  -0.16505   1.42566
   A44        1.93965   0.00549   0.00000   0.02841   0.02307   1.96272
   A45        1.88044   0.00621   0.00000   0.01022   0.01384   1.89429
   A46        2.58733  -0.00063   0.00000  -0.02097  -0.01924   2.56809
   A47        2.65136   0.00196   0.00000  -0.01079  -0.01007   2.64129
   A48        1.47457  -0.00037   0.00000   0.01236   0.01220   1.48677
   A49        1.94856  -0.00056   0.00000  -0.00309  -0.00326   1.94530
   A50        1.82324  -0.00071   0.00000  -0.00284  -0.00279   1.82045
   A51        2.67898   0.00027   0.00000   0.00293   0.00278   2.68176
    D1        1.87412  -0.00974   0.00000  -0.14053  -0.14081   1.73330
    D2       -2.38271  -0.01034   0.00000  -0.14786  -0.14770  -2.53041
    D3       -0.19423  -0.00802   0.00000  -0.13348  -0.13390  -0.32813
    D4        1.54141  -0.00361   0.00000  -0.05878  -0.06067   1.48074
    D5       -2.66323  -0.00352   0.00000  -0.06603  -0.06641  -2.72963
    D6       -0.57889  -0.00072   0.00000  -0.03310  -0.03341  -0.61231
    D7       -0.49450  -0.00718   0.00000  -0.06976  -0.07225  -0.56675
    D8        1.58405  -0.00709   0.00000  -0.07701  -0.07799   1.50606
    D9       -2.61480  -0.00429   0.00000  -0.04408  -0.04500  -2.65980
   D10       -2.70160  -0.00272   0.00000  -0.06117  -0.06290  -2.76451
   D11       -0.62305  -0.00263   0.00000  -0.06842  -0.06864  -0.69169
   D12        1.46128   0.00017   0.00000  -0.03549  -0.03565   1.42563
   D13       -1.05206  -0.00047   0.00000  -0.00479  -0.00497  -1.05703
   D14       -3.13718  -0.00058   0.00000  -0.00564  -0.00581   3.14019
   D15        1.04729  -0.00069   0.00000  -0.00707  -0.00724   1.04005
   D16        1.00834  -0.00197   0.00000  -0.00932  -0.00768   1.00067
   D17       -1.07677  -0.00209   0.00000  -0.01017  -0.00852  -1.08530
   D18        3.10770  -0.00220   0.00000  -0.01160  -0.00995   3.09774
   D19       -3.07407   0.00262   0.00000   0.01357   0.01209  -3.06198
   D20        1.12400   0.00251   0.00000   0.01272   0.01124   1.13524
   D21       -0.97472   0.00239   0.00000   0.01129   0.00982  -0.96490
   D22       -0.95398   0.00273   0.00000   0.07808   0.07445  -0.87953
   D23        1.11716   0.00205   0.00000   0.05759   0.05509   1.17225
   D24       -3.06279   0.00300   0.00000   0.07458   0.07260  -2.99018
   D25        1.12996  -0.00177   0.00000   0.01373   0.01260   1.14256
   D26       -3.08209  -0.00245   0.00000  -0.00676  -0.00675  -3.08884
   D27       -0.97885  -0.00150   0.00000   0.01024   0.01076  -0.96809
   D28       -3.08900   0.00098   0.00000   0.04474   0.04307  -3.04593
   D29       -1.01787   0.00030   0.00000   0.02425   0.02372  -0.99415
   D30        1.08537   0.00125   0.00000   0.04124   0.04123   1.12660
   D31        1.27669  -0.01047   0.00000  -0.11115  -0.11479   1.16191
   D32       -0.82741  -0.00640   0.00000  -0.08124  -0.08239  -0.90981
   D33       -2.90240  -0.00706   0.00000  -0.10154  -0.10243  -3.00483
   D34       -0.79785  -0.00380   0.00000  -0.04130  -0.04451  -0.84236
   D35       -2.90195   0.00027   0.00000  -0.01139  -0.01212  -2.91407
   D36        1.30624  -0.00040   0.00000  -0.03169  -0.03215   1.27409
   D37       -2.98083  -0.00597   0.00000  -0.06427  -0.06697  -3.04780
   D38        1.19825  -0.00190   0.00000  -0.03436  -0.03458   1.16367
   D39       -0.87674  -0.00256   0.00000  -0.05466  -0.05461  -0.93135
   D40       -2.88477  -0.00519   0.00000  -0.02240  -0.01987  -2.90464
   D41        1.31261   0.00236   0.00000   0.01130   0.01041   1.32302
   D42       -0.85337  -0.00184   0.00000  -0.00440  -0.00440  -0.85777
   D43       -1.74619  -0.00299   0.00000  -0.02446  -0.02282  -1.76901
   D44        2.47011  -0.00341   0.00000  -0.01809  -0.01694   2.45317
   D45        0.37507  -0.00335   0.00000  -0.02465  -0.02362   0.35144
   D46        2.12480   0.00608   0.00000   0.09773   0.09578   2.22058
   D47        0.05791   0.00565   0.00000   0.10410   0.10166   0.15958
   D48       -2.03713   0.00572   0.00000   0.09754   0.09498  -1.94215
   D49       -2.97863  -0.02100   0.00000  -0.22166  -0.21964   3.08492
   D50        0.91853  -0.00776   0.00000  -0.08527  -0.08580   0.83273
   D51       -0.78878  -0.00187   0.00000  -0.01714  -0.01825  -0.80703
   D52       -2.94887   0.00109   0.00000   0.00782   0.00932  -2.93955
   D53        1.27509   0.00072   0.00000   0.00835   0.00796   1.28305
   D54        2.05509  -0.00087   0.00000   0.03633   0.03120   2.08629
   D55       -0.99606  -0.00531   0.00000  -0.03629  -0.03585  -1.03192
   D56        2.12354  -0.00614   0.00000  -0.02479  -0.02418   2.09936
   D57       -3.10821   0.00436   0.00000   0.03668   0.03637  -3.07184
   D58        0.01140   0.00352   0.00000   0.04817   0.04804   0.05944
   D59        1.10702  -0.00177   0.00000  -0.00683  -0.00702   1.09999
   D60       -2.05656  -0.00261   0.00000   0.00467   0.00465  -2.05191
   D61        2.92440   0.00021   0.00000   0.00187   0.00187   2.92627
   D62       -1.26079  -0.00031   0.00000  -0.00178  -0.00179  -1.26258
   D63        0.84854   0.00015   0.00000   0.00081   0.00081   0.84936
   D64        0.71561  -0.01370   0.00000  -0.15157  -0.15956   0.55605
   D65       -0.72463   0.00142   0.00000   0.02783   0.02803  -0.69659
   D66       -0.15517   0.00154   0.00000   0.01050   0.01049  -0.14468
   D67        1.64942   0.00064   0.00000   0.01222   0.01217   1.66160
   D68        0.08381  -0.00119   0.00000  -0.02307  -0.02338   0.06043
   D69       -3.08544  -0.00224   0.00000  -0.00868  -0.00873  -3.09417
   D70       -0.11442  -0.00074   0.00000   0.02838   0.01960  -0.09482
   D71        1.79741  -0.00507   0.00000  -0.02692  -0.03013   1.76728
   D72       -0.18775  -0.00148   0.00000   0.02926   0.02393  -0.16382
   D73       -2.15375   0.00187   0.00000   0.05782   0.05286  -2.10090
   D74        0.30051  -0.00118   0.00000  -0.01116  -0.01154   0.28897
   D75       -1.63619  -0.00051   0.00000  -0.01094  -0.01110  -1.64729
         Item               Value     Threshold  Converged?
 Maximum Force            0.028586     0.000450     NO 
 RMS     Force            0.005751     0.000300     NO 
 Maximum Displacement     0.679321     0.001800     NO 
 RMS     Displacement     0.132784     0.001200     NO 
 Predicted change in Energy=-2.641833D-02
 GradGradGradGradGradGradGradGradGradGradGradGradGradGradGradGradGradGrad

                          Input orientation:                          
 ---------------------------------------------------------------------
 Center     Atomic      Atomic             Coordinates (Angstroms)
 Number     Number       Type             X           Y           Z
 ---------------------------------------------------------------------
      1          1           0       -0.064904    1.366359    1.402008
      2          6           0       -0.486351    0.948730    0.475761
      3          6           0        1.189917   -0.740350    0.031150
      4          6           0       -1.273907   -1.188468    0.118651
      5          6           0        0.080585   -1.689152   -0.368435
      6          8           0       -1.248032   -0.209738    0.827310
      7          6           0        0.731216    0.631203   -0.407855
      8          1           0       -1.603325   -1.713733    1.017992
      9          1           0        0.039850   -1.726020   -1.467830
     10          1           0        0.435906    0.613026   -1.468756
     11          6           0       -1.380266    2.018511   -0.165551
     12          1           0       -2.200006    2.290536    0.516537
     13          1           0       -1.810614    1.619516   -1.095619
     14          8           0       -2.143858   -1.139326   -0.891344
     15          1           0        1.253440   -0.756938    1.130207
     16          8           0       -0.544538    3.152737   -0.425273
     17          1           0       -1.019292    3.769497   -1.001239
     18          8           0        0.321832   -2.973814    0.175749
     19          1           0        1.262525   -3.137976   -0.020234
     20          8           0        2.383832   -1.207444   -0.563778
     21          1           0        3.137122   -0.733627   -0.137163
     22          8           0        1.785970    1.583449   -0.241676
     23          1           0        1.401907    2.447531   -0.480394
     24          8           0       -3.734403   -0.045854    0.598921
     25          1           0       -3.032389   -0.850691   -0.477559
     26          1           0       -2.774580    0.102469    0.906420
     27          8           0        4.178757    0.526348    0.608213
     28          1           0        3.476729    1.154305    0.329034
     29          1           0        4.116109    0.511625    1.575241
     30          1           0       -4.083739    0.793230    0.264800
 ---------------------------------------------------------------------
                    Distance matrix (angstroms):
                    1          2          3          4          5
     1  H    0.000000
     2  C    1.099984   0.000000
     3  C    2.809279   2.420857   0.000000
     4  C    3.104164   2.305512   2.505772   0.000000
     5  C    3.534371   2.827102   1.513443   1.524004   0.000000
     6  O    2.052839   1.430312   2.618972   1.208627   2.320279
     7  C    2.109470   1.537553   1.511387   2.758429   2.410171
     8  H    3.464271   2.937747   3.118257   1.092353   2.181362
     9  H    4.220160   3.347943   2.130995   2.128812   1.100767
    10  H    3.009918   2.178165   2.156358   2.947660   2.576234
    11  C    2.147725   1.534534   3.775692   3.221304   3.990240
    12  H    2.489342   2.176859   4.573122   3.622076   4.671422
    13  H    3.057733   2.161680   3.980172   3.106007   3.879783
    14  O    3.982457   2.996044   3.481986   1.333911   2.350296
    15  H    2.514019   2.522791   1.101016   2.756256   2.119089
    16  O    2.600029   2.381784   4.286349   4.435526   4.882408
    17  H    3.530089   3.228356   5.126905   5.089243   5.604197
    18  O    4.526629   4.016158   2.400591   2.395226   1.415871
    19  H    4.906513   4.472779   2.399275   3.202087   1.901924
    20  O    4.060182   3.737336   1.413347   3.720903   2.361175
    21  H    4.126979   4.041728   1.954478   4.441790   3.210752
    22  O    2.484865   2.465974   2.414489   4.144419   3.692469
    23  H    2.619905   2.593483   3.235615   4.554044   4.344027
    24  O    4.013043   3.399148   5.005358   2.755043   4.265013
    25  H    4.153799   3.260221   4.254271   1.887278   3.225761
    26  H    3.030738   2.477422   4.146526   2.130521   3.603766
    27  O    4.398225   4.686063   3.297073   5.736882   4.759968
    28  H    3.706670   3.971120   2.984621   5.301074   4.483916
    29  H    4.271001   4.752111   3.537550   5.836459   4.990666
    30  H    4.215774   3.606922   5.497082   3.441459   4.889254
                    6          7          8          9         10
     6  O    0.000000
     7  C    2.479967   0.000000
     8  H    1.557111   3.603033   0.000000
     9  H    3.037338   2.675450   2.979847   0.000000
    10  H    2.963867   1.101385   3.969406   2.372340   0.000000
    11  C    2.443021   2.538049   3.921757   4.211197   2.640496
    12  H    2.693362   3.492842   4.079418   5.008731   3.701819
    13  H    2.712991   2.812593   3.952324   3.841273   2.489801
    14  O    2.149513   3.410950   2.065837   2.333480   3.171644
    15  H    2.578476   2.136654   3.014823   3.026833   3.049553
    16  O    3.656515   2.825949   5.185226   5.023018   2.915522
    17  H    4.385228   3.642152   5.872325   5.616066   3.507062
    18  O    3.244861   3.674825   2.450185   2.082752   3.947509
    19  H    3.949152   3.826128   3.364443   2.363067   4.105061
    20  O    4.015094   2.477110   4.319230   2.565244   2.815583
    21  H    4.520425   2.779285   4.976628   3.514059   3.298967
    22  O    3.682854   1.430697   4.893413   3.937636   2.066427
    23  H    3.974083   1.937559   5.347214   4.499862   2.296829
    24  O    2.502211   4.627500   2.738417   4.619459   4.701159
    25  H    2.301615   4.045440   2.241369   3.344472   3.892815
    26  H    1.560154   3.781202   2.163995   4.111138   4.026085
    27  O    5.480863   3.595682   6.214367   5.149142   4.281383
    28  H    4.942899   2.890412   5.874287   4.830851   3.573742
    29  H    5.463861   3.924854   6.162360   5.557268   4.777039
    30  H    3.059999   4.864412   3.606191   5.133480   4.844057
                   11         12         13         14         15
    11  C    0.000000
    12  H    1.100552   0.000000
    13  H    1.099738   1.789117   0.000000
    14  O    3.328931   3.707996   2.786393   0.000000
    15  H    4.039618   4.646501   4.471047   3.971715   0.000000
    16  O    1.432608   2.090686   2.098352   4.604004   4.575784
    17  H    1.973481   2.425913   2.292928   5.037189   5.495178
    18  O    5.285540   5.847152   5.221339   3.253254   2.587165
    19  H    5.796104   6.461113   5.764926   4.044363   2.644417
    20  O    4.973309   5.866388   5.086053   4.540034   2.085744
    21  H    5.289789   6.169102   5.562016   5.349965   2.270469
    22  O    3.196893   4.118599   3.696747   4.824844   2.764608
    23  H    2.832609   3.740627   3.374078   5.060323   3.589526
    24  O    3.223039   2.796405   3.057104   2.438525   5.066209
    25  H    3.325534   3.398293   2.824297   1.021771   4.578431
    26  H    2.600856   2.295601   2.690506   2.274164   4.124755
    27  O    5.807581   6.618865   6.322233   6.708099   3.236785
    28  H    4.958010   5.792365   5.495639   6.192015   3.039365
    29  H    5.959128   6.646705   6.594465   6.927977   3.162623
    30  H    2.999213   2.419452   2.774992   2.972302   5.624716
                   16         17         18         19         20
    16  O    0.000000
    17  H    0.968257   0.000000
    18  O    6.216627   6.975397   0.000000
    19  H    6.557637   7.340453   0.974813   0.000000
    20  O    5.254114   6.045044   2.814037   2.297765   0.000000
    21  H    5.361107   6.188743   3.611399   3.051013   0.986889
    22  O    2.815607   3.636652   4.804850   4.755511   2.872329
    23  H    2.070991   2.807326   5.566692   5.606163   3.785494
    24  O    4.631975   4.948661   5.020465   5.908794   6.335136
    25  H    4.713764   5.066847   4.023091   4.887443   5.428642
    26  H    4.006324   4.490802   4.425513   5.259029   5.521464
    27  O    5.502321   6.334672   5.226282   4.725106   2.757055
    28  H    4.553383   5.368711   5.197907   4.842351   2.751253
    29  H    5.718319   6.604872   5.338857   4.899804   3.245210
    30  H    4.309224   4.455542   5.797207   6.642150   6.820462
                   21         22         23         24         25
    21  H    0.000000
    22  O    2.684284   0.000000
    23  H    3.639856   0.975258   0.000000
    24  O    6.944977   5.816850   5.810642   0.000000
    25  H    6.180003   5.403449   5.526414   1.516376   0.000000
    26  H    6.061052   4.930522   4.986543   1.018731   1.700111
    27  O    1.796699   2.750491   3.547803   7.933826   7.421304
    28  H    1.974072   1.835358   2.575362   7.315301   6.858514
    29  H    2.332680   3.143174   3.916665   7.930607   7.561145
    30  H    7.391462   5.944278   5.777918   0.968368   2.087800
                   26         27         28         29         30
    26  H    0.000000
    27  O    6.972625   0.000000
    28  H    6.365422   0.982403   0.000000
    29  H    6.935152   0.969167   1.541064   0.000000
    30  H    1.613296   8.273935   7.569357   8.308675   0.000000
 Stoichiometry    C6H16O8
 Framework group  C1[X(C6H16O8)]
 Deg. of freedom    84
 Full point group                 C1      NOp   1
[...]
 ,-0.00020915,0.00026385,0.00011728,0.00007861,-0.00004073,-0.00006044,
 -0.00003439,0.00013230,0.00034861,0.00003728,-0.00003505,-0.00009910,-
 0.00003969,-0.00011314,0.00032100,-0.00000893,0.00033087,-0.00013615,0
 .00002016,-0.11086579,0.47867707,0.00026198,0.00001096,0.00011022,-0.0
 0092673,0.00098568,-0.00018577,-0.00010478,-0.00021823,-0.00011528,-0.
 00333340,-0.00078748,-0.00887125,0.00027642,0.00047449,0.00083835,-0.0
 0113832,0.00129175,0.00486011,-0.00011239,-0.00054152,-0.00024684,0.00
 028431,-0.00053198,0.00086974,-0.00036786,0.00009288,0.00033969,-0.000
 09807,-0.00000275,0.00022055,-0.00027940,-0.00056100,-0.00098771,-0.00
 014247,-0.00011994,-0.00036102,-0.00041321,-0.00001555,0.00079182,0.01
 046366,-0.00577167,0.00077241,0.00010545,0.00002480,0.00010705,0.00054
 335,0.00048648,0.00042812,-0.00004440,-0.00025507,-0.00005968,0.000483
 16,-0.00039772,0.00036995,-0.00004670,-0.00003691,-0.00005220,0.000404
 08,0.00007231,0.00010124,-0.00014514,-0.00008147,-0.00011197,0.0000817
 8,0.00016696,0.00024780,-0.00010625,0.00001094,-0.00008597,0.22757751,
 0.01264446,0.14143719,0.00027890,0.00038507,-0.00002018,-0.00185395,-0
 .00160659,0.00038816,-0.00048620,-0.00002497,0.00006326,-0.03203568,0.
 00486947,-0.00337310,0.00019049,0.00185040,-0.00225862,0.00223044,0.00
 372937,0.00591511,-0.00057927,-0.00030509,-0.00016602,0.00257446,-0.00
 064975,0.00217075,-0.00001856,0.00012651,-0.00007025,-0.00006058,-0.00
 009722,0.00011215,0.00066238,-0.00067553,-0.00116405,-0.00019717,0.000
 28886,0.00043108,0.00007953,-0.00072162,0.00047802,-0.37428520,0.07898
 799,0.10109556,0.00003248,0.00000831,0.00002728,-0.00006097,0.00089818
 ,0.00013797,0.00010558,-0.00008542,-0.00003892,-0.00027006,-0.00050778
 ,0.00028835,-0.00005281,0.00019775,-0.00021394,0.00072967,0.00004186,-
 0.00005132,-0.00024806,-0.00013833,-0.00010437,0.00057586,0.00040816,0
 .00002959,-0.00003801,-0.00015371,0.00005121,-0.00446537,-0.00202694,-
 0.00283081,0.40272552,0.00013098,-0.00015662,0.00010726,-0.00094538,0.
 00009778,-0.00008420,0.00057979,-0.00018524,0.00014467,0.01204281,-0.0
 0022410,0.00025510,0.00231479,0.00256055,0.00173523,0.00057988,-0.0015
 2927,-0.00052571,0.00000240,-0.00004235,0.00066684,0.00047832,0.000090
 15,-0.00190477,0.00012369,-0.00004643,0.00012513,0.00007473,0.00010390
 ,-0.00027777,-0.00120657,-0.00104740,-0.00058156,0.00021382,-0.0003057
 1,-0.00025061,-0.00067669,-0.00004977,0.00054086,0.07155287,-0.0344228
 7,-0.01566688,-0.00001442,0.00002928,-0.00000615,0.00103788,0.00068287
 ,0.00010722,-0.00005525,-0.00020521,0.00008091,-0.00065428,-0.00026907
 ,-0.00019861,0.00011601,0.00006174,0.00001372,0.00014185,-0.00022937,-
 0.00003845,0.00004086,0.00004088,-0.00002430,0.00012924,-0.00031849,-0
 .00022762,-0.00029711,0.00012916,0.00001593,-0.00183983,-0.00372541,0.
 00595909,-0.08414336,0.03992365,-0.00003025,0.00007764,-0.00001235,-0.
 00048765,-0.00113015,0.00006054,-0.00024036,0.00084026,0.00059996,-0.0
 4242368,0.01215478,0.01129924,-0.00164079,0.00022936,-0.00578879,0.002
 93234,-0.00173745,-0.00155535,-0.00008360,0.00043489,0.00013652,-0.000
 08703,0.00060268,-0.00077924,0.00015726,0.00014142,0.00033431,0.000011
 47,-0.00004816,-0.00007209,-0.00057977,0.00015093,0.00098921,0.0001945
 0,-0.00031326,-0.00033466,0.00006514,0.00006395,-0.00009083,0.14734928
 ,-0.02905883,-0.09762132,0.00003903,0.00001670,-0.00006604,0.00023252,
 -0.00003372,-0.00040878,-0.00001355,0.00009364,0.00012239,-0.00127542,
 0.00047024,0.00024228,-0.00004515,0.00037404,-0.00003854,-0.00046507,-
 0.00039985,-0.00012842,0.00003982,0.00011651,0.00014154,0.00025798,-0.
 00017988,-0.00012994,-0.00009643,0.00000063,0.00005471,-0.00445058,0.0
 0377156,-0.00364264,-0.09860350,0.01591249,0.09884203,0.00016412,0.000
 49169,0.00004509,-0.00229979,-0.00732851,0.00064341,-0.00097307,0.0003
 4331,0.00016189,0.00186361,0.00897480,0.00800343,-0.00072441,-0.000090
 00,-0.00102639,0.00363843,-0.00084411,-0.00369871,-0.00071388,0.000917
 31,0.00038558,-0.00001283,-0.00038632,-0.00014123,0.00046444,-0.000225
 14,-0.00028797,0.00023267,-0.00009074,-0.00028422,0.00115672,-0.000853
 96,0.00019509,-0.00024650,-0.00007010,0.00048754,0.00004106,-0.0000414
 1,-0.00009371,-0.00456857,-0.00006583,-0.00262324,-0.00010090,0.000000
 92,-0.00010025,-0.00046036,0.00107157,-0.00051345,0.00016456,0.0000949
 5,-0.00003639,0.00034111,-0.00078935,-0.00000626,-0.00001846,0.0001256
 6,0.00004215,0.00092456,-0.00021973,-0.00020614,-0.00035447,-0.0001315
 4,-0.00011052,0.00161579,0.00063528,-0.00041744,-0.00006610,-0.0003171
 2,0.00020187,-0.33739946,-0.05333933,-0.18188179,0.00545395,-0.0010721
 1,-0.00056846,0.34792730,-0.00013252,-0.00026324,0.00001351,-0.0015487
 6,0.00217925,-0.00010193,0.00007315,0.00032050,0.00000692,0.00408285,0
 .00073868,-0.00213024,-0.00004892,-0.00063471,-0.00024162,-0.00130170,
 -0.00628126,0.00029812,0.00002688,-0.00050088,0.00013849,0.00013226,-0
 .00118999,0.00030027,-0.00001878,-0.00001725,0.00001742,-0.00003003,0.
 00004723,0.00005530,-0.00257350,0.00018991,0.00148756,0.00075037,-0.00
 086130,-0.00050577,0.00014076,-0.00001185,0.00000381,0.00021639,-0.000
 86615,0.00064209,0.00000773,-0.00001833,0.00001380,0.00133715,0.000353
 66,-0.00045368,-0.00004276,-0.00011638,0.00016304,-0.00008577,-0.00007
 198,0.00004498,0.00001852,-0.00000296,0.00002779,-0.00019017,-0.000248
 56,0.00000401,0.00004295,0.00007765,0.00003455,-0.00015094,-0.00029303
 ,0.00010440,-0.00024872,0.00014067,-0.00004413,-0.10559475,-0.07768283
 ,-0.06878788,-0.00135624,0.00050036,-0.00261634,0.06449678,0.07848389,
 -0.00032924,-0.00012936,-0.00005604,0.00180794,0.00011186,-0.00023830,
 0.00010870,0.00003489,0.00014317,0.00503161,-0.00248207,0.00201228,0.0
 0000082,-0.00062376,-0.00012086,-0.00336951,0.00050620,-0.00452027,0.0
 0013013,0.00042583,0.00000318,-0.00019881,0.00017194,0.00000200,0.0000
 8775,-0.00000347,-0.00011346,0.00004164,-0.00001155,-0.00011513,0.0010
 0322,0.00032607,-0.00007088,-0.00005074,0.00050489,0.00054896,0.000263
 08,0.00007954,-0.00061350,-0.00204403,0.00223296,0.00026934,-0.0000318
 1,-0.00000437,-0.00003553,-0.00079277,-0.00060371,0.00000853,0.0000057
 2,0.00016112,-0.00004149,-0.00014920,0.00026732,-0.00021530,0.00001661
 ,-0.00003532,0.00003661,-0.00034478,0.00002925,-0.00004105,0.00011962,
 0.00005224,0.00007771,-0.00021543,-0.00009824,-0.00011339,0.00015822,-
 0.00002051,0.00004819,-0.18837021,-0.03877935,-0.11458245,-0.00103438,
 -0.00401511,-0.00610168,0.19145882,0.04726803,0.12675141,0.00010490,-0
 .00006398,-0.00006986,0.00054676,-0.00028702,-0.00071510,0.00383314,-0
 .00164502,-0.00156022,0.00092242,-0.00014190,0.00037939,-0.00010431,0.
 00108507,0.00001217,-0.00127062,-0.00025893,0.00020861,0.00190738,0.00
 314497,0.00111324,-0.00021408,-0.00000789,0.00003423,-0.00004791,-0.00
 007006,0.00010251,-0.00061853,-0.00034604,-0.00033225,0.00027818,-0.00
 014190,0.00013597,-0.00029503,0.00013959,0.00004594,-0.00000115,0.0000
 0035,-0.00002244,-0.00085796,-0.00001307,-0.00035562,0.00003108,0.0003
 8206,-0.00007094,-0.00077084,0.00078815,-0.00015022,-0.00021979,-0.000
 19188,0.00005409,-0.00043648,-0.00121236,0.00024769,0.00019509,0.00099
 815,-0.00017521,-0.00911230,-0.00960685,-0.00600291,-0.00489434,0.0046
 1938,0.00415449,-0.01056347,0.00762855,-0.00444664,-0.00250322,-0.0024
 9603,-0.00008736,-0.00061125,-0.00001227,0.00018907,0.00034930,0.00002
 861,-0.00005853,0.00052427,-0.00002807,-0.00016760,0.30380935,-0.00013
 556,0.00010528,0.00014854,0.00005629,0.00035059,0.00018205,0.00601994,
 -0.00386314,-0.00319377,0.00056872,-0.00154271,-0.00026517,-0.00101708
 ,0.00047837,0.00050008,0.00033056,0.00118600,-0.00013742,-0.00170460,-
 0.00459987,0.00012748,-0.00019470,0.00016494,0.00007833,0.00009019,0.0
 0006081,0.00008945,0.00062040,0.00052965,0.00017039,-0.00045955,-0.000
 52310,0.00026043,0.00003840,0.00011473,-0.00008099,0.00006072,0.000009
 82,0.00002524,-0.00050308,0.00047134,-0.00005787,-0.00007698,0.0004282
 1,0.00034996,0.00062426,0.00030524,-0.00002448,0.00002934,-0.00002911,
 -0.00001657,-0.00057856,0.00011093,-0.00009710,0.00054371,0.00078742,-
 0.00008454,-0.01580319,-0.00443929,-0.00651447,0.00352553,-0.00359577,
 0.00864956,0.00921869,0.00307278,0.00257396,0.00031641,0.00092083,-0.0
 0015171,-0.00014372,0.00012175,0.00007425,0.00012355,-0.00009018,-0.00
 011011,0.00009276,-0.00009168,-0.00003690,-0.23227313,0.23007463,-0.00
 003939,0.00005026,0.00006258,-0.00006834,-0.00024198,-0.00036200,0.001
 57392,-0.00127731,-0.00309089,0.00014828,-0.00033326,-0.00005917,-0.00
 063101,0.00036687,0.00056867,-0.00035732,0.00003690,0.00021604,0.00012
 789,0.00092654,0.00051278,-0.00011294,0.00002720,0.00003254,0.00020257
 ,0.00013704,0.00012675,0.00014262,-0.00005173,0.00010539,0.00008107,0.
 00003508,0.00007099,-0.00009887,0.00004334,0.00001070,0.00002500,-0.00
 002276,0.00002306,-0.00021548,0.00002029,-0.00000090,-0.00062681,0.000
 00523,0.00100690,-0.00020109,0.00016972,0.00006165,-0.00000174,-0.0000
 5196,-0.00003187,-0.00016039,-0.00023844,0.00021181,0.00014228,0.00038
 303,-0.00027411,-0.00854704,-0.00666652,0.00144246,0.00296340,0.005141
 22,-0.00648533,-0.00432233,0.00128726,0.00185270,-0.00023097,-0.000439
 24,0.00027457,-0.00014922,0.00000455,0.00008671,0.00009011,-0.00000225
 ,-0.00004521,0.00012172,-0.00001055,-0.00006831,0.07543226,-0.05313622
 ,0.57356432,-0.00024227,0.00014354,0.00019741,-0.00048697,0.00073891,0
 .00106021,0.00223370,-0.00223379,0.00001552,-0.00052053,-0.00113373,-0
 .00060133,-0.00077384,-0.00051849,0.00009240,0.00176101,0.00123449,-0.
 00041749,-0.00479856,-0.00791314,-0.00135102,0.00004427,0.00015036,0.0
 0003876,0.00007958,0.00007429,0.00000692,0.00136317,0.00097102,0.00059
 326,-0.00068781,-0.00019012,0.00001826,0.00035822,-0.00007900,-0.00010
 195,0.00003519,0.00000272,0.00003224,0.00049972,0.00037083,0.00032565,
 -0.00014325,0.00006645,0.00006657,0.00131645,-0.00079772,0.00015759,0.
 00032676,0.00020952,-0.00006730,-0.00000563,0.00126793,-0.00022242,0.0
 0019980,-0.00021360,-0.00000561,-0.00463593,0.00025072,-0.00103155,0.0
 0633901,-0.00011652,0.00265606,-0.00412213,0.00154452,0.00040367,0.003
 23189,0.00401536,-0.00008113,0.00052372,0.00009215,-0.00013540,-0.0002
 6773,-0.00008307,-0.00002611,-0.00048212,-0.00002884,0.00014387,-0.253
 61446,0.20910611,-0.07934933,0.25270384,0.00011832,-0.00005411,-0.0000
 8398,-0.00020494,-0.00065010,-0.00044324,-0.00397196,0.00127639,0.0007
 3147,-0.00028464,0.00089875,0.00023366,0.00026186,-0.00023033,0.000069
 19,-0.00046711,-0.00076515,0.00021053,-0.00078858,0.00491962,-0.000017
 95,0.00008245,-0.00009452,-0.00004274,0.00003037,0.00004150,0.00001396
 ,-0.00068426,-0.00058682,-0.00020296,0.00029400,0.00028219,-0.00010705
 ,-0.00005685,-0.00003827,0.00004887,-0.00002849,-0.00001327,-0.0000056
 2,0.00020383,-0.00029286,-0.00001184,0.00013078,-0.00033589,0.00019510
 ,-0.00029566,-0.00018772,0.00003578,0.00001389,0.00000265,0.00001099,0
 .00028226,-0.00001297,0.00001328,-0.00024073,-0.00041508,0.00005062,0.
 00393169,0.00284502,0.00024580,-0.00085363,-0.01142577,-0.00227847,-0.
 00172221,-0.01111861,0.00024276,0.00171433,-0.00048017,0.00005407,0.00
 000971,-0.00007069,-0.00002241,-0.00003180,0.00005052,0.00005859,0.000
 01498,0.00004607,0.00000091,0.20824553,-0.19318751,0.06665421,-0.20625
 926,0.20953781,0.00002652,0.00001087,-0.00003083,0.00030153,0.00059527
 ,0.00044592,0.00013231,-0.00053990,0.00135467,-0.00003084,-0.00028300,
 -0.00008142,-0.00007025,0.00002274,-0.00015848,0.00059501,0.00031547,-
 0.00028745,-0.00119792,-0.00216457,-0.00144430,0.00000920,0.00003778,0
 .00000740,-0.00009337,-0.00006870,-0.00005961,-0.00027504,-0.00009441,
 -0.00011203,-0.00020687,-0.00015370,-0.00003609,0.00010883,-0.00001754
 ,-0.00002135,-0.00001348,0.00002543,-0.00001636,0.00003970,0.00010786,
 -0.00000045,0.00017183,0.00018021,-0.00054530,0.00031395,-0.00011860,-
 0.00008981,0.00000139,0.00005112,0.00003875,-0.00000620,0.00024379,-0.
 00012726,0.00003835,-0.00004539,0.00008388,-0.00122772,0.00062281,-0.0
 0189527,0.00245052,-0.00162218,0.00369440,0.00200387,0.00116056,-0.001
 85749,-0.00021113,0.00074706,-0.00061760,0.00010039,0.00002371,-0.0000
 4939,-0.00004600,-0.00001708,0.00000300,-0.00009630,-0.00000823,0.0000
 4558,-0.03470829,0.02574385,-0.07003456,0.07086610,-0.06005025,0.08504
 738,-0.00004616,0.00006318,0.00005729,-0.00026869,-0.00009959,-0.00002
 979,-0.00013846,0.00015033,-0.00114439,-0.00028693,-0.00005880,-0.0001
 3498,-0.00019236,-0.00033791,0.00027289,0.00027212,0.00009277,0.000051
 90,-0.00054843,-0.00016140,-0.00017857,0.00003044,0.00001223,-0.000002
 90,0.00010322,0.00010135,0.00004434,0.00015033,-0.00001542,0.00013168,
 -0.00002755,0.00011667,-0.00000401,0.00005372,-0.00003744,-0.00001025,
 0.00000988,-0.00001872,0.00002320,0.00023201,0.00000442,0.00011997,-0.
 00032930,-0.00020544,0.00054162,0.00009245,-0.00015210,0.00002894,0.00
 002885,0.00005064,-0.00000979,0.00006387,0.00034380,-0.00000545,-0.000
 00222,-0.00018213,-0.00006215,-0.00068429,-0.00094941,0.00064664,0.000
 32469,0.00090597,-0.00252128,-0.00064929,-0.00004545,0.00091760,-0.000
 04951,0.00032854,0.00018582,0.00016735,0.00000431,-0.00004090,-0.00009
 596,-0.00001141,0.00000872,-0.00014342,0.00000665,0.00003484,-0.026541
 61,0.02152024,0.01402265,-0.00006285,0.00053952,-0.03894484,0.02858836
 ,0.00001405,0.00000035,-0.00003167,0.00007092,0.00015622,0.00003275,-0
 .00030916,-0.00008258,-0.00080155,-0.00012081,0.00011272,0.00003165,-0
 .00017524,0.00012641,0.00010667,0.00000203,-0.00022092,0.00000166,0.00
 029754,0.00042671,-0.00000479,-0.00001627,-0.00001298,0.00000135,0.000
 06324,0.00003854,0.00004834,-0.00005620,-0.00014480,-0.00000499,0.0000
 6297,0.00009877,-0.00004229,-0.00000274,-0.00001616,0.00001212,-0.0000
 1486,-0.00000326,-0.00001035,0.00005909,-0.00008356,0.00001188,-0.0002
 9717,0.00000359,0.00031385,-0.00007667,-0.00012139,-0.00000069,0.00000
 780,0.00001143,0.00000675,0.00009896,-0.00010276,0.00015549,-0.0000708
 0,0.00000861,-0.00016567,-0.00165258,-0.00205731,0.00086820,0.00256963
 ,0.00344626,-0.00377392,0.00025911,-0.00059863,-0.00074482,0.00017797,
 0.00006977,0.00012638,0.00001438,-0.00002809,-0.00000234,-0.00001290,0
 .00002490,0.00001120,-0.00001132,0.00002241,-0.00000246,0.02170833,-0.
 02731600,-0.01282240,-0.00063603,0.00004769,0.03530252,-0.02195798,0.0
 2618867,-0.00000973,-0.00000814,0.00000344,-0.00007685,0.00002272,0.00
 011723,-0.00037598,0.00013734,0.00013916,-0.00010370,0.00002493,0.0000
 0360,-0.00005183,-0.00013137,0.00007025,0.00013519,0.00001615,-0.00006
 138,-0.00026882,-0.00036467,-0.00011437,0.00002259,0.00000410,-0.00000
 390,0.00002448,0.00002004,-0.00000387,0.00008891,0.00005440,0.00004083
 ,-0.00004158,-0.00000859,-0.00000716,0.00003624,-0.00001421,-0.0000059
 8,-0.00000083,0.00000439,-0.00000309,0.00008803,-0.00000026,0.00001317
 ,-0.00008511,-0.00004242,0.00008012,0.00009674,-0.00005218,-0.00001112
 ,0.00001066,0.00001732,0.00000209,0.00004286,0.00013336,-0.00004686,-0
 .00003200,-0.00008611,0.00000986,0.00106240,0.00050286,0.00074532,-0.0
 0081459,-0.00103214,-0.00240418,0.00077790,-0.00000056,0.00039062,0.00
 000125,0.00009444,0.00010230,0.00006264,0.00000170,-0.00003233,-0.0000
 3633,-0.00000142,0.00001189,-0.00005247,0.00000104,0.00002688,-0.03315
 941,0.02492363,-0.49975722,0.00667903,-0.00559283,-0.01327735,0.025997
 71,-0.01862046,0.51396453,0.00004095,-0.00007543,0.00006636,-0.0005265
 5,0.00067749,-0.00041943,-0.00011845,0.00015023,-0.00006535,0.00020722
 ,0.00031285,-0.00033514,-0.00003493,0.00022237,-0.00004603,-0.00099676
 ,-0.00137974,0.00034209,-0.00013438,-0.00032793,0.00017526,-0.00006987
 ,-0.00007342,0.00007995,0.00001792,-0.00001825,-0.00000296,-0.00000638
 ,0.00002354,0.00003023,-0.00166176,-0.00007522,0.00101573,0.00038659,-
 0.00073054,-0.00075124,-0.00009170,0.00002271,0.00020278,0.00008841,-0
 .00077820,0.00054687,0.00000981,-0.00001433,0.00001182,0.00119182,0.00
 068475,-0.00034276,-0.00003494,-0.00017767,0.00013561,0.00005654,-0.00
 022699,0.00004467,-0.00000581,0.00005687,0.00000062,0.00027699,-0.0001
 4587,-0.00003130,-0.00010572,-0.00001906,-0.00003303,0.00027485,-0.000
 00371,0.00002204,-0.00023630,0.00003441,-0.00000061,-0.12943418,0.1590
 3970,-0.04852274,-0.00097297,0.00141096,-0.00011212,-0.01594825,0.0420
 4802,-0.00331410,0.00017550,0.00000433,0.00003850,-0.00017225,0.000016
 60,-0.00003124,-0.00005025,0.00000473,-0.00001739,0.14787485,0.0000037
 2,-0.00002718,0.00001478,0.00022793,0.00053335,-0.00031249,-0.00000311
 ,0.00006211,-0.00003804,-0.00013279,-0.00031678,0.00006276,0.00001871,
 0.00000578,-0.00001212,-0.00116177,-0.00016203,0.00013943,-0.00001705,
 -0.00011023,0.00013227,-0.00005069,0.00005646,-0.00008500,0.00000152,0
 .00000279,0.00000562,-0.00001181,0.00001284,0.00001083,-0.00060812,-0.
 00006838,0.00054493,0.00004501,-0.00012583,-0.00022982,0.00005341,0.00
 002207,-0.00004780,-0.00054854,0.00055725,0.00008434,0.00000534,-0.000
 00666,0.00000612,0.00032482,0.00006127,-0.00013289,-0.00007484,-0.0000
 1881,0.00008126,-0.00000883,-0.00003418,0.00000293,0.00000278,0.000016
 89,0.00000271,0.00003466,-0.00005702,-0.00000405,-0.00001194,0.0000107
 8,-0.00000210,0.00004095,-0.00004357,0.00000845,-0.00007774,0.00002691
 ,-0.00000327,0.21338857,-0.40175255,0.05583888,0.00062178,-0.00144827,
 0.00010624,-0.01138339,0.00605210,-0.00532688,0.00002763,-0.00001496,0
 .00000587,-0.00003559,0.00001163,-0.00000750,-0.00000742,0.00000537,-0
 .00000308,-0.20066321,0.39674884,-0.00011122,0.00005071,-0.00007012,-0
 .00007544,-0.00022809,0.00021406,-0.00000782,-0.00004857,0.00003785,-0
 .00056089,-0.00008843,-0.00039083,-0.00005545,-0.00007572,-0.00004069,
 -0.00043911,0.00002677,0.00010087,0.00001804,0.00000743,-0.00002653,-0
 .00004254,0.00005769,-0.00004795,0.00002977,-0.00000827,0.00001996,0.0
 0001126,-0.00001238,-0.00002386,-0.00002254,0.00039755,0.00032526,0.00
 022159,0.00015230,0.00028276,0.00032568,-0.00015406,-0.00034910,0.0024
 5491,0.00030904,-0.00215161,-0.00000443,0.00000953,-0.00001515,-0.0001
 8699,-0.00012726,-0.00021802,0.00007616,0.00011244,0.00004136,0.000023
 03,0.00003904,-0.00001973,0.00000061,-0.00001092,0.00001075,-0.0000214
 3,0.00004534,-0.00002153,0.00001317,-0.00000596,0.00001574,-0.00006771
 ,0.00002199,-0.00004200,0.00007065,-0.00001786,0.00003259,-0.04210722,
 0.02795964,-0.02219647,-0.00126682,-0.00184196,0.00397825,-0.00960167,
 0.02427522,-0.00292620,-0.00002706,0.00001012,-0.00002105,0.00003711,-
 0.00001049,0.00002142,0.00000348,-0.00000241,0.00000750,0.05131290,-0.
 05084241,0.02347248\\-0.00000362,-0.00000064,0.00000356,0.00001633,0.0
 0000696,-0.00000615,0.00002196,-0.00001193,-0.00000132,-0.00001481,0.0
 0002040,-0.00002301,0.00000735,-0.00001483,0.00001180,0.00002025,-0.00
 001337,-0.00000784,-0.00000933,0.00003496,0.00001306,0.00001025,-0.000
 00901,-0.00000273,0.00000633,0.00000624,-0.00000633,-0.00000382,0.0000
 0107,-0.00000300,0.00000155,0.00000218,0.00000096,-0.00000770,-0.00000
 698,-0.00000008,-0.00000535,-0.00000802,-0.00000229,0.00001665,-0.0000
 1731,-0.00000968,0.00000262,0.00000314,-0.00000056,-0.00001753,-0.0000
 0998,-0.00000226,-0.00001276,-0.00000102,0.00000366,0.00000326,0.00000
 981,-0.00001136,0.00001239,0.00000411,0.00000242,-0.00000223,-0.000005
 13,0.00000781,-0.00000897,0.00003099,0.00000825,-0.00000372,-0.0000260
 5,-0.00001187,0.,0.00000908,0.00000467,-0.00002453,-0.00002742,0.00001
 491,0.00001526,0.00000308,0.00003879,-0.00001609,-0.00001481,0.0000087
 1,0.00002739,0.00001666,-0.00000872,-0.00003349,0.00002288,0.00000473,
 -0.00000897,0.00000469,0.00000128,0.00001132,-0.00000974,-0.00002743\\
 \@


 Boundary, n.  In political geography, an imaginary
 line between two nations, separating the imaginary
 rights of one from the imaginary rights of another.
                               -- Ambrose Bierce
 Job cpu time:       0 days  0 hours 30 minutes 40.2 seconds.
 File lengths (MBytes):  RWF=    221 Int=      0 D2E=      0 Chk=      6 Scr=      1
 Normal termination of Gaussian 09 at Sun Jan 15 22:21:47 2017.
