 Entering Gaussian System, Link 0=g09
 Initial command:
 /global/software/gaussian/g09.e01/l1.exe "/scratch/10464860.yak.local/Gau-27720.inp" -scrdir="/scratch/10464860.yak.local/"
 Entering Link 1 = /global/software/gaussian/g09.e01/l1.exe PID=     27721.
  
 Copyright (c) 1988,1990,1992,1993,1995,1998,2003,2009,2015,
            Gaussian, Inc.  All Rights Reserved.
  
 This is part of the Gaussian(R) 09 program.  It is based on
 the Gaussian(R) 03 system (copyright 2003, Gaussian, Inc.),
 the Gaussian(R) 98 system (copyright 1998, Gaussian, Inc.),
 the Gaussian(R) 94 system (copyright 1995, Gaussian, Inc.),
 the Gaussian 92(TM) system (copyright 1992, Gaussian, Inc.),
 the Gaussian 90(TM) system (copyright 1990, Gaussian, Inc.),
 the Gaussian 88(TM) system (copyright 1988, Gaussian, Inc.),
 the Gaussian 86(TM) system (copyright 1986, Carnegie Mellon
 University), and the Gaussian 82(TM) system (copyright 1983,
 Carnegie Mellon University). Gaussian is a federally registered
 trademark of Gaussian, Inc.
  
 This software contains proprietary and confidential information,
 including trade secrets, belonging to Gaussian, Inc.
  
 This software is provided under written license and may be
 used, copied, transmitted, or stored only in accord with that
 written license.
  
 The following legend is applicable only to US Government
 contracts under FAR:
  
                    RESTRICTED RIGHTS LEGEND
  
 Use, reproduction and disclosure by the US Government is
 subject to restrictions as set forth in subparagraphs (a)
 and (c) of the Commercial Computer Software - Restricted
 Rights clause in FAR 52.227-19.
  
 Gaussian, Inc.
 340 Quinnipiac St., Bldg. 40, Wallingford CT 06492
  
  
 ---------------------------------------------------------------
 Warning -- This program may not be used in any manner that
 competes with the business of Gaussian, Inc. or will provide
 assistance to any competitor of Gaussian, Inc.  The licensee
 of this program is prohibited from giving any competitor of
 Gaussian, Inc. access to this program.  By using this program,
 the user acknowledges that Gaussian, Inc. is engaged in the
 business of creating and licensing software in the field of
 computational chemistry and represents and warrants to the
 licensee that it is not a competitor of Gaussian, Inc. and that
 it will not use this program in any manner prohibited above.
 ---------------------------------------------------------------
  

 Cite this work as:
 Gaussian 09, Revision E.01,
 M. J. Frisch, G. W. Trucks, H. B. Schlegel, G. E. Scuseria, 
 M. A. Robb, J. R. Cheeseman, G. Scalmani, V. Barone, B. Mennucci, 
 G. A. Petersson, H. Nakatsuji, M. Caricato, X. Li, H. P. Hratchian, 
 A. F. Izmaylov, J. Bloino, G. Zheng, J. L. Sonnenberg, M. Hada, 
 M. Ehara, K. Toyota, R. Fukuda, J. Hasegawa, M. Ishida, T. Nakajima, 
 Y. Honda, O. Kitao, H. Nakai, T. Vreven, J. A. Montgomery, Jr., 
 J. E. Peralta, F. Ogliaro, M. Bearpark, J. J. Heyd, E. Brothers, 
 K. N. Kudin, V. N. Staroverov, T. Keith, R. Kobayashi, J. Normand, 
 K. Raghavachari, A. Rendell, J. C. Burant, S. S. Iyengar, J. Tomasi, 
 M. Cossi, N. Rega, J. M. Millam, M. Klene, J. E. Knox, J. B. Cross, 
 V. Bakken, C. Adamo, J. Jaramillo, R. Gomperts, R. E. Stratmann, 
 O. Yazyev, A. J. Austin, R. Cammi, C. Pomelli, J. W. Ochterski, 
 R. L. Martin, K. Morokuma, V. G. Zakrzewski, G. A. Voth, 
 P. Salvador, J. J. Dannenberg, S. Dapprich, A. D. Daniels, 
 O. Farkas, J. B. Foresman, J. V. Ortiz, J. Cioslowski, 
 and D. J. Fox, Gaussian, Inc., Wallingford CT, 2013.
 
 ******************************************
 Gaussian 09:  ES64L-G09RevE.01 30-Nov-2015
                15-Jan-2017 
 ******************************************
 -------------------------
 # b3lyp/6-31g(d) opt freq
 -------------------------
 1/14=-1,18=20,19=15,26=3,38=1/1,3;
 2/9=110,12=2,17=6,18=5,40=1/2;
 3/5=1,6=6,7=1,11=2,16=1,25=1,30=1,71=1,74=-5/1,2,3;
 4//1;
 5/5=2,38=5/2;
 6/7=2,8=2,9=2,10=2,28=1/1;
 7//1,2,3,16;
 1/14=-1,18=20,19=15,26=3/3(2);
 2/9=110/2;
 99//99;
 2/9=110/2;
 3/5=1,6=6,7=1,11=2,16=1,25=1,30=1,71=1,74=-5/1,2,3;
 4/5=5,16=3,69=1/1;
 5/5=2,38=5/2;
 7//1,2,3,16;
 1/14=-1,18=20,19=15,26=3/3(-5);
 2/9=110/2;
 6/7=2,8=2,9=2,10=2,19=2,28=1/1;
 99/9=1/99;
 -----------------------------------
 glo_2w_alpha_ircr_boat1_B3LYP_631Gd
 -----------------------------------
 Symbolic Z-matrix:
 Charge =  0 Multiplicity = 1
 1                     1.4305   -0.96602  -1.30023 
 6                     1.29756  -0.84288  -0.21662 
 6                     0.23008   1.40875  -0.30525 
 6                    -1.02296  -0.16308   1.37158 
 6                    -0.88559   1.22673   0.72877 
 8                     0.00063  -1.27677   0.14903 
 6                     1.50471   0.65978   0.06847 
 1                    -0.62555   1.88475   1.57997 
 1                     1.73709   0.82756   1.13417 
 6                     2.31645  -1.71352   0.51322 
 1                     2.16911  -2.76713   0.23896 
 1                     2.16657  -1.61869   1.59916 
 1                    -0.13703   1.01003  -1.26476 
 8                     3.61744  -1.25217   0.12813 
 1                     4.28194  -1.6974    0.67386 
 8                    -2.135     1.58861   0.18118 
 1                    -1.99918   2.43694  -0.27154 
 8                     0.45468   2.80912  -0.41414 
 1                     1.30249   2.90309  -0.88307 
 8                     2.55015   1.18502  -0.74093 
 1                     3.32994   0.62695  -0.56663 
 1                    -0.24801  -0.35976   2.13085 
 8                    -2.11126  -0.74007   1.46673 
 8                    -1.50404  -1.50671  -1.77238 
 1                    -1.55098  -2.42669  -2.07149 
 1                    -2.42255  -1.27529  -1.36677 
 1                    -0.6074   -1.40526  -0.68082 
 8                    -3.55929  -0.9139   -0.55218 
 1                    -4.05583  -1.70569  -0.29524 
 1                    -3.09142  -0.62656   0.29378 
 
 Add virtual bond connecting atoms H27        and O24        Dist= 2.68D+00.
 Add virtual bond connecting atoms O28        and H26        Dist= 2.73D+00.
 Add virtual bond connecting atoms H30        and O23        Dist= 2.90D+00.

 GradGradGradGradGradGradGradGradGradGradGradGradGradGradGradGradGradGrad
 Berny optimization.
 Initialization pass.
                           ----------------------------
                           !    Initial Parameters    !
                           ! (Angstroms and Degrees)  !
 --------------------------                            --------------------------
 ! Name  Definition              Value          Derivative Info.                !
 --------------------------------------------------------------------------------
 ! R1    R(1,2)                  1.0987         estimate D2E/DX2                !
 ! R2    R(2,6)                  1.4156         estimate D2E/DX2                !
 ! R3    R(2,7)                  1.5434         estimate D2E/DX2                !
 ! R4    R(2,10)                 1.5261         estimate D2E/DX2                !
 ! R5    R(3,5)                  1.532          estimate D2E/DX2                !
 ! R6    R(3,7)                  1.5249         estimate D2E/DX2                !
 ! R7    R(3,13)                 1.102          estimate D2E/DX2                !
 ! R8    R(3,18)                 1.4224         estimate D2E/DX2                !
 ! R9    R(4,5)                  1.5374         estimate D2E/DX2                !
 ! R10   R(4,22)                 1.1026         estimate D2E/DX2                !
 ! R11   R(4,23)                 1.2355         estimate D2E/DX2                !
 ! R12   R(5,8)                  1.1069         estimate D2E/DX2                !
 ! R13   R(5,16)                 1.4113         estimate D2E/DX2                !
 ! R14   R(6,27)                 1.0368         estimate D2E/DX2                !
 ! R15   R(7,9)                  1.1036         estimate D2E/DX2                !
 ! R16   R(7,20)                 1.4227         estimate D2E/DX2                !
 ! R17   R(10,11)                1.0986         estimate D2E/DX2                !
 ! R18   R(10,12)                1.1003         estimate D2E/DX2                !
 ! R19   R(10,14)                1.4331         estimate D2E/DX2                !
 ! R20   R(14,15)                0.9683         estimate D2E/DX2                !
 ! R21   R(16,17)                0.9711         estimate D2E/DX2                !
 ! R22   R(18,19)                0.9734         estimate D2E/DX2                !
 ! R23   R(20,21)                0.9746         estimate D2E/DX2                !
 ! R24   R(23,30)                1.5328         estimate D2E/DX2                !
 ! R25   R(24,25)                0.9685         estimate D2E/DX2                !
 ! R26   R(24,26)                1.0304         estimate D2E/DX2                !
 ! R27   R(24,27)                1.4163         estimate D2E/DX2                !
 ! R28   R(26,28)                1.4444         estimate D2E/DX2                !
 ! R29   R(28,29)                0.9693         estimate D2E/DX2                !
 ! R30   R(28,30)                1.0085         estimate D2E/DX2                !
 ! A1    A(1,2,6)              109.3451         estimate D2E/DX2                !
 ! A2    A(1,2,7)              105.9657         estimate D2E/DX2                !
 ! A3    A(1,2,10)             109.0849         estimate D2E/DX2                !
 ! A4    A(6,2,7)              111.9414         estimate D2E/DX2                !
 ! A5    A(6,2,10)             108.258          estimate D2E/DX2                !
 ! A6    A(7,2,10)             112.1788         estimate D2E/DX2                !
 ! A7    A(5,3,7)              112.6406         estimate D2E/DX2                !
 ! A8    A(5,3,13)             107.5829         estimate D2E/DX2                !
 ! A9    A(5,3,18)             106.4765         estimate D2E/DX2                !
 ! A10   A(7,3,13)             108.3089         estimate D2E/DX2                !
 ! A11   A(7,3,18)             111.7353         estimate D2E/DX2                !
 ! A12   A(13,3,18)            110.0078         estimate D2E/DX2                !
 ! A13   A(5,4,22)             112.7287         estimate D2E/DX2                !
 ! A14   A(5,4,23)             122.2153         estimate D2E/DX2                !
 ! A15   A(22,4,23)            118.8672         estimate D2E/DX2                !
 ! A16   A(3,5,4)              117.0443         estimate D2E/DX2                !
 ! A17   A(3,5,8)              106.1008         estimate D2E/DX2                !
 ! A18   A(3,5,16)             110.6313         estimate D2E/DX2                !
 ! A19   A(4,5,8)              103.702          estimate D2E/DX2                !
 ! A20   A(4,5,16)             108.3553         estimate D2E/DX2                !
 ! A21   A(8,5,16)             110.7275         estimate D2E/DX2                !
 ! A22   A(2,6,27)             111.6261         estimate D2E/DX2                !
 ! A23   A(2,7,3)              108.7071         estimate D2E/DX2                !
 ! A24   A(2,7,9)              110.7723         estimate D2E/DX2                !
 ! A25   A(2,7,20)             110.6703         estimate D2E/DX2                !
 ! A26   A(3,7,9)              109.7552         estimate D2E/DX2                !
 ! A27   A(3,7,20)             107.0662         estimate D2E/DX2                !
 ! A28   A(9,7,20)             109.7883         estimate D2E/DX2                !
 ! A29   A(2,10,11)            109.7671         estimate D2E/DX2                !
 ! A30   A(2,10,12)            109.383          estimate D2E/DX2                !
 ! A31   A(2,10,14)            107.0943         estimate D2E/DX2                !
 ! A32   A(11,10,12)           108.1052         estimate D2E/DX2                !
 ! A33   A(11,10,14)           111.3093         estimate D2E/DX2                !
 ! A34   A(12,10,14)           111.1688         estimate D2E/DX2                !
 ! A35   A(10,14,15)           108.8765         estimate D2E/DX2                !
 ! A36   A(5,16,17)            106.3228         estimate D2E/DX2                !
 ! A37   A(3,18,19)            105.6315         estimate D2E/DX2                !
 ! A38   A(7,20,21)            105.9497         estimate D2E/DX2                !
 ! A39   A(4,23,30)            118.0195         estimate D2E/DX2                !
 ! A40   A(25,24,26)           106.9595         estimate D2E/DX2                !
 ! A41   A(25,24,27)           109.6793         estimate D2E/DX2                !
 ! A42   A(26,24,27)           104.1744         estimate D2E/DX2                !
 ! A43   A(26,28,29)           110.3819         estimate D2E/DX2                !
 ! A44   A(26,28,30)           100.3253         estimate D2E/DX2                !
 ! A45   A(29,28,30)           104.3615         estimate D2E/DX2                !
 ! A46   A(23,30,28)           156.5569         estimate D2E/DX2                !
 ! A47   L(24,26,28,3,-1)      171.9862         estimate D2E/DX2                !
 ! A48   L(6,27,24,13,-1)      178.0266         estimate D2E/DX2                !
 ! A49   L(24,26,28,3,-2)      188.6777         estimate D2E/DX2                !
 ! A50   L(6,27,24,13,-2)      183.8911         estimate D2E/DX2                !
 ! D1    D(1,2,6,27)           -13.0483         estimate D2E/DX2                !
 ! D2    D(7,2,6,27)           104.0626         estimate D2E/DX2                !
 ! D3    D(10,2,6,27)         -131.7812         estimate D2E/DX2                !
 ! D4    D(1,2,7,3)             79.0005         estimate D2E/DX2                !
 ! D5    D(1,2,7,9)           -160.3287         estimate D2E/DX2                !
 ! D6    D(1,2,7,20)           -38.3166         estimate D2E/DX2                !
 ! D7    D(6,2,7,3)            -40.1237         estimate D2E/DX2                !
 ! D8    D(6,2,7,9)             80.5471         estimate D2E/DX2                !
 ! D9    D(6,2,7,20)          -157.4408         estimate D2E/DX2                !
 ! D10   D(10,2,7,3)          -162.0596         estimate D2E/DX2                !
 ! D11   D(10,2,7,9)           -41.3888         estimate D2E/DX2                !
 ! D12   D(10,2,7,20)           80.6233         estimate D2E/DX2                !
 ! D13   D(1,2,10,11)          -59.7476         estimate D2E/DX2                !
 ! D14   D(1,2,10,12)         -178.2045         estimate D2E/DX2                !
 ! D15   D(1,2,10,14)           61.218          estimate D2E/DX2                !
 ! D16   D(6,2,10,11)           59.1502         estimate D2E/DX2                !
 ! D17   D(6,2,10,12)          -59.3067         estimate D2E/DX2                !
 ! D18   D(6,2,10,14)         -179.8843         estimate D2E/DX2                !
 ! D19   D(7,2,10,11)         -176.8358         estimate D2E/DX2                !
 ! D20   D(7,2,10,12)           64.7073         estimate D2E/DX2                !
 ! D21   D(7,2,10,14)          -55.8703         estimate D2E/DX2                !
 ! D22   D(7,3,5,4)            -38.107          estimate D2E/DX2                !
 ! D23   D(7,3,5,8)             76.9908         estimate D2E/DX2                !
 ! D24   D(7,3,5,16)          -162.8574         estimate D2E/DX2                !
 ! D25   D(13,3,5,4)            81.1825         estimate D2E/DX2                !
 ! D26   D(13,3,5,8)          -163.7197         estimate D2E/DX2                !
 ! D27   D(13,3,5,16)          -43.5678         estimate D2E/DX2                !
 ! D28   D(18,3,5,4)          -160.9122         estimate D2E/DX2                !
 ! D29   D(18,3,5,8)           -45.8143         estimate D2E/DX2                !
 ! D30   D(18,3,5,16)           74.3375         estimate D2E/DX2                !
 ! D31   D(5,3,7,2)             75.9509         estimate D2E/DX2                !
 ! D32   D(5,3,7,9)            -45.3453         estimate D2E/DX2                !
 ! D33   D(5,3,7,20)          -164.4586         estimate D2E/DX2                !
 ! D34   D(13,3,7,2)           -42.9158         estimate D2E/DX2                !
 ! D35   D(13,3,7,9)          -164.212          estimate D2E/DX2                !
 ! D36   D(13,3,7,20)           76.6747         estimate D2E/DX2                !
 ! D37   D(18,3,7,2)          -164.2407         estimate D2E/DX2                !
 ! D38   D(18,3,7,9)            74.4632         estimate D2E/DX2                !
 ! D39   D(18,3,7,20)          -44.6502         estimate D2E/DX2                !
 ! D40   D(5,3,18,19)          165.6054         estimate D2E/DX2                !
 ! D41   D(7,3,18,19)           42.2336         estimate D2E/DX2                !
 ! D42   D(13,3,18,19)         -78.1023         estimate D2E/DX2                !
 ! D43   D(22,4,5,3)            75.7983         estimate D2E/DX2                !
 ! D44   D(22,4,5,8)           -40.6225         estimate D2E/DX2                !
 ! D45   D(22,4,5,16)         -158.3141         estimate D2E/DX2                !
 ! D46   D(23,4,5,3)          -132.2414         estimate D2E/DX2                !
 ! D47   D(23,4,5,8)           111.3378         estimate D2E/DX2                !
 ! D48   D(23,4,5,16)           -6.3538         estimate D2E/DX2                !
 ! D49   D(5,4,23,30)           39.029          estimate D2E/DX2                !
 ! D50   D(22,4,23,30)        -170.6473         estimate D2E/DX2                !
 ! D51   D(3,5,16,17)          -46.4051         estimate D2E/DX2                !
 ! D52   D(4,5,16,17)         -175.9586         estimate D2E/DX2                !
 ! D53   D(8,5,16,17)           70.9378         estimate D2E/DX2                !
 ! D54   D(2,6,24,25)           97.7243         estimate D2E/DX2                !
 ! D55   D(2,6,24,26)         -148.2768         estimate D2E/DX2                !
 ! D56   D(2,7,20,21)          -55.1506         estimate D2E/DX2                !
 ! D57   D(3,7,20,21)         -173.4714         estimate D2E/DX2                !
 ! D58   D(9,7,20,21)           67.4366         estimate D2E/DX2                !
 ! D59   D(2,10,14,15)         171.7058         estimate D2E/DX2                !
 ! D60   D(11,10,14,15)        -68.3104         estimate D2E/DX2                !
 ! D61   D(12,10,14,15)         52.2708         estimate D2E/DX2                !
 ! D62   D(4,23,30,28)          97.5468         estimate D2E/DX2                !
 ! D63   D(25,24,28,29)         15.9246         estimate D2E/DX2                !
 ! D64   D(25,24,28,30)        123.6986         estimate D2E/DX2                !
 ! D65   D(27,24,28,29)        -98.1926         estimate D2E/DX2                !
 ! D66   D(27,24,28,30)          9.5814         estimate D2E/DX2                !
 ! D67   D(26,28,30,23)        -49.4098         estimate D2E/DX2                !
 ! D68   D(29,28,30,23)         64.9255         estimate D2E/DX2                !
 --------------------------------------------------------------------------------
 Trust Radius=3.00D-01 FncErr=1.00D-07 GrdErr=1.00D-06
 Number of steps in this run=    158 maximum allowed number of steps=    180.
 GradGradGradGradGradGradGradGradGradGradGradGradGradGradGradGradGradGrad

                          Input orientation:                          
 ---------------------------------------------------------------------
 Center     Atomic      Atomic             Coordinates (Angstroms)
 Number     Number       Type             X           Y           Z
 ---------------------------------------------------------------------
      1          1           0        1.430497   -0.966023   -1.300232
      2          6           0        1.297558   -0.842880   -0.216618
      3          6           0        0.230083    1.408751   -0.305254
      4          6           0       -1.022964   -0.163078    1.371583
      5          6           0       -0.885586    1.226733    0.728771
      6          8           0        0.000630   -1.276765    0.149026
      7          6           0        1.504714    0.659779    0.068467
      8          1           0       -0.625549    1.884752    1.579966
      9          1           0        1.737088    0.827564    1.134168
     10          6           0        2.316454   -1.713522    0.513222
     11          1           0        2.169111   -2.767133    0.238956
     12          1           0        2.166573   -1.618686    1.599160
     13          1           0       -0.137029    1.010033   -1.264756
     14          8           0        3.617442   -1.252172    0.128129
     15          1           0        4.281944   -1.697400    0.673860
     16          8           0       -2.134999    1.588605    0.181184
     17          1           0       -1.999176    2.436938   -0.271542
     18          8           0        0.454682    2.809117   -0.414144
     19          1           0        1.302485    2.903092   -0.883066
     20          8           0        2.550149    1.185020   -0.740929
     21          1           0        3.329939    0.626947   -0.566626
     22          1           0       -0.248008   -0.359761    2.130848
     23          8           0       -2.111257   -0.740071    1.466732
     24          8           0       -1.504043   -1.506707   -1.772380
     25          1           0       -1.550983   -2.426690   -2.071492
     26          1           0       -2.422551   -1.275294   -1.366769
     27          1           0       -0.607401   -1.405260   -0.680818
     28          8           0       -3.559292   -0.913904   -0.552183
     29          1           0       -4.055831   -1.705685   -0.295239
     30          1           0       -3.091416   -0.626559    0.293780
 ---------------------------------------------------------------------
                    Distance matrix (angstroms):
                    1          2          3          4          5
     1  H    0.000000
     2  C    1.098661   0.000000
     3  C    2.840867   2.493432   0.000000
     4  C    3.715210   2.892980   2.617739   0.000000
     5  C    3.780115   3.153280   1.532010   1.537418   0.000000
     6  O    2.059473   1.415618   2.733316   1.944914   2.718269
     7  C    2.126518   1.543428   1.524897   2.960466   2.543811
     8  H    4.544203   3.790255   2.124320   2.096418   1.106861
     9  H    3.039285   2.192759   2.163511   2.942044   2.683673
    10  C    2.152276   1.526051   3.843363   3.780525   4.352542
    11  H    2.481662   2.160996   4.636162   4.272387   5.051936
    12  H    3.061740   2.157339   4.067206   3.513365   4.262589
    13  H    2.522537   2.567084   1.101994   3.018502   2.140431
    14  O    2.627703   2.380805   4.329265   4.926020   5.175230
    15  H    3.544390   3.229507   5.198501   5.566238   5.937755
    16  O    4.629631   4.225259   2.421277   2.392084   1.411324
    17  H    4.939737   4.650664   2.455178   3.226908   1.924917
    18  O    3.998631   3.753204   1.422437   3.769112   2.367807
    19  H    3.893644   3.804797   1.927944   4.460107   3.193095
    20  O    2.488660   2.440546   2.371197   4.364311   3.737116
    21  H    2.585268   2.532483   3.207591   4.829965   4.450668
    22  H    3.867459   2.851802   3.048081   1.102599   2.211174
    23  O    4.500129   3.803190   3.638577   1.235458   2.432113
    24  O    3.021057   3.272618   3.695882   3.452721   3.756320
    25  H    3.408462   3.750093   4.582838   4.154216   4.650992
    26  H    3.866013   3.917785   3.920125   3.270235   3.607449
    27  H    2.174772   2.039760   2.959913   2.434760   2.998619
    28  O    5.045819   4.868947   4.451411   3.270715   3.656757
    29  H    5.626447   5.423042   5.298006   3.788960   4.438257
    30  H    4.806642   4.423844   3.941280   2.378018   2.913691
                    6          7          8          9         10
     6  O    0.000000
     7  C    2.453357   0.000000
     8  H    3.526312   2.884997   0.000000
     9  H    2.900688   1.103571   2.626487   0.000000
    10  C    2.384625   2.547408   4.768742   2.679246   0.000000
    11  H    2.632792   3.494884   5.590033   3.729597   1.098648
    12  H    2.628899   2.823558   4.479999   2.526819   1.100327
    13  H    2.692058   2.143707   3.015995   3.049663   4.074130
    14  O    3.616956   2.850041   5.472759   2.978783   1.433077
    15  H    4.333824   3.692668   6.142990   3.614363   1.972109
    16  O    3.573834   3.758049   2.079118   4.059608   5.552452
    17  H    4.238831   3.943494   2.370621   4.304158   6.038778
    18  O    4.149428   2.440314   2.449046   2.822833   4.977998
    19  H    4.497916   2.445151   3.289507   2.926761   4.928578
    20  O    3.654101   1.422650   3.995152   2.074809   3.166868
    21  H    3.901356   1.932839   4.672881   2.338829   2.769660
    22  H    2.197802   2.892216   2.341761   2.518674   3.320519
    23  O    2.546460   4.121889   3.018252   4.168673   4.632646
    24  O    2.451268   4.139444   4.848914   4.939815   4.456787
    25  H    2.942878   4.841797   5.725217   5.628307   4.705999
    26  H    2.858224   4.607366   4.679568   5.289546   5.117087
    27  H    1.036752   3.047432   3.991948   3.711645   3.173277
    28  O    3.646424   5.339086   4.580981   5.824786   6.024854
    29  H    4.103196   6.053707   5.307963   6.482165   6.423370
    30  H    3.162984   4.778058   3.747193   5.112257   5.520390
                   11         12         13         14         15
    11  H    0.000000
    12  H    1.780194   0.000000
    13  H    4.674015   4.518712   0.000000
    14  O    2.098822   2.098401   4.599321   0.000000
    15  H    2.407807   2.310232   5.533150   0.968304   0.000000
    16  O    6.123819   5.549855   2.533253   6.415871   7.226183
    17  H    6.687120   6.107461   2.547572   6.731691   7.578852
    18  O    5.870296   5.156491   2.076142   5.176020   6.011687
    19  H    5.844778   5.230160   2.408643   4.862896   5.697870
    20  O    4.089606   3.672045   2.743345   2.798979   3.648162
    21  H    3.676447   3.329702   3.557247   2.023964   2.801376
    22  H    3.900918   2.774488   3.663165   4.443983   4.942930
    23  O    4.892644   4.369134   3.797561   5.905260   6.512921
    24  O    4.373352   4.985303   2.908675   5.468668   6.284751
    25  H    4.392399   5.286471   3.802782   5.738505   6.487824
    26  H    5.087956   5.474917   3.233688   6.222280   7.020868
    27  H    3.226407   3.597052   2.529006   4.304315   5.081948
    28  O    6.072476   6.157152   3.990135   7.216839   7.975088
    29  H    6.337345   6.504969   4.865398   7.698314   8.393909
    30  H    5.679631   5.507702   3.719660   6.740001   7.460402
                   16         17         18         19         20
    16  O    0.000000
    17  H    0.971122   0.000000
    18  O    2.924126   2.486015   0.000000
    19  H    3.831031   3.390019   0.973391   0.000000
    20  O    4.792054   4.741728   2.671228   2.128060   0.000000
    21  H    5.599067   5.635833   3.612786   3.064562   0.974628
    22  H    3.340367   4.081616   4.124627   4.704670   4.296875
    23  O    2.660062   3.623195   4.766390   5.517954   5.505311
    24  O    3.714226   4.248530   4.930289   5.302245   4.974511
    25  H    4.640929   5.205341   5.846637   6.161267   5.624423
    26  H    3.268144   3.893512   5.086096   5.618609   5.583240
    27  H    3.469846   4.106949   4.354321   4.717040   4.084518
    28  O    2.971361   3.706867   5.476489   6.189977   6.462691
    29  H    3.843035   4.625118   6.382970   7.092102   7.224527
    30  H    2.415443   3.301150   4.987969   5.757584   6.014956
                   21         22         23         24         25
    21  H    0.000000
    22  H    4.588209   0.000000
    23  O    5.967403   2.014295   0.000000
    24  O    5.419751   4.257734   3.383532   0.000000
    25  H    5.950859   4.861029   3.959497   0.968525   0.000000
    26  H    6.111456   4.219024   2.900361   1.030402   1.606853
    27  H    4.432330   3.021208   2.704816   1.416251   1.966632
    28  O    7.059457   4.297712   2.490591   2.462589   2.937708
    29  H    7.750124   4.711361   2.796126   2.955192   3.154233
    30  H    6.598892   3.395728   1.532780   2.750169   3.347823
                   26         27         28         29         30
    26  H    0.000000
    27  H    1.944785   0.000000
    28  O    1.444414   2.995269   0.000000
    29  H    2.000254   3.482900   0.969272   0.000000
    30  H    1.904117   2.779667   1.008528   1.562547   0.000000
 Stoichiometry    C6H16O8
 Framework group  C1[X(C6H16O8)]
 Deg. of freedom    84
 Full point group                 C1      NOp   1
 Largest Abelian subgroup         C1      NOp   1
 Largest concise Abelian subgroup C1      NOp   1
                         Standard orientation:                         
 ---------------------------------------------------------------------
 Center     Atomic      Atomic             Coordinates (Angstroms)
 Number     Number       Type             X           Y           Z
 ---------------------------------------------------------------------
      1          1           0       -1.425923   -0.945294    1.291908
      2          6           0       -1.292627   -0.818186    0.208795
      3          6           0       -0.219111    1.430198    0.306429
      4          6           0        1.029751   -0.138288   -1.376649
      5          6           0        0.896090    1.249311   -0.728299
      6          8           0        0.003140   -1.254091   -0.158559
      7          6           0       -1.495740    0.686149   -0.070295
      8          1           0        0.637842    1.911417   -1.576865
      9          1           0       -1.727636    0.858808   -1.135321
     10          6           0       -2.313840   -1.683170   -0.524526
     11          1           0       -2.169334   -2.738259   -0.254464
     12          1           0       -2.163679   -1.584405   -1.610075
     13          1           0        0.146905    1.026670    1.264337
     14          8           0       -3.613594   -1.219867   -0.137613
     15          1           0       -4.279276   -1.661128   -0.685125
     16          8           0        2.146457    1.605638   -0.179256
     17          1           0        2.012902    2.452520    0.276850
     18          8           0       -0.439951    2.830717    0.420902
     19          1           0       -1.287510    2.925097    0.890184
     20          8           0       -2.539780    1.210963    0.741176
     21          1           0       -3.321062    0.655686    0.564637
     22          1           0        0.254288   -0.329858   -2.136703
     23          8           0        2.116493   -0.717818   -1.474084
     24          8           0        1.507143   -1.495737    1.761935
     25          1           0        1.551605   -2.417029    2.057375
     26          1           0        2.426279   -1.265176    1.357263
     27          1           0        0.610803   -1.387528    0.670774
     28          8           0        3.564006   -0.903593    0.544141
     29          1           0        4.058423   -1.695673    0.284046
     30          1           0        3.096924   -0.611619   -0.300676
 ---------------------------------------------------------------------
 Rotational constants (GHZ):      0.8480428      0.4687030      0.3724946
 Standard basis: 6-31G(d) (6D, 7F)
 There are   242 symmetry adapted cartesian basis functions of A   symmetry.
 There are   242 symmetry adapted basis functions of A   symmetry.
   242 basis functions,   456 primitive gaussians,   242 cartesian basis functions
    58 alpha electrons       58 beta electrons
       nuclear repulsion energy      1111.5236005163 Hartrees.
 NAtoms=   30 NActive=   30 NUniq=   30 SFac= 1.00D+00 NAtFMM=   60 NAOKFM=F Big=F
 Integral buffers will be    131072 words long.
 Raffenetti 2 integral format.
 Two-electron integral symmetry is turned on.
 One-electron integrals computed using PRISM.
 NBasis=   242 RedAO= T EigKep=  1.52D-03  NBF=   242
 NBsUse=   242 1.00D-06 EigRej= -1.00D+00 NBFU=   242
 ExpMin= 1.61D-01 ExpMax= 5.48D+03 ExpMxC= 8.25D+02 IAcc=1 IRadAn=         1 AccDes= 0.00D+00
 Harris functional with IExCor=  402 and IRadAn=       1 diagonalized for initial guess.
 HarFok:  IExCor=  402 AccDes= 0.00D+00 IRadAn=         1 IDoV= 1 UseB2=F ITyADJ=14
 ICtDFT=  3500011 ScaDFX=  1.000000  1.000000  1.000000  1.000000
 FoFCou: FMM=F IPFlag=           0 FMFlag=      100000 FMFlg1=           0
         NFxFlg=           0 DoJE=T BraDBF=F KetDBF=T FulRan=T
         wScrn=  0.000000 ICntrl=     500 IOpCl=  0 I1Cent=   200000004 NGrid=           0
         NMat0=    1 NMatS0=      1 NMatT0=    0 NMatD0=    1 NMtDS0=    0 NMtDT0=    0
 Petite list used in FoFCou.
 Requested convergence on RMS density matrix=1.00D-08 within 128 cycles.
 Requested convergence on MAX density matrix=1.00D-06.
 Requested convergence on             energy=1.00D-06.
 No special actions if energy rises.
 Integral accuracy reduced to 1.0D-05 until final iterations.
 Initial convergence to 1.0D-05 achieved.  Increase integral accuracy.
 SCF Done:  E(RB3LYP) =  -839.968356148     A.U. after   14 cycles
            NFock= 14  Conv=0.65D-08     -V/T= 2.0083

 **********************************************************************

            Population analysis using the SCF density.

 **********************************************************************

 Orbital symmetries:
       Occupied  (A) (A) (A) (A) (A) (A) (A) (A) (A) (A) (A) (A)
                 (A) (A) (A) (A) (A) (A) (A) (A) (A) (A) (A) (A)
                 (A) (A) (A) (A) (A) (A) (A) (A) (A) (A) (A) (A)
                 (A) (A) (A) (A) (A) (A) (A) (A) (A) (A) (A) (A)
                 (A) (A) (A) (A) (A) (A) (A) (A) (A) (A)
       Virtual   (A) (A) (A) (A) (A) (A) (A) (A) (A) (A) (A) (A)
                 (A) (A) (A) (A) (A) (A) (A) (A) (A) (A) (A) (A)
                 (A) (A) (A) (A) (A) (A) (A) (A) (A) (A) (A) (A)
                 (A) (A) (A) (A) (A) (A) (A) (A) (A) (A) (A) (A)
                 (A) (A) (A) (A) (A) (A) (A) (A) (A) (A) (A) (A)
                 (A) (A) (A) (A) (A) (A) (A) (A) (A) (A) (A) (A)
                 (A) (A) (A) (A) (A) (A) (A) (A) (A) (A) (A) (A)
                 (A) (A) (A) (A) (A) (A) (A) (A) (A) (A) (A) (A)
                 (A) (A) (A) (A) (A) (A) (A) (A) (A) (A) (A) (A)
                 (A) (A) (A) (A) (A) (A) (A) (A) (A) (A) (A) (A)
                 (A) (A) (A) (A) (A) (A) (A) (A) (A) (A) (A) (A)
                 (A) (A) (A) (A) (A) (A) (A) (A) (A) (A) (A) (A)
                 (A) (A) (A) (A) (A) (A) (A) (A) (A) (A) (A) (A)
                 (A) (A) (A) (A) (A) (A) (A) (A) (A) (A) (A) (A)
                 (A) (A) (A) (A) (A) (A) (A) (A) (A) (A) (A) (A)
                 (A) (A) (A) (A)
 The electronic state is 1-A.
 Alpha  occ. eigenvalues --  -19.17719 -19.15170 -19.14858 -19.14339 -19.14109
 Alpha  occ. eigenvalues --  -19.13958 -19.13250 -19.11705 -10.27566 -10.24876
 Alpha  occ. eigenvalues --  -10.24490 -10.23949 -10.23543 -10.23371  -1.05338
 Alpha  occ. eigenvalues --   -1.04299  -1.03277  -1.02492  -1.00925  -1.00877
 Alpha  occ. eigenvalues --   -0.99884  -0.97863  -0.78204  -0.75325  -0.69128
 Alpha  occ. eigenvalues --   -0.63177  -0.60638  -0.57031  -0.55732  -0.54723
 Alpha  occ. eigenvalues --   -0.53789  -0.52310  -0.50869  -0.50357  -0.48662
 Alpha  occ. eigenvalues --   -0.46672  -0.45143  -0.44379  -0.43571  -0.42698
 Alpha  occ. eigenvalues --   -0.42138  -0.41354  -0.40195  -0.38437  -0.37213
 Alpha  occ. eigenvalues --   -0.35884  -0.35370  -0.34708  -0.33128  -0.32200
 Alpha  occ. eigenvalues --   -0.30388  -0.29760  -0.28996  -0.28385  -0.26711
 Alpha  occ. eigenvalues --   -0.26520  -0.25600  -0.24020
 Alpha virt. eigenvalues --    0.02382   0.04292   0.06402   0.07729   0.08985
 Alpha virt. eigenvalues --    0.10508   0.11388   0.12111   0.13696   0.14358
 Alpha virt. eigenvalues --    0.15699   0.16122   0.16717   0.17802   0.19880
 Alpha virt. eigenvalues --    0.20316   0.21052   0.21632   0.24881   0.26337
 Alpha virt. eigenvalues --    0.28064   0.29071   0.29298   0.30083   0.32238
 Alpha virt. eigenvalues --    0.33732   0.35380   0.39245   0.52377   0.53956
 Alpha virt. eigenvalues --    0.54850   0.56911   0.57571   0.58787   0.60427
 Alpha virt. eigenvalues --    0.62885   0.64339   0.65538   0.66292   0.67008
 Alpha virt. eigenvalues --    0.67516   0.69962   0.72410   0.73370   0.74972
 Alpha virt. eigenvalues --    0.75618   0.76663   0.78732   0.79334   0.79986
 Alpha virt. eigenvalues --    0.81427   0.82194   0.82608   0.83861   0.84724
 Alpha virt. eigenvalues --    0.85163   0.87459   0.87866   0.88690   0.89690
 Alpha virt. eigenvalues --    0.91101   0.92292   0.93693   0.94549   0.96343
 Alpha virt. eigenvalues --    0.97934   0.99609   1.00888   1.01567   1.02223
 Alpha virt. eigenvalues --    1.03967   1.04467   1.06858   1.08201   1.10140
 Alpha virt. eigenvalues --    1.12275   1.13753   1.15447   1.16082   1.17008
 Alpha virt. eigenvalues --    1.18704   1.23473   1.24619   1.26332   1.28564
 Alpha virt. eigenvalues --    1.31013   1.32648   1.34747   1.36058   1.37143
 Alpha virt. eigenvalues --    1.42237   1.42453   1.45658   1.48755   1.50891
 Alpha virt. eigenvalues --    1.52725   1.53810   1.56633   1.58049   1.60403
 Alpha virt. eigenvalues --    1.61401   1.64520   1.65952   1.67361   1.68662
 Alpha virt. eigenvalues --    1.70849   1.72169   1.72894   1.74145   1.75092
 Alpha virt. eigenvalues --    1.75752   1.77558   1.77942   1.80180   1.81379
 Alpha virt. eigenvalues --    1.82374   1.84277   1.85387   1.85749   1.87997
 Alpha virt. eigenvalues --    1.88380   1.89115   1.90706   1.93547   1.95438
 Alpha virt. eigenvalues --    1.96822   1.98705   2.02126   2.04573   2.06562
 Alpha virt. eigenvalues --    2.07376   2.10211   2.10768   2.13269   2.16554
 Alpha virt. eigenvalues --    2.18839   2.20899   2.27080   2.28150   2.29724
 Alpha virt. eigenvalues --    2.31940   2.34286   2.37011   2.39974   2.42192
 Alpha virt. eigenvalues --    2.43899   2.45184   2.46998   2.47771   2.49532
 Alpha virt. eigenvalues --    2.50941   2.53178   2.55639   2.56056   2.60227
 Alpha virt. eigenvalues --    2.62033   2.66522   2.67864   2.70420   2.76037
 Alpha virt. eigenvalues --    2.78080   2.79659   2.84624   2.88798   2.91049
 Alpha virt. eigenvalues --    2.93965   2.98082   3.01634   3.03291   3.11080
 Alpha virt. eigenvalues --    3.75326   3.77483   3.80343   3.85409   3.91017
 Alpha virt. eigenvalues --    3.98684   4.09750   4.22561   4.27607   4.33786
 Alpha virt. eigenvalues --    4.42500   4.50248   4.64333   4.77145
          Condensed to atoms (all electrons):
               1          2          3          4          5          6
     1  H    0.610094   0.353501  -0.008167   0.000523   0.000119  -0.027005
     2  C    0.353501   4.970677  -0.025709  -0.001325  -0.009451   0.169603
     3  C   -0.008167  -0.025709   4.989458  -0.021060   0.312643   0.003183
     4  C    0.000523  -0.001325  -0.021060   4.712801   0.258096   0.039790
     5  C    0.000119  -0.009451   0.312643   0.258096   5.083467  -0.022650
     6  O   -0.027005   0.169603   0.003183   0.039790  -0.022650   8.564378
     7  C   -0.051733   0.289848   0.271348  -0.007548  -0.012613  -0.044588
     8  H    0.000008   0.000840  -0.045592  -0.047603   0.325055   0.001757
     9  H    0.007082  -0.057612  -0.054639  -0.001244  -0.005022   0.002942
    10  C   -0.048752   0.356235   0.004168  -0.000446  -0.000325  -0.043419
    11  H   -0.006983  -0.034989  -0.000100   0.000036  -0.000000   0.004401
    12  H    0.006449  -0.033463  -0.000167  -0.000199  -0.000037   0.003040
    13  H    0.005353  -0.000515   0.350450  -0.001750  -0.051074   0.003390
    14  O    0.003652  -0.047032   0.000162   0.000017  -0.000001   0.001206
    15  H   -0.000170   0.005669   0.000007  -0.000001  -0.000000  -0.000096
    16  O   -0.000004   0.000015  -0.035281  -0.041967   0.240307  -0.000036
    17  H   -0.000001  -0.000030  -0.007119   0.006443  -0.028750  -0.000040
    18  O   -0.000064   0.002715   0.217609   0.001908  -0.042898   0.000086
    19  H    0.000052   0.000650  -0.027926  -0.000155   0.005964  -0.000017
    20  O    0.005829  -0.035264  -0.030706   0.000116   0.001933   0.001655
    21  H    0.000540  -0.006046   0.005077  -0.000004  -0.000140   0.000011
    22  H   -0.000099   0.001011   0.001662   0.352213  -0.095793  -0.027697
    23  O   -0.000073   0.001497   0.000609   0.439297  -0.053015  -0.036311
    24  O    0.003810   0.001099  -0.001304   0.001890   0.000021  -0.082276
    25  H   -0.000234  -0.000016   0.000053  -0.000045  -0.000015   0.003835
    26  H   -0.000106   0.000014  -0.000148  -0.000279  -0.000302   0.005110
    27  H   -0.006039  -0.004414  -0.001088  -0.001297   0.000455   0.137857
    28  O    0.000005  -0.000008  -0.000029   0.010374   0.000558  -0.000555
    29  H   -0.000000   0.000001  -0.000000  -0.000242  -0.000012  -0.000008
    30  H   -0.000003  -0.000041   0.000347  -0.015854  -0.007547   0.000960
               7          8          9         10         11         12
     1  H   -0.051733   0.000008   0.007082  -0.048752  -0.006983   0.006449
     2  C    0.289848   0.000840  -0.057612   0.356235  -0.034989  -0.033463
     3  C    0.271348  -0.045592  -0.054639   0.004168  -0.000100  -0.000167
     4  C   -0.007548  -0.047603  -0.001244  -0.000446   0.000036  -0.000199
     5  C   -0.012613   0.325055  -0.005022  -0.000325  -0.000000  -0.000037
     6  O   -0.044588   0.001757   0.002942  -0.043419   0.004401   0.003040
     7  C    5.065764  -0.004174   0.351645  -0.052965   0.006465  -0.012185
     8  H   -0.004174   0.652506   0.006514   0.000040  -0.000000  -0.000013
     9  H    0.351645   0.006514   0.669671  -0.004878   0.000089   0.004641
    10  C   -0.052965   0.000040  -0.004878   4.928339   0.359387   0.358439
    11  H    0.006465  -0.000000   0.000089   0.359387   0.616859  -0.050317
    12  H   -0.012185  -0.000013   0.004641   0.358439  -0.050317   0.623443
    13  H   -0.058736   0.008233   0.007546   0.000351   0.000001   0.000004
    14  O    0.010774  -0.000000   0.000271   0.211124  -0.033999  -0.034729
    15  H   -0.000194   0.000000  -0.000050  -0.018228  -0.002740  -0.005177
    16  O    0.004199  -0.038616  -0.000014  -0.000000  -0.000000   0.000000
    17  H    0.000730  -0.002440  -0.000016   0.000000  -0.000000  -0.000000
    18  O   -0.028444   0.000748   0.000608  -0.000047   0.000000  -0.000001
    19  H   -0.016291  -0.000155   0.000631  -0.000019   0.000001   0.000000
    20  O    0.207269  -0.000179  -0.042330   0.000832  -0.000254   0.000071
    21  H   -0.024097   0.000006  -0.002112  -0.003121   0.000317   0.000464
    22  H    0.001284   0.003850   0.002464  -0.000048  -0.000036   0.002075
    23  O    0.000023   0.000992   0.000029  -0.000014   0.000004  -0.000034
    24  O   -0.000293  -0.000001  -0.000001  -0.000099  -0.000003   0.000002
    25  H    0.000006   0.000000   0.000000   0.000004   0.000005  -0.000000
    26  H    0.000013   0.000028   0.000001   0.000006  -0.000000  -0.000000
    27  H    0.003612  -0.000028  -0.000159   0.000551   0.000262  -0.000097
    28  O    0.000000  -0.000020  -0.000000  -0.000000   0.000000  -0.000000
    29  H    0.000000   0.000002   0.000000  -0.000000   0.000000   0.000000
    30  H   -0.000003   0.000237   0.000002   0.000000   0.000000   0.000000
              13         14         15         16         17         18
     1  H    0.005353   0.003652  -0.000170  -0.000004  -0.000001  -0.000064
     2  C   -0.000515  -0.047032   0.005669   0.000015  -0.000030   0.002715
     3  C    0.350450   0.000162   0.000007  -0.035281  -0.007119   0.217609
     4  C   -0.001750   0.000017  -0.000001  -0.041967   0.006443   0.001908
     5  C   -0.051074  -0.000001  -0.000000   0.240307  -0.028750  -0.042898
     6  O    0.003390   0.001206  -0.000096  -0.000036  -0.000040   0.000086
     7  C   -0.058736   0.010774  -0.000194   0.004199   0.000730  -0.028444
     8  H    0.008233  -0.000000   0.000000  -0.038616  -0.002440   0.000748
     9  H    0.007546   0.000271  -0.000050  -0.000014  -0.000016   0.000608
    10  C    0.000351   0.211124  -0.018228  -0.000000   0.000000  -0.000047
    11  H    0.000001  -0.033999  -0.002740  -0.000000  -0.000000   0.000000
    12  H    0.000004  -0.034729  -0.005177   0.000000  -0.000000  -0.000001
    13  H    0.631770  -0.000011   0.000001   0.002131  -0.000800  -0.044379
    14  O   -0.000011   8.265776   0.235602  -0.000000   0.000000  -0.000000
    15  H    0.000001   0.235602   0.377128   0.000000  -0.000000   0.000000
    16  O    0.002131  -0.000000   0.000000   8.250236   0.238863  -0.001763
    17  H   -0.000800   0.000000  -0.000000   0.238863   0.371049   0.011702
    18  O   -0.044379  -0.000000   0.000000  -0.001763   0.011702   8.320471
    19  H   -0.000193   0.000005  -0.000000  -0.000102  -0.000408   0.235314
    20  O   -0.000312  -0.012179   0.000540  -0.000012  -0.000002  -0.009028
    21  H   -0.000240   0.038261  -0.001262   0.000001   0.000000   0.000239
    22  H    0.000131  -0.000020  -0.000001   0.002726  -0.000251  -0.000170
    23  O    0.000150   0.000000  -0.000000  -0.000833  -0.000017  -0.000013
    24  O    0.004870   0.000000  -0.000000  -0.000171   0.000005   0.000002
    25  H   -0.000101  -0.000000   0.000000   0.000005  -0.000000  -0.000000
    26  H    0.000385  -0.000000   0.000000   0.001537  -0.000031  -0.000001
    27  H   -0.001245  -0.000002  -0.000000   0.000328  -0.000011  -0.000007
    28  O    0.000002   0.000000  -0.000000  -0.001262   0.000161   0.000000
    29  H    0.000000   0.000000  -0.000000   0.000180  -0.000009  -0.000000
    30  H    0.000031  -0.000000   0.000000   0.009214  -0.000367  -0.000004
              19         20         21         22         23         24
     1  H    0.000052   0.005829   0.000540  -0.000099  -0.000073   0.003810
     2  C    0.000650  -0.035264  -0.006046   0.001011   0.001497   0.001099
     3  C   -0.027926  -0.030706   0.005077   0.001662   0.000609  -0.001304
     4  C   -0.000155   0.000116  -0.000004   0.352213   0.439297   0.001890
     5  C    0.005964   0.001933  -0.000140  -0.095793  -0.053015   0.000021
     6  O   -0.000017   0.001655   0.000011  -0.027697  -0.036311  -0.082276
     7  C   -0.016291   0.207269  -0.024097   0.001284   0.000023  -0.000293
     8  H   -0.000155  -0.000179   0.000006   0.003850   0.000992  -0.000001
     9  H    0.000631  -0.042330  -0.002112   0.002464   0.000029  -0.000001
    10  C   -0.000019   0.000832  -0.003121  -0.000048  -0.000014  -0.000099
    11  H    0.000001  -0.000254   0.000317  -0.000036   0.000004  -0.000003
    12  H    0.000000   0.000071   0.000464   0.002075  -0.000034   0.000002
    13  H   -0.000193  -0.000312  -0.000240   0.000131   0.000150   0.004870
    14  O    0.000005  -0.012179   0.038261  -0.000020   0.000000   0.000000
    15  H   -0.000000   0.000540  -0.001262  -0.000001  -0.000000  -0.000000
    16  O   -0.000102  -0.000012   0.000001   0.002726  -0.000833  -0.000171
    17  H   -0.000408  -0.000002   0.000000  -0.000251  -0.000017   0.000005
    18  O    0.235314  -0.009028   0.000239  -0.000170  -0.000013   0.000002
    19  H    0.356290   0.028285  -0.000672   0.000014   0.000001  -0.000000
    20  O    0.028285   8.327731   0.231236   0.000006  -0.000000   0.000001
    21  H   -0.000672   0.231236   0.335996  -0.000002  -0.000000   0.000000
    22  H    0.000014   0.000006  -0.000002   0.679900  -0.040378  -0.000026
    23  O    0.000001  -0.000000  -0.000000  -0.040378   8.178136  -0.001450
    24  O   -0.000000   0.000001   0.000000  -0.000026  -0.001450   8.459431
    25  H    0.000000  -0.000000  -0.000000   0.000003   0.000066   0.231064
    26  H   -0.000000  -0.000000   0.000000   0.000057   0.002709   0.165158
    27  H    0.000001  -0.000048  -0.000001   0.001806   0.005724   0.118583
    28  O   -0.000000   0.000000   0.000000  -0.000218  -0.059580  -0.080755
    29  H   -0.000000  -0.000000   0.000000   0.000011   0.003593   0.004269
    30  H    0.000000   0.000000  -0.000000   0.002196   0.092438   0.006215
              25         26         27         28         29         30
     1  H   -0.000234  -0.000106  -0.006039   0.000005  -0.000000  -0.000003
     2  C   -0.000016   0.000014  -0.004414  -0.000008   0.000001  -0.000041
     3  C    0.000053  -0.000148  -0.001088  -0.000029  -0.000000   0.000347
     4  C   -0.000045  -0.000279  -0.001297   0.010374  -0.000242  -0.015854
     5  C   -0.000015  -0.000302   0.000455   0.000558  -0.000012  -0.007547
     6  O    0.003835   0.005110   0.137857  -0.000555  -0.000008   0.000960
     7  C    0.000006   0.000013   0.003612   0.000000   0.000000  -0.000003
     8  H    0.000000   0.000028  -0.000028  -0.000020   0.000002   0.000237
     9  H    0.000000   0.000001  -0.000159  -0.000000   0.000000   0.000002
    10  C    0.000004   0.000006   0.000551  -0.000000  -0.000000   0.000000
    11  H    0.000005  -0.000000   0.000262   0.000000   0.000000   0.000000
    12  H   -0.000000  -0.000000  -0.000097  -0.000000   0.000000   0.000000
    13  H   -0.000101   0.000385  -0.001245   0.000002   0.000000   0.000031
    14  O   -0.000000  -0.000000  -0.000002   0.000000   0.000000  -0.000000
    15  H    0.000000   0.000000  -0.000000  -0.000000  -0.000000   0.000000
    16  O    0.000005   0.001537   0.000328  -0.001262   0.000180   0.009214
    17  H   -0.000000  -0.000031  -0.000011   0.000161  -0.000009  -0.000367
    18  O   -0.000000  -0.000001  -0.000007   0.000000  -0.000000  -0.000004
    19  H    0.000000  -0.000000   0.000001  -0.000000  -0.000000   0.000000
    20  O   -0.000000  -0.000000  -0.000048   0.000000  -0.000000   0.000000
    21  H   -0.000000   0.000000  -0.000001   0.000000   0.000000  -0.000000
    22  H    0.000003   0.000057   0.001806  -0.000218   0.000011   0.002196
    23  O    0.000066   0.002709   0.005724  -0.059580   0.003593   0.092438
    24  O    0.231064   0.165158   0.118583  -0.080755   0.004269   0.006215
    25  H    0.381450  -0.006328  -0.005783   0.004148  -0.000228  -0.000265
    26  H   -0.006328   0.290806  -0.006662   0.112904  -0.006704  -0.009316
    27  H   -0.005783  -0.006662   0.288693   0.003015   0.000043  -0.000116
    28  O    0.004148   0.112904   0.003015   8.425122   0.234628   0.171041
    29  H   -0.000228  -0.006704   0.000043   0.234628   0.388510  -0.012081
    30  H   -0.000265  -0.009316  -0.000116   0.171041  -0.012081   0.293924
 Mulliken charges:
               1
     1  H    0.152413
     2  C    0.102541
     3  C    0.102260
     4  C    0.317515
     5  C    0.101027
     6  O   -0.658506
     7  C    0.100885
     8  H    0.138006
     9  H    0.113942
    10  C   -0.047117
    11  H    0.141594
    12  H    0.137790
    13  H    0.144555
    14  O   -0.638877
    15  H    0.408974
    16  O   -0.629683
    17  H    0.411339
    18  O   -0.664580
    19  H    0.418730
    20  O   -0.675189
    21  H    0.425549
    22  H    0.113333
    23  O   -0.533551
    24  O   -0.830043
    25  H    0.392377
    26  H    0.451148
    27  H    0.466065
    28  O   -0.819532
    29  H    0.388047
    30  H    0.468988
 Sum of Mulliken charges =  -0.00000
 Mulliken charges with hydrogens summed into heavy atoms:
               1
     2  C    0.254955
     3  C    0.246815
     4  C    0.430848
     5  C    0.239033
     6  O   -0.192441
     7  C    0.214826
    10  C    0.232267
    14  O   -0.229903
    16  O   -0.218344
    18  O   -0.245850
    20  O   -0.249641
    23  O   -0.533551
    24  O    0.013482
    28  O    0.037503
 Electronic spatial extent (au):  <R**2>=           3154.4138
 Charge=             -0.0000 electrons
 Dipole moment (field-independent basis, Debye):
    X=             -3.7341    Y=             -3.7523    Z=             -0.4501  Tot=              5.3128
 Quadrupole moment (field-independent basis, Debye-Ang):
   XX=            -76.3337   YY=            -74.4633   ZZ=            -84.0609
   XY=              0.0480   XZ=              8.1922   YZ=             -2.5661
 Traceless Quadrupole moment (field-independent basis, Debye-Ang):
   XX=              1.9523   YY=              3.8226   ZZ=             -5.7749
   XY=              0.0480   XZ=              8.1922   YZ=             -2.5661
 Octapole moment (field-independent basis, Debye-Ang**2):
  XXX=            -44.0254  YYY=            -35.8438  ZZZ=              6.2658  XYY=             18.0204
  XXY=            -52.4948  XXZ=            -14.3007  XZZ=             -7.8491  YZZ=             -3.7081
  YYZ=             21.3919  XYZ=            -17.4348
 Hexadecapole moment (field-independent basis, Debye-Ang**3):
 XXXX=          -1805.9675 YYYY=          -1004.0187 ZZZZ=           -462.4495 XXXY=            -29.9151
 XXXZ=             84.8464 YYYX=            -30.1850 YYYZ=            -19.4076 ZZZX=             19.8211
 ZZZY=            -18.7231 XXYY=           -384.0895 XXZZ=           -437.8228 YYZZ=           -221.9393
 XXYZ=             27.4152 YYXZ=             45.6196 ZZXY=             -1.8187
 N-N= 1.111523600516D+03 E-N=-4.196462124520D+03  KE= 8.330829736290D+02
 Calling FoFJK, ICntrl=      2127 FMM=F ISym2X=0 I1Cent= 0 IOpClX= 0 NMat=1 NMatS=1 NMatT=0.
 ***** Axes restored to original set *****
 -------------------------------------------------------------------
 Center     Atomic                   Forces (Hartrees/Bohr)
 Number     Number              X              Y              Z
 -------------------------------------------------------------------
      1        1           0.000517805    0.000059014   -0.000260240
      2        6           0.004735526   -0.000784081   -0.003387748
      3        6          -0.000405045   -0.000936473    0.000317058
      4        6          -0.005373399    0.009393618    0.012697814
      5        6          -0.001607035    0.001924461    0.001307540
      6        8           0.013720074   -0.008804744    0.000831096
      7        6           0.000217592   -0.000612728   -0.000447854
      8        1           0.000023191    0.000495289   -0.000186513
      9        1          -0.000005436   -0.000133804   -0.000011566
     10        6           0.001235465   -0.000187788   -0.001010908
     11        1           0.000040612   -0.000018042   -0.000039662
     12        1          -0.000137001    0.000076147   -0.000109749
     13        1          -0.000106766   -0.000048929    0.000049779
     14        8           0.000482523   -0.000116249    0.000572354
     15        1           0.000079907    0.000035000    0.000001013
     16        8          -0.000754498    0.000974916   -0.000145842
     17        1          -0.000105011    0.000036738   -0.000054795
     18        8          -0.000169303   -0.000650683    0.000445725
     19        1          -0.000053278   -0.000071564   -0.000064711
     20        8          -0.000135410    0.000189565   -0.000054979
     21        1           0.000021751    0.000083251    0.000102999
     22        1           0.000292324    0.000335071    0.000144042
     23        8           0.002690911    0.001143633    0.009778706
     24        8           0.004333673   -0.003678435   -0.015009471
     25        1          -0.000799221   -0.000186136   -0.000692328
     26        1           0.000614935    0.000239326   -0.001245101
     27        1           0.001030846   -0.000453904    0.000430682
     28        8          -0.018000707    0.000584367   -0.003517053
     29        1          -0.000566911    0.000060953    0.000920791
     30        1          -0.001818118    0.001052212   -0.001361081
 -------------------------------------------------------------------
 Cartesian Forces:  Max     0.018000707 RMS     0.003809328

 GradGradGradGradGradGradGradGradGradGradGradGradGradGradGradGradGradGrad
 Berny optimization.
 FormGI is forming the generalized inverse of G from B-inverse, IUseBI=4.
 Internal  Forces:  Max     0.024932944 RMS     0.006055930
 Search for a local minimum.
 Step number   1 out of a maximum of  158
 All quantities printed in internal units (Hartrees-Bohrs-Radians)
 Mixed Optimization -- RFO/linear search
 Second derivative matrix not updated -- first step.
 ITU=  0
     Eigenvalues ---    0.00230   0.00230   0.00231   0.00296   0.00369
     Eigenvalues ---    0.00421   0.00673   0.01069   0.01254   0.01392
     Eigenvalues ---    0.01395   0.01420   0.01542   0.01754   0.02363
     Eigenvalues ---    0.03026   0.04008   0.04314   0.04497   0.04652
     Eigenvalues ---    0.04802   0.04947   0.05115   0.05264   0.05432
     Eigenvalues ---    0.05811   0.06009   0.06301   0.06695   0.06977
     Eigenvalues ---    0.07277   0.07996   0.08357   0.08843   0.10287
     Eigenvalues ---    0.10839   0.10897   0.11242   0.12998   0.13536
     Eigenvalues ---    0.13918   0.15045   0.15339   0.15848   0.16000
     Eigenvalues ---    0.16000   0.16000   0.16000   0.16233   0.16942
     Eigenvalues ---    0.17738   0.18701   0.19317   0.19921   0.20406
     Eigenvalues ---    0.21761   0.21971   0.27862   0.28456   0.28897
     Eigenvalues ---    0.29607   0.29791   0.32935   0.33290   0.33396
     Eigenvalues ---    0.33462   0.33646   0.33831   0.33832   0.40550
     Eigenvalues ---    0.40851   0.41768   0.42064   0.42095   0.42860
     Eigenvalues ---    0.43794   0.45620   0.52442   0.52690   0.53148
     Eigenvalues ---    0.53526   0.53680   0.53725   0.86910
 RFO step:  Lambda=-4.00335231D-02 EMin= 2.30000000D-03
 Linear search not attempted -- first point.
 Maximum step size (   0.300) exceeded in Quadratic search.
    -- Step size scaled by   0.698
 Iteration  1 RMS(Cart)=  0.16618844 RMS(Int)=  0.00656526
 Iteration  2 RMS(Cart)=  0.01189480 RMS(Int)=  0.00107905
 Iteration  3 RMS(Cart)=  0.00015687 RMS(Int)=  0.00107759
 Iteration  4 RMS(Cart)=  0.00000036 RMS(Int)=  0.00107759
 Variable       Old X    -DE/DX   Delta X   Delta X   Delta X     New X
                                 (Linear)    (Quad)   (Total)
    R1        2.07617   0.00031   0.00000   0.00058   0.00058   2.07674
    R2        2.67513  -0.00236   0.00000  -0.00549  -0.00495   2.67018
    R3        2.91666   0.00707   0.00000   0.01612   0.01656   2.93321
    R4        2.88382   0.00098   0.00000   0.00203   0.00203   2.88584
    R5        2.89508   0.01261   0.00000   0.02797   0.02733   2.92241
    R6        2.88164   0.00897   0.00000   0.02298   0.02356   2.90520
    R7        2.08247   0.00001   0.00000  -0.00000   0.00004   2.08250
    R8        2.68802  -0.00078   0.00000  -0.00118  -0.00118   2.68684
    R9        2.90530  -0.00008   0.00000  -0.00227  -0.00342   2.90188
   R10        2.08361   0.00025   0.00000   0.00046   0.00046   2.08407
   R11        2.33468   0.00317   0.00000   0.00332   0.00302   2.33770
   R12        2.09166   0.00016   0.00000   0.00029   0.00029   2.09196
   R13        2.66702   0.00110   0.00000   0.00161   0.00161   2.66862
   R14        1.95918   0.01178   0.00000   0.01546   0.01469   1.97387
   R15        2.08545  -0.00004   0.00000  -0.00007  -0.00007   2.08538
   R16        2.68842  -0.00001   0.00000  -0.00001  -0.00001   2.68841
   R17        2.07614   0.00002   0.00000   0.00004   0.00004   2.07618
   R18        2.07932  -0.00008   0.00000  -0.00015  -0.00015   2.07917
   R19        2.70812   0.00033   0.00000   0.00051   0.00051   2.70864
   R20        1.82983   0.00004   0.00000   0.00005   0.00005   1.82988
   R21        1.83515   0.00005   0.00000   0.00006   0.00006   1.83521
   R22        1.83944  -0.00002   0.00000  -0.00002  -0.00002   1.83942
   R23        1.84178  -0.00001   0.00000  -0.00001  -0.00001   1.84177
   R24        2.89653   0.01220   0.00000   0.06820   0.06907   2.96561
   R25        1.83025   0.00043   0.00000   0.00052   0.00052   1.83077
   R26        1.94718   0.01872   0.00000   0.02559   0.02588   1.97306
   R27        2.67633   0.01312   0.00000   0.04472   0.04402   2.72035
   R28        2.72955   0.01979   0.00000   0.07664   0.07681   2.80635
   R29        1.83166   0.00049   0.00000   0.00059   0.00059   1.83225
   R30        1.90584   0.01279   0.00000   0.01974   0.02034   1.92618
    A1        1.90843   0.00012   0.00000  -0.00029   0.00023   1.90866
    A2        1.84945  -0.00097   0.00000  -0.00900  -0.00949   1.83996
    A3        1.90389  -0.00077   0.00000  -0.00207  -0.00193   1.90196
    A4        1.95375  -0.00323   0.00000   0.00771   0.00859   1.96234
    A5        1.88946   0.00220   0.00000   0.00048  -0.00079   1.88867
    A6        1.95789   0.00255   0.00000   0.00277   0.00298   1.96087
    A7        1.96595   0.02493   0.00000   0.09970   0.10045   2.06640
    A8        1.87768  -0.00141   0.00000   0.00675   0.00530   1.88298
    A9        1.85837  -0.01500   0.00000  -0.05251  -0.05183   1.80654
   A10        1.89035  -0.00993   0.00000  -0.02561  -0.02745   1.86290
   A11        1.95015  -0.00303   0.00000  -0.02304  -0.02261   1.92754
   A12        1.92000   0.00461   0.00000  -0.00488  -0.00546   1.91454
   A13        1.96749  -0.00542   0.00000  -0.00591  -0.00595   1.96154
   A14        2.13306   0.00790   0.00000   0.00853   0.00895   2.14201
   A15        2.07462  -0.00033   0.00000   0.00943   0.00899   2.08361
   A16        2.04281   0.01555   0.00000   0.06637   0.06489   2.10770
   A17        1.85181   0.00022   0.00000  -0.00416  -0.00388   1.84793
   A18        1.93088  -0.00939   0.00000  -0.02496  -0.02467   1.90621
   A19        1.80994  -0.00719   0.00000  -0.02301  -0.02256   1.78738
   A20        1.89116  -0.00116   0.00000  -0.00951  -0.00926   1.88190
   A21        1.93256   0.00209   0.00000  -0.00639  -0.00700   1.92556
   A22        1.94824   0.00715   0.00000   0.03232   0.03409   1.98233
   A23        1.89730   0.00659   0.00000   0.04769   0.04807   1.94536
   A24        1.93334   0.00353   0.00000   0.02400   0.02238   1.95572
   A25        1.93156  -0.00757   0.00000  -0.04223  -0.04142   1.89014
   A26        1.91559  -0.00234   0.00000   0.00112   0.00016   1.91575
   A27        1.86866  -0.00149   0.00000  -0.02534  -0.02590   1.84276
   A28        1.91617   0.00114   0.00000  -0.00620  -0.00589   1.91028
   A29        1.91580  -0.00018   0.00000  -0.00003  -0.00004   1.91576
   A30        1.90909  -0.00051   0.00000  -0.00196  -0.00196   1.90714
   A31        1.86915   0.00117   0.00000   0.00328   0.00328   1.87243
   A32        1.88679   0.00016   0.00000  -0.00002  -0.00002   1.88677
   A33        1.94271  -0.00024   0.00000   0.00016   0.00015   1.94287
   A34        1.94026  -0.00041   0.00000  -0.00146  -0.00146   1.93880
   A35        1.90025   0.00013   0.00000   0.00047   0.00047   1.90072
   A36        1.85568   0.00021   0.00000   0.00075   0.00075   1.85643
   A37        1.84362  -0.00014   0.00000  -0.00048  -0.00048   1.84314
   A38        1.84917  -0.00001   0.00000  -0.00005  -0.00005   1.84912
   A39        2.05983  -0.00293   0.00000  -0.00097   0.00135   2.06118
   A40        1.86680   0.00447   0.00000   0.01678   0.01593   1.88273
   A41        1.91426  -0.00621   0.00000  -0.01488  -0.01688   1.89739
   A42        1.81819   0.01123   0.00000   0.02011   0.01814   1.83633
   A43        1.92653   0.00186   0.00000   0.00636   0.00712   1.93365
   A44        1.75101   0.00880   0.00000   0.04168   0.04212   1.79313
   A45        1.82145  -0.00109   0.00000   0.00269  -0.00196   1.81949
   A46        2.73243   0.00563   0.00000   0.02198   0.02106   2.75350
   A47        3.00173  -0.00068   0.00000   0.03440   0.03461   3.03633
   A48        3.10715   0.00161   0.00000   0.02536   0.02181   3.12896
   A49        3.29305  -0.01788   0.00000  -0.19525  -0.19430   3.09875
   A50        3.20951  -0.00037   0.00000   0.06020   0.06242   3.27193
    D1       -0.22774  -0.00108   0.00000  -0.02920  -0.03048  -0.25821
    D2        1.81624  -0.00414   0.00000  -0.03587  -0.03690   1.77933
    D3       -2.30002  -0.00150   0.00000  -0.02683  -0.02783  -2.32785
    D4        1.37882  -0.00217   0.00000  -0.02893  -0.03036   1.34845
    D5       -2.79826   0.00136   0.00000   0.01791   0.01825  -2.78002
    D6       -0.66875   0.00004   0.00000  -0.00244  -0.00251  -0.67127
    D7       -0.70029   0.00006   0.00000  -0.02724  -0.02944  -0.72973
    D8        1.40581   0.00359   0.00000   0.01960   0.01917   1.42499
    D9       -2.74786   0.00228   0.00000  -0.00075  -0.00159  -2.74945
   D10       -2.82847  -0.00230   0.00000  -0.03552  -0.03697  -2.86544
   D11       -0.72237   0.00123   0.00000   0.01132   0.01164  -0.71073
   D12        1.40714  -0.00009   0.00000  -0.00903  -0.00912   1.39803
   D13       -1.04279  -0.00043   0.00000  -0.00230  -0.00242  -1.04521
   D14       -3.11026  -0.00021   0.00000  -0.00108  -0.00120  -3.11146
   D15        1.06845  -0.00012   0.00000  -0.00015  -0.00027   1.06818
   D16        1.03237   0.00055   0.00000  -0.00355  -0.00369   1.02867
   D17       -1.03510   0.00077   0.00000  -0.00233  -0.00247  -1.03757
   D18       -3.13957   0.00086   0.00000  -0.00140  -0.00154  -3.14112
   D19       -3.08637  -0.00027   0.00000   0.00847   0.00873  -3.07764
   D20        1.12935  -0.00005   0.00000   0.00968   0.00995   1.13930
   D21       -0.97512   0.00004   0.00000   0.01061   0.01088  -0.96424
   D22       -0.66509   0.00415   0.00000   0.02322   0.02160  -0.64349
   D23        1.34374   0.00397   0.00000   0.02849   0.02730   1.37104
   D24       -2.84240   0.00142   0.00000   0.00450   0.00355  -2.83885
   D25        1.41690   0.00584   0.00000   0.05551   0.05545   1.47235
   D26       -2.85745   0.00565   0.00000   0.06078   0.06115  -2.79630
   D27       -0.76040   0.00310   0.00000   0.03680   0.03740  -0.72301
   D28       -2.80845   0.00276   0.00000   0.02617   0.02593  -2.78252
   D29       -0.79961   0.00258   0.00000   0.03144   0.03163  -0.76798
   D30        1.29743   0.00003   0.00000   0.00746   0.00788   1.30531
   D31        1.32559   0.01257   0.00000   0.12894   0.12839   1.45399
   D32       -0.79142   0.00554   0.00000   0.06893   0.06814  -0.72328
   D33       -2.87034   0.00633   0.00000   0.09048   0.08975  -2.78059
   D34       -0.74902   0.00570   0.00000   0.07683   0.07696  -0.67206
   D35       -2.86604  -0.00132   0.00000   0.01682   0.01671  -2.84933
   D36        1.33823  -0.00054   0.00000   0.03837   0.03832   1.37655
   D37       -2.86654   0.00849   0.00000   0.11454   0.11430  -2.75224
   D38        1.29963   0.00147   0.00000   0.05453   0.05405   1.35368
   D39       -0.77929   0.00225   0.00000   0.07609   0.07566  -0.70363
   D40        2.89036   0.00891   0.00000   0.03326   0.03378   2.92414
   D41        0.73712  -0.01007   0.00000  -0.04093  -0.04169   0.69542
   D42       -1.36314   0.00132   0.00000   0.00973   0.00998  -1.35317
   D43        1.32293   0.00432   0.00000   0.04045   0.04002   1.36295
   D44       -0.70900   0.00084   0.00000   0.02661   0.02655  -0.68245
   D45       -2.76310   0.00258   0.00000   0.04977   0.04939  -2.71371
   D46       -2.30805   0.00840   0.00000   0.06809   0.06817  -2.23988
   D47        1.94321   0.00492   0.00000   0.05425   0.05470   1.99791
   D48       -0.11089   0.00666   0.00000   0.07741   0.07754  -0.03335
   D49        0.68118   0.00510   0.00000   0.03064   0.02901   0.71019
   D50       -2.97836   0.00827   0.00000   0.05584   0.05511  -2.92325
   D51       -0.80992   0.00555   0.00000   0.02846   0.02760  -0.78232
   D52       -3.07106  -0.00682   0.00000  -0.03211  -0.03127  -3.10232
   D53        1.23810   0.00129   0.00000   0.00387   0.00388   1.24198
   D54        1.70561   0.00675   0.00000   0.10811   0.10808   1.81369
   D55       -2.58792   0.01481   0.00000   0.11772   0.11507  -2.47285
   D56       -0.96256   0.00083   0.00000   0.00608   0.00677  -0.95579
   D57       -3.02765  -0.00204   0.00000  -0.01292  -0.01363  -3.04128
   D58        1.17699   0.00099   0.00000   0.00391   0.00394   1.18093
   D59        2.99683  -0.00018   0.00000  -0.00127  -0.00127   2.99556
   D60       -1.19224   0.00019   0.00000   0.00083   0.00083  -1.19141
   D61        0.91230  -0.00005   0.00000  -0.00008  -0.00008   0.91222
   D62        1.70251  -0.00688   0.00000  -0.02474  -0.02801   1.67451
   D63        0.27794   0.00176   0.00000   0.03422   0.03408   0.31201
   D64        2.15895   0.00755   0.00000   0.09009   0.09191   2.25086
   D65       -1.71378  -0.00214   0.00000  -0.01106  -0.01570  -1.72948
   D66        0.16723   0.00366   0.00000   0.04481   0.04214   0.20936
   D67       -0.86236  -0.00541   0.00000  -0.02478  -0.02720  -0.88957
   D68        1.13316  -0.00055   0.00000  -0.00192  -0.00427   1.12889
         Item               Value     Threshold  Converged?
 Maximum Force            0.024933     0.000450     NO 
 RMS     Force            0.006056     0.000300     NO 
 Maximum Displacement     0.629958     0.001800     NO 
 RMS     Displacement     0.169560     0.001200     NO 
 Predicted change in Energy=-2.278655D-02
 GradGradGradGradGradGradGradGradGradGradGradGradGradGradGradGradGradGrad

                          Input orientation:                          
 ---------------------------------------------------------------------
 Center     Atomic      Atomic             Coordinates (Angstroms)
 Number     Number       Type             X           Y           Z
 ---------------------------------------------------------------------
      1          1           0        1.539935   -0.934676   -1.361861
      2          6           0        1.398339   -0.906802   -0.272412
      3          6           0        0.213069    1.354105   -0.223859
      4          6           0       -1.268734    0.014318    1.561689
      5          6           0       -0.962330    1.299875    0.779668
      6          8           0        0.139725   -1.461850    0.050667
      7          6           0        1.503114    0.591505    0.119242
      8          1           0       -0.705217    2.013332    1.586115
      9          1           0        1.742161    0.724600    1.188321
     10          6           0        2.479501   -1.757340    0.390746
     11          1           0        2.406873   -2.794227    0.034847
     12          1           0        2.323797   -1.758013    1.479921
     13          1           0       -0.145099    0.954853   -1.186536
     14          8           0        3.745514   -1.177336    0.051192
     15          1           0        4.439437   -1.616200    0.564545
     16          8           0       -2.148723    1.702692    0.128172
     17          1           0       -1.922683    2.494145   -0.387235
     18          8           0        0.477501    2.745342   -0.350706
     19          1           0        1.332292    2.808392   -0.812036
     20          8           0        2.522701    1.189784   -0.672228
     21          1           0        3.322772    0.651817   -0.529529
     22          1           0       -0.581368   -0.134505    2.411181
     23          8           0       -2.395557   -0.494980    1.596283
     24          8           0       -1.514380   -1.632190   -1.787763
     25          1           0       -1.578368   -2.548251   -2.096491
     26          1           0       -2.407054   -1.395037   -1.300900
     27          1           0       -0.498109   -1.557441   -0.770955
     28          8           0       -3.617188   -0.901101   -0.595916
     29          1           0       -4.174169   -1.640945   -0.308694
     30          1           0       -3.234490   -0.524124    0.270334
 ---------------------------------------------------------------------
                    Distance matrix (angstroms):
                    1          2          3          4          5
     1  H    0.000000
     2  C    1.098965   0.000000
     3  C    2.879956   2.553219   0.000000
     4  C    4.163695   3.365363   2.679357   0.000000
     5  C    3.980038   3.398390   1.546470   1.535609   0.000000
     6  O    2.057605   1.413000   2.830256   2.538900   3.061550
     7  C    2.127029   1.552190   1.537366   3.177569   2.648842
     8  H    4.735191   4.050464   2.133972   2.077067   1.107017
     9  H    3.049184   2.216626   2.174547   3.115990   2.795033
    10  C    2.152020   1.527123   3.898147   4.308033   4.619960
    11  H    2.481995   2.161925   4.699826   4.871269   5.354246
    12  H    3.060727   2.156781   4.128356   4.006760   4.543090
    13  H    2.537794   2.585263   1.102013   3.114466   2.157050
    14  O    2.630623   2.384772   4.354540   5.370691   5.369455
    15  H    3.547200   3.232958   5.225561   6.019643   6.142382
    16  O    4.773061   4.421717   2.413193   2.383267   1.412175
    17  H    4.969551   4.754873   2.426482   3.221102   1.926194
    18  O    3.961532   3.767257   1.421813   3.763653   2.332431
    19  H    3.788929   3.754760   1.927060   4.495193   3.174025
    20  O    2.440236   2.412409   2.358482   4.554897   3.776978
    21  H    2.527498   2.489748   3.202639   5.085423   4.527259
    22  H    4.401823   3.423063   3.128982   1.102841   2.205541
    23  O    4.942879   4.249149   3.679261   1.237057   2.437725
    24  O    3.161765   3.362500   3.787853   3.740342   3.936174
    25  H    3.587077   3.857772   4.684483   4.477154   4.843539
    26  H    3.974213   3.972049   3.947511   3.387693   3.698451
    27  H    2.211477   2.066008   3.046669   2.916422   3.283929
    28  O    5.213801   5.025952   4.460409   3.317903   3.712788
    29  H    5.853116   5.620777   5.312756   3.831420   4.488749
    30  H    5.062385   4.680184   3.956972   2.412822   2.957888
                    6          7          8          9         10
     6  O    0.000000
     7  C    2.465725   0.000000
     8  H    3.892097   3.008328   0.000000
     9  H    2.939833   1.103535   2.794410   0.000000
    10  C    2.382755   2.558148   5.078318   2.709211   0.000000
    11  H    2.629722   3.505293   5.933310   3.762245   1.098668
    12  H    2.626909   2.836407   4.838311   2.566457   1.100249
    13  H    2.729881   2.133936   3.020216   3.042156   4.090518
    14  O    3.616996   2.856884   5.687298   2.987281   1.433349
    15  H    4.333061   3.700574   6.378446   3.625430   1.972682
    16  O    3.906063   3.817163   2.075044   4.149645   5.784569
    17  H    4.482765   3.951284   2.368019   4.364028   6.169247
    18  O    4.239770   2.431408   2.384520   2.837493   4.983162
    19  H    4.516795   2.410611   3.245719   2.917467   4.858877
    20  O    3.637625   1.422645   4.024649   2.070576   3.133261
    21  H    3.864713   1.932795   4.749144   2.335517   2.713310
    22  H    2.802471   3.182003   2.304187   2.762649   4.010570
    23  O    3.122726   4.308333   3.024729   4.332957   5.178133
    24  O    2.478892   4.205562   5.032657   5.001659   4.551115
    25  H    2.956755   4.925756   5.927228   5.703285   4.824748
    26  H    2.883970   4.610050   4.779967   5.282524   5.183758
    27  H    1.044525   3.068438   4.283585   3.750371   3.202448
    28  O    3.853168   5.381153   4.662055   5.877842   6.235083
    29  H    4.332540   6.115432   5.383092   6.545213   6.691345
    30  H    3.508975   4.869532   3.816698   5.212395   5.846795
                   11         12         13         14         15
    11  H    0.000000
    12  H    1.780135   0.000000
    13  H    4.696800   4.534874   0.000000
    14  O    2.099182   2.097554   4.605981   0.000000
    15  H    2.408245   2.309536   5.540268   0.968330   0.000000
    16  O    6.401909   5.814392   2.510424   6.560680   7.389812
    17  H    6.847633   6.292831   2.483567   6.767602   7.633963
    18  O    5.878600   5.200021   2.071736   5.121409   5.963025
    19  H    5.767259   5.204634   2.399696   4.738653   5.579099
    20  O    4.047927   3.655245   2.727061   2.760772   3.616218
    21  H    3.610070   3.292889   3.542544   1.965133   2.754603
    22  H    4.653028   3.455866   3.784257   5.037753   5.551033
    23  O    5.548689   4.886829   3.861432   6.369118   7.002768
    24  O    4.477550   5.042340   2.988176   5.590629   6.401683
    25  H    4.526063   5.351831   3.892816   5.902175   6.645586
    26  H    5.188048   5.499607   3.263664   6.303145   7.099524
    27  H    3.258508   3.615222   2.570787   4.339210   5.115308
    28  O    6.345951   6.351276   3.981055   7.396244   8.171122
    29  H    6.690156   6.740655   4.872595   7.941400   8.657793
    30  H    6.085539   5.820665   3.722120   7.013926   7.756825
                   16         17         18         19         20
    16  O    0.000000
    17  H    0.971152   0.000000
    18  O    2.865919   2.413569   0.000000
    19  H    3.771475   3.297585   0.973380   0.000000
    20  O    4.767171   4.641553   2.589590   2.014078   0.000000
    21  H    5.610184   5.561404   3.537003   2.948328   0.974621
    22  H    3.323256   4.066947   4.128285   4.765697   4.571258
    23  O    2.654438   3.618401   4.748148   5.532551   5.672198
    24  O    3.898030   4.376623   5.019512   5.364173   5.050344
    25  H    4.831661   5.335342   5.941085   6.230200   5.728892
    26  H    3.421244   4.024318   5.134808   5.647168   5.601697
    27  H    3.763167   4.311844   4.431970   4.734190   4.084395
    28  O    3.075781   3.800341   5.488456   6.189054   6.486590
    29  H    3.933598   4.708963   6.393693   7.097257   7.279646
    30  H    2.481494   3.356067   4.985376   5.756099   6.080390
                   21         22         23         24         25
    21  H    0.000000
    22  H    4.950594   0.000000
    23  O    6.207536   2.021208   0.000000
    24  O    5.495260   4.554635   3.677158   0.000000
    25  H    6.059454   5.209538   4.303522   0.968801   0.000000
    26  H    6.133150   4.324537   3.033794   1.044099   1.627756
    27  H    4.420208   3.486785   3.214490   1.439546   1.976287
    28  O    7.111892   4.341256   2.542254   2.525231   3.020201
    29  H    7.842809   4.751348   2.847040   3.043386   3.279879
    30  H    6.709717   3.431339   1.569331   2.902128   3.527278
                   26         27         28         29         30
    26  H    0.000000
    27  H    1.987785   0.000000
    28  O    1.485059   3.192189   0.000000
    29  H    2.041480   3.705952   0.969584   0.000000
    30  H    1.977856   3.104804   1.019293   1.570210   0.000000
 Stoichiometry    C6H16O8
 Framework group  C1[X(C6H16O8)]
 Deg. of freedom    84
 Full point group                 C1      NOp   1
 Largest Abelian subgroup         C1      NOp   1
 Largest concise Abelian subgroup C1      NOp   1
                         Standard orientation:                         
 ---------------------------------------------------------------------
 Center     Atomic      Atomic             Coordinates (Angstroms)
 Number     Number       Type             X           Y           Z
 ---------------------------------------------------------------------
      1          1           0       -1.615223   -0.975229    1.234059
      2          6           0       -1.445125   -0.847087    0.155926
      3          6           0       -0.160574    1.350319    0.356580
      4          6           0        1.305307    0.125168   -1.522024
      5          6           0        1.036212    1.340517   -0.622795
      6          8           0       -0.204438   -1.425424   -0.194489
      7          6           0       -1.473900    0.685677   -0.087178
      8          1           0        0.831180    2.140865   -1.359607
      9          1           0       -1.679834    0.934049   -1.142494
     10          6           0       -2.545644   -1.577390   -0.610639
     11          1           0       -2.527749   -2.646462   -0.357977
     12          1           0       -2.362721   -1.478307   -1.691041
     13          1           0        0.155285    0.842295    1.282095
     14          8           0       -3.793036   -0.975519   -0.241511
[...]
 955,0.00041634,0.00003029,-0.00000450,-0.00003475,-0.00006737,-0.00072
 566,-0.00041948,-0.00095891,-0.00004656,0.00030651,0.00011019,-0.00096
 638,-0.00138027,-0.00026622,0.00047504,-0.00008939,0.00000699,-0.00058
 629,0.00068189,0.00001464,0.00014720,-0.00036329,-0.00001485,-0.000362
 15,0.00011287,-0.00014083,-0.00090108,0.00040338,-0.00097526,-0.016780
 91,0.53720914,-0.00072104,-0.00046986,0.00109873,0.00393939,0.00342238
 ,-0.00556301,0.00004350,0.00033711,-0.00072552,0.00053090,0.00193862,0
 .00038900,-0.00040873,0.00044227,0.00023343,-0.01809022,-0.00517018,-0
 .00961548,-0.00010182,0.00062097,0.00036265,-0.00001189,-0.00013837,0.
 00008174,0.00004724,0.00009347,0.00009779,0.00025585,-0.00095773,0.000
 69648,0.00001385,0.00006667,-0.00001146,0.00020380,-0.00007833,0.00019
 167,-0.00006558,-0.00016401,-0.00036402,-0.00148744,0.00003849,0.00013
 221,-0.00007482,-0.00010074,0.00001709,0.00023309,-0.00061404,0.000243
 27,-0.00007885,0.00008994,-0.00025037,-0.00016011,-0.00086210,0.000692
 65,-0.00007805,0.00009112,-0.00030303,-0.00062458,-0.00110699,0.000580
 17,0.00022751,0.00015449,-0.00015551,-0.00002605,-0.00011948,0.0001437
 9,-0.00017856,-0.00123729,-0.00068270,-0.00777176,0.21098169,0.1214969
 3,0.00016083,-0.00016240,0.00006265,0.00052815,0.00018956,-0.00034530,
 0.00033939,0.00036299,0.00035262,0.00012602,-0.00004797,0.00005353,-0.
 00011074,0.00000140,-0.00004967,-0.00193668,0.00106345,-0.00173512,0.0
 0014639,-0.00000581,0.00001274,0.00001702,-0.00002213,-0.00004562,-0.0
 0007208,0.00002816,-0.00000627,-0.00000525,-0.00026925,-0.00005564,-0.
 00006601,0.00011776,-0.00003169,-0.00001189,0.00003955,0.00004587,-0.0
 0015123,0.00008268,-0.00025135,-0.00004830,0.00016815,0.00004760,-0.00
 002055,-0.00003224,-0.00002911,-0.00003055,-0.00003584,-0.00003896,-0.
 00000957,0.00002548,0.00000609,-0.00018439,-0.00032610,-0.00000625,0.0
 0009000,-0.00002558,-0.00002403,-0.00016785,0.00004546,0.00005913,0.00
 006126,-0.00009061,-0.00002290,-0.00004002,0.00000869,-0.00000864,-0.0
 0011083,-0.00004234,-0.00005869,-0.09621739,-0.15264645,-0.06225156,0.
 08366577,-0.00006833,0.00001304,-0.00003415,-0.00029247,-0.00020609,0.
 00017042,0.00014417,0.00031349,0.00027519,-0.00009322,-0.00015766,-0.0
 0010225,-0.00009772,0.00000270,-0.00007282,0.00228477,-0.00009192,0.00
 200177,0.00001803,-0.00008959,-0.00012487,0.00002950,-0.00000009,-0.00
 001057,-0.00002845,0.00001208,0.00000369,-0.00004069,0.00016927,-0.000
 01322,0.00001532,-0.00003094,-0.00000760,0.00001245,-0.00000681,0.0000
 0344,-0.00020191,-0.00036608,-0.00020707,0.00009060,-0.00005733,0.0000
 0827,0.00001238,0.00001629,0.00000374,0.00010393,0.00004710,0.00010341
 ,-0.00002459,-0.00001353,-0.00001278,-0.00000503,-0.00014730,0.0000273
 1,0.00000725,-0.00001872,-0.00002903,0.00004998,0.00006737,0.00001967,
 -0.00003750,0.00000685,-0.00001550,0.00003086,0.00001352,-0.00000400,0
 .00008541,0.00009253,0.00015606,-0.10431550,-0.39893385,-0.15345192,0.
 12061935,0.41810300,0.00002742,-0.00001625,0.00004029,-0.00002941,0.00
 003105,0.00007147,-0.00008897,-0.00011880,0.00011454,-0.00036024,-0.00
 030102,0.00014875,0.00011872,0.00002617,-0.00003242,-0.00132932,0.0013
 5895,-0.00196590,-0.00004980,-0.00000959,0.00000011,-0.00000453,0.0000
 1855,0.00000855,0.00000576,-0.00000760,0.00000167,-0.00013923,-0.00008
 175,0.00005832,-0.00001638,0.00001799,0.00001735,0.00000069,-0.0000029
 2,-0.00000801,-0.00018579,-0.00027600,-0.00026928,0.00011869,0.0000586
 7,-0.00006522,-0.00002517,-0.00000079,0.00001602,-0.00000327,0.0001248
 2,-0.00001359,0.00001149,-0.00003811,0.00003330,0.00006853,0.00015208,
 -0.00013260,-0.00002050,-0.00001794,0.00004398,0.00013520,0.00010012,-
 0.00008841,-0.00003454,-0.00000507,0.00003492,0.00002045,-0.00000778,-
 0.00000357,0.00025274,0.00040446,0.00006896,-0.04154695,-0.14726699,-0
 .06138697,0.04790906,0.16085223,0.06589001,-0.00018970,-0.00001588,0.0
 0011384,-0.00123245,-0.00094481,0.00025157,-0.00031488,-0.00162649,-0.
 00149142,0.00275285,0.00075571,-0.00070724,0.00222655,-0.00138087,0.00
 068972,0.00325152,0.00149840,0.00263251,0.00009661,-0.00042559,0.00005
 799,-0.00054881,0.00016874,-0.00006979,0.00015800,0.00007811,0.0002246
 6,-0.00037089,0.00011810,-0.00009497,-0.00004724,0.00007314,-0.0000262
 4,0.00007427,0.00001873,0.00009330,-0.00022973,-0.00079138,0.00043949,
 0.00055175,0.00018922,0.00004005,-0.00001068,-0.00001316,-0.00004668,-
 0.00292912,-0.00082110,-0.00173552,0.00040826,0.00005124,-0.00020878,-
 0.00038608,0.00122744,0.00022727,0.00007287,-0.00012232,0.00007900,-0.
 00002502,0.00066815,0.00011096,-0.00011493,-0.00021252,-0.00005255,-0.
 00060603,0.00004603,-0.00016996,-0.00335404,-0.00091192,-0.00168777,-0
 .29045072,0.15398561,0.07237214,0.01596396,-0.01584966,-0.00589526,0.2
 7931869,0.00047603,0.00018750,-0.00010985,0.00114627,0.00143711,-0.000
 20369,-0.00040018,-0.00070093,-0.00059979,-0.00182148,0.00044469,-0.00
 038669,-0.00179052,0.00047913,-0.00092291,-0.00334627,-0.00251159,-0.0
 0347992,-0.00049255,0.00080322,0.00030062,0.00032632,0.00000421,0.0002
 7594,0.00016601,-0.00019491,-0.00003321,0.00031926,-0.00013778,-0.0000
 0227,0.00010144,-0.00013757,0.00003039,-0.00008801,-0.00000139,-0.0000
 7544,-0.00107272,0.00019114,0.00041300,-0.00042910,-0.00030455,-0.0000
 1979,-0.00001136,0.00001068,0.00005521,0.00164348,0.00080937,0.0017456
 8,-0.00017308,-0.00036553,-0.00004591,0.00085924,0.00024831,0.00002369
 ,-0.00036889,0.00012848,-0.00002438,0.00044235,-0.00076813,-0.00012154
 ,-0.00002710,0.00034431,0.00005195,0.00049730,-0.00014359,0.00020584,0
 .00200747,-0.00008972,0.00147550,0.10040565,-0.12362390,-0.05134427,0.
 03495649,-0.02070244,-0.01026411,-0.12929174,0.15137492,0.00031709,0.0
 0015927,-0.00007476,0.00034663,0.00037989,0.00004833,-0.00035664,0.000
 05654,0.00056116,-0.00294493,-0.00152380,-0.00069571,-0.00076955,-0.00
 005553,-0.00055744,-0.00152278,-0.00237267,-0.00447372,-0.00035444,0.0
 0024703,0.00005935,0.00019504,0.00010718,-0.00000408,-0.00000939,-0.00
 007496,-0.00011374,0.00012057,0.00001603,-0.00002074,0.00004504,-0.000
 06258,0.00001683,-0.00007006,-0.00000204,-0.00005898,-0.00021886,0.000
 06916,0.00038818,-0.00005600,-0.00011936,-0.00004019,-0.00000359,0.000
 01598,0.00003538,0.00096179,0.00074816,0.00057559,-0.00010050,-0.00008
 532,0.00027772,0.00052729,0.00015598,-0.00040244,-0.00011379,0.0000824
 6,0.00006477,0.00032295,-0.00024742,-0.00022053,-0.00001793,0.00014345
 ,0.00005730,0.00043528,-0.00006784,0.00008069,0.00192576,0.00161627,0.
 00157023,0.05035875,-0.05249400,-0.04300320,0.01337472,-0.00704479,-0.
 00310744,-0.06034310,0.05442697,0.05371965,0.00297990,0.00145150,-0.00
 188196,-0.03168516,-0.00989404,-0.01655733,0.00136961,0.00020068,0.000
 96264,0.00606871,0.00094346,0.00158267,0.00095469,-0.00025543,0.000024
 79,-0.17485266,-0.04566757,-0.14711929,0.00055205,-0.00116545,-0.00035
 182,-0.00013357,-0.00010929,-0.00012741,-0.00022084,0.00021054,0.00004
 544,-0.00340598,-0.00288306,0.00183875,-0.00011150,0.00026168,-0.00000
 249,0.00020129,-0.00000825,-0.00002751,0.00049609,0.00027361,-0.000170
 12,0.00047067,0.00088347,-0.00075276,-0.00035046,-0.00005253,0.0002109
 5,-0.00135259,-0.00001032,-0.00072277,0.00023820,0.00004667,0.00001727
 ,-0.00104586,0.00019806,-0.00032788,0.00050131,-0.00041195,0.00025478,
 0.00050271,0.00246446,-0.00029198,-0.00044636,-0.00036703,-0.00011280,
 -0.00074912,0.00034546,-0.00046904,-0.00379263,-0.00225156,-0.00182541
 ,-0.00096205,0.00043519,0.00754866,0.00134847,-0.00325381,0.00062122,-
 0.00718119,0.00544985,-0.00042639,0.20773322,0.00018446,0.00165590,0.0
 0053547,-0.01483915,-0.00805454,-0.01437811,-0.00109101,-0.00215044,-0
 .00100666,0.00023387,-0.00054143,-0.00278784,0.00067755,-0.00073841,0.
 00016887,-0.04165128,-0.02644368,-0.02021507,-0.00400993,-0.00105711,0
 .00072220,-0.00016545,0.00026390,0.00009943,0.00032343,0.00032858,0.00
 002804,0.00064528,0.00007544,0.00062990,0.00017290,-0.00025241,-0.0000
 4204,-0.00004217,-0.00012263,-0.00017591,0.00065740,-0.00082103,0.0015
 6938,0.00103958,-0.00017199,-0.00011735,0.00019816,0.00016041,0.000047
 94,-0.00052706,0.00029002,-0.00007961,0.00013876,-0.00015316,0.0000077
 9,0.00065114,0.00143071,0.00002768,-0.00035491,0.00007876,0.00007515,0
 .00048477,-0.00119999,0.00039429,0.00008192,0.00012537,-0.00001961,0.0
 0029858,-0.00018155,-0.00005579,-0.00037677,-0.00012419,0.00066219,0.0
 0611654,-0.01447504,0.00235904,-0.00404650,0.00117462,-0.00497833,-0.0
 0001270,0.00181172,0.00431832,0.05429720,0.04965920,0.00349873,0.00179
 587,-0.00135944,0.01400711,0.00254632,0.01759607,0.00093843,0.00030363
 ,0.00180004,0.00185238,-0.00277823,-0.00171856,0.00117170,-0.00070014,
 0.00002147,-0.19046721,-0.03882282,-0.24969767,0.00170200,-0.00158090,
 -0.00177037,-0.00010243,0.00013769,-0.00029872,-0.00030847,-0.00007112
 ,0.00005565,0.00093820,0.00345038,-0.00258454,-0.00003044,-0.00014502,
 -0.00004612,-0.00033737,0.00013172,0.00004445,-0.00005511,0.00080446,-
 0.00023219,0.00360977,-0.00029205,0.00031953,0.00052939,0.00022087,-0.
 00018402,-0.00127300,0.00022450,-0.00091247,0.00014440,0.00003287,0.00
 015136,-0.00065621,0.00013698,-0.00065590,0.00042196,-0.00027954,0.000
 28506,0.00056762,0.00271566,-0.00063676,-0.00037791,-0.00055158,0.0001
 5434,-0.00021881,0.00018199,-0.00019908,-0.00153321,0.00051138,-0.0001
 5446,0.00659390,-0.00292291,-0.00745017,0.00240541,-0.00262305,0.00092
 128,-0.00494090,0.00712526,0.00783114,0.15779210,0.03255357,0.23946233
 ,0.00012540,0.00003064,-0.00003339,0.00112888,0.00047110,-0.00024942,0
 .00071490,0.00196829,0.00102938,0.00162709,0.00059584,0.00117082,0.001
 27839,0.00073321,0.00096042,-0.00227210,-0.00038727,-0.00141037,0.0004
 4000,0.00000002,-0.00019302,-0.00016910,-0.00016315,-0.00021878,-0.000
 18394,-0.00002582,-0.00014595,0.00044592,-0.00008350,0.00006064,-0.000
 02052,0.00002287,0.00002503,-0.00005964,-0.00002782,-0.00005192,0.0002
 6812,-0.00025117,-0.00095775,-0.00059064,-0.00001992,0.00002113,0.0000
 5327,0.00000382,0.00000009,0.00005996,-0.00582339,-0.00245365,-0.00064
 192,0.00030947,-0.00087453,-0.00052670,-0.00140267,0.00020921,0.000191
 72,0.00015694,-0.00011393,-0.00068152,-0.00036399,0.00013886,0.0002521
 7,-0.00000727,0.00001065,-0.00038837,0.00028100,0.00028356,0.00004674,
 -0.00052699,-0.00640896,-0.01253748,0.01598440,0.00779723,-0.00391651,
 0.00103336,0.00049002,-0.00506534,-0.01022579,-0.00617990,0.00290525,-
 0.00017332,0.00291065,0.09993605,-0.00014514,-0.00001959,0.00002673,-0
 .00097956,-0.00107400,0.00019287,-0.00022591,-0.00020287,-0.00033554,-
 0.00101687,-0.00256879,0.00140578,0.00465658,-0.00339969,0.00148920,0.
 00206207,0.00148797,0.00153116,0.00035370,-0.00052247,0.00014111,-0.00
 137049,0.00063448,-0.00082693,-0.00004097,0.00007791,0.00005095,-0.000
 19800,0.00005604,0.00000385,-0.00008354,0.00011936,-0.00001757,0.00003
 842,-0.00000127,0.00003348,0.00026775,-0.00033900,-0.00005180,0.000277
 08,0.00026687,0.00000524,0.00001473,-0.00001044,-0.00004261,-0.0088469
 9,-0.00504381,-0.00640492,-0.00002150,0.00033025,-0.00124967,-0.000886
 68,0.00040726,0.00008903,0.00029377,0.00000827,-0.00002519,-0.00053545
 ,0.00066557,0.00009577,0.00005245,-0.00029298,-0.00003452,0.00013029,0
 .00015908,-0.00062706,0.00100882,0.00479452,0.00003546,0.01849200,-0.0
 0496108,-0.00680820,-0.00003757,0.00085844,0.00097407,-0.00793576,-0.0
 0671189,0.00810029,-0.00290827,-0.00086436,-0.00306140,0.14107162,0.50
 449320,-0.00026801,-0.00006051,0.00016215,0.00013129,-0.00012241,-0.00
 025128,0.00057707,-0.00053704,-0.00178600,0.00728850,0.00517520,-0.002
 53320,0.00078837,-0.00069408,0.00026548,0.00033909,0.00126796,0.002234
 63,0.00045367,-0.00010304,-0.00005297,-0.00040252,-0.00023930,0.000141
 55,0.00016004,0.00003824,0.00025437,0.00005418,-0.00000095,-0.00005364
 ,-0.00004166,0.00006257,0.00000162,0.00005571,-0.00000959,0.00007882,-
 0.00022883,0.00016391,0.00019059,-0.00010409,0.00009464,0.00009977,0.0
 0002853,-0.00002160,-0.00005090,-0.00280081,-0.00495279,0.00148058,-0.
 00078803,-0.00083032,-0.00192699,-0.00064642,-0.00018008,0.00094886,0.
 00007823,-0.00001191,-0.00006837,-0.00054656,0.00010923,0.00037938,0.0
 0007613,-0.00014530,-0.00006735,-0.00202068,-0.00023416,0.00013108,-0.
 01222850,-0.00388474,-0.01130941,0.01124744,-0.00837169,0.00275176,0.0
 0075480,0.00024753,-0.00025175,-0.00361363,0.00767718,-0.00763524,-0.0
 0168236,-0.00087086,-0.00310261,0.02194193,-0.05949811,0.50833549,0.00
 012216,0.00004223,-0.00008784,-0.00065941,-0.00030512,0.00028663,-0.00
 085503,-0.00036950,0.00067324,-0.00712630,-0.00394879,-0.00050973,0.00
 023467,-0.00049150,0.00038954,0.00105048,-0.00048535,-0.00071929,-0.00
 038729,-0.00003409,0.00012155,0.00001703,0.00048319,-0.00026826,-0.000
 02306,-0.00001012,-0.00007168,-0.00022024,0.00006241,-0.00001514,0.000
 02249,-0.00003332,-0.00001445,-0.00000590,0.00001657,-0.00001541,0.000
 13757,-0.00008949,0.00007229,0.00033298,-0.00002499,-0.00004874,-0.000
 03229,0.00001077,0.00001926,-0.00107715,0.00092368,-0.00122692,0.00024
 054,0.00006419,0.00040609,0.00042975,0.00061596,-0.00049185,-0.0001099
 0,-0.00002948,0.00002459,0.00049492,0.00017231,-0.00021979,-0.00014753
 ,0.00005134,0.00002059,0.00151391,-0.00032341,-0.00064466,0.00125019,0
 .00416644,0.00259397,-0.00167346,0.00138988,-0.00202513,0.00014473,0.0
 0011912,0.00015392,0.00150909,-0.00292605,0.00644727,-0.00043540,0.000
 52439,0.00061268,-0.01824526,-0.00383692,-0.01411166,0.02007840,-0.000
 01212,-0.00002205,0.00001250,0.00018239,0.00028161,-0.00006464,0.00000
 718,0.00001752,0.00021260,-0.00170404,0.00011983,-0.00110168,-0.001845
 00,0.00031280,-0.00087789,-0.00032652,-0.00043910,-0.00003284,-0.00014
 291,0.00013911,-0.00003370,0.00029596,-0.00003666,0.00019256,0.0000126
 8,-0.00001393,-0.00002106,0.00001119,0.00000329,0.00000480,0.00002908,
 -0.00004207,-0.00000398,0.00000002,0.00000636,-0.00000104,-0.00004300,
 0.00004057,0.00001464,-0.00002818,-0.00008809,-0.00000187,-0.00001051,
 0.00000488,0.00001319,0.00120078,0.00116140,-0.00055111,0.00039666,0.0
 0020955,0.00059544,0.00035741,-0.00000317,-0.00014457,-0.00009461,-0.0
 0001372,0.00001508,0.00024661,-0.00017392,-0.00005322,-0.00004436,0.00
 009618,0.00000561,0.00038142,0.00024065,0.00054650,0.00230254,-0.00401
 158,0.00253488,0.00112173,-0.00236120,0.00135687,0.00034616,-0.0000852
 1,-0.00066186,-0.00188659,0.00431853,-0.00391959,0.00058698,0.00024204
 ,0.00000482,-0.01010627,-0.08130179,0.08087812,0.01233517,0.10083025,0
 .00019516,0.00004384,-0.00011356,-0.00020536,-0.00007082,0.00013584,-0
 .00073728,0.00058977,0.00131222,-0.00668369,-0.00633260,0.00376399,0.0
 0233185,-0.00017171,0.00100241,0.00002938,-0.00084082,-0.00154477,-0.0
 0029623,-0.00002801,0.00023323,-0.00027190,0.00044967,-0.00052308,-0.0
 0013649,-0.00003049,-0.00021482,-0.00006989,0.00001331,0.00006997,0.00
 001846,-0.00003048,-0.00001047,-0.00003797,0.00000729,-0.00005949,0.00
 030037,-0.00012068,-0.00041868,0.00010552,-0.00003495,-0.00007853,-0.0
 0002185,0.00001765,0.00003475,-0.00219220,-0.00088168,-0.00277594,0.00
 017681,0.00020248,0.00025427,0.00028047,0.00018567,-0.00067019,-0.0000
 3151,0.00005466,-0.00003538,0.00026496,0.00003655,-0.00026568,-0.00005
 629,0.00006077,0.00004292,0.00218285,0.00078336,0.00011676,0.00550224,
 0.00659742,-0.00541683,-0.00383291,0.00167169,0.00099937,0.00009877,-0
 .00020603,-0.00019428,0.00528703,-0.00314035,-0.00529928,0.00151507,0.
 00030399,0.00174644,0.00584148,0.13418298,-0.43169368,-0.00833811,-0.1
 3066515,0.43968761,0.00002524,0.00000762,-0.00000110,0.00003474,0.0004
 2606,0.00003055,-0.00053799,-0.00132631,-0.00065041,0.00080892,0.00177
 692,-0.00197889,-0.00478318,0.00064681,-0.00253093,-0.00016459,-0.0006
 4992,-0.00028435,-0.00051112,0.00039471,0.00006998,0.00084807,-0.00015
 318,0.00063780,0.00017826,-0.00005037,0.00008593,-0.00012472,-0.000020
 01,-0.00002574,0.00006267,-0.00008089,0.00000245,0.00000836,0.00001391
 ,0.00000317,-0.00056439,0.00058324,0.00068701,0.00015069,-0.00013361,-
 0.00002168,-0.00004102,-0.00000155,0.00002600,-0.00041471,0.00225079,0
 .00331356,0.00024264,-0.00163406,0.00049066,0.00074653,0.00064167,-0.0
 0013869,-0.00028143,-0.00009353,0.00011367,0.00071482,-0.00019959,-0.0
 0013515,-0.00016488,0.00017825,0.00002004,-0.00013421,-0.00031112,0.00
 025736,-0.00181882,-0.00100349,-0.00014623,-0.00503541,0.00004218,0.00
 094303,0.00050787,-0.00034759,-0.00020455,0.00667244,0.00366767,-0.001
 89034,0.00040320,0.00056433,0.00060463,-0.06417482,-0.13964966,-0.0044
 9120,0.00341928,-0.00356982,-0.00121872,0.06392757,0.00002996,-0.00003
 118,-0.00000791,0.00057820,0.00056600,-0.00008746,0.00048512,0.0008706
 7,0.00093465,0.00349491,0.00283467,-0.00033504,-0.00420868,0.00532081,
 -0.00051246,-0.00105275,-0.00050277,-0.00044396,-0.00016776,0.00018883
 ,-0.00035033,0.00175557,-0.00084955,0.00097896,-0.00004332,-0.00000182
 ,-0.00006251,0.00009012,-0.00004393,-0.00001212,0.00004336,-0.00006252
 ,0.00001099,-0.00001460,0.00000470,-0.00001065,0.00010626,-0.00000930,
 -0.00038874,-0.00012610,-0.00014406,-0.00000183,-0.00001275,0.00000209
 ,0.00002181,0.00432406,-0.00726405,0.00354480,-0.00117872,-0.00204330,
 -0.00054184,0.00052156,-0.00070442,-0.00006937,-0.00015303,-0.00006542
 ,0.00006395,0.00040078,-0.00040535,-0.00005820,-0.00003460,0.00016788,
 0.00001995,-0.00055891,-0.00030549,0.00035224,-0.00318093,-0.00170688,
 -0.00232688,-0.00227363,0.00216928,0.00063039,-0.00026453,0.00001727,-
 0.00006425,0.00336386,-0.00619938,-0.00257309,0.00118976,0.00005526,0.
 00095077,-0.13307424,-0.40704519,-0.01494615,-0.00806950,-0.01943209,-
 0.00264731,0.13803051,0.43461926,0.00007097,-0.00001570,-0.00006101,-0
 .00007214,0.00011267,0.00014223,0.00011221,0.00041252,0.00159702,-0.00
 173905,0.00054812,-0.00129507,-0.00367601,0.00187639,-0.00185620,0.000
 02773,-0.00042688,-0.00049946,-0.00026707,0.00007454,-0.00026930,0.001
 03747,-0.00021802,0.00047962,-0.00009307,0.00001669,-0.00012574,-0.000
 07005,-0.00000679,0.00000440,0.00002881,-0.00004086,-0.00000057,-0.000
 01466,0.00001132,-0.00002548,0.00009645,-0.00025746,-0.00007345,0.0001
 0151,-0.00006430,-0.00004623,-0.00002234,0.00000734,0.00002566,0.00208
 977,0.00075018,-0.00312189,0.00148645,0.00079639,0.00289734,0.00057335
 ,0.00001248,-0.00077054,-0.00003595,-0.00008132,0.00011105,0.00049895,
 -0.00011133,-0.00021536,-0.00006127,0.00010865,0.00003151,0.00018837,-
 0.00010648,0.00042207,0.00065489,-0.00162691,0.00077476,0.00058792,0.0
 0064729,-0.00069729,-0.00022219,0.00008692,0.00004992,-0.00153572,-0.0
 0303310,0.00042117,0.00043497,0.00022392,0.00061392,-0.02359952,-0.069
 37445,-0.05667270,0.01698705,0.05174659,-0.00008511,0.00643215,0.01793
 160,0.05824472\\-0.00000021,0.00000505,-0.00000199,0.00001220,-0.00001
 946,0.00000064,0.00001086,0.00000326,0.00001363,-0.00007311,-0.0000818
 3,-0.00001701,-0.00001118,0.00001316,0.00000982,-0.00002388,-0.0000010
 8,-0.00001049,-0.00000414,0.00002741,0.00000169,-0.00000256,-0.0000020
 1,-0.00001243,0.00000135,-0.00000592,-0.00000199,0.00000119,0.00000868
 ,-0.00000076,0.00000611,0.00000252,-0.00000435,0.00000411,-0.00000321,
 -0.00000267,0.00000422,-0.00000038,0.00000011,-0.00000640,0.00000623,-
 0.00000313,0.00000098,0.00000822,-0.00000085,-0.00000459,-0.00000609,0
 .00000763,-0.00000313,0.,0.00000362,0.00001112,0.00000428,0.00000657,-
 0.00000968,0.00000666,-0.00000665,-0.00000823,0.00000053,0.00000767,-0
 .00000298,-0.00000087,0.00000306,0.00001708,0.00001100,0.00001147,0.00
 005177,0.00002159,0.00001615,0.00000675,-0.00002970,-0.00001191,-0.000
 00103,0.00001045,-0.00001597,0.00002491,-0.00001994,0.00003128,0.00000
 486,0.00002051,-0.00000939,0.00001058,0.00000731,-0.00000027,0.0000043
 4,-0.00000080,-0.00002422,-0.00002131,0.00001442,0.00001074\\\@


 ALL SCIENCE IS EITHER PHYSICS, OR STAMP COLLECTING.
   --ERNEST RUTHERFORD, 1871-1937.
 Job cpu time:       0 days  0 hours 31 minutes  6.5 seconds.
 File lengths (MBytes):  RWF=    220 Int=      0 D2E=      0 Chk=      6 Scr=      1
 Normal termination of Gaussian 09 at Sun Jan 15 23:00:39 2017.
