 Entering Gaussian System, Link 0=g09
 Initial command:
 /global/software/gaussian/g09.e01/l1.exe "/scratch/10464862.yak.local/Gau-12183.inp" -scrdir="/scratch/10464862.yak.local/"
 Entering Link 1 = /global/software/gaussian/g09.e01/l1.exe PID=     12184.
  
 Copyright (c) 1988,1990,1992,1993,1995,1998,2003,2009,2015,
            Gaussian, Inc.  All Rights Reserved.
  
 This is part of the Gaussian(R) 09 program.  It is based on
 the Gaussian(R) 03 system (copyright 2003, Gaussian, Inc.),
 the Gaussian(R) 98 system (copyright 1998, Gaussian, Inc.),
 the Gaussian(R) 94 system (copyright 1995, Gaussian, Inc.),
 the Gaussian 92(TM) system (copyright 1992, Gaussian, Inc.),
 the Gaussian 90(TM) system (copyright 1990, Gaussian, Inc.),
 the Gaussian 88(TM) system (copyright 1988, Gaussian, Inc.),
 the Gaussian 86(TM) system (copyright 1986, Carnegie Mellon
 University), and the Gaussian 82(TM) system (copyright 1983,
 Carnegie Mellon University). Gaussian is a federally registered
 trademark of Gaussian, Inc.
  
 This software contains proprietary and confidential information,
 including trade secrets, belonging to Gaussian, Inc.
  
 This software is provided under written license and may be
 used, copied, transmitted, or stored only in accord with that
 written license.
  
 The following legend is applicable only to US Government
 contracts under FAR:
  
                    RESTRICTED RIGHTS LEGEND
  
 Use, reproduction and disclosure by the US Government is
 subject to restrictions as set forth in subparagraphs (a)
 and (c) of the Commercial Computer Software - Restricted
 Rights clause in FAR 52.227-19.
  
 Gaussian, Inc.
 340 Quinnipiac St., Bldg. 40, Wallingford CT 06492
  
  
 ---------------------------------------------------------------
 Warning -- This program may not be used in any manner that
 competes with the business of Gaussian, Inc. or will provide
 assistance to any competitor of Gaussian, Inc.  The licensee
 of this program is prohibited from giving any competitor of
 Gaussian, Inc. access to this program.  By using this program,
 the user acknowledges that Gaussian, Inc. is engaged in the
 business of creating and licensing software in the field of
 computational chemistry and represents and warrants to the
 licensee that it is not a competitor of Gaussian, Inc. and that
 it will not use this program in any manner prohibited above.
 ---------------------------------------------------------------
  

 Cite this work as:
 Gaussian 09, Revision E.01,
 M. J. Frisch, G. W. Trucks, H. B. Schlegel, G. E. Scuseria, 
 M. A. Robb, J. R. Cheeseman, G. Scalmani, V. Barone, B. Mennucci, 
 G. A. Petersson, H. Nakatsuji, M. Caricato, X. Li, H. P. Hratchian, 
 A. F. Izmaylov, J. Bloino, G. Zheng, J. L. Sonnenberg, M. Hada, 
 M. Ehara, K. Toyota, R. Fukuda, J. Hasegawa, M. Ishida, T. Nakajima, 
 Y. Honda, O. Kitao, H. Nakai, T. Vreven, J. A. Montgomery, Jr., 
 J. E. Peralta, F. Ogliaro, M. Bearpark, J. J. Heyd, E. Brothers, 
 K. N. Kudin, V. N. Staroverov, T. Keith, R. Kobayashi, J. Normand, 
 K. Raghavachari, A. Rendell, J. C. Burant, S. S. Iyengar, J. Tomasi, 
 M. Cossi, N. Rega, J. M. Millam, M. Klene, J. E. Knox, J. B. Cross, 
 V. Bakken, C. Adamo, J. Jaramillo, R. Gomperts, R. E. Stratmann, 
 O. Yazyev, A. J. Austin, R. Cammi, C. Pomelli, J. W. Ochterski, 
 R. L. Martin, K. Morokuma, V. G. Zakrzewski, G. A. Voth, 
 P. Salvador, J. J. Dannenberg, S. Dapprich, A. D. Daniels, 
 O. Farkas, J. B. Foresman, J. V. Ortiz, J. Cioslowski, 
 and D. J. Fox, Gaussian, Inc., Wallingford CT, 2013.
 
 ******************************************
 Gaussian 09:  ES64L-G09RevE.01 30-Nov-2015
                15-Jan-2017 
 ******************************************
 -------------------------
 # b3lyp/6-31g(d) opt freq
 -------------------------
 1/14=-1,18=20,19=15,26=3,38=1/1,3;
 2/9=110,12=2,17=6,18=5,40=1/2;
 3/5=1,6=6,7=1,11=2,16=1,25=1,30=1,71=1,74=-5/1,2,3;
 4//1;
 5/5=2,38=5/2;
 6/7=2,8=2,9=2,10=2,28=1/1;
 7//1,2,3,16;
 1/14=-1,18=20,19=15,26=3/3(2);
 2/9=110/2;
 99//99;
 2/9=110/2;
 3/5=1,6=6,7=1,11=2,16=1,25=1,30=1,71=1,74=-5/1,2,3;
 4/5=5,16=3,69=1/1;
 5/5=2,38=5/2;
 7//1,2,3,16;
 1/14=-1,18=20,19=15,26=3/3(-5);
 2/9=110/2;
 6/7=2,8=2,9=2,10=2,19=2,28=1/1;
 99/9=1/99;
 ----------------------------------
 glo_1w_beta_ircr_boat1_B3LYP_631Gd
 ----------------------------------
 Symbolic Z-matrix:
 Charge =  0 Multiplicity = 1
 1                    -0.01625   1.62985   1.41924 
 6                    -0.48902   1.13892   0.55712 
 6                     1.12246  -0.75567   0.05946 
 6                    -1.35901  -1.58109   0.0015 
 6                     0.08885  -1.78613  -0.41492 
 8                    -1.26154   0.06154   1.05383 
 6                     0.67612   0.65358  -0.34255 
 1                    -1.62573  -2.07057   0.95077 
 1                     0.08869  -1.75052  -1.51534 
 1                     0.36281   0.6262   -1.39694 
 6                    -1.34765   2.17208  -0.17189 
 1                    -2.14442   2.54351   0.49028 
 1                    -1.8102    1.70635  -1.05397 
 8                    -2.21341  -1.33326  -0.87097 
 1                     1.20757  -0.81361   1.15605 
 8                    -0.46506   3.23406  -0.54579 
 1                    -0.91969   3.81783  -1.17048 
 8                     0.45045  -3.07254   0.05264 
 1                     1.40304  -3.13858  -0.14118 
 8                     2.32102  -1.17724  -0.56403 
 1                     3.08215  -0.72153  -0.13322 
 8                     1.75624   1.58231  -0.20624 
 1                     1.38939   2.44995  -0.45805 
 8                    -3.67447  -0.06537   0.61508 
 1                    -3.36246  -0.69834  -0.10866 
 1                    -2.26788   0.22906   1.01621 
 8                     4.14452   0.50546   0.62579 
 1                     3.44909   1.14127   0.35216 
 1                     4.08413   0.48118   1.59277 
 1                    -4.12994   0.66035   0.16382 
 
 Add virtual bond connecting atoms O14        and H25        Dist= 2.87D+00.
 Add virtual bond connecting atoms H26        and O24        Dist= 2.82D+00.
 Add virtual bond connecting atoms O27        and H21        Dist= 3.39D+00.
 Add virtual bond connecting atoms H28        and O22        Dist= 3.47D+00.

 GradGradGradGradGradGradGradGradGradGradGradGradGradGradGradGradGradGrad
 Berny optimization.
 Initialization pass.
                           ----------------------------
                           !    Initial Parameters    !
                           ! (Angstroms and Degrees)  !
 --------------------------                            --------------------------
 ! Name  Definition              Value          Derivative Info.                !
 --------------------------------------------------------------------------------
 ! R1    R(1,2)                  1.099          estimate D2E/DX2                !
 ! R2    R(2,6)                  1.4157         estimate D2E/DX2                !
 ! R3    R(2,7)                  1.55           estimate D2E/DX2                !
 ! R4    R(2,11)                 1.5284         estimate D2E/DX2                !
 ! R5    R(3,5)                  1.5347         estimate D2E/DX2                !
 ! R6    R(3,7)                  1.5319         estimate D2E/DX2                !
 ! R7    R(3,15)                 1.1014         estimate D2E/DX2                !
 ! R8    R(3,20)                 1.4153         estimate D2E/DX2                !
 ! R9    R(4,5)                  1.5204         estimate D2E/DX2                !
 ! R10   R(4,8)                  1.1008         estimate D2E/DX2                !
 ! R11   R(4,14)                 1.246          estimate D2E/DX2                !
 ! R12   R(5,9)                  1.101          estimate D2E/DX2                !
 ! R13   R(5,18)                 1.4157         estimate D2E/DX2                !
 ! R14   R(6,26)                 1.0209         estimate D2E/DX2                !
 ! R15   R(7,10)                 1.1003         estimate D2E/DX2                !
 ! R16   R(7,22)                 1.431          estimate D2E/DX2                !
 ! R17   R(11,12)                1.1006         estimate D2E/DX2                !
 ! R18   R(11,13)                1.0995         estimate D2E/DX2                !
 ! R19   R(11,16)                1.4306         estimate D2E/DX2                !
 ! R20   R(14,25)                1.5181         estimate D2E/DX2                !
 ! R21   R(16,17)                0.9684         estimate D2E/DX2                !
 ! R22   R(18,19)                0.9743         estimate D2E/DX2                !
 ! R23   R(20,21)                0.9862         estimate D2E/DX2                !
 ! R24   R(21,27)                1.7917         estimate D2E/DX2                !
 ! R25   R(22,23)                0.9751         estimate D2E/DX2                !
 ! R26   R(22,28)                1.8363         estimate D2E/DX2                !
 ! R27   R(24,25)                1.0108         estimate D2E/DX2                !
 ! R28   R(24,26)                1.492          estimate D2E/DX2                !
 ! R29   R(24,30)                0.9684         estimate D2E/DX2                !
 ! R30   R(27,28)                0.9812         estimate D2E/DX2                !
 ! R31   R(27,29)                0.9692         estimate D2E/DX2                !
 ! A1    A(1,2,6)              107.4253         estimate D2E/DX2                !
 ! A2    A(1,2,7)              105.7729         estimate D2E/DX2                !
 ! A3    A(1,2,11)             108.293          estimate D2E/DX2                !
 ! A4    A(6,2,7)              112.0576         estimate D2E/DX2                !
 ! A5    A(6,2,11)             112.0377         estimate D2E/DX2                !
 ! A6    A(7,2,11)             110.922          estimate D2E/DX2                !
 ! A7    A(5,3,7)              109.8972         estimate D2E/DX2                !
 ! A8    A(5,3,15)             108.934          estimate D2E/DX2                !
 ! A9    A(5,3,20)             103.5446         estimate D2E/DX2                !
 ! A10   A(7,3,15)             109.4003         estimate D2E/DX2                !
 ! A11   A(7,3,20)             113.9004         estimate D2E/DX2                !
 ! A12   A(15,3,20)            110.9471         estimate D2E/DX2                !
 ! A13   A(5,4,8)              114.0123         estimate D2E/DX2                !
 ! A14   A(5,4,14)             119.2099         estimate D2E/DX2                !
 ! A15   A(8,4,14)             121.7413         estimate D2E/DX2                !
 ! A16   A(3,5,4)              117.7846         estimate D2E/DX2                !
 ! A17   A(3,5,9)              106.6981         estimate D2E/DX2                !
 ! A18   A(3,5,18)             109.6343         estimate D2E/DX2                !
 ! A19   A(4,5,9)              105.6191         estimate D2E/DX2                !
 ! A20   A(4,5,18)             105.9809         estimate D2E/DX2                !
 ! A21   A(9,5,18)             111.0698         estimate D2E/DX2                !
 ! A22   A(2,6,26)             113.5837         estimate D2E/DX2                !
 ! A23   A(2,7,3)              110.7779         estimate D2E/DX2                !
 ! A24   A(2,7,10)             110.4847         estimate D2E/DX2                !
 ! A25   A(2,7,22)             107.9919         estimate D2E/DX2                !
 ! A26   A(3,7,10)             108.1521         estimate D2E/DX2                !
 ! A27   A(3,7,22)             110.6169         estimate D2E/DX2                !
 ! A28   A(10,7,22)            108.8054         estimate D2E/DX2                !
 ! A29   A(2,11,12)            110.3561         estimate D2E/DX2                !
 ! A30   A(2,11,13)            109.4295         estimate D2E/DX2                !
 ! A31   A(2,11,16)            106.2526         estimate D2E/DX2                !
 ! A32   A(12,11,13)           108.7274         estimate D2E/DX2                !
 ! A33   A(12,11,16)           110.6934         estimate D2E/DX2                !
 ! A34   A(13,11,16)           111.365          estimate D2E/DX2                !
 ! A35   A(4,14,25)            104.5123         estimate D2E/DX2                !
 ! A36   A(11,16,17)           109.0553         estimate D2E/DX2                !
 ! A37   A(5,18,19)            104.218          estimate D2E/DX2                !
 ! A38   A(3,20,21)            108.8758         estimate D2E/DX2                !
 ! A39   A(20,21,27)           163.5594         estimate D2E/DX2                !
 ! A40   A(7,22,23)            105.5995         estimate D2E/DX2                !
 ! A41   A(7,22,28)            124.6747         estimate D2E/DX2                !
 ! A42   A(23,22,28)           129.7231         estimate D2E/DX2                !
 ! A43   A(25,24,26)            91.4358         estimate D2E/DX2                !
 ! A44   A(25,24,30)           106.3085         estimate D2E/DX2                !
 ! A45   A(26,24,30)           114.8855         estimate D2E/DX2                !
 ! A46   A(14,25,24)           148.7667         estimate D2E/DX2                !
 ! A47   A(6,26,24)            155.0729         estimate D2E/DX2                !
 ! A48   A(21,27,28)            84.5696         estimate D2E/DX2                !
 ! A49   A(21,27,29)           111.6266         estimate D2E/DX2                !
 ! A50   A(28,27,29)           104.4961         estimate D2E/DX2                !
 ! A51   A(22,28,27)           153.3573         estimate D2E/DX2                !
 ! D1    D(1,2,6,26)           107.2883         estimate D2E/DX2                !
 ! D2    D(7,2,6,26)          -136.9534         estimate D2E/DX2                !
 ! D3    D(11,2,6,26)          -11.5248         estimate D2E/DX2                !
 ! D4    D(1,2,7,3)             88.937          estimate D2E/DX2                !
 ! D5    D(1,2,7,10)          -151.2316         estimate D2E/DX2                !
 ! D6    D(1,2,7,22)           -32.3414         estimate D2E/DX2                !
 ! D7    D(6,2,7,3)            -27.8199         estimate D2E/DX2                !
 ! D8    D(6,2,7,10)            92.0115         estimate D2E/DX2                !
 ! D9    D(6,2,7,22)          -149.0983         estimate D2E/DX2                !
 ! D10   D(11,2,7,3)          -153.8587         estimate D2E/DX2                !
 ! D11   D(11,2,7,10)          -34.0273         estimate D2E/DX2                !
 ! D12   D(11,2,7,22)           84.8629         estimate D2E/DX2                !
 ! D13   D(1,2,11,12)          -61.8127         estimate D2E/DX2                !
 ! D14   D(1,2,11,13)          178.5831         estimate D2E/DX2                !
 ! D15   D(1,2,11,16)           58.2373         estimate D2E/DX2                !
 ! D16   D(6,2,11,12)           56.4867         estimate D2E/DX2                !
 ! D17   D(6,2,11,13)          -63.1175         estimate D2E/DX2                !
 ! D18   D(6,2,11,16)          176.5367         estimate D2E/DX2                !
 ! D19   D(7,2,11,12)         -177.4634         estimate D2E/DX2                !
 ! D20   D(7,2,11,13)           62.9324         estimate D2E/DX2                !
 ! D21   D(7,2,11,16)          -57.4135         estimate D2E/DX2                !
 ! D22   D(7,3,5,4)            -54.0593         estimate D2E/DX2                !
 ! D23   D(7,3,5,9)             64.351          estimate D2E/DX2                !
 ! D24   D(7,3,5,18)          -175.283          estimate D2E/DX2                !
 ! D25   D(15,3,5,4)            65.7834         estimate D2E/DX2                !
 ! D26   D(15,3,5,9)          -175.8063         estimate D2E/DX2                !
 ! D27   D(15,3,5,18)          -55.4403         estimate D2E/DX2                !
 ! D28   D(20,3,5,4)          -176.0909         estimate D2E/DX2                !
 ! D29   D(20,3,5,9)           -57.6805         estimate D2E/DX2                !
 ! D30   D(20,3,5,18)           62.6855         estimate D2E/DX2                !
 ! D31   D(5,3,7,2)             74.3372         estimate D2E/DX2                !
 ! D32   D(5,3,7,10)           -46.8811         estimate D2E/DX2                !
 ! D33   D(5,3,7,22)          -165.9457         estimate D2E/DX2                !
 ! D34   D(15,3,7,2)           -45.2214         estimate D2E/DX2                !
 ! D35   D(15,3,7,10)         -166.4397         estimate D2E/DX2                !
 ! D36   D(15,3,7,22)           74.4957         estimate D2E/DX2                !
 ! D37   D(20,3,7,2)          -170.016          estimate D2E/DX2                !
 ! D38   D(20,3,7,10)           68.7657         estimate D2E/DX2                !
 ! D39   D(20,3,7,22)          -50.2989         estimate D2E/DX2                !
 ! D40   D(5,3,20,21)         -165.1853         estimate D2E/DX2                !
 ! D41   D(7,3,20,21)           75.4966         estimate D2E/DX2                !
 ! D42   D(15,3,20,21)         -48.4673         estimate D2E/DX2                !
 ! D43   D(8,4,5,3)            -90.3904         estimate D2E/DX2                !
 ! D44   D(8,4,5,9)            150.6281         estimate D2E/DX2                !
 ! D45   D(8,4,5,18)            32.7003         estimate D2E/DX2                !
 ! D46   D(14,4,5,3)           114.255          estimate D2E/DX2                !
 ! D47   D(14,4,5,9)            -4.7265         estimate D2E/DX2                !
 ! D48   D(14,4,5,18)         -122.6543         estimate D2E/DX2                !
 ! D49   D(5,4,14,25)         -159.6834         estimate D2E/DX2                !
 ! D50   D(8,4,14,25)           46.9259         estimate D2E/DX2                !
 ! D51   D(3,5,18,19)          -46.0199         estimate D2E/DX2                !
 ! D52   D(4,5,18,19)         -174.1166         estimate D2E/DX2                !
 ! D53   D(9,5,18,19)           71.6495         estimate D2E/DX2                !
 ! D54   D(2,6,26,24)          122.4877         estimate D2E/DX2                !
 ! D55   D(2,7,22,23)          -57.3215         estimate D2E/DX2                !
 ! D56   D(2,7,22,28)          122.1258         estimate D2E/DX2                !
 ! D57   D(3,7,22,23)         -178.6998         estimate D2E/DX2                !
 ! D58   D(3,7,22,28)            0.7474         estimate D2E/DX2                !
 ! D59   D(10,7,22,23)          62.6317         estimate D2E/DX2                !
 ! D60   D(10,7,22,28)        -117.9211         estimate D2E/DX2                !
 ! D61   D(2,11,16,17)         167.9877         estimate D2E/DX2                !
 ! D62   D(12,11,16,17)        -72.1816         estimate D2E/DX2                !
 ! D63   D(13,11,16,17)         48.9029         estimate D2E/DX2                !
 ! D64   D(4,14,25,24)          40.905          estimate D2E/DX2                !
 ! D65   D(3,20,21,27)         -42.0834         estimate D2E/DX2                !
 ! D66   D(20,21,27,28)         -8.5125         estimate D2E/DX2                !
 ! D67   D(20,21,27,29)         94.9491         estimate D2E/DX2                !
 ! D68   D(7,22,28,27)           4.7461         estimate D2E/DX2                !
 ! D69   D(23,22,28,27)       -175.9461         estimate D2E/DX2                !
 ! D70   D(26,24,25,14)         -3.3715         estimate D2E/DX2                !
 ! D71   D(30,24,25,14)        113.1107         estimate D2E/DX2                !
 ! D72   D(25,24,26,6)         -16.7909         estimate D2E/DX2                !
 ! D73   D(30,24,26,6)        -125.5309         estimate D2E/DX2                !
 ! D74   D(21,27,28,22)         17.2373         estimate D2E/DX2                !
 ! D75   D(29,27,28,22)        -93.7287         estimate D2E/DX2                !
 --------------------------------------------------------------------------------
 Trust Radius=3.00D-01 FncErr=1.00D-07 GrdErr=1.00D-06
 Number of steps in this run=    167 maximum allowed number of steps=    180.
 GradGradGradGradGradGradGradGradGradGradGradGradGradGradGradGradGradGrad

                          Input orientation:                          
 ---------------------------------------------------------------------
 Center     Atomic      Atomic             Coordinates (Angstroms)
 Number     Number       Type             X           Y           Z
 ---------------------------------------------------------------------
      1          1           0       -0.016246    1.629846    1.419235
      2          6           0       -0.489021    1.138924    0.557119
      3          6           0        1.122457   -0.755674    0.059458
      4          6           0       -1.359009   -1.581086    0.001504
      5          6           0        0.088847   -1.786125   -0.414915
      6          8           0       -1.261544    0.061538    1.053829
      7          6           0        0.676118    0.653583   -0.342547
      8          1           0       -1.625733   -2.070572    0.950773
      9          1           0        0.088689   -1.750524   -1.515339
     10          1           0        0.362808    0.626203   -1.396937
     11          6           0       -1.347647    2.172083   -0.171889
     12          1           0       -2.144424    2.543511    0.490284
     13          1           0       -1.810203    1.706345   -1.053971
     14          8           0       -2.213409   -1.333260   -0.870965
     15          1           0        1.207567   -0.813605    1.156053
     16          8           0       -0.465061    3.234056   -0.545789
     17          1           0       -0.919690    3.817831   -1.170482
     18          8           0        0.450449   -3.072540    0.052635
     19          1           0        1.403040   -3.138580   -0.141182
     20          8           0        2.321020   -1.177235   -0.564032
     21          1           0        3.082149   -0.721534   -0.133218
     22          8           0        1.756243    1.582310   -0.206244
     23          1           0        1.389386    2.449946   -0.458047
     24          8           0       -3.674474   -0.065372    0.615080
     25          1           0       -3.362455   -0.698336   -0.108658
     26          1           0       -2.267876    0.229063    1.016206
     27          8           0        4.144524    0.505464    0.625792
     28          1           0        3.449091    1.141266    0.352158
     29          1           0        4.084128    0.481183    1.592765
     30          1           0       -4.129941    0.660345    0.163823
 ---------------------------------------------------------------------
                    Distance matrix (angstroms):
                    1          2          3          4          5
     1  H    0.000000
     2  C    1.098983   0.000000
     3  C    2.972599   2.536539   0.000000
     4  C    3.758066   2.909303   2.615786   0.000000
     5  C    3.878661   3.136031   1.534669   1.520438   0.000000
     6  O    2.035652   1.415724   2.709256   1.953228   2.719306
     7  C    2.129867   1.550001   1.531937   3.042016   2.510438
     8  H    4.062388   3.427527   3.174263   1.100841   2.210384
     9  H    4.477682   3.602463   2.130349   2.103652   1.101000
    10  H    3.013603   2.192448   2.146564   3.129284   2.618921
    11  C    2.144371   1.528433   3.837538   3.757189   4.217818
    12  H    2.495371   2.172025   4.662912   4.227066   4.955061
    13  H    3.056286   2.159421   3.987701   3.482069   4.026429
    14  O    4.341951   3.335361   3.511025   1.246041   2.390283
    15  H    2.745439   2.655090   1.101417   2.917074   2.159924
    16  O    2.576091   2.367817   4.336414   4.927907   5.052342
    17  H    3.508579   3.216617   5.157525   5.542099   5.743897
    18  O    4.919129   4.344368   2.412366   2.345461   1.415706
    19  H    5.214131   4.729118   2.407743   3.174124   1.905562
    20  O    4.156424   3.810237   1.415276   3.745069   2.318530
    21  H    4.187977   4.085477   1.969437   4.525579   3.189446
    22  O    2.405444   2.412576   2.436894   4.444663   3.764320
    23  H    2.484462   2.505545   3.258076   4.900416   4.431429
    24  O    4.111333   3.405995   4.878092   2.834650   4.264325
    25  H    4.353390   3.474969   4.488428   2.192072   3.631606
    26  H    2.682250   2.050106   3.657791   2.265458   3.415148
    27  O    4.382442   4.677149   3.323265   5.918809   4.773151
    28  H    3.658678   3.943443   3.016170   5.536423   4.522086
    29  H    4.261761   4.734858   3.557013   6.034302   5.013356
    30  H    4.408909   3.693240   5.440927   3.567692   4.911041
                    6          7          8          9         10
     6  O    0.000000
     7  C    2.460674   0.000000
     8  H    2.165444   3.793707   0.000000
     9  H    3.421596   2.738657   3.020494   0.000000
    10  H    2.993931   1.100296   4.091287   2.395411   0.000000
    11  C    2.442171   2.535861   4.397479   4.388025   2.610775
    12  H    2.693928   3.495839   4.665925   5.239089   3.677484
    13  H    2.729329   2.792172   4.279968   3.970969   2.450777
    14  O    2.560535   3.546285   2.051273   2.426723   3.279182
    15  H    2.621609   2.163534   3.106396   3.044017   3.050315
    16  O    3.641158   2.828858   5.632578   5.108102   2.865435
    17  H    4.378831   3.639306   6.298532   5.669421   3.447111
    18  O    3.708875   3.753810   2.474090   2.082580   3.973618
    19  H    4.332299   3.866454   3.392119   2.354257   4.102754
    20  O    4.121504   2.471164   4.320827   2.493381   2.789393
    21  H    4.570553   2.779164   5.015884   3.453966   3.287582
    22  O    3.606601   1.431007   5.110773   3.949968   2.067257
    23  H    3.875267   1.936236   5.613448   4.522569   2.293778
    24  O    2.455776   4.512383   2.886322   4.641101   4.563566
    25  H    2.518454   4.265262   2.453901   3.872499   4.158323
    26  H    1.020874   3.270096   2.388504   3.985083   3.591863
    27  O    5.441126   3.604089   6.327515   5.111137   4.290383
    28  H    4.883466   2.899971   6.035568   4.810644   3.584657
    29  H    5.389134   3.922969   6.286980   5.532121   4.775727
    30  H    3.062414   4.832666   3.787909   5.140886   4.756252
                   11         12         13         14         15
    11  C    0.000000
    12  H    1.100584   0.000000
    13  H    1.099517   1.788092   0.000000
    14  O    3.677728   4.109393   3.071688   0.000000
    15  H    4.148118   4.790545   4.510132   4.010227   0.000000
    16  O    1.430575   2.090588   2.097989   4.901310   4.698671
    17  H    1.972010   2.425285   2.294550   5.319507   5.602516
    18  O    5.548840   6.202010   5.401191   3.312744   2.625556
    19  H    5.980833   6.728254   5.884846   4.107367   2.669557
    20  O    4.983054   5.907260   5.061825   4.547483   2.081033
    21  H    5.291277   6.194057   5.538726   5.381581   2.277006
    22  O    3.159612   4.077286   3.667910   4.969964   2.810215
    23  H    2.765944   3.660041   3.338478   5.240542   3.645428
    24  O    3.322597   3.027028   3.065978   2.439381   4.968584
    25  H    3.507528   3.514527   3.014232   1.518074   4.743193
    26  H    2.456363   2.376658   2.584078   2.450558   3.631173
    27  O    5.794640   6.612327   6.302578   6.785610   3.262949
    28  H    4.934157   5.768256   5.473270   6.299461   3.080941
    29  H    5.956285   6.653084   6.576425   7.001510   3.184619
    30  H    3.184213   2.755933   2.821050   2.952684   5.625481
                   16         17         18         19         20
    16  O    0.000000
    17  H    0.968361   0.000000
    18  O    6.400736   7.130954   0.000000
    19  H    6.653119   7.405821   0.974349   0.000000
    20  O    5.217477   5.985037   2.733404   2.206437   0.000000
    21  H    5.329128   6.139745   3.533782   2.943057   0.986195
    22  O    2.788861   3.617724   4.841461   4.734531   2.839379
    23  H    2.015317   2.776780   5.624967   5.597518   3.746414
    24  O    4.747017   5.084912   5.135601   5.983117   6.210676
    25  H    4.904048   5.243123   4.494563   5.354044   5.721765
    26  H    3.836659   4.413441   4.383873   5.114312   5.052998
    27  O    5.483255   6.312261   5.174632   4.624180   2.751786
    28  H    4.528428   5.344968   5.180514   4.769360   2.736311
    29  H    5.731217   6.618682   5.310798   4.826747   3.242017
    30  H    4.534190   4.696360   5.909887   6.718537   6.746953
                   21         22         23         24         25
    21  H    0.000000
    22  O    2.659146   0.000000
    23  H    3.609605   0.975080   0.000000
    24  O    6.829528   5.734293   5.755094   0.000000
    25  H    6.444693   5.604635   5.710845   1.010839   0.000000
    26  H    5.554060   4.418053   4.525628   1.492016   1.823044
    27  O    1.791720   2.748776   3.542104   7.839815   7.638278
    28  H    1.959658   1.836319   2.571276   7.229819   7.070618
    29  H    2.330130   3.141331   3.917077   7.839037   7.729017
    30  H    7.349290   5.969433   5.835440   0.968374   1.584075
                   26         27         28         29         30
    26  H    0.000000
    27  O    6.430217   0.000000
    28  H    5.827245   0.981197   0.000000
    29  H    6.383098   0.969162   1.542105   0.000000
    30  H    2.092808   8.288798   7.596610   8.339359   0.000000
 Stoichiometry    C6H16O8
 Framework group  C1[X(C6H16O8)]
 Deg. of freedom    84
 Full point group                 C1      NOp   1
 Largest Abelian subgroup         C1      NOp   1
 Largest concise Abelian subgroup C1      NOp   1
                         Standard orientation:                         
 ---------------------------------------------------------------------
 Center     Atomic      Atomic             Coordinates (Angstroms)
 Number     Number       Type             X           Y           Z
 ---------------------------------------------------------------------
      1          1           0       -0.014776    1.607833    1.409620
      2          6           0       -0.486247    1.113519    0.548729
      3          6           0        1.129090   -0.779390    0.057183
      4          6           0       -1.350755   -1.609755    0.000597
      5          6           0        0.097666   -1.813196   -0.414640
      6          8           0       -1.256894    0.036078    1.048225
      7          6           0        0.680198    0.627840   -0.349061
      8          1           0       -1.616926   -2.097019    0.951163
      9          1           0        0.097893   -1.780765   -1.515162
     10          1           0        0.367377    0.596818   -1.403495
     11          6           0       -1.346564    2.142914   -0.183602
     12          1           0       -2.144329    2.514708    0.477174
     13          1           0       -1.807856    1.673746   -1.064527
     14          8           0       -2.205271   -1.366093   -0.872930
     15          1           0        1.213858   -0.833998    1.153975
     16          8           0       -0.465874    3.205508   -0.560200
     17          1           0       -0.921371    3.786603   -1.186757
     18          8           0        0.461557   -3.097559    0.056760
     19          1           0        1.414353   -3.162317   -0.136478
     20          8           0        2.328721   -1.200429   -0.564601
     21          1           0        3.088791   -0.742021   -0.134792
     22          8           0        1.758472    1.559039   -0.214994
     23          1           0        1.390046    2.425236   -0.469444
     24          8           0       -3.669394   -0.096754    0.608861
     25          1           0       -3.355855   -0.731196   -0.112924
     26          1           0       -2.263532    0.201550    1.009710
     27          8           0        4.148483    0.489207    0.621113
     28          1           0        3.451938    1.122874    0.345366
     29          1           0        4.087735    0.467594    1.588127
     30          1           0       -4.126074    0.626780    0.155330
 ---------------------------------------------------------------------
 Rotational constants (GHZ):      0.7267384      0.5214156      0.3339402
 Standard basis: 6-31G(d) (6D, 7F)
 There are   242 symmetry adapted cartesian basis functions of A   symmetry.
 There are   242 symmetry adapted basis functions of A   symmetry.
   242 basis functions,   456 primitive gaussians,   242 cartesian basis functions
    58 alpha electrons       58 beta electrons
       nuclear repulsion energy      1101.3091930849 Hartrees.
 NAtoms=   30 NActive=   30 NUniq=   30 SFac= 1.00D+00 NAtFMM=   60 NAOKFM=F Big=F
 Integral buffers will be    131072 words long.
 Raffenetti 2 integral format.
 Two-electron integral symmetry is turned on.
 One-electron integrals computed using PRISM.
 NBasis=   242 RedAO= T EigKep=  1.62D-03  NBF=   242
 NBsUse=   242 1.00D-06 EigRej= -1.00D+00 NBFU=   242
 ExpMin= 1.61D-01 ExpMax= 5.48D+03 ExpMxC= 8.25D+02 IAcc=1 IRadAn=         1 AccDes= 0.00D+00
 Harris functional with IExCor=  402 and IRadAn=       1 diagonalized for initial guess.
 HarFok:  IExCor=  402 AccDes= 0.00D+00 IRadAn=         1 IDoV= 1 UseB2=F ITyADJ=14
 ICtDFT=  3500011 ScaDFX=  1.000000  1.000000  1.000000  1.000000
 FoFCou: FMM=F IPFlag=           0 FMFlag=      100000 FMFlg1=           0
         NFxFlg=           0 DoJE=T BraDBF=F KetDBF=T FulRan=T
         wScrn=  0.000000 ICntrl=     500 IOpCl=  0 I1Cent=   200000004 NGrid=           0
         NMat0=    1 NMatS0=      1 NMatT0=    0 NMatD0=    1 NMtDS0=    0 NMtDT0=    0
 Petite list used in FoFCou.
 Requested convergence on RMS density matrix=1.00D-08 within 128 cycles.
 Requested convergence on MAX density matrix=1.00D-06.
 Requested convergence on             energy=1.00D-06.
 No special actions if energy rises.
 Integral accuracy reduced to 1.0D-05 until final iterations.
 Initial convergence to 1.0D-05 achieved.  Increase integral accuracy.
 SCF Done:  E(RB3LYP) =  -839.966020254     A.U. after   14 cycles
            NFock= 14  Conv=0.45D-08     -V/T= 2.0083

 **********************************************************************

            Population analysis using the SCF density.

 **********************************************************************

 Orbital symmetries:
       Occupied  (A) (A) (A) (A) (A) (A) (A) (A) (A) (A) (A) (A)
                 (A) (A) (A) (A) (A) (A) (A) (A) (A) (A) (A) (A)
                 (A) (A) (A) (A) (A) (A) (A) (A) (A) (A) (A) (A)
                 (A) (A) (A) (A) (A) (A) (A) (A) (A) (A) (A) (A)
                 (A) (A) (A) (A) (A) (A) (A) (A) (A) (A)
       Virtual   (A) (A) (A) (A) (A) (A) (A) (A) (A) (A) (A) (A)
                 (A) (A) (A) (A) (A) (A) (A) (A) (A) (A) (A) (A)
                 (A) (A) (A) (A) (A) (A) (A) (A) (A) (A) (A) (A)
                 (A) (A) (A) (A) (A) (A) (A) (A) (A) (A) (A) (A)
                 (A) (A) (A) (A) (A) (A) (A) (A) (A) (A) (A) (A)
                 (A) (A) (A) (A) (A) (A) (A) (A) (A) (A) (A) (A)
                 (A) (A) (A) (A) (A) (A) (A) (A) (A) (A) (A) (A)
                 (A) (A) (A) (A) (A) (A) (A) (A) (A) (A) (A) (A)
                 (A) (A) (A) (A) (A) (A) (A) (A) (A) (A) (A) (A)
                 (A) (A) (A) (A) (A) (A) (A) (A) (A) (A) (A) (A)
                 (A) (A) (A) (A) (A) (A) (A) (A) (A) (A) (A) (A)
                 (A) (A) (A) (A) (A) (A) (A) (A) (A) (A) (A) (A)
                 (A) (A) (A) (A) (A) (A) (A) (A) (A) (A) (A) (A)
                 (A) (A) (A) (A) (A) (A) (A) (A) (A) (A) (A) (A)
                 (A) (A) (A) (A) (A) (A) (A) (A) (A) (A) (A) (A)
                 (A) (A) (A) (A)
 The electronic state is 1-A.
 Alpha  occ. eigenvalues --  -19.18989 -19.16793 -19.16490 -19.15650 -19.14967
 Alpha  occ. eigenvalues --  -19.13631 -19.13213 -19.12700 -10.27937 -10.26386
 Alpha  occ. eigenvalues --  -10.25644 -10.24771 -10.23799 -10.23070  -1.06736
 Alpha  occ. eigenvalues --   -1.05640  -1.03979  -1.02683  -1.01839  -1.00903
 Alpha  occ. eigenvalues --   -1.00544  -0.99302  -0.78970  -0.75799  -0.69636
 Alpha  occ. eigenvalues --   -0.64311  -0.61837  -0.57424  -0.56851  -0.54722
 Alpha  occ. eigenvalues --   -0.54457  -0.53156  -0.51870  -0.50738  -0.49362
 Alpha  occ. eigenvalues --   -0.47924  -0.46580  -0.44882  -0.43370  -0.43158
 Alpha  occ. eigenvalues --   -0.42336  -0.41574  -0.40066  -0.39524  -0.38943
 Alpha  occ. eigenvalues --   -0.37850  -0.35821  -0.34926  -0.34342  -0.33591
 Alpha  occ. eigenvalues --   -0.31190  -0.30729  -0.30064  -0.29098  -0.27270
 Alpha  occ. eigenvalues --   -0.26817  -0.25870  -0.24842
 Alpha virt. eigenvalues --    0.00480   0.03177   0.05298   0.06545   0.09558
 Alpha virt. eigenvalues --    0.10902   0.11697   0.12184   0.12700   0.14739
 Alpha virt. eigenvalues --    0.15339   0.15395   0.16539   0.18415   0.19184
 Alpha virt. eigenvalues --    0.19422   0.21108   0.22100   0.23056   0.24643
 Alpha virt. eigenvalues --    0.25570   0.26452   0.27847   0.28343   0.30176
 Alpha virt. eigenvalues --    0.31608   0.32452   0.35896   0.50682   0.52049
 Alpha virt. eigenvalues --    0.54116   0.55711   0.58444   0.59197   0.59564
 Alpha virt. eigenvalues --    0.62050   0.63127   0.63450   0.65004   0.67352
 Alpha virt. eigenvalues --    0.68333   0.71056   0.71979   0.72705   0.74084
 Alpha virt. eigenvalues --    0.75879   0.76185   0.78786   0.79538   0.81169
 Alpha virt. eigenvalues --    0.81805   0.82740   0.83343   0.84346   0.85023
 Alpha virt. eigenvalues --    0.85881   0.86295   0.86776   0.88328   0.89203
 Alpha virt. eigenvalues --    0.90329   0.91612   0.92686   0.94583   0.95355
 Alpha virt. eigenvalues --    0.96925   0.98559   0.99510   1.00815   1.01700
 Alpha virt. eigenvalues --    1.03520   1.04186   1.06055   1.06795   1.07040
 Alpha virt. eigenvalues --    1.11577   1.12226   1.14712   1.15973   1.16194
 Alpha virt. eigenvalues --    1.17651   1.18984   1.22795   1.24361   1.25607
 Alpha virt. eigenvalues --    1.28576   1.29440   1.32341   1.33808   1.35865
 Alpha virt. eigenvalues --    1.40310   1.43377   1.44921   1.47204   1.48269
 Alpha virt. eigenvalues --    1.50306   1.52064   1.55244   1.57075   1.60535
 Alpha virt. eigenvalues --    1.62281   1.64510   1.66282   1.67337   1.68117
 Alpha virt. eigenvalues --    1.69690   1.71273   1.71551   1.72364   1.73801
 Alpha virt. eigenvalues --    1.75400   1.76146   1.77715   1.78707   1.80756
 Alpha virt. eigenvalues --    1.81600   1.82340   1.84596   1.85540   1.87027
 Alpha virt. eigenvalues --    1.88834   1.90507   1.91917   1.92788   1.93478
 Alpha virt. eigenvalues --    1.95936   1.99766   2.01966   2.04044   2.04375
 Alpha virt. eigenvalues --    2.07009   2.10278   2.11157   2.12520   2.14464
 Alpha virt. eigenvalues --    2.15803   2.20243   2.24562   2.25677   2.26865
 Alpha virt. eigenvalues --    2.27324   2.31937   2.33381   2.35043   2.38745
 Alpha virt. eigenvalues --    2.43864   2.45275   2.47122   2.48236   2.50196
 Alpha virt. eigenvalues --    2.50989   2.53640   2.56564   2.58381   2.59164
 Alpha virt. eigenvalues --    2.60714   2.61856   2.65110   2.67143   2.69440
 Alpha virt. eigenvalues --    2.72983   2.76578   2.78151   2.83343   2.89193
 Alpha virt. eigenvalues --    2.94590   2.98020   2.98836   3.02011   3.10191
 Alpha virt. eigenvalues --    3.73502   3.75610   3.78604   3.83851   3.89424
 Alpha virt. eigenvalues --    3.98557   3.99077   4.16770   4.26283   4.31733
 Alpha virt. eigenvalues --    4.41437   4.48236   4.66993   4.74156
          Condensed to atoms (all electrons):
               1          2          3          4          5          6
     1  H    0.621090   0.364350  -0.005744   0.000825   0.000177  -0.035195
     2  C    0.364350   4.923365  -0.028513  -0.002221  -0.006338   0.180285
     3  C   -0.005744  -0.028513   4.969190  -0.024675   0.319939  -0.001346
     4  C    0.000825  -0.002221  -0.024675   4.748436   0.306045   0.037010
     5  C    0.000177  -0.006338   0.319939   0.306045   4.983480  -0.010432
     6  O   -0.035195   0.180285  -0.001346   0.037010  -0.010432   8.511896
     7  C   -0.060138   0.286768   0.273273  -0.005447  -0.034073  -0.036573
     8  H   -0.000176   0.002771   0.000343   0.339161  -0.074165  -0.022900
     9  H    0.000015   0.000913  -0.042679  -0.058609   0.342491   0.001301
    10  H    0.007231  -0.056338  -0.051724  -0.000337  -0.005768   0.003159
    11  C   -0.052686   0.347414   0.003209  -0.000215  -0.000166  -0.027338
    12  H   -0.008019  -0.039062  -0.000069  -0.000067   0.000001  -0.000304
    13  H    0.006378  -0.029526  -0.000307   0.000866  -0.000250   0.001242
    14  O   -0.000099   0.004751   0.000314   0.399634  -0.047666  -0.043800
    15  H    0.002893  -0.001851   0.344469  -0.003945  -0.037585   0.002750
    16  O    0.003558  -0.048991   0.000229   0.000000  -0.000002   0.001217
    17  H   -0.000181   0.005197   0.000007   0.000000  -0.000000  -0.000079
    18  O    0.000002   0.000027  -0.028381  -0.032782   0.219926   0.000208
    19  H   -0.000001  -0.000051  -0.011399   0.006594  -0.034869  -0.000055
    20  O   -0.000066   0.002812   0.232341   0.002901  -0.047697   0.000064
    21  H   -0.000003  -0.000074  -0.016601  -0.000133   0.004608   0.000001
    22  O    0.007586  -0.038486  -0.026492   0.000063   0.001529   0.001541
    23  H    0.001036  -0.005408   0.004548   0.000002  -0.000126   0.000018
    24  O   -0.000054  -0.001549   0.000040   0.008767  -0.000343  -0.064682
    25  H    0.000001   0.000053  -0.000108  -0.016855   0.002706   0.006833
    26  H   -0.001909  -0.011248   0.000245  -0.007198   0.001544   0.157875
    27  O   -0.000028  -0.000033   0.005628   0.000000   0.000090   0.000000
    28  H    0.000207   0.000417  -0.001476  -0.000001   0.000070  -0.000005
    29  H    0.000022  -0.000001   0.000493  -0.000000   0.000017  -0.000000
    30  H    0.000015  -0.000516  -0.000002  -0.000289  -0.000014   0.003185
               7          8          9         10         11         12
     1  H   -0.060138  -0.000176   0.000015   0.007231  -0.052686  -0.008019
     2  C    0.286768   0.002771   0.000913  -0.056338   0.347414  -0.039062
     3  C    0.273273   0.000343  -0.042679  -0.051724   0.003209  -0.000069
     4  C   -0.005447   0.339161  -0.058609  -0.000337  -0.000215  -0.000067
     5  C   -0.034073  -0.074165   0.342491  -0.005768  -0.000166   0.000001
     6  O   -0.036573  -0.022900   0.001301   0.003159  -0.027338  -0.000304
     7  C    5.066060   0.000385  -0.007756   0.357942  -0.029201   0.006340
     8  H    0.000385   0.642474   0.006845   0.000094  -0.000074   0.000002
     9  H   -0.007756   0.006845   0.628569   0.010004  -0.000009  -0.000000
    10  H    0.357942   0.000094   0.010004   0.635050  -0.006201   0.000206
    11  C   -0.029201  -0.000074  -0.000009  -0.006201   4.965097   0.360682
    12  H    0.006340   0.000002  -0.000000   0.000206   0.360682   0.624752
    13  H   -0.013045   0.000090   0.000081   0.005063   0.352174  -0.052960
    14  O    0.001469  -0.050073   0.007785   0.000928  -0.001433   0.000075
    15  H   -0.062785   0.001399   0.007847   0.007424   0.000231   0.000006
    16  O    0.007740   0.000000   0.000000   0.000977   0.205218  -0.035471
    17  H   -0.000067  -0.000000   0.000000  -0.000069  -0.018346  -0.001798
    18  O    0.003760   0.008425  -0.037380   0.000016   0.000000  -0.000000
    19  H    0.001150  -0.000711  -0.002546  -0.000036   0.000001  -0.000000
    20  O   -0.041166  -0.000113  -0.002276   0.000627  -0.000040   0.000000
    21  H   -0.003330   0.000006  -0.000167  -0.000389  -0.000002  -0.000000
    22  O    0.201097   0.000000  -0.000091  -0.039993  -0.000731  -0.000265
    23  H   -0.022198  -0.000000   0.000006  -0.002552  -0.004169   0.000295
    24  O   -0.000164   0.003135   0.000017   0.000003   0.004637   0.000486
    25  H    0.000035  -0.006588  -0.000079  -0.000024  -0.000199  -0.000078
    26  H    0.003688   0.000584  -0.000129  -0.000296  -0.002391   0.005096
    27  O   -0.000826  -0.000000  -0.000000  -0.000072  -0.000000  -0.000000
    28  H   -0.003815   0.000000   0.000002   0.000555  -0.000006   0.000001
    29  H   -0.000210   0.000000   0.000000   0.000007  -0.000000   0.000000
    30  H    0.000024  -0.000119  -0.000000  -0.000004   0.001048   0.001205
              13         14         15         16         17         18
     1  H    0.006378  -0.000099   0.002893   0.003558  -0.000181   0.000002
     2  C   -0.029526   0.004751  -0.001851  -0.048991   0.005197   0.000027
     3  C   -0.000307   0.000314   0.344469   0.000229   0.000007  -0.028381
     4  C    0.000866   0.399634  -0.003945   0.000000   0.000000  -0.032782
     5  C   -0.000250  -0.047666  -0.037585  -0.000002  -0.000000   0.219926
     6  O    0.001242  -0.043800   0.002750   0.001217  -0.000079   0.000208
     7  C   -0.013045   0.001469  -0.062785   0.007740  -0.000067   0.003760
     8  H    0.000090  -0.050073   0.001399   0.000000  -0.000000   0.008425
     9  H    0.000081   0.007785   0.007847   0.000000   0.000000  -0.037380
    10  H    0.005063   0.000928   0.007424   0.000977  -0.000069   0.000016
    11  C    0.352174  -0.001433   0.000231   0.205218  -0.018346   0.000000
    12  H   -0.052960   0.000075   0.000006  -0.035471  -0.001798  -0.000000
    13  H    0.608319   0.003602   0.000011  -0.030503  -0.005643   0.000001
    14  O    0.003602   8.233286   0.000027   0.000004  -0.000001   0.000527
    15  H    0.000011   0.000027   0.659069  -0.000009   0.000000   0.002275
    16  O   -0.030503   0.000004  -0.000009   8.267734   0.237285  -0.000000
    17  H   -0.005643  -0.000001   0.000000   0.237285   0.371527   0.000000
    18  O    0.000001   0.000527   0.002275  -0.000000   0.000000   8.292594
    19  H   -0.000000  -0.000129  -0.000478   0.000000  -0.000000   0.234525
    20  O   -0.000003  -0.000018  -0.043117  -0.000000  -0.000000  -0.008881
    21  H    0.000000   0.000001  -0.004280   0.000000  -0.000000  -0.000030
    22  O    0.000111   0.000001  -0.000085  -0.012590   0.000543  -0.000010
    23  H    0.000506  -0.000000  -0.000200   0.039225  -0.001345   0.000001
    24  O    0.001704  -0.068016   0.000003   0.000018   0.000002   0.000000
    25  H   -0.000194   0.095053   0.000002  -0.000005  -0.000000  -0.000036
    26  H   -0.000852   0.007145  -0.000120   0.000032  -0.000008  -0.000027
    27  O    0.000000  -0.000000   0.000960  -0.000000   0.000000  -0.000000
    28  H   -0.000000  -0.000000   0.000433   0.000009  -0.000001  -0.000000
    29  H    0.000000   0.000000   0.000404   0.000000  -0.000000   0.000000
    30  H    0.000937   0.003316  -0.000000   0.000001  -0.000003   0.000000
              19         20         21         22         23         24
     1  H   -0.000001  -0.000066  -0.000003   0.007586   0.001036  -0.000054
     2  C   -0.000051   0.002812  -0.000074  -0.038486  -0.005408  -0.001549
     3  C   -0.011399   0.232341  -0.016601  -0.026492   0.004548   0.000040
     4  C    0.006594   0.002901  -0.000133   0.000063   0.000002   0.008767
     5  C   -0.034869  -0.047697   0.004608   0.001529  -0.000126  -0.000343
     6  O   -0.000055   0.000064   0.000001   0.001541   0.000018  -0.064682
     7  C    0.001150  -0.041166  -0.003330   0.201097  -0.022198  -0.000164
     8  H   -0.000711  -0.000113   0.000006   0.000000  -0.000000   0.003135
     9  H   -0.002546  -0.002276  -0.000167  -0.000091   0.000006   0.000017
    10  H   -0.000036   0.000627  -0.000389  -0.039993  -0.002552   0.000003
    11  C    0.000001  -0.000040  -0.000002  -0.000731  -0.004169   0.004637
    12  H   -0.000000   0.000000  -0.000000  -0.000265   0.000295   0.000486
    13  H   -0.000000  -0.000003   0.000000   0.000111   0.000506   0.001704
    14  O   -0.000129  -0.000018   0.000001   0.000001  -0.000000  -0.068016
    15  H   -0.000478  -0.043117  -0.004280  -0.000085  -0.000200   0.000003
    16  O    0.000000  -0.000000   0.000000  -0.012590   0.039225   0.000018
    17  H   -0.000000  -0.000000  -0.000000   0.000543  -0.001345   0.000002
    18  O    0.234525  -0.008881  -0.000030  -0.000010   0.000001   0.000000
    19  H    0.367281   0.030683  -0.000447  -0.000006   0.000000  -0.000000
    20  O    0.030683   8.372544   0.202756   0.000437  -0.000080  -0.000000
    21  H   -0.000447   0.202756   0.316915   0.002381  -0.000005   0.000000
    22  O   -0.000006   0.000437   0.002381   8.322006   0.228381   0.000000
    23  H    0.000000  -0.000080  -0.000005   0.228381   0.333659  -0.000000
    24  O   -0.000000  -0.000000   0.000000   0.000000  -0.000000   8.433952
    25  H    0.000004   0.000000  -0.000000  -0.000000   0.000000   0.169428
    26  H    0.000002   0.000001   0.000000  -0.000042   0.000001   0.100524
    27  O    0.000011  -0.027277   0.079648  -0.018847   0.000567   0.000000
    28  H   -0.000006   0.005409  -0.011359   0.052023  -0.001656  -0.000000
    29  H   -0.000003   0.001316  -0.004307   0.001133  -0.000025  -0.000000
    30  H    0.000000   0.000000  -0.000000  -0.000000   0.000000   0.233672
              25         26         27         28         29         30
     1  H    0.000001  -0.001909  -0.000028   0.000207   0.000022   0.000015
     2  C    0.000053  -0.011248  -0.000033   0.000417  -0.000001  -0.000516
     3  C   -0.000108   0.000245   0.005628  -0.001476   0.000493  -0.000002
     4  C   -0.016855  -0.007198   0.000000  -0.000001  -0.000000  -0.000289
     5  C    0.002706   0.001544   0.000090   0.000070   0.000017  -0.000014
     6  O    0.006833   0.157875   0.000000  -0.000005  -0.000000   0.003185
     7  C    0.000035   0.003688  -0.000826  -0.003815  -0.000210   0.000024
     8  H   -0.006588   0.000584  -0.000000   0.000000   0.000000  -0.000119
     9  H   -0.000079  -0.000129  -0.000000   0.000002   0.000000  -0.000000
    10  H   -0.000024  -0.000296  -0.000072   0.000555   0.000007  -0.000004
    11  C   -0.000199  -0.002391  -0.000000  -0.000006  -0.000000   0.001048
    12  H   -0.000078   0.005096  -0.000000   0.000001   0.000000   0.001205
    13  H   -0.000194  -0.000852   0.000000  -0.000000   0.000000   0.000937
    14  O    0.095053   0.007145  -0.000000  -0.000000   0.000000   0.003316
    15  H    0.000002  -0.000120   0.000960   0.000433   0.000404  -0.000000
    16  O   -0.000005   0.000032  -0.000000   0.000009   0.000000   0.000001
    17  H   -0.000000  -0.000008   0.000000  -0.000001  -0.000000  -0.000003
    18  O   -0.000036  -0.000027  -0.000000  -0.000000   0.000000   0.000000
    19  H    0.000004   0.000002   0.000011  -0.000006  -0.000003   0.000000
    20  O    0.000000   0.000001  -0.027277   0.005409   0.001316   0.000000
    21  H   -0.000000   0.000000   0.079648  -0.011359  -0.004307  -0.000000
    22  O   -0.000000  -0.000042  -0.018847   0.052023   0.001133  -0.000000
    23  H    0.000000   0.000001   0.000567  -0.001656  -0.000025   0.000000
    24  O    0.169428   0.100524   0.000000  -0.000000  -0.000000   0.233672
    25  H    0.325053  -0.014397   0.000000   0.000000  -0.000000  -0.006424
    26  H   -0.014397   0.300972  -0.000000   0.000000  -0.000000  -0.006229
    27  O    0.000000  -0.000000   8.302625   0.217899   0.241123  -0.000000
    28  H    0.000000   0.000000   0.217899   0.323786  -0.016069   0.000000
    29  H   -0.000000  -0.000000   0.241123  -0.016069   0.381968   0.000000
    30  H   -0.006424  -0.006229  -0.000000   0.000000   0.000000   0.374389
 Mulliken charges:
               1
     1  H    0.148911
     2  C    0.151083
     3  C    0.085249
     4  C    0.302471
     5  C    0.116870
     6  O   -0.665875
     7  C    0.111064
     8  H    0.149205
     9  H    0.145847
    10  H    0.134518
    11  C   -0.096504
    12  H    0.138945
    13  H    0.152200
    14  O   -0.546684
    15  H    0.124252
    16  O   -0.635677
    17  H    0.412980
    18  O   -0.654759
    19  H    0.410486
    20  O   -0.681158
    21  H    0.434813
    22  O   -0.681192
    23  H    0.429521
    24  O   -0.821581
    25  H    0.445820
    26  H    0.467137
    27  O   -0.801467
    28  H    0.433584
    29  H    0.394132
    30  H    0.395809
 Sum of Mulliken charges =  -0.00000
 Mulliken charges with hydrogens summed into heavy atoms:
               1
     2  C    0.299995
     3  C    0.209501
     4  C    0.451676
     5  C    0.262717
     6  O   -0.198738
     7  C    0.245582
    11  C    0.194641
    14  O   -0.546684
    16  O   -0.222697
    18  O   -0.244273
    20  O   -0.246345
    22  O   -0.251671
    24  O    0.020048
    27  O    0.026249
 Electronic spatial extent (au):  <R**2>=           3302.0743
 Charge=              0.0000 electrons
 Dipole moment (field-independent basis, Debye):
    X=             -1.9802    Y=              5.9593    Z=              0.3293  Tot=              6.2883
 Quadrupole moment (field-independent basis, Debye-Ang):
   XX=            -88.1620   YY=            -78.9557   ZZ=            -82.1791
   XY=            -10.7996   XZ=             10.0986   YZ=             -5.5712
 Traceless Quadrupole moment (field-independent basis, Debye-Ang):
   XX=             -5.0631   YY=              4.1433   ZZ=              0.9198
   XY=            -10.7996   XZ=             10.0986   YZ=             -5.5712
 Octapole moment (field-independent basis, Debye-Ang**2):
  XXX=            -52.4757  YYY=             61.0481  ZZZ=              4.4852  XYY=             -5.9503
  XXY=             28.5475  XXZ=             12.2066  XZZ=             19.9890  YZZ=             14.8861
  YYZ=            -18.7858  XYZ=              9.4170
 Hexadecapole moment (field-independent basis, Debye-Ang**3):
 XXXX=          -2234.6535 YYYY=          -1396.6997 ZZZZ=           -247.5784 XXXY=           -112.0936
 XXXZ=            149.4959 YYYX=            -76.3266 YYYZ=            -82.8510 ZZZX=             38.2887
 ZZZY=            -13.3459 XXYY=           -524.9672 XXZZ=           -357.9084 YYZZ=           -260.7831
 XXYZ=            -12.3362 YYXZ=             12.0243 ZZXY=             -4.5597
 N-N= 1.101309193085D+03 E-N=-4.175102850679D+03  KE= 8.330369502696D+02
 Calling FoFJK, ICntrl=      2127 FMM=F ISym2X=0 I1Cent= 0 IOpClX= 0 NMat=1 NMatS=1 NMatT=0.
 ***** Axes restored to original set *****
 -------------------------------------------------------------------
 Center     Atomic                   Forces (Hartrees/Bohr)
 Number     Number              X              Y              Z
 -------------------------------------------------------------------
      1        1           0.000576141    0.001058808   -0.000410022
      2        6           0.002865974    0.005383077    0.001414131
      3        6          -0.000654407    0.000209640    0.000945691
      4        6          -0.001568988   -0.016899723   -0.010609490
      5        6           0.001688434   -0.002200661   -0.001288402
      6        8           0.009677803    0.010422301    0.012132104
      7        6          -0.000272254    0.000507538    0.000510692
      8        1          -0.000326202   -0.000462684   -0.000453208
      9        1           0.000621808   -0.000109052   -0.000113274
     10        1          -0.000061234   -0.000012996    0.000050788
     11        6          -0.000071338    0.000855074   -0.000178538
     12        1          -0.000046000    0.000051616   -0.000057078
     13        1           0.000032686   -0.000052906    0.000030972
     14        8           0.005019915   -0.006254691   -0.007799058
     15        1          -0.000017085   -0.000023168    0.000055727
     16        8          -0.000287793    0.000737026   -0.000565810
     17        1           0.000040256    0.000034158   -0.000085421
     18        8           0.002069098   -0.001314982    0.000480010
     19        1           0.000120403   -0.000187829    0.000050382
     20        8          -0.000204947    0.000500604    0.000202543
     21        1          -0.000018472    0.000019485    0.000044369
     22        8           0.000380897   -0.000166649   -0.000358303
     23        1           0.000024808   -0.000021938   -0.000068250
     24        8          -0.019281711    0.008842792    0.005603370
     25        1          -0.001372306   -0.001017884   -0.000537657
     26        1           0.003022606    0.000460027    0.000906346
     27        8           0.000124210    0.000072733    0.000090119
     28        1          -0.000020538   -0.000023903   -0.000002015
     29        1          -0.000004732    0.000000893    0.000005111
     30        1          -0.002057033   -0.000406706    0.000004174
 -------------------------------------------------------------------
 Cartesian Forces:  Max     0.019281711 RMS     0.003994676

 GradGradGradGradGradGradGradGradGradGradGradGradGradGradGradGradGradGrad
 Berny optimization.
 FormGI is forming the generalized inverse of G from B-inverse, IUseBI=4.
 Internal  Forces:  Max     0.021092656 RMS     0.004668038
 Search for a local minimum.
 Step number   1 out of a maximum of  167
 All quantities printed in internal units (Hartrees-Bohrs-Radians)
 Mixed Optimization -- RFO/linear search
 Second derivative matrix not updated -- first step.
 ITU=  0
     Eigenvalues ---    0.00305   0.00390   0.00469   0.00500   0.00548
     Eigenvalues ---    0.00575   0.00679   0.00810   0.01053   0.01287
     Eigenvalues ---    0.01484   0.01618   0.02063   0.02313   0.02717
     Eigenvalues ---    0.04052   0.04318   0.04399   0.04550   0.04761
     Eigenvalues ---    0.04976   0.05208   0.05524   0.05878   0.05949
     Eigenvalues ---    0.06014   0.06479   0.06703   0.06942   0.07242
     Eigenvalues ---    0.08203   0.08486   0.08894   0.09460   0.09677
     Eigenvalues ---    0.10579   0.10859   0.11667   0.12666   0.13252
     Eigenvalues ---    0.13470   0.15169   0.15751   0.15999   0.16000
     Eigenvalues ---    0.16000   0.16440   0.17005   0.17306   0.18405
     Eigenvalues ---    0.19345   0.19515   0.20194   0.20563   0.20764
     Eigenvalues ---    0.21975   0.22525   0.27313   0.27969   0.28705
     Eigenvalues ---    0.29569   0.29927   0.33526   0.33572   0.33589
     Eigenvalues ---    0.33618   0.33649   0.33736   0.33795   0.39302
     Eigenvalues ---    0.40907   0.41849   0.42151   0.43114   0.43248
     Eigenvalues ---    0.45170   0.48217   0.50049   0.52352   0.52498
     Eigenvalues ---    0.53549   0.53711   0.53713   0.82516
 RFO step:  Lambda=-2.65209086D-02 EMin= 3.05277755D-03
 Linear search not attempted -- first point.
 Iteration  1 RMS(Cart)=  0.11959381 RMS(Int)=  0.00455503
 Iteration  2 RMS(Cart)=  0.01055464 RMS(Int)=  0.00107976
 Iteration  3 RMS(Cart)=  0.00010625 RMS(Int)=  0.00107863
 Iteration  4 RMS(Cart)=  0.00000022 RMS(Int)=  0.00107863
 Variable       Old X    -DE/DX   Delta X   Delta X   Delta X     New X
                                 (Linear)    (Quad)   (Total)
    R1        2.07678   0.00040   0.00000   0.00110   0.00110   2.07787
    R2        2.67533   0.00038   0.00000  -0.00205  -0.00298   2.67235
    R3        2.92908   0.00600   0.00000   0.01600   0.01577   2.94485
    R4        2.88832   0.00170   0.00000   0.00527   0.00527   2.89359
    R5        2.90010   0.01149   0.00000   0.03657   0.03651   2.93661
    R6        2.89494   0.00900   0.00000   0.03338   0.03449   2.92943
    R7        2.08138   0.00005   0.00000   0.00015   0.00015   2.08153
    R8        2.67448  -0.00058   0.00000   0.00099   0.00112   2.67561
    R9        2.87321   0.00216   0.00000   0.00888   0.00892   2.88214
   R10        2.08029  -0.00010   0.00000  -0.00027  -0.00027   2.08002
   R11        2.35468   0.00134   0.00000   0.00018  -0.00099   2.35369
   R12        2.08059   0.00010   0.00000   0.00029   0.00029   2.08087
   R13        2.67530   0.00211   0.00000   0.00460   0.00460   2.67990
   R14        1.92917   0.00997   0.00000   0.02088   0.02128   1.95045
   R15        2.07926  -0.00003   0.00000  -0.00007  -0.00007   2.07918
   R16        2.70421  -0.00013   0.00000   0.00209   0.00201   2.70622
   R17        2.07980   0.00001   0.00000   0.00004   0.00004   2.07984
   R18        2.07779  -0.00001   0.00000  -0.00004  -0.00004   2.07775
   R19        2.70340   0.00059   0.00000   0.00136   0.00136   2.70475
   R20        2.86874   0.01873   0.00000   0.14543   0.14561   3.01435
   R21        1.82994   0.00006   0.00000   0.00011   0.00011   1.83004
   R22        1.84125   0.00012   0.00000   0.00021   0.00021   1.84146
   R23        1.86364   0.00078   0.00000  -0.00114  -0.00106   1.86258
   R24        3.38586   0.00068   0.00000  -0.01065  -0.01060   3.37526
   R25        1.84263  -0.00001   0.00000  -0.00002  -0.00002   1.84261
   R26        3.47014  -0.00060   0.00000  -0.00375  -0.00386   3.46628
   R27        1.91021   0.02109   0.00000   0.04569   0.04598   1.95619
   R28        2.81950   0.01658   0.00000   0.11711   0.11744   2.93694
   R29        1.82996   0.00066   0.00000   0.00117   0.00117   1.83113
   R30        1.85419  -0.00054   0.00000  -0.00154  -0.00163   1.85256
   R31        1.83145  -0.00001   0.00000  -0.00002  -0.00002   1.83143
    A1        1.87493  -0.00190   0.00000  -0.00716  -0.00616   1.86877
    A2        1.84608   0.00205   0.00000   0.01172   0.01195   1.85804
    A3        1.89007  -0.00018   0.00000  -0.00223  -0.00259   1.88748
    A4        1.95577  -0.00062   0.00000  -0.00130  -0.00271   1.95306
    A5        1.95543   0.00360   0.00000   0.01080   0.01058   1.96601
    A6        1.93595  -0.00300   0.00000  -0.01171  -0.01080   1.92515
    A7        1.91807   0.00882   0.00000   0.05694   0.05693   1.97500
    A8        1.90126   0.00125   0.00000   0.02086   0.01813   1.91939
    A9        1.80719  -0.00704   0.00000  -0.05584  -0.05452   1.75267
   A10        1.90940  -0.00230   0.00000   0.01002   0.00880   1.91819
   A11        1.98794  -0.00143   0.00000  -0.02609  -0.02609   1.96184
   A12        1.93639   0.00090   0.00000  -0.00527  -0.00487   1.93152
   A13        1.98989  -0.00164   0.00000   0.00604   0.00235   1.99224
   A14        2.08060   0.01140   0.00000   0.05602   0.05348   2.13408
   A15        2.12479  -0.00605   0.00000  -0.00379  -0.00772   2.11707
   A16        2.05573   0.00275   0.00000   0.02799   0.02635   2.08208
   A17        1.86223  -0.00127   0.00000  -0.01565  -0.01566   1.84658
   A18        1.91348  -0.00160   0.00000  -0.00826  -0.00751   1.90597
   A19        1.84340  -0.00071   0.00000   0.00429   0.00541   1.84881
   A20        1.84971   0.00044   0.00000  -0.00476  -0.00485   1.84487
   A21        1.93853   0.00042   0.00000  -0.00387  -0.00426   1.93428
   A22        1.98241   0.01680   0.00000   0.06996   0.07024   2.05265
   A23        1.93344   0.00992   0.00000   0.07319   0.07391   2.00735
   A24        1.92832   0.00065   0.00000   0.00408   0.00312   1.93144
   A25        1.88481  -0.00744   0.00000  -0.04488  -0.04465   1.84016
   A26        1.88761  -0.00516   0.00000  -0.03473  -0.03472   1.85289
   A27        1.93063   0.00038   0.00000   0.00535   0.00490   1.93553
   A28        1.89901   0.00164   0.00000  -0.00355  -0.00380   1.89521
   A29        1.92608  -0.00021   0.00000  -0.00004  -0.00005   1.92603
   A30        1.90991  -0.00051   0.00000  -0.00259  -0.00259   1.90732
   A31        1.85446   0.00154   0.00000   0.00666   0.00666   1.86112
   A32        1.89765   0.00014   0.00000  -0.00076  -0.00076   1.89689
   A33        1.93196  -0.00046   0.00000  -0.00090  -0.00091   1.93106
   A34        1.94369  -0.00050   0.00000  -0.00230  -0.00230   1.94139
   A35        1.82408  -0.00023   0.00000   0.01186   0.01032   1.83440
   A36        1.90337   0.00010   0.00000   0.00054   0.00054   1.90391
   A37        1.81895   0.00037   0.00000   0.00196   0.00196   1.82090
   A38        1.90024  -0.00099   0.00000   0.02280   0.02316   1.92340
   A39        2.85465   0.00150   0.00000   0.00322   0.00359   2.85824
   A40        1.84306  -0.00013   0.00000  -0.00586  -0.00585   1.83721
   A41        2.17598   0.00024   0.00000   0.01149   0.01127   2.18725
   A42        2.26410  -0.00011   0.00000  -0.00584  -0.00584   2.25825
   A43        1.59586   0.00796   0.00000   0.08739   0.08594   1.68179
   A44        1.85543  -0.00186   0.00000  -0.01001  -0.01253   1.84290
   A45        2.00513  -0.00015   0.00000   0.01340   0.01458   2.01971
   A46        2.59647   0.01079   0.00000   0.06697   0.06552   2.66199
   A47        2.70653  -0.00546   0.00000  -0.00312  -0.00462   2.70192
   A48        1.47602   0.00018   0.00000  -0.01380  -0.01378   1.46224
   A49        1.94825   0.00047   0.00000   0.00282   0.00263   1.95088
   A50        1.82380   0.00051   0.00000   0.00178   0.00166   1.82546
   A51        2.67659  -0.00010   0.00000  -0.00263  -0.00275   2.67384
    D1        1.87253   0.00568   0.00000   0.11863   0.11824   1.99077
    D2       -2.39029   0.00668   0.00000   0.12778   0.12750  -2.26279
    D3       -0.20115   0.00501   0.00000   0.11962   0.11922  -0.08192
    D4        1.55224   0.00282   0.00000   0.07118   0.06984   1.62208
    D5       -2.63949   0.00322   0.00000   0.07784   0.07771  -2.56178
    D6       -0.56446   0.00107   0.00000   0.04869   0.04869  -0.51577
    D7       -0.48555   0.00420   0.00000   0.07345   0.07152  -0.41403
    D8        1.60590   0.00459   0.00000   0.08011   0.07939   1.68529
    D9       -2.60226   0.00245   0.00000   0.05096   0.05038  -2.55188
   D10       -2.68534   0.00225   0.00000   0.06926   0.06799  -2.61735
   D11       -0.59389   0.00265   0.00000   0.07592   0.07586  -0.51803
   D12        1.48114   0.00050   0.00000   0.04677   0.04685   1.52798
   D13       -1.07884   0.00022   0.00000   0.00328   0.00318  -1.07565
   D14        3.11686   0.00049   0.00000   0.00587   0.00577   3.12263
   D15        1.01643   0.00048   0.00000   0.00616   0.00607   1.02250
   D16        0.98588  -0.00010   0.00000  -0.00054   0.00020   0.98608
   D17       -1.10161   0.00018   0.00000   0.00204   0.00279  -1.09882
   D18        3.08115   0.00016   0.00000   0.00233   0.00309   3.08423
   D19       -3.09732  -0.00050   0.00000  -0.00309  -0.00375  -3.10107
   D20        1.09838  -0.00022   0.00000  -0.00051  -0.00116   1.09722
   D21       -1.00205  -0.00024   0.00000  -0.00021  -0.00087  -1.00292
   D22       -0.94351  -0.00102   0.00000  -0.06738  -0.06919  -1.01270
   D23        1.12314  -0.00118   0.00000  -0.05624  -0.05774   1.06539
   D24       -3.05926  -0.00231   0.00000  -0.07470  -0.07583  -3.13509
   D25        1.14814   0.00225   0.00000  -0.00798  -0.00834   1.13980
   D26       -3.06840   0.00209   0.00000   0.00317   0.00310  -3.06530
   D27       -0.96762   0.00096   0.00000  -0.01529  -0.01498  -0.98260
   D28       -3.07337   0.00022   0.00000  -0.03342  -0.03394  -3.10731
   D29       -1.00672   0.00006   0.00000  -0.02228  -0.02250  -1.02921
   D30        1.09407  -0.00107   0.00000  -0.04074  -0.04058   1.05349
   D31        1.29743   0.00889   0.00000   0.11766   0.11592   1.41335
   D32       -0.81823   0.00532   0.00000   0.09006   0.08958  -0.72865
   D33       -2.89630   0.00628   0.00000   0.11253   0.11220  -2.78410
   D34       -0.78926   0.00339   0.00000   0.05117   0.04945  -0.73981
   D35       -2.90492  -0.00018   0.00000   0.02357   0.02311  -2.88181
   D36        1.30020   0.00078   0.00000   0.04604   0.04573   1.34593
   D37       -2.96734   0.00506   0.00000   0.06947   0.06800  -2.89934
   D38        1.20019   0.00149   0.00000   0.04187   0.04166   1.24185
   D39       -0.87788   0.00244   0.00000   0.06434   0.06428  -0.81360
   D40       -2.88303   0.00357   0.00000   0.00687   0.00818  -2.87485
   D41        1.31766  -0.00185   0.00000  -0.01258  -0.01340   1.30426
   D42       -0.84591   0.00158   0.00000  -0.00193  -0.00191  -0.84783
   D43       -1.57761   0.00237   0.00000   0.01610   0.01658  -1.56103
   D44        2.62896   0.00286   0.00000   0.01586   0.01625   2.64520
   D45        0.57073   0.00250   0.00000   0.02048   0.02083   0.59156
   D46        1.99413  -0.00445   0.00000  -0.11629  -0.11743   1.87670
   D47       -0.08249  -0.00396   0.00000  -0.11653  -0.11776  -0.20025
   D48       -2.14072  -0.00432   0.00000  -0.11192  -0.11317  -2.25389
   D49       -2.78700   0.01581   0.00000   0.19025   0.19084  -2.59616
   D50        0.81901   0.00686   0.00000   0.04317   0.04335   0.86236
   D51       -0.80320   0.00166   0.00000   0.01768   0.01696  -0.78624
   D52       -3.03891  -0.00102   0.00000  -0.00853  -0.00761  -3.04652
   D53        1.25052  -0.00064   0.00000  -0.00906  -0.00925   1.24126
   D54        2.13781  -0.00105   0.00000  -0.06312  -0.06813   2.06969
   D55       -1.00045   0.00407   0.00000   0.02805   0.02801  -0.97244
   D56        2.13150   0.00464   0.00000   0.00725   0.00722   2.13872
   D57       -3.11890  -0.00361   0.00000  -0.03658  -0.03685   3.12743
   D58        0.01305  -0.00305   0.00000  -0.05738  -0.05764  -0.04460
   D59        1.09313   0.00147   0.00000   0.00488   0.00482   1.09795
   D60       -2.05811   0.00204   0.00000  -0.01592  -0.01597  -2.07408
   D61        2.93194  -0.00017   0.00000  -0.00226  -0.00227   2.92967
   D62       -1.25981   0.00026   0.00000   0.00121   0.00121  -1.25860
   D63        0.85352  -0.00022   0.00000  -0.00193  -0.00193   0.85159
   D64        0.71393   0.00856   0.00000   0.14349   0.13991   0.85384
   D65       -0.73449  -0.00106   0.00000  -0.03133  -0.03091  -0.76540
   D66       -0.14857  -0.00108   0.00000  -0.00744  -0.00720  -0.15577
   D67        1.65717  -0.00047   0.00000  -0.01085  -0.01074   1.64644
   D68        0.08284   0.00096   0.00000   0.02658   0.02618   0.10902
   D69       -3.07084   0.00167   0.00000   0.00057   0.00027  -3.07057
   D70       -0.05884   0.00104   0.00000  -0.02291  -0.02621  -0.08505
   D71        1.97415   0.00326   0.00000   0.01917   0.01733   1.99149
   D72       -0.29306  -0.00019   0.00000  -0.05053  -0.05340  -0.34645
   D73       -2.19093  -0.00205   0.00000  -0.08537  -0.08801  -2.27894
   D74        0.30085   0.00098   0.00000   0.01248   0.01212   0.31296
   D75       -1.63587   0.00045   0.00000   0.01289   0.01271  -1.62317
         Item               Value     Threshold  Converged?
 Maximum Force            0.021093     0.000450     NO 
 RMS     Force            0.004668     0.000300     NO 
 Maximum Displacement     0.556779     0.001800     NO 
 RMS     Displacement     0.123204     0.001200     NO 
 Predicted change in Energy=-1.798989D-02
 GradGradGradGradGradGradGradGradGradGradGradGradGradGradGradGradGradGrad

                          Input orientation:                          
 ---------------------------------------------------------------------
 Center     Atomic      Atomic             Coordinates (Angstroms)
 Number     Number       Type             X           Y           Z
 ---------------------------------------------------------------------
      1          1           0        0.037319    1.833633    1.412478
      2          6           0       -0.473494    1.284092    0.608665
      3          6           0        1.065902   -0.772431    0.083958
      4          6           0       -1.375005   -1.806395   -0.098286
      5          6           0        0.101440   -1.853721   -0.477736
      6          8           0       -1.261366    0.284416    1.224874
      7          6           0        0.644849    0.672425   -0.287780
      8          1           0       -1.622793   -2.365207    0.817065
      9          1           0        0.135562   -1.746079   -1.573082
     10          1           0        0.323382    0.636779   -1.339423
     11          6           0       -1.311109    2.283180   -0.194374
     12          1           0       -2.074881    2.746363    0.448622
     13          1           0       -1.815667    1.755707   -1.016617
     14          8           0       -2.258695   -1.463611   -0.906314
     15          1           0        1.144532   -0.870307    1.178277
     16          8           0       -0.403659    3.271750   -0.692235
     17          1           0       -0.855991    3.810086   -1.358135
     18          8           0        0.558314   -3.136826   -0.082732
     19          1           0        1.517780   -3.113698   -0.251442
     20          8           0        2.276186   -1.159447   -0.540638
     21          1           0        3.041550   -0.720827   -0.100971
     22          8           0        1.754225    1.571561   -0.179791
     23          1           0        1.404570    2.443294   -0.441676
     24          8           0       -3.704012   -0.103960    0.708697
     25          1           0       -3.387348   -0.769498   -0.018187
     26          1           0       -2.287001    0.364945    1.141850
     27          8           0        4.120685    0.473012    0.673886
     28          1           0        3.436914    1.115934    0.390764
     29          1           0        4.048342    0.449253    1.640044
     30          1           0       -4.240749    0.554630    0.242739
 ---------------------------------------------------------------------
                    Distance matrix (angstroms):
                    1          2          3          4          5
     1  H    0.000000
     2  C    1.099564   0.000000
     3  C    3.100728   2.621897   0.000000
     4  C    4.186511   3.296000   2.657127   0.000000
     5  C    4.144105   3.369969   1.553987   1.525160   0.000000
     6  O    2.030235   1.414146   2.799070   2.476925   3.054137
     7  C    2.146712   1.558346   1.550188   3.203165   2.590906
     8  H    4.554201   3.831671   3.209900   1.100698   2.216102
     9  H    4.662356   3.783241   2.135254   2.111984   1.101151
    10  H    3.014507   2.202061   2.136170   3.223979   2.644684
    11  C    2.145303   1.531224   3.881289   4.091203   4.380587
    12  H    2.494692   2.174464   4.730688   4.638593   5.172552
    13  H    3.056164   2.159952   3.988256   3.704873   4.122337
    14  O    4.638998   3.609983   3.537133   1.245519   2.430247
    15  H    2.931223   2.753889   1.101497   2.975557   2.190325
    16  O    2.586979   2.376553   4.372354   5.204215   5.154764
    17  H    3.518617   3.224167   5.174240   5.779399   5.811238
    18  O    5.216566   4.592078   2.424005   2.346915   1.418140
    19  H    5.425540   4.903623   2.407950   3.178161   1.909128
    20  O    4.217312   3.853897   1.415871   3.734356   2.283745
    21  H    4.223884   4.108384   1.984955   4.548013   3.173270
    22  O    2.356219   2.380553   2.457163   4.605357   3.814843
    23  H    2.383054   2.444195   3.275954   5.089579   4.490411
    24  O    4.271667   3.517520   4.856875   2.995627   4.353247
    25  H    4.533369   3.619492   4.454422   2.265192   3.682169
    26  H    2.762743   2.101886   3.695229   2.661652   3.640081
    27  O    4.366999   4.665681   3.351244   5.999546   4.784793
    28  H    3.621634   3.920082   3.046596   5.650995   4.549563
    29  H    4.249305   4.712504   3.578946   6.125555   5.036537
    30  H    4.615843   3.854637   5.472371   3.728703   5.017355
                    6          7          8          9         10
     6  O    0.000000
     7  C    2.464210   0.000000
     8  H    2.705076   3.948429   0.000000
     9  H    3.728657   2.785775   3.031161   0.000000
    10  H    3.034997   1.100256   4.177314   2.401643   0.000000
    11  C    2.451897   2.535552   4.767354   4.497625   2.587147
    12  H    2.706577   3.498634   5.144733   5.399573   3.660480
    13  H    2.737925   2.785470   4.514590   4.047154   2.435515
    14  O    2.931250   3.657294   2.046284   2.501366   3.356537
    15  H    2.669065   2.186100   3.165958   3.058591   3.047034
    16  O    3.651731   2.831862   5.961506   5.123013   2.809005
    17  H    4.389376   3.639106   6.591944   5.648040   3.385431
    18  O    4.089739   3.815748   2.482390   2.081836   3.984290
    19  H    4.631452   3.885622   3.400756   2.351094   4.083671
    20  O    4.209044   2.465960   4.301075   2.447927   2.770908
    21  H    4.613401   2.778529   5.030195   3.415116   3.281051
    22  O    3.567019   1.432069   5.281677   3.945639   2.065400
    23  H    3.813838   1.933090   5.819883   4.521207   2.288758
    24  O    2.526617   4.528613   3.075135   4.758719   4.578580
    25  H    2.678755   4.290738   2.521425   3.972695   4.182439
    26  H    1.032136   3.276298   2.828496   4.206673   3.611746
    27  O    5.413468   3.611925   6.408082   5.084726   4.301133
    28  H    4.843656   2.907361   6.156355   4.790275   3.594053
    29  H    5.328465   3.917917   6.384375   5.518469   4.773648
    30  H    3.148702   4.915729   3.963457   5.267122   4.831281
                   11         12         13         14         15
    11  C    0.000000
    12  H    1.100605   0.000000
    13  H    1.099496   1.787601   0.000000
    14  O    3.929787   4.426457   3.251531   0.000000
    15  H    4.225971   4.896665   4.525074   4.034784   0.000000
    16  O    1.431293   2.090591   2.096993   5.090249   4.801287
    17  H    1.973046   2.425195   2.293052   5.475729   5.686964
    18  O    5.734429   6.467455   5.517681   3.378383   2.659117
    19  H    6.093617   6.909242   5.950502   4.172937   2.686301
    20  O    4.984001   5.930074   5.046577   4.559756   2.078199
    21  H    5.289463   6.204944   5.528488   5.412291   2.292923
    22  O    3.146885   4.054272   3.671283   5.083663   2.859859
    23  H    2.731612   3.604312   3.342643   5.375808   3.697543
    24  O    3.498566   3.293334   3.162423   2.558487   4.931144
    25  H    3.696032   3.781766   3.137468   1.595124   4.688243
    26  H    2.533276   2.489319   2.610623   2.745796   3.647272
    27  O    5.790938   6.603326   6.304235   6.851571   3.303997
    28  H    4.924283   5.748176   5.475366   6.385642   3.133743
    29  H    5.954166   6.647561   6.568962   7.065528   3.222821
    30  H    3.429540   3.088213   2.984893   3.053222   5.648622
                   16         17         18         19         20
    16  O    0.000000
    17  H    0.968418   0.000000
    18  O    6.508974   7.203229   0.000000
    19  H    6.682827   7.402591   0.974460   0.000000
    20  O    5.180740   5.930860   2.659095   2.116107   0.000000
    21  H    5.306574   6.107410   3.464656   2.840835   0.985635
    22  O    2.794585   3.634930   4.858862   4.691769   2.803759
    23  H    2.004697   2.796096   5.655328   5.561400   3.707999
    24  O    4.924466   5.263343   5.290752   6.103073   6.199812
    25  H    5.068375   5.401464   4.601810   5.441504   5.700932
    26  H    3.919229   4.490736   4.675235   5.340279   5.096785
    27  O    5.492623   6.327122   5.127756   4.527232   2.746301
    28  H    4.535463   5.361542   5.157180   4.688848   2.718853
    29  H    5.764228   6.658585   5.292278   4.761940   3.237874
    30  H    4.793764   4.961590   6.063315   6.845546   6.783965
                   21         22         23         24         25
    21  H    0.000000
    22  O    2.630297   0.000000
    23  H    3.578749   0.975070   0.000000
    24  O    6.821927   5.778334   5.823184   0.000000
    25  H    6.429615   5.651765   5.784795   1.035170   0.000000
    26  H    5.578258   4.419747   4.522696   1.554161   1.960462
    27  O    1.786110   2.745124   3.536067   7.846017   7.641554
    28  H    1.942115   1.834276   2.566176   7.251348   7.091730
    29  H    2.326768   3.135976   3.911430   7.827671   7.715216
    30  H    7.401135   6.095276   5.992087   0.968992   1.596775
                   26         27         28         29         30
    26  H    0.000000
    27  O    6.425660   0.000000
    28  H    5.821624   0.980332   0.000000
    29  H    6.355460   0.969153   1.542404   0.000000
    30  H    2.159054   8.372940   7.699576   8.406699   0.000000
 Stoichiometry    C6H16O8
 Framework group  C1[X(C6H16O8)]
 Deg. of freedom    84
 Full point group                 C1      NOp   1
 Largest Abelian subgroup         C1      NOp   1
 Largest concise Abelian subgroup C1      NOp   1
[...]
 489,-0.00216241,-0.00063093,0.00018177,0.00017423,0.00040834,-0.000122
 18,0.00088718,0.00008253,0.00012585,-0.00015883,-0.00027892,-0.0000857
 1,0.00075645,0.00099860,0.00027558,-0.00012649,-0.00037591,-0.00025900
 ,-0.00026346,0.00080732,0.00005041,0.00056250,-0.00050673,-0.00023060,
 -0.21294547,0.52532455,-0.00040928,-0.00049989,0.00036554,0.00057119,0
 .00195105,-0.00233657,-0.00008359,-0.00070934,-0.00043734,-0.00133945,
 0.00041715,-0.00450191,0.00034910,0.00087409,0.00071514,-0.01054528,-0
 .00123912,0.00118129,-0.00045974,-0.00078066,-0.00066155,0.00035640,-0
 .00062412,0.00047465,-0.00012741,-0.00001320,0.00009204,0.00005579,0.0
 0006305,0.00037592,-0.00108426,-0.00015752,-0.00130150,0.00016185,0.00
 023436,0.00038378,0.00048749,-0.00034333,0.00053862,0.00547702,-0.0071
 1430,0.00449366,0.00016558,-0.00004586,0.00018812,0.00035224,0.0001300
 0,0.00054722,-0.00004273,-0.00019719,-0.00010173,0.00041829,-0.0000839
 2,0.00018165,-0.00006263,-0.00010345,-0.00006457,0.00037561,0.00036727
 ,0.00028326,-0.00006076,-0.00014496,-0.00017244,-0.00012840,0.00032076
 ,0.00058600,0.00002450,-0.00001362,-0.00018601,0.09408132,-0.02506774,
 0.44484668,0.00007934,0.00020689,0.00001165,-0.00050961,-0.00098861,0.
 00015935,-0.00064531,-0.00153297,-0.00064012,-0.00970816,0.00360624,-0
 .00697054,0.00113479,0.00305100,0.00150150,-0.00152508,0.00319308,0.00
 079943,-0.00045103,-0.00068091,-0.00010111,0.00035237,-0.00124836,0.00
 043470,-0.00005721,-0.00009081,0.00010507,0.00001356,-0.00007335,0.000
 26112,0.00062341,-0.00024882,0.00025292,0.00003310,0.00023788,0.000235
 29,0.00022853,-0.00009328,-0.00049030,0.00130552,-0.00568247,0.0038837
 5,0.00006736,0.00005942,0.00009968,-0.00054491,0.00031993,0.00003641,0
 .00006514,0.00005189,-0.00004406,0.00086133,-0.00047356,0.00017524,-0.
 00021437,-0.00007208,-0.00009891,0.00144267,0.00078584,0.00030363,-0.0
 0030309,-0.00040975,-0.00038610,0.00043863,0.00085928,-0.00009360,0.00
 022543,-0.00036695,-0.00003444,-0.04923636,0.09903211,0.02782096,0.057
 61312,0.00038102,0.00008627,-0.00004030,-0.00107303,-0.00048003,0.0007
 5707,0.00030822,0.00155746,0.00052527,0.00707887,-0.00244153,0.0080719
 3,-0.00097331,-0.00047640,-0.00126566,0.00357869,-0.00095814,0.0005460
 5,-0.00030293,0.00058359,0.00005082,0.00008135,0.00098969,-0.00102326,
 0.00009449,0.00005074,-0.00005468,0.00003741,0.00014346,0.00000506,-0.
 00106355,-0.00056895,-0.00055284,0.00013349,-0.00010968,0.00001371,0.0
 0009122,-0.00019154,0.00050309,-0.00819361,0.00011166,-0.00353401,-0.0
 0011515,-0.00007975,-0.00011407,0.00084402,0.00045869,-0.00017851,-0.0
 0005771,-0.00015721,0.00000128,-0.00131080,-0.00005850,-0.00014486,0.0
 0014983,0.00035657,0.00006798,-0.00078170,-0.00098065,-0.00029669,0.00
 014397,0.00036514,0.00025978,0.00039624,-0.00059158,-0.00015854,-0.000
 34672,0.00024263,0.00016946,0.10992972,-0.33357134,-0.12503058,-0.1080
 1406,0.35800498,0.00018059,0.00009550,-0.00010099,-0.00055688,-0.00030
 075,0.00075624,0.00014825,0.00066374,0.00035005,-0.00086745,-0.0002238
 2,0.00548846,-0.00045106,-0.00049050,-0.00103128,0.00136544,0.00048734
 ,-0.00068443,0.00015735,0.00040592,0.00027195,-0.00073984,0.00067322,-
 0.00071046,0.00017453,0.00001223,-0.00005353,-0.00000933,0.00000490,-0
 .00016889,0.00008771,-0.00010360,-0.00009483,-0.00001241,-0.00007410,-
 0.00007154,-0.00022187,-0.00005693,0.00022710,0.00138517,0.00116558,-0
 .00945871,-0.00009535,-0.00000934,-0.00010924,0.00012027,0.00007565,-0
 .00016395,-0.00000577,0.00002355,0.00003320,-0.00057766,0.00013558,-0.
 00013010,0.00004689,0.00012674,0.00003941,-0.00041206,-0.00035351,-0.0
 0020152,0.00007775,0.00014602,0.00015899,0.00000015,-0.00031936,-0.000
 20677,-0.00009433,0.00010393,0.00010980,0.04847495,-0.18082619,-0.1337
 5835,-0.03285756,0.14239619,0.12792310,0.00140697,0.00084849,0.0018670
 1,-0.02474605,-0.00360321,-0.00395845,-0.00096624,0.00118474,0.0004316
 8,0.00242955,0.00213042,0.00302370,-0.00042714,0.00014031,0.00014426,-
 0.35706547,0.01478655,-0.13211028,-0.00121549,0.00069772,0.00078599,0.
 00026435,0.00010022,-0.00030196,-0.00001971,-0.00007198,-0.00008510,0.
 00000287,-0.00007421,-0.00011471,0.00528489,-0.00090649,0.00017475,0.0
 0032527,-0.00013482,0.00043640,0.00053664,-0.00036936,-0.00086597,-0.0
 0458591,0.00135293,-0.00135613,-0.00044040,0.00010546,-0.00023117,-0.0
 0106383,0.00281471,-0.00145635,0.00047547,0.00049532,-0.00014725,-0.00
 003213,-0.00081228,-0.00011321,-0.00001484,0.00034272,0.00007628,0.000
 80574,-0.00075188,-0.00042595,-0.00030693,0.00000116,-0.00001658,0.001
 76471,0.00027770,-0.00101512,-0.00019564,-0.00029853,0.00048398,-0.000
 89781,-0.00319976,0.00501243,0.00285826,-0.00677746,-0.00255867,0.3733
 4364,-0.00456107,-0.00404305,0.00291560,-0.02926616,-0.00376801,-0.011
 40559,0.00070157,0.00055779,0.00078793,0.00394611,-0.00191273,-0.00020
 503,0.00019366,-0.00051245,0.00017093,0.04887529,-0.03204111,0.0425732
 2,0.00085923,-0.00010462,0.00012423,-0.00002627,-0.00025271,0.00039532
 ,-0.00014519,-0.00003871,-0.00000699,0.00006307,0.00027438,-0.00012711
 ,-0.00421395,-0.00137489,0.00053565,0.00021582,-0.00093590,-0.00056430
 ,0.00036578,0.00014715,0.00083138,-0.00154011,0.00144803,0.00020438,-0
 .00035072,0.00010943,-0.00046157,0.00184102,0.00127747,-0.00115931,0.0
 0022067,-0.00008210,0.00014094,-0.00048973,-0.00009118,-0.00013913,0.0
 0011119,0.00020620,0.00009885,-0.00006715,-0.00044247,-0.00050552,-0.0
 0003142,0.00004726,0.00008851,0.00017639,-0.00029897,0.00016299,-0.000
 53344,0.00057414,-0.00001239,-0.00011564,-0.01054863,0.00094883,-0.006
 46158,-0.00123553,-0.00341492,-0.01283966,0.05141358,0.00048665,0.0005
 3826,-0.00060103,0.02332926,-0.00379964,0.00517381,0.00018588,0.000808
 79,-0.00003264,0.00297855,-0.00172998,0.00255182,0.00008702,-0.0003573
 8,-0.00009799,-0.16219576,0.03328706,-0.09281285,0.00213022,0.00290066
 ,0.00118533,-0.00014521,0.00013680,-0.00030441,0.00000357,-0.00000698,
 -0.00006437,-0.00008347,-0.00012818,-0.00078286,0.00292020,0.00200235,
 0.00345124,-0.00017677,-0.00064958,-0.00030650,-0.00049443,0.00034880,
 -0.00154783,-0.00233599,0.00206101,-0.00131862,-0.00027551,0.00013606,
 -0.00011414,-0.00082400,-0.00000975,-0.00105228,0.00010596,0.00032459,
 0.00004761,-0.00039153,-0.00010018,-0.00015697,0.00006294,0.00015639,0
 .00006830,-0.00016532,-0.00037121,-0.00021249,-0.00000637,0.00014332,0
 .00008982,0.00141051,-0.00010628,-0.00235020,0.00004240,-0.00027866,0.
 00035568,0.00551356,0.00149521,-0.00276168,-0.00293140,-0.00462426,-0.
 00114658,0.13203438,-0.03258539,0.09448107,0.00013979,-0.00041261,-0.0
 0058307,0.00137745,0.00018796,-0.00034181,0.00276216,0.00006054,0.0002
 5840,0.00113656,-0.00002256,-0.00023388,-0.00031197,0.00045857,-0.0000
 2491,-0.00147550,-0.00016354,0.00065054,0.00334245,0.00264368,-0.00120
 486,-0.00008526,0.00004674,0.00013381,-0.00010032,-0.00009817,0.000036
 43,-0.00108357,-0.00057008,0.00008130,0.00022769,-0.00044092,-0.000048
 17,-0.00017026,0.00015971,0.00008517,-0.00006090,0.00007079,-0.0000985
 8,-0.00081724,0.00002635,-0.00013376,0.00012455,0.00019357,-0.00036250
 ,-0.00042169,0.00109147,0.00024547,-0.00025404,-0.00016323,0.00009489,
 -0.00023526,-0.00129512,0.00014423,-0.00002479,0.00111138,-0.00014658,
 -0.00303159,-0.00843805,-0.00579984,-0.00731958,0.00255208,0.00322171,
 -0.01054840,0.00366899,-0.00929939,-0.00090233,-0.00284703,-0.00108117
 ,-0.00070174,0.00002388,0.00005564,0.00039708,-0.00005042,-0.00007993,
 0.00062281,-0.00005664,0.00008500,0.30637748,0.00013131,-0.00008441,0.
 00024873,-0.00057075,-0.00029004,-0.00048094,0.00753079,-0.00277862,-0
 .00174250,0.00186426,-0.00107072,-0.00005794,-0.00158271,-0.00059035,0
 .00046318,0.00033936,0.00089099,-0.00020240,-0.00157053,-0.00306884,0.
 00277548,-0.00014760,0.00010951,0.00016870,0.00002353,0.00008978,0.000
 01282,0.00071060,0.00086027,-0.00037116,-0.00067510,-0.00053826,0.0005
 1654,-0.00001840,0.00016775,-0.00007208,0.00013754,0.00007938,0.000036
 19,-0.00129723,0.00078238,-0.00043497,-0.00008345,0.00051635,0.0002201
 2,0.00063880,0.00049292,-0.00013224,-0.00001468,-0.00005026,-0.0000679
 2,-0.00114792,-0.00017550,-0.00014858,0.00068039,0.00157785,-0.0001126
 4,-0.01556166,-0.01013920,-0.01053392,0.00103383,-0.00074397,0.0096153
 4,0.00642870,0.00539698,0.00245251,-0.00089442,0.00018893,-0.00067161,
 -0.00019050,0.00037346,0.00011863,0.00038616,-0.00035606,-0.00012868,0
 .00001680,-0.00007946,-0.00010033,-0.18886366,0.16115931,0.00009301,0.
 00028845,0.00032887,-0.00044186,-0.00094554,-0.00143429,0.00184768,-0.
 00052533,-0.00251144,0.00070200,-0.00026891,-0.00035257,-0.00098706,-0
 .00008557,0.00054448,-0.00042720,0.00013085,0.00072706,0.00116586,0.00
 264432,-0.00229772,-0.00009290,0.00004582,0.00013237,0.00014147,0.0001
 7087,0.00016559,-0.00095047,-0.00053426,0.00039954,0.00040418,0.000232
 79,-0.00009246,-0.00014881,0.00007500,0.00008149,0.00005643,-0.0000773
 8,0.00005916,-0.00050246,0.00007161,0.00002262,-0.00069128,-0.00021218
 ,0.00085421,-0.00054649,0.00056248,0.00046117,-0.00011752,-0.00006183,
 0.00001657,-0.00036313,-0.00057792,0.00026479,0.00016631,0.00078966,-0
 .00038173,-0.00810099,-0.00910260,-0.00049448,0.00357637,0.00643160,-0
 .00629765,-0.01127429,0.00113201,-0.00205209,-0.00076796,-0.00176148,-
 0.00110409,-0.00026074,0.00005318,0.00010452,0.00021700,-0.00006883,-0
 .00008357,0.00016363,0.00000505,-0.00000714,0.04270791,-0.00935975,0.6
 2946146,-0.00027215,0.00010553,0.00046223,-0.00115630,0.00061576,0.000
 99895,0.00236452,-0.00223482,0.00024568,-0.00015626,-0.00056370,0.0002
 8981,-0.00035709,-0.00065375,-0.00012961,0.00176591,0.00048476,-0.0010
 8559,-0.00672990,-0.00630535,0.00340846,0.00000572,0.00001422,-0.00005
 499,0.00005537,0.00005612,-0.00005650,0.00216244,0.00128101,-0.0003700
 8,-0.00075111,0.00010247,0.00028405,0.00022244,-0.00010489,-0.00013721
 ,0.00005938,-0.00000398,0.00007590,0.00018567,0.00042157,-0.00013761,-
 0.00011549,0.00030769,-0.00005237,0.00095694,-0.00130786,-0.00046506,0
 .00039127,0.00016260,-0.00014845,-0.00043995,0.00117142,-0.00013373,0.
 00032154,-0.00012772,-0.00001552,-0.00408500,-0.00049687,-0.00163165,0
 .00519127,0.00181170,0.00303912,0.00211669,0.00079994,-0.00000635,0.00
 041279,0.00425828,0.00008352,0.00061284,0.00013858,-0.00001826,-0.0002
 2629,-0.00011405,0.00002869,-0.00060059,0.00001937,-0.00016642,-0.2240
 6526,0.14522182,-0.16867676,0.21340628,-0.00007278,0.00020299,-0.00006
 159,0.00019802,0.00010499,0.00018923,-0.00378072,0.00008791,0.00029062
 ,-0.00087709,0.00043003,0.00004597,0.00049232,0.00016205,-0.00005769,-
 0.00006992,-0.00043715,0.00010072,-0.00114507,0.00161579,-0.00353327,0
 .00006016,-0.00003468,-0.00006651,0.00001375,0.00003121,0.00004546,-0.
 00070026,-0.00069991,0.00041225,0.00043849,0.00042537,-0.00027342,0.00
 000450,-0.00009762,0.00004064,-0.00007605,-0.00008496,0.00000209,0.000
 58549,-0.00036613,0.00019046,0.00020051,-0.00025244,0.00008300,-0.0003
 4507,-0.00054390,-0.00005603,0.00001879,0.00000591,0.00001074,0.000455
 64,0.00028321,0.00000753,-0.00024806,-0.00075283,0.00007187,0.00308367
 ,0.00321267,0.00022665,0.00068528,-0.01309633,0.00052671,-0.00308944,-
 0.00991085,0.00130131,0.00336671,0.00094680,0.00260815,0.00008876,-0.0
 0017188,-0.00004461,-0.00017131,0.00015923,0.00005532,-0.00001862,0.00
 003498,0.00002732,0.14474262,-0.11162442,0.11323063,-0.13747067,0.1260
 7795,-0.00011408,-0.00035329,-0.00061113,0.00100248,0.00174616,0.00199
 465,0.00153006,-0.00130713,0.00121274,0.00008924,-0.00033619,0.0002485
 8,-0.00018198,-0.00024326,-0.00019901,0.00052060,-0.00003758,-0.001022
 94,-0.00174273,-0.00528192,0.00438425,0.00001047,0.00002470,-0.0000395
 1,-0.00006509,-0.00006764,-0.00012112,0.00169480,0.00096574,-0.0006180
 0,-0.00064410,-0.00042687,0.00024418,0.00017759,-0.00003630,-0.0001145
 7,-0.00007713,0.00012326,-0.00009063,-0.00002482,0.00028530,-0.0002021
 6,0.00011335,0.00041011,-0.00059279,0.00084911,-0.00068994,-0.00063939
 ,0.00016448,0.00004251,-0.00004752,-0.00024399,0.00054941,-0.00016051,
 0.00017435,0.00002053,0.00008705,-0.00287858,-0.00082155,-0.00295444,0
 .00301786,0.00209691,0.00634077,0.00257548,0.00381289,-0.00878228,0.00
 056642,0.00236072,0.00074009,0.00018950,0.00006323,-0.00005974,-0.0000
 8113,-0.00005300,0.00003450,-0.00016174,-0.00007916,-0.00005530,-0.121
 43401,0.07831652,-0.16945003,0.14809537,-0.10444062,0.19587303,0.00004
 657,0.00035855,0.00049132,-0.00113047,-0.00066969,-0.00067578,0.000150
 22,-0.00014539,-0.00092385,-0.00023010,-0.00010144,0.00000387,-0.00002
 214,-0.00028456,0.00016659,0.00067708,0.00024728,-0.00002089,-0.000398
 17,0.00000692,-0.00057089,0.00000274,-0.00000610,-0.00001267,0.0000606
 3,0.00010085,0.00004344,-0.00002679,-0.00002178,0.00019589,0.00009827,
 0.00037685,0.00003317,0.00001152,-0.00003682,-0.00001330,0.00008343,-0
 .00010417,0.00009663,0.00016699,0.00003000,0.00005924,-0.00020005,-0.0
 0018662,0.00041378,-0.00005756,-0.00021485,0.00011495,0.00004743,0.000
 06198,-0.00001237,-0.00010256,0.00033062,-0.00001155,0.00007060,-0.000
 14230,-0.00003485,-0.00109468,-0.00105995,-0.00001874,0.00073487,0.001
 08795,-0.00110382,-0.00133939,0.00004927,0.00065079,-0.00016336,0.0001
 8087,-0.00027016,0.00026367,0.00002993,0.00002248,-0.00009964,-0.00002
 234,0.00000164,-0.00028233,0.00004871,-0.00004308,-0.06508258,0.047467
 40,0.14301731,0.00891245,-0.00637204,-0.03303421,0.05896113,-0.0001274
 7,0.00016964,-0.00003790,0.00017047,0.00023965,0.00012263,0.00001713,-
 0.00016470,-0.00127944,-0.00019724,-0.00000533,-0.00006737,-0.00025369
 ,-0.00006773,0.00021324,-0.00005697,-0.00024506,0.00003716,0.00001468,
 0.00018872,-0.00004400,-0.00001515,0.00000400,0.00000862,0.00008826,0.
 00009695,0.00008361,0.00006285,-0.00009541,0.00002287,0.00017680,0.000
 21046,-0.00006453,0.00002220,-0.00003781,0.00000889,-0.00004190,-0.000
 03734,-0.00001196,0.00015073,-0.00007541,0.00006390,-0.00041836,-0.000
 12250,0.00048237,-0.00014773,-0.00025397,-0.00005673,0.00001950,0.0000
 2060,0.00002856,0.00000415,0.00001402,0.00016435,0.00000516,0.00002039
 ,-0.00021827,-0.00212265,-0.00202722,0.00052736,0.00402194,0.00317536,
 -0.00331698,0.00071031,-0.00036379,-0.00008454,0.00015096,0.00021877,0
 .00029247,0.00003893,-0.00007040,-0.00000840,-0.00005898,0.00005603,0.
 00001233,-0.00002393,0.00000085,0.00000837,0.04641167,-0.04101649,-0.1
 0226773,-0.00758878,0.00425334,0.02335932,-0.04101422,0.03589346,-0.00
 002685,0.00011203,0.00027723,-0.00047859,-0.00023291,-0.00005640,-0.00
 031855,-0.00001587,-0.00002780,-0.00021905,-0.00001112,0.00008067,0.00
 005968,-0.00013953,0.00006853,0.00038445,0.00012818,-0.00016205,-0.000
 67430,-0.00037753,-0.00028688,0.00001829,-0.00000516,-0.00002881,0.000
 03090,0.00003953,0.00000091,0.00008464,0.00003386,0.00006340,-0.000081
 75,0.00005244,0.00005787,0.00004217,-0.00002928,-0.00002116,0.00004557
 ,-0.00001974,0.00002481,0.00014652,-0.00000317,0.00000914,-0.00006342,
 -0.00005230,0.00015242,0.00011156,-0.00006734,-0.00002057,0.00003204,0
 .00003198,-0.00000438,0.00000106,0.00023857,-0.00005313,-0.00000810,-0
 .00016090,0.00001856,0.00096042,0.00096873,0.00081506,-0.00058948,-0.0
 0182688,-0.00209509,0.00015504,0.00043207,0.00119784,-0.00029516,0.000
 10019,-0.00027349,0.00013830,0.00000836,-0.00001626,-0.00007022,0.0000
 0077,0.00001717,-0.00012544,0.00003035,-0.00001145,0.09309612,-0.07031
 064,-0.44704465,0.01625253,-0.01094102,-0.02541694,-0.10857047,0.08201
 558,0.47273017,0.00002403,-0.00028091,0.00023403,-0.00027303,0.0008203
 7,-0.00078414,-0.00015417,0.00010821,-0.00009472,-0.00027811,0.0002278
 7,-0.00038946,-0.00004481,0.00019053,0.00002946,-0.00242252,-0.0012603
 1,0.00033610,-0.00038459,-0.00026723,-0.00011848,0.00007113,-0.0000068
 9,0.00013342,-0.00001506,-0.00000054,0.00002084,0.00003918,0.00007705,
 0.00018633,-0.00169584,-0.00083647,-0.00132878,0.00014243,0.00003518,0
 .00017785,0.00004745,-0.00026284,0.00099554,0.00004084,-0.00042225,0.0
 0073023,0.00003118,-0.00004303,0.00003864,0.00112404,0.00071507,0.0000
 9726,-0.00006278,-0.00032059,-0.00002385,0.00011063,-0.00022454,0.0000
 4232,-0.00002440,0.00006162,-0.00000016,0.00026035,-0.00011689,0.00003
 035,-0.00009000,-0.00001332,-0.00005451,0.00032510,0.00003315,0.000090
 72,-0.00021697,0.00009972,0.00005568,-0.06866109,0.10475448,-0.1214261
 0,-0.00421857,0.00594830,-0.01270922,0.00273937,0.00306087,-0.00114083
 ,0.00018426,0.00000732,0.00009076,-0.00018811,0.00000235,-0.00008755,-
 0.00005777,0.00000133,-0.00003788,0.07364782,-0.00004113,-0.00026253,0
 .00008894,0.00042932,0.00107726,-0.00049138,0.00010769,0.00015962,-0.0
 0004691,0.00024837,-0.00005702,0.00012655,0.00005588,-0.00005269,-0.00
 002348,-0.00325193,-0.00098583,-0.00052199,0.00009285,-0.00003547,0.00
 008589,-0.00011483,0.00000161,-0.00003618,0.00000003,0.00000503,0.0000
 0607,-0.00000697,0.00003792,-0.00002728,-0.00081881,-0.00037674,-0.000
 36892,-0.00003324,-0.00007911,-0.00014856,-0.00006537,0.00027982,0.000
 43634,0.00020794,0.00003004,-0.00141150,0.00000994,-0.00001763,0.00000
 621,0.00063265,0.00005864,0.00000723,-0.00014154,-0.00014482,0.0000304
 5,-0.00013999,-0.00000358,-0.00002700,0.00003397,0.00003871,0.00001544
 ,-0.00012938,-0.00014548,-0.00000620,0.00004122,0.00007245,0.00003959,
 -0.00010463,-0.00024524,0.00009310,-0.00016732,0.00019932,0.00003672,0
 .09580109,-0.17702888,0.15679664,0.01487814,-0.02090925,0.03971796,0.0
 0458696,0.00167126,0.00047281,-0.00002796,-0.00007928,-0.00001498,-0.0
 0000038,0.00003868,-0.00000285,0.00000508,0.00002091,0.00000076,-0.112
 08761,0.19673228,-0.00003794,-0.00006477,0.00004823,-0.00016172,0.0002
 7143,-0.00024003,0.00004332,-0.00002368,-0.00005469,-0.00013228,0.0000
 4141,-0.00018171,0.00007539,0.00005651,0.00011906,0.00033910,-0.000443
 00,0.00071149,0.00011089,-0.00000774,0.00015360,-0.00005156,-0.0000487
 0,-0.00003050,0.00000915,-0.00000189,-0.00000917,-0.00002117,-0.000010
 06,-0.00004099,-0.00012710,0.00004050,0.00012384,-0.00011211,-0.000109
 36,-0.00021657,0.00001378,0.00013315,0.00025941,0.00085625,-0.00049229
 ,-0.00084490,-0.00000781,0.00000732,-0.00001062,0.00031887,0.00003651,
 -0.00015275,-0.00002296,-0.00000426,0.00009902,-0.00003370,0.00001947,
 -0.00003321,0.00000911,0.00000361,0.00000763,-0.00001525,-0.00000882,-
 0.00000979,0.00001850,0.00001385,0.00001283,-0.00006363,-0.00008710,-0
 .00002940,-0.00004469,0.00008131,0.00004846,-0.14478324,0.21100830,-0.
 30899846,0.00850179,-0.01622835,0.01276477,0.00040960,0.00065226,-0.00
 166735,-0.00002414,-0.00001644,-0.00002001,0.00002185,0.00000811,0.000
 01816,0.00000555,0.00000621,0.00000528,0.13490614,-0.19483346,0.298168
 36\\0.00000676,-0.00000956,-0.00000825,-0.00003531,-0.00002882,0.00003
 897,-0.00000665,0.00004878,0.00000974,0.00002213,-0.00000192,0.0000145
 7,-0.00001940,-0.00006080,-0.00000017,-0.00001498,0.00004588,-0.000002
 48,0.00001416,-0.00001902,-0.00001864,-0.00000816,0.00000449,-0.000007
 70,0.00000119,0.00000629,-0.00000129,0.00000859,0.00000356,-0.00000376
 ,0.00001034,0.00001534,-0.00000290,-0.00000134,-0.00000293,0.00000123,
 0.00000497,0.00000001,-0.00000270,-0.00002189,0.00003030,-0.00001031,-
 0.00000057,-0.00000105,-0.00000087,-0.00000447,-0.00000903,0.00000368,
 0.00000607,0.00000410,0.00000428,-0.00001770,0.00001573,-0.00001713,0.
 00000652,0.00000439,0.00000225,0.00002614,-0.00001352,-0.00000334,-0.0
 0002373,0.00001767,-0.00000709,0.00003104,0.00003679,0.00002117,-0.000
 01923,-0.00000971,-0.00000725,0.00002140,0.00002827,-0.00001852,0.0000
 0712,-0.00002367,-0.00002987,0.00002369,-0.00003573,0.00000695,0.00000
 733,-0.00000538,0.00002813,-0.00001497,-0.00004666,0.00000615,0.000010
 98,0.00001534,0.00000883,-0.00002002,-0.00000914,-0.00000367\\\@


 ERWIN WITH HIS PSI CAN DO
 CALCULATIONS QUITE A FEW.
 BUT ONE THING HAS NOT BEEN SEEN
 JUST WHAT DOES PSI REALLY MEAN.
 -- WALTER HUCKEL, TRANS. BY FELIX BLOCH
 Job cpu time:       0 days  0 hours 31 minutes 35.7 seconds.
 File lengths (MBytes):  RWF=    221 Int=      0 D2E=      0 Chk=      6 Scr=      1
 Normal termination of Gaussian 09 at Sun Jan 15 22:10:21 2017.
