 Entering Gaussian System, Link 0=g09
 Initial command:
 /global/software/gaussian/g09.e01/l1.exe "/scratch/10464857.yak.local/Gau-1443.inp" -scrdir="/scratch/10464857.yak.local/"
 Entering Link 1 = /global/software/gaussian/g09.e01/l1.exe PID=      1450.
  
 Copyright (c) 1988,1990,1992,1993,1995,1998,2003,2009,2015,
            Gaussian, Inc.  All Rights Reserved.
  
 This is part of the Gaussian(R) 09 program.  It is based on
 the Gaussian(R) 03 system (copyright 2003, Gaussian, Inc.),
 the Gaussian(R) 98 system (copyright 1998, Gaussian, Inc.),
 the Gaussian(R) 94 system (copyright 1995, Gaussian, Inc.),
 the Gaussian 92(TM) system (copyright 1992, Gaussian, Inc.),
 the Gaussian 90(TM) system (copyright 1990, Gaussian, Inc.),
 the Gaussian 88(TM) system (copyright 1988, Gaussian, Inc.),
 the Gaussian 86(TM) system (copyright 1986, Carnegie Mellon
 University), and the Gaussian 82(TM) system (copyright 1983,
 Carnegie Mellon University). Gaussian is a federally registered
 trademark of Gaussian, Inc.
  
 This software contains proprietary and confidential information,
 including trade secrets, belonging to Gaussian, Inc.
  
 This software is provided under written license and may be
 used, copied, transmitted, or stored only in accord with that
 written license.
  
 The following legend is applicable only to US Government
 contracts under FAR:
  
                    RESTRICTED RIGHTS LEGEND
  
 Use, reproduction and disclosure by the US Government is
 subject to restrictions as set forth in subparagraphs (a)
 and (c) of the Commercial Computer Software - Restricted
 Rights clause in FAR 52.227-19.
  
 Gaussian, Inc.
 340 Quinnipiac St., Bldg. 40, Wallingford CT 06492
  
  
 ---------------------------------------------------------------
 Warning -- This program may not be used in any manner that
 competes with the business of Gaussian, Inc. or will provide
 assistance to any competitor of Gaussian, Inc.  The licensee
 of this program is prohibited from giving any competitor of
 Gaussian, Inc. access to this program.  By using this program,
 the user acknowledges that Gaussian, Inc. is engaged in the
 business of creating and licensing software in the field of
 computational chemistry and represents and warrants to the
 licensee that it is not a competitor of Gaussian, Inc. and that
 it will not use this program in any manner prohibited above.
 ---------------------------------------------------------------
  

 Cite this work as:
 Gaussian 09, Revision E.01,
 M. J. Frisch, G. W. Trucks, H. B. Schlegel, G. E. Scuseria, 
 M. A. Robb, J. R. Cheeseman, G. Scalmani, V. Barone, B. Mennucci, 
 G. A. Petersson, H. Nakatsuji, M. Caricato, X. Li, H. P. Hratchian, 
 A. F. Izmaylov, J. Bloino, G. Zheng, J. L. Sonnenberg, M. Hada, 
 M. Ehara, K. Toyota, R. Fukuda, J. Hasegawa, M. Ishida, T. Nakajima, 
 Y. Honda, O. Kitao, H. Nakai, T. Vreven, J. A. Montgomery, Jr., 
 J. E. Peralta, F. Ogliaro, M. Bearpark, J. J. Heyd, E. Brothers, 
 K. N. Kudin, V. N. Staroverov, T. Keith, R. Kobayashi, J. Normand, 
 K. Raghavachari, A. Rendell, J. C. Burant, S. S. Iyengar, J. Tomasi, 
 M. Cossi, N. Rega, J. M. Millam, M. Klene, J. E. Knox, J. B. Cross, 
 V. Bakken, C. Adamo, J. Jaramillo, R. Gomperts, R. E. Stratmann, 
 O. Yazyev, A. J. Austin, R. Cammi, C. Pomelli, J. W. Ochterski, 
 R. L. Martin, K. Morokuma, V. G. Zakrzewski, G. A. Voth, 
 P. Salvador, J. J. Dannenberg, S. Dapprich, A. D. Daniels, 
 O. Farkas, J. B. Foresman, J. V. Ortiz, J. Cioslowski, 
 and D. J. Fox, Gaussian, Inc., Wallingford CT, 2013.
 
 ******************************************
 Gaussian 09:  ES64L-G09RevE.01 30-Nov-2015
                15-Jan-2017 
 ******************************************
 -------------------------
 # b3lyp/6-31g(d) opt freq
 -------------------------
 1/14=-1,18=20,19=15,26=3,38=1/1,3;
 2/9=110,12=2,17=6,18=5,40=1/2;
 3/5=1,6=6,7=1,11=2,16=1,25=1,30=1,71=1,74=-5/1,2,3;
 4//1;
 5/5=2,38=5/2;
 6/7=2,8=2,9=2,10=2,28=1/1;
 7//1,2,3,16;
 1/14=-1,18=20,19=15,26=3/3(2);
 2/9=110/2;
 99//99;
 2/9=110/2;
 3/5=1,6=6,7=1,11=2,16=1,25=1,30=1,71=1,74=-5/1,2,3;
 4/5=5,16=3,69=1/1;
 5/5=2,38=5/2;
 7//1,2,3,16;
 1/14=-1,18=20,19=15,26=3/3(-5);
 2/9=110/2;
 6/7=2,8=2,9=2,10=2,19=2,28=1/1;
 99/9=1/99;
 ----------------------------------
 glo_2w_beta_ircr_boat1_B3LYP_631Gd
 ----------------------------------
 Symbolic Z-matrix:
 Charge =  0 Multiplicity = 1
 1                     0.4133    1.6308    1.53467 
 6                     0.06338   1.15451   0.60946 
 6                     1.85471  -0.56048   0.25947 
 6                    -0.54967  -1.41622  -0.21445 
 6                     0.95701  -1.69338  -0.24166 
 8                    -0.62571  -0.04155   0.9845 
 6                     1.32289   0.79273  -0.20007 
 1                    -1.08974  -2.06718   0.49335 
 1                     1.19467  -1.83906  -1.30531 
 1                     1.08315   0.73826  -1.27217 
 6                    -0.83324   2.13503  -0.14464 
 1                    -1.70686   2.40652   0.4632 
 1                    -1.18201   1.66655  -1.07456 
 8                    -1.09301  -1.03099  -1.28201 
 1                     1.86533  -0.5869    1.36005 
 8                    -0.00898   3.27792  -0.40751 
 1                    -0.49072   3.87694  -0.99626 
 8                     1.1696   -2.88815   0.49446 
 1                     2.11953  -3.07989   0.43346 
 8                     3.15771  -0.80872  -0.25283 
 1                     3.64277   0.02911  -0.15318 
 8                     2.34733   1.75373   0.0278 
 1                     1.9779    2.6073   -0.2607 
 8                    -3.0671    0.23049   1.23623 
 1                    -2.55941  -1.08119  -1.14944 
 1                    -1.63856   0.11434   1.15132 
 1                    -3.41391  -0.26857   1.99133 
 8                    -3.5405   -1.01601  -0.85585 
 1                    -3.39476  -0.25453   0.39225 
 1                    -3.98459  -0.49431  -1.54067 
 
 Add virtual bond connecting atoms H26        and O24        Dist= 2.71D+00.
 Add virtual bond connecting atoms O14        and H25        Dist= 2.78D+00.
 Add virtual bond connecting atoms H29        and O28        Dist= 2.78D+00.

 GradGradGradGradGradGradGradGradGradGradGradGradGradGradGradGradGradGrad
 Berny optimization.
 Initialization pass.
                           ----------------------------
                           !    Initial Parameters    !
                           ! (Angstroms and Degrees)  !
 --------------------------                            --------------------------
 ! Name  Definition              Value          Derivative Info.                !
 --------------------------------------------------------------------------------
 ! R1    R(1,2)                  1.0979         estimate D2E/DX2                !
 ! R2    R(2,6)                  1.4304         estimate D2E/DX2                !
 ! R3    R(2,7)                  1.5403         estimate D2E/DX2                !
 ! R4    R(2,11)                 1.5277         estimate D2E/DX2                !
 ! R5    R(3,5)                  1.5299         estimate D2E/DX2                !
 ! R6    R(3,7)                  1.5249         estimate D2E/DX2                !
 ! R7    R(3,15)                 1.1009         estimate D2E/DX2                !
 ! R8    R(3,20)                 1.4219         estimate D2E/DX2                !
 ! R9    R(4,5)                  1.5322         estimate D2E/DX2                !
 ! R10   R(4,8)                  1.1029         estimate D2E/DX2                !
 ! R11   R(4,14)                 1.2583         estimate D2E/DX2                !
 ! R12   R(5,9)                  1.0996         estimate D2E/DX2                !
 ! R13   R(5,18)                 1.4193         estimate D2E/DX2                !
 ! R14   R(6,26)                 1.0383         estimate D2E/DX2                !
 ! R15   R(7,10)                 1.0999         estimate D2E/DX2                !
 ! R16   R(7,22)                 1.423          estimate D2E/DX2                !
 ! R17   R(11,12)                1.0984         estimate D2E/DX2                !
 ! R18   R(11,13)                1.0981         estimate D2E/DX2                !
 ! R19   R(11,16)                1.4334         estimate D2E/DX2                !
 ! R20   R(14,25)                1.4732         estimate D2E/DX2                !
 ! R21   R(16,17)                0.9683         estimate D2E/DX2                !
 ! R22   R(18,19)                0.971          estimate D2E/DX2                !
 ! R23   R(20,21)                0.9732         estimate D2E/DX2                !
 ! R24   R(22,23)                0.9738         estimate D2E/DX2                !
 ! R25   R(24,26)                1.4358         estimate D2E/DX2                !
 ! R26   R(24,27)                0.9693         estimate D2E/DX2                !
 ! R27   R(24,29)                1.0271         estimate D2E/DX2                !
 ! R28   R(25,28)                1.0262         estimate D2E/DX2                !
 ! R29   R(28,29)                1.4693         estimate D2E/DX2                !
 ! R30   R(28,30)                0.9687         estimate D2E/DX2                !
 ! A1    A(1,2,6)              107.1781         estimate D2E/DX2                !
 ! A2    A(1,2,7)              106.5096         estimate D2E/DX2                !
 ! A3    A(1,2,11)             108.9415         estimate D2E/DX2                !
 ! A4    A(6,2,7)              109.5924         estimate D2E/DX2                !
 ! A5    A(6,2,11)             112.5409         estimate D2E/DX2                !
 ! A6    A(7,2,11)             111.7911         estimate D2E/DX2                !
 ! A7    A(5,3,7)              110.72           estimate D2E/DX2                !
 ! A8    A(5,3,15)             108.3819         estimate D2E/DX2                !
 ! A9    A(5,3,20)             106.8826         estimate D2E/DX2                !
 ! A10   A(7,3,15)             109.0215         estimate D2E/DX2                !
 ! A11   A(7,3,20)             111.4654         estimate D2E/DX2                !
 ! A12   A(15,3,20)            110.3125         estimate D2E/DX2                !
 ! A13   A(5,4,8)              112.7153         estimate D2E/DX2                !
 ! A14   A(5,4,14)             117.7055         estimate D2E/DX2                !
 ! A15   A(8,4,14)             120.9126         estimate D2E/DX2                !
 ! A16   A(3,5,4)              115.9277         estimate D2E/DX2                !
 ! A17   A(3,5,9)              106.7471         estimate D2E/DX2                !
 ! A18   A(3,5,18)             111.4432         estimate D2E/DX2                !
 ! A19   A(4,5,9)              104.6959         estimate D2E/DX2                !
 ! A20   A(4,5,18)             106.8788         estimate D2E/DX2                !
 ! A21   A(9,5,18)             110.9647         estimate D2E/DX2                !
 ! A22   A(2,6,26)             112.7392         estimate D2E/DX2                !
 ! A23   A(2,7,3)              109.5865         estimate D2E/DX2                !
 ! A24   A(2,7,10)             110.2225         estimate D2E/DX2                !
 ! A25   A(2,7,22)             110.2365         estimate D2E/DX2                !
 ! A26   A(3,7,10)             109.0147         estimate D2E/DX2                !
 ! A27   A(3,7,22)             107.4563         estimate D2E/DX2                !
 ! A28   A(10,7,22)            110.2698         estimate D2E/DX2                !
 ! A29   A(2,11,12)            110.6271         estimate D2E/DX2                !
 ! A30   A(2,11,13)            109.3045         estimate D2E/DX2                !
 ! A31   A(2,11,16)            105.3527         estimate D2E/DX2                !
 ! A32   A(12,11,13)           108.7528         estimate D2E/DX2                !
 ! A33   A(12,11,16)           111.209          estimate D2E/DX2                !
 ! A34   A(13,11,16)           111.5607         estimate D2E/DX2                !
 ! A35   A(4,14,25)            110.0612         estimate D2E/DX2                !
 ! A36   A(11,16,17)           108.5832         estimate D2E/DX2                !
 ! A37   A(5,18,19)            106.2698         estimate D2E/DX2                !
 ! A38   A(3,20,21)            105.6368         estimate D2E/DX2                !
 ! A39   A(7,22,23)            105.748          estimate D2E/DX2                !
 ! A40   A(26,24,27)           111.1263         estimate D2E/DX2                !
 ! A41   A(26,24,29)           103.3337         estimate D2E/DX2                !
 ! A42   A(27,24,29)           106.4313         estimate D2E/DX2                !
 ! A43   A(25,28,29)           100.4348         estimate D2E/DX2                !
 ! A44   A(25,28,30)           105.679          estimate D2E/DX2                !
 ! A45   A(29,28,30)           111.5236         estimate D2E/DX2                !
 ! A46   L(14,25,28,12,-1)     169.8649         estimate D2E/DX2                !
 ! A47   L(6,26,24,11,-1)      180.5652         estimate D2E/DX2                !
 ! A48   L(24,29,28,3,-1)      167.0429         estimate D2E/DX2                !
 ! A49   L(14,25,28,12,-2)     187.851          estimate D2E/DX2                !
 ! A50   L(6,26,24,11,-2)      172.5971         estimate D2E/DX2                !
 ! A51   L(24,29,28,3,-2)      179.0074         estimate D2E/DX2                !
 ! D1    D(1,2,6,26)            89.7541         estimate D2E/DX2                !
 ! D2    D(7,2,6,26)          -155.0474         estimate D2E/DX2                !
 ! D3    D(11,2,6,26)          -29.9925         estimate D2E/DX2                !
 ! D4    D(1,2,7,3)             85.2116         estimate D2E/DX2                !
 ! D5    D(1,2,7,10)          -154.8141         estimate D2E/DX2                !
 ! D6    D(1,2,7,22)           -32.8566         estimate D2E/DX2                !
 ! D7    D(6,2,7,3)            -30.4129         estimate D2E/DX2                !
 ! D8    D(6,2,7,10)            89.5614         estimate D2E/DX2                !
 ! D9    D(6,2,7,22)          -148.4811         estimate D2E/DX2                !
 ! D10   D(11,2,7,3)          -155.8996         estimate D2E/DX2                !
 ! D11   D(11,2,7,10)          -35.9253         estimate D2E/DX2                !
 ! D12   D(11,2,7,22)           86.0322         estimate D2E/DX2                !
 ! D13   D(1,2,11,12)          -60.6074         estimate D2E/DX2                !
 ! D14   D(1,2,11,13)          179.6686         estimate D2E/DX2                !
 ! D15   D(1,2,11,16)           59.6711         estimate D2E/DX2                !
 ! D16   D(6,2,11,12)           58.1118         estimate D2E/DX2                !
 ! D17   D(6,2,11,13)          -61.6122         estimate D2E/DX2                !
 ! D18   D(6,2,11,16)          178.3903         estimate D2E/DX2                !
 ! D19   D(7,2,11,12)         -178.0441         estimate D2E/DX2                !
 ! D20   D(7,2,11,13)           62.2319         estimate D2E/DX2                !
 ! D21   D(7,2,11,16)          -57.7656         estimate D2E/DX2                !
 ! D22   D(7,3,5,4)            -39.0961         estimate D2E/DX2                !
 ! D23   D(7,3,5,9)             77.0633         estimate D2E/DX2                !
 ! D24   D(7,3,5,18)          -161.6303         estimate D2E/DX2                !
 ! D25   D(15,3,5,4)            80.4352         estimate D2E/DX2                !
 ! D26   D(15,3,5,9)          -163.4055         estimate D2E/DX2                !
 ! D27   D(15,3,5,18)          -42.0991         estimate D2E/DX2                !
 ! D28   D(20,3,5,4)          -160.6746         estimate D2E/DX2                !
 ! D29   D(20,3,5,9)           -44.5153         estimate D2E/DX2                !
 ! D30   D(20,3,5,18)           76.7911         estimate D2E/DX2                !
 ! D31   D(5,3,7,2)             73.3604         estimate D2E/DX2                !
 ! D32   D(5,3,7,10)           -47.3495         estimate D2E/DX2                !
 ! D33   D(5,3,7,22)          -166.8541         estimate D2E/DX2                !
 ! D34   D(15,3,7,2)           -45.7856         estimate D2E/DX2                !
 ! D35   D(15,3,7,10)         -166.4954         estimate D2E/DX2                !
 ! D36   D(15,3,7,22)           73.9999         estimate D2E/DX2                !
 ! D37   D(20,3,7,2)          -167.799          estimate D2E/DX2                !
 ! D38   D(20,3,7,10)           71.4911         estimate D2E/DX2                !
 ! D39   D(20,3,7,22)          -48.0135         estimate D2E/DX2                !
 ! D40   D(5,3,20,21)          163.8728         estimate D2E/DX2                !
 ! D41   D(7,3,20,21)           42.7664         estimate D2E/DX2                !
 ! D42   D(15,3,20,21)         -78.4982         estimate D2E/DX2                !
 ! D43   D(8,4,5,3)           -114.6009         estimate D2E/DX2                !
 ! D44   D(8,4,5,9)            128.0933         estimate D2E/DX2                !
 ! D45   D(8,4,5,18)            10.3104         estimate D2E/DX2                !
 ! D46   D(14,4,5,3)            97.3089         estimate D2E/DX2                !
 ! D47   D(14,4,5,9)           -19.9969         estimate D2E/DX2                !
 ! D48   D(14,4,5,18)         -137.7798         estimate D2E/DX2                !
 ! D49   D(5,4,14,25)          168.4294         estimate D2E/DX2                !
 ! D50   D(8,4,14,25)           23.062          estimate D2E/DX2                !
 ! D51   D(3,5,18,19)          -55.2209         estimate D2E/DX2                !
 ! D52   D(4,5,18,19)          177.1843         estimate D2E/DX2                !
 ! D53   D(9,5,18,19)           63.5961         estimate D2E/DX2                !
 ! D54   D(2,6,24,27)         -140.5785         estimate D2E/DX2                !
 ! D55   D(2,6,24,29)          106.8047         estimate D2E/DX2                !
 ! D56   D(2,7,22,23)          -59.7997         estimate D2E/DX2                !
 ! D57   D(3,7,22,23)         -179.1704         estimate D2E/DX2                !
 ! D58   D(10,7,22,23)          62.1298         estimate D2E/DX2                !
 ! D59   D(2,11,16,17)         171.8546         estimate D2E/DX2                !
 ! D60   D(12,11,16,17)        -68.2508         estimate D2E/DX2                !
 ! D61   D(13,11,16,17)         53.3583         estimate D2E/DX2                !
 ! D62   D(4,14,28,29)          49.7415         estimate D2E/DX2                !
 ! D63   D(4,14,28,30)         163.8082         estimate D2E/DX2                !
 ! D64   D(26,24,28,25)         -7.5525         estimate D2E/DX2                !
 ! D65   D(26,24,28,30)       -117.3868         estimate D2E/DX2                !
 ! D66   D(27,24,28,25)       -122.2993         estimate D2E/DX2                !
 ! D67   D(27,24,28,30)        127.8665         estimate D2E/DX2                !
 --------------------------------------------------------------------------------
 Trust Radius=3.00D-01 FncErr=1.00D-07 GrdErr=1.00D-06
 Number of steps in this run=    158 maximum allowed number of steps=    180.
 GradGradGradGradGradGradGradGradGradGradGradGradGradGradGradGradGradGrad

                          Input orientation:                          
 ---------------------------------------------------------------------
 Center     Atomic      Atomic             Coordinates (Angstroms)
 Number     Number       Type             X           Y           Z
 ---------------------------------------------------------------------
      1          1           0        0.413302    1.630799    1.534670
      2          6           0        0.063378    1.154510    0.609456
      3          6           0        1.854709   -0.560480    0.259473
      4          6           0       -0.549671   -1.416215   -0.214448
      5          6           0        0.957009   -1.693382   -0.241660
      6          8           0       -0.625713   -0.041547    0.984496
      7          6           0        1.322893    0.792732   -0.200071
      8          1           0       -1.089742   -2.067175    0.493350
      9          1           0        1.194674   -1.839061   -1.305312
     10          1           0        1.083151    0.738257   -1.272170
     11          6           0       -0.833244    2.135026   -0.144644
     12          1           0       -1.706856    2.406524    0.463198
     13          1           0       -1.182007    1.666547   -1.074561
     14          8           0       -1.093010   -1.030986   -1.282007
     15          1           0        1.865325   -0.586896    1.360051
     16          8           0       -0.008984    3.277916   -0.407512
     17          1           0       -0.490717    3.876935   -0.996261
     18          8           0        1.169601   -2.888154    0.494463
     19          1           0        2.119534   -3.079887    0.433456
     20          8           0        3.157711   -0.808715   -0.252829
     21          1           0        3.642767    0.029107   -0.153176
     22          8           0        2.347327    1.753731    0.027796
     23          1           0        1.977902    2.607303   -0.260696
     24          8           0       -3.067095    0.230485    1.236232
     25          1           0       -2.559409   -1.081191   -1.149436
     26          1           0       -1.638559    0.114341    1.151324
     27          1           0       -3.413908   -0.268568    1.991326
     28          8           0       -3.540504   -1.016008   -0.855845
     29          1           0       -3.394757   -0.254526    0.392252
     30          1           0       -3.984587   -0.494305   -1.540673
 ---------------------------------------------------------------------
                    Distance matrix (angstroms):
                    1          2          3          4          5
     1  H    0.000000
     2  C    1.097870   0.000000
     3  C    2.916416   2.504505   0.000000
     4  C    3.642942   2.768262   2.595752   0.000000
     5  C    3.808037   3.103782   1.529858   1.532203   0.000000
     6  O    2.044257   1.430403   2.635800   1.825640   2.595578
     7  C    2.130502   1.540323   1.524858   2.895885   2.513238
     8  H    4.125349   3.423802   3.315814   1.102907   2.206615
     9  H    4.551480   3.729294   2.125786   2.100362   1.099574
    10  H    3.020543   2.180303   2.151267   2.902866   2.643999
    11  C    2.151329   1.527747   3.828075   3.563229   4.227425
    12  H    2.498974   2.173168   4.639974   4.051125   4.939861
    13  H    3.058492   2.156172   3.995115   3.262371   4.069181
    14  O    4.157853   3.113079   3.359551   1.258293   2.392419
    15  H    2.656508   2.615894   1.100946   2.999837   2.148215
    16  O    2.581354   2.355486   4.318739   4.729110   5.066996
    17  H    3.502569   3.208886   5.173833   5.350901   5.804633
    18  O    4.698399   4.192861   2.437757   2.371720   1.419349
    19  H    5.129762   4.710506   2.539255   3.211268   1.931228
    20  O    4.083891   3.764663   1.421931   3.757022   2.371887
    21  H    3.980413   3.828860   1.927445   4.435002   3.191879
    22  O    2.454839   2.431834   2.377377   4.301144   3.726685
    23  H    2.573883   2.556007   3.212569   4.751785   4.420235
    24  O    3.763390   3.323632   5.079748   3.339688   4.698813
    25  H    4.836975   3.869247   4.662682   2.241761   3.682938
    26  H    2.580064   2.066921   3.667929   2.322415   3.456189
    27  H    4.296937   4.003278   5.553634   3.792939   5.110894
    28  O    5.324728   4.454910   5.528089   3.084905   4.589519
    29  H    4.400100   3.740489   5.260051   3.132430   4.627096
    30  H    5.771935   4.871105   6.110833   3.795713   5.248294
                    6          7          8          9         10
     6  O    0.000000
     7  C    2.428227   0.000000
     8  H    2.135349   3.805353   0.000000
     9  H    3.433378   2.857330   2.916467   0.000000
    10  H    2.936129   1.099927   3.963455   2.579943   0.000000
    11  C    2.460792   2.540424   4.258089   4.610094   2.625804
    12  H    2.726476   3.496231   4.516162   5.437968   3.684936
    13  H    2.732538   2.793351   4.050622   4.241597   2.455954
    14  O    2.516822   3.214517   2.055624   2.426320   2.804638
    15  H    2.577541   2.152112   3.416843   3.020240   3.049002
    16  O    3.651969   2.827201   5.527168   5.332756   2.896595
    17  H    4.392735   3.665434   6.157127   5.967300   3.522000
    18  O    3.400949   3.748973   2.403880   2.083366   4.034764
    19  H    4.131772   4.004144   3.365802   2.327731   4.308303
    20  O    4.053864   2.435975   4.492367   2.454149   2.781363
    21  H    4.418055   2.442773   5.216228   3.287952   2.882130
    22  O    3.602397   1.422992   5.160379   4.001742   2.078278
    23  H    3.917361   1.930124   5.641788   4.634093   2.305860
    24  O    2.469356   4.653072   3.121064   5.376350   4.875906
    25  H    3.061651   4.414199   2.414711   3.832989   4.073536
    26  H    1.038263   3.325159   2.343745   4.228244   3.697337
    27  H    2.973092   5.325961   3.298586   5.879906   5.646914
    28  O    3.582239   5.230125   2.988564   4.827147   4.962757
    29  H    2.839669   4.868657   2.934112   5.143477   4.879301
    30  H    4.226524   5.623435   3.871860   5.356165   5.222382
                   11         12         13         14         15
    11  C    0.000000
    12  H    1.098354   0.000000
    13  H    1.098114   1.785423   0.000000
    14  O    3.374123   3.903719   2.706961   0.000000
    15  H    4.117674   4.746092   4.504617   3.991169   0.000000
    16  O    1.433423   2.097672   2.101772   4.528409   4.644791
    17  H    1.968965   2.402316   2.317289   4.952989   5.570362
    18  O    5.445382   6.025662   5.360709   3.424080   2.555203
    19  H    6.020666   6.689010   5.975192   4.178666   2.671742
    20  O    4.960346   5.874902   5.063133   4.379183   2.078665
    21  H    4.946680   5.886467   5.177703   4.982534   2.414253
    22  O    3.207983   4.129420   3.698512   4.615859   2.736012
    23  H    2.852903   3.760555   3.395942   4.869366   3.583630
    24  O    3.244100   2.680108   3.309924   3.439455   5.001221
    25  H    3.785935   3.935936   3.074558   1.473235   5.110785
    26  H    2.532041   2.394219   2.751790   2.744175   3.579456
    27  H    4.123040   3.522119   4.257431   4.084429   5.326363
    28  O    4.214745   4.100715   3.578610   2.484364   5.858099
    29  H    3.543948   3.152020   3.276938   2.950267   5.358691
    30  H    4.335117   4.197424   3.569453   2.952313   6.530256
                   16         17         18         19         20
    16  O    0.000000
    17  H    0.968254   0.000000
    18  O    6.342164   7.123577   0.000000
    19  H    6.757180   7.566695   0.971008   0.000000
    20  O    5.172276   5.984900   2.972388   2.589792   0.000000
    21  H    4.894357   5.709839   3.878969   3.511441   0.973219
    22  O    2.839865   3.689334   4.811643   4.855956   2.702148
    23  H    2.102140   2.871777   5.605681   5.731146   3.614027
    24  O    4.619607   4.991828   5.312789   6.205170   6.484246
    25  H    5.104599   5.374566   4.457918   5.328493   5.793411
    26  H    3.885060   4.481827   4.163197   4.984144   5.082114
    27  H    5.470419   5.886928   5.487384   6.399176   6.965211
    28  O    5.577671   5.767305   5.245317   6.161000   6.728498
    29  H    4.957946   5.237403   5.270655   6.196109   6.607427
    30  H    5.596349   5.622388   6.036385   6.916843   7.264284
                   21         22         23         24         25
    21  H    0.000000
    22  O    2.164542   0.000000
    23  H    3.070901   0.973801   0.000000
    24  O    6.855163   5.752961   5.774258   0.000000
    25  H    6.379050   5.787808   5.914562   2.769413   0.000000
    26  H    5.440716   4.453897   4.613832   1.435762   2.751501
    27  H    7.381339   6.413811   6.512592   0.969278   3.354834
    28  O    7.292832   6.566493   6.628378   2.480856   1.026154
    29  H    7.064325   6.094051   6.122244   1.027083   1.938552
    30  H    7.770176   6.899775   6.841753   3.013024   1.590168
                   26         27         28         29         30
    26  H    0.000000
    27  H    2.001021   0.000000
    28  O    2.987275   2.946367   0.000000
    29  H    1.948457   1.599250   1.469300   0.000000
    30  H    3.622312   3.584920   0.968697   2.035090   0.000000
 Stoichiometry    C6H16O8
 Framework group  C1[X(C6H16O8)]
 Deg. of freedom    84
 Full point group                 C1      NOp   1
 Largest Abelian subgroup         C1      NOp   1
 Largest concise Abelian subgroup C1      NOp   1
                         Standard orientation:                         
 ---------------------------------------------------------------------
 Center     Atomic      Atomic             Coordinates (Angstroms)
 Number     Number       Type             X           Y           Z
 ---------------------------------------------------------------------
      1          1           0        0.443572    1.624329    1.525961
      2          6           0        0.093608    1.143128    0.603308
      3          6           0        1.885806   -0.572598    0.261461
      4          6           0       -0.518242   -1.432115   -0.207269
      5          6           0        0.988588   -1.708554   -0.233582
      6          8           0       -0.594668   -0.051396    0.984676
      7          6           0        1.353057    0.777949   -0.204795
      8          1           0       -1.057699   -2.079767    0.504023
      9          1           0        1.225976   -1.859519   -1.296559
     10          1           0        1.112983    0.717871   -1.276520
     11          6           0       -0.803833    2.119272   -0.155476
     12          1           0       -1.677395    2.393365    0.451272
     13          1           0       -1.152641    1.645858   -1.082873
     14          8           0       -1.062164   -1.052646   -1.276593
     15          1           0        1.896810   -0.593395    1.362156
     16          8           0        0.019681    3.261279   -0.424449
     17          1           0       -0.462595    3.857012   -1.016080
     18          8           0        1.202116   -2.899435    0.508551
     19          1           0        2.152138   -3.090932    0.448197
     20          8           0        3.188777   -0.822695   -0.250013
     21          1           0        3.673385    0.015902   -0.154799
     22          8           0        2.377015    1.740684    0.017820
     23          1           0        2.007002    2.592562   -0.274895
     24          8           0       -3.036121    0.220517    1.235856
     25          1           0       -2.528489   -1.103015   -1.143266
     26          1           0       -1.607547    0.104760    1.151053
     27          1           0       -3.382391   -0.274878    1.993603
     28          8           0       -3.509522   -1.036898   -0.849676
     29          1           0       -3.363790   -0.268979    0.394472
     30          1           0       -3.954136   -0.518948   -1.537004
 ---------------------------------------------------------------------
 Rotational constants (GHZ):      0.7164863      0.5456634      0.3592796
 Standard basis: 6-31G(d) (6D, 7F)
 There are   242 symmetry adapted cartesian basis functions of A   symmetry.
 There are   242 symmetry adapted basis functions of A   symmetry.
   242 basis functions,   456 primitive gaussians,   242 cartesian basis functions
    58 alpha electrons       58 beta electrons
       nuclear repulsion energy      1110.6716735793 Hartrees.
 NAtoms=   30 NActive=   30 NUniq=   30 SFac= 1.00D+00 NAtFMM=   60 NAOKFM=F Big=F
 Integral buffers will be    131072 words long.
 Raffenetti 2 integral format.
 Two-electron integral symmetry is turned on.
 One-electron integrals computed using PRISM.
 NBasis=   242 RedAO= T EigKep=  1.42D-03  NBF=   242
 NBsUse=   242 1.00D-06 EigRej= -1.00D+00 NBFU=   242
 ExpMin= 1.61D-01 ExpMax= 5.48D+03 ExpMxC= 8.25D+02 IAcc=1 IRadAn=         1 AccDes= 0.00D+00
 Harris functional with IExCor=  402 and IRadAn=       1 diagonalized for initial guess.
 HarFok:  IExCor=  402 AccDes= 0.00D+00 IRadAn=         1 IDoV= 1 UseB2=F ITyADJ=14
 ICtDFT=  3500011 ScaDFX=  1.000000  1.000000  1.000000  1.000000
 FoFCou: FMM=F IPFlag=           0 FMFlag=      100000 FMFlg1=           0
         NFxFlg=           0 DoJE=T BraDBF=F KetDBF=T FulRan=T
         wScrn=  0.000000 ICntrl=     500 IOpCl=  0 I1Cent=   200000004 NGrid=           0
         NMat0=    1 NMatS0=      1 NMatT0=    0 NMatD0=    1 NMtDS0=    0 NMtDT0=    0
 Petite list used in FoFCou.
 Requested convergence on RMS density matrix=1.00D-08 within 128 cycles.
 Requested convergence on MAX density matrix=1.00D-06.
 Requested convergence on             energy=1.00D-06.
 No special actions if energy rises.
 Integral accuracy reduced to 1.0D-05 until final iterations.
 Initial convergence to 1.0D-05 achieved.  Increase integral accuracy.
 SCF Done:  E(RB3LYP) =  -839.970537608     A.U. after   14 cycles
            NFock= 14  Conv=0.45D-08     -V/T= 2.0083

 **********************************************************************

            Population analysis using the SCF density.

 **********************************************************************

 Orbital symmetries:
       Occupied  (A) (A) (A) (A) (A) (A) (A) (A) (A) (A) (A) (A)
                 (A) (A) (A) (A) (A) (A) (A) (A) (A) (A) (A) (A)
                 (A) (A) (A) (A) (A) (A) (A) (A) (A) (A) (A) (A)
                 (A) (A) (A) (A) (A) (A) (A) (A) (A) (A) (A) (A)
                 (A) (A) (A) (A) (A) (A) (A) (A) (A) (A)
       Virtual   (A) (A) (A) (A) (A) (A) (A) (A) (A) (A) (A) (A)
                 (A) (A) (A) (A) (A) (A) (A) (A) (A) (A) (A) (A)
                 (A) (A) (A) (A) (A) (A) (A) (A) (A) (A) (A) (A)
                 (A) (A) (A) (A) (A) (A) (A) (A) (A) (A) (A) (A)
                 (A) (A) (A) (A) (A) (A) (A) (A) (A) (A) (A) (A)
                 (A) (A) (A) (A) (A) (A) (A) (A) (A) (A) (A) (A)
                 (A) (A) (A) (A) (A) (A) (A) (A) (A) (A) (A) (A)
                 (A) (A) (A) (A) (A) (A) (A) (A) (A) (A) (A) (A)
                 (A) (A) (A) (A) (A) (A) (A) (A) (A) (A) (A) (A)
                 (A) (A) (A) (A) (A) (A) (A) (A) (A) (A) (A) (A)
                 (A) (A) (A) (A) (A) (A) (A) (A) (A) (A) (A) (A)
                 (A) (A) (A) (A) (A) (A) (A) (A) (A) (A) (A) (A)
                 (A) (A) (A) (A) (A) (A) (A) (A) (A) (A) (A) (A)
                 (A) (A) (A) (A) (A) (A) (A) (A) (A) (A) (A) (A)
                 (A) (A) (A) (A) (A) (A) (A) (A) (A) (A) (A) (A)
                 (A) (A) (A) (A)
 The electronic state is 1-A.
 Alpha  occ. eigenvalues --  -19.17398 -19.17321 -19.15653 -19.14744 -19.14023
 Alpha  occ. eigenvalues --  -19.13954 -19.13877 -19.11356 -10.27980 -10.24826
 Alpha  occ. eigenvalues --  -10.24549 -10.23655 -10.22987 -10.22901  -1.06094
 Alpha  occ. eigenvalues --   -1.04228  -1.03242  -1.02026  -1.01790  -1.01023
 Alpha  occ. eigenvalues --   -0.99940  -0.98275  -0.78318  -0.75275  -0.68883
 Alpha  occ. eigenvalues --   -0.63471  -0.61568  -0.56675  -0.55168  -0.54675
 Alpha  occ. eigenvalues --   -0.54412  -0.53203  -0.51707  -0.50100  -0.48580
 Alpha  occ. eigenvalues --   -0.46783  -0.45623  -0.44273  -0.43392  -0.42547
 Alpha  occ. eigenvalues --   -0.41848  -0.41624  -0.40754  -0.38532  -0.38197
 Alpha  occ. eigenvalues --   -0.36306  -0.35244  -0.34150  -0.34063  -0.32406
 Alpha  occ. eigenvalues --   -0.31323  -0.30330  -0.29465  -0.27745  -0.26737
 Alpha  occ. eigenvalues --   -0.26266  -0.26009  -0.24259
 Alpha virt. eigenvalues --    0.02598   0.04669   0.05859   0.08692   0.09477
 Alpha virt. eigenvalues --    0.10992   0.11598   0.12675   0.13839   0.14473
 Alpha virt. eigenvalues --    0.15194   0.16665   0.17261   0.17946   0.19349
 Alpha virt. eigenvalues --    0.20124   0.21386   0.22065   0.24169   0.26417
 Alpha virt. eigenvalues --    0.26907   0.28266   0.29056   0.30630   0.31034
 Alpha virt. eigenvalues --    0.32408   0.32981   0.37915   0.51655   0.52524
 Alpha virt. eigenvalues --    0.55108   0.55708   0.58702   0.59842   0.60334
 Alpha virt. eigenvalues --    0.61440   0.63153   0.65706   0.66179   0.68053
 Alpha virt. eigenvalues --    0.69512   0.70402   0.72072   0.73657   0.73810
 Alpha virt. eigenvalues --    0.75342   0.77197   0.78109   0.80137   0.80845
 Alpha virt. eigenvalues --    0.81740   0.82464   0.83501   0.85426   0.85559
 Alpha virt. eigenvalues --    0.86019   0.86508   0.87476   0.89653   0.90105
 Alpha virt. eigenvalues --    0.92125   0.92237   0.93888   0.95264   0.96016
 Alpha virt. eigenvalues --    0.97081   0.98745   1.00034   1.02218   1.02920
 Alpha virt. eigenvalues --    1.04227   1.05849   1.06833   1.07768   1.08484
 Alpha virt. eigenvalues --    1.09084   1.12591   1.14521   1.14975   1.15873
 Alpha virt. eigenvalues --    1.17628   1.20763   1.21936   1.26206   1.27594
 Alpha virt. eigenvalues --    1.28884   1.32304   1.33393   1.36965   1.39440
 Alpha virt. eigenvalues --    1.41156   1.42415   1.44028   1.48155   1.52980
 Alpha virt. eigenvalues --    1.53721   1.56169   1.57219   1.59279   1.61024
 Alpha virt. eigenvalues --    1.62530   1.64931   1.66161   1.67889   1.69705
 Alpha virt. eigenvalues --    1.70875   1.71333   1.72523   1.73308   1.74539
 Alpha virt. eigenvalues --    1.76479   1.76727   1.77228   1.80078   1.80844
 Alpha virt. eigenvalues --    1.81745   1.82909   1.85653   1.85981   1.87551
 Alpha virt. eigenvalues --    1.88768   1.89280   1.91324   1.93392   1.95235
 Alpha virt. eigenvalues --    1.97442   2.00904   2.03289   2.05010   2.05571
 Alpha virt. eigenvalues --    2.05727   2.09520   2.11556   2.12423   2.15308
 Alpha virt. eigenvalues --    2.19029   2.22638   2.23591   2.27062   2.30092
 Alpha virt. eigenvalues --    2.33218   2.35148   2.37538   2.39384   2.41361
 Alpha virt. eigenvalues --    2.42641   2.45658   2.49786   2.50312   2.51745
 Alpha virt. eigenvalues --    2.54084   2.55353   2.57503   2.59515   2.61681
 Alpha virt. eigenvalues --    2.63551   2.66708   2.68858   2.69396   2.75044
 Alpha virt. eigenvalues --    2.77068   2.77351   2.81946   2.87134   2.90061
 Alpha virt. eigenvalues --    2.95992   2.97233   3.01672   3.05620   3.10832
 Alpha virt. eigenvalues --    3.74647   3.78358   3.78616   3.87052   3.89255
 Alpha virt. eigenvalues --    3.97111   4.04151   4.17159   4.25445   4.35622
 Alpha virt. eigenvalues --    4.45507   4.49966   4.67108   4.79995
          Condensed to atoms (all electrons):
               1          2          3          4          5          6
     1  H    0.600867   0.365108  -0.006975   0.001086   0.000380  -0.032431
     2  C    0.365108   4.944824  -0.030192  -0.006554  -0.012316   0.152179
     3  C   -0.006975  -0.030192   4.943504  -0.027321   0.327416  -0.006609
     4  C    0.001086  -0.006554  -0.027321   4.786234   0.302964   0.032025
     5  C    0.000380  -0.012316   0.327416   0.302964   4.964040  -0.014245
     6  O   -0.032431   0.152179  -0.006609   0.032025  -0.014245   8.582516
     7  C   -0.048778   0.297926   0.284907  -0.003528  -0.019643  -0.029048
     8  H   -0.000174   0.003373   0.002252   0.343471  -0.073556  -0.028994
     9  H    0.000016   0.000819  -0.039553  -0.059237   0.348005   0.001982
    10  H    0.006870  -0.056153  -0.050392  -0.001168  -0.006326   0.002471
    11  C   -0.053795   0.350835   0.003638  -0.000603  -0.000178  -0.025401
    12  H   -0.006649  -0.035598  -0.000077  -0.000110  -0.000020   0.000595
    13  H    0.005821  -0.029479  -0.000261   0.000806  -0.000027  -0.000209
    14  O   -0.000141   0.006811  -0.000671   0.362693  -0.050495  -0.052471
    15  H    0.003672  -0.001447   0.348507  -0.002547  -0.048266   0.003116
    16  O    0.004153  -0.048741   0.000220   0.000017  -0.000002   0.001206
    17  H   -0.000225   0.005490   0.000005  -0.000001   0.000000  -0.000082
    18  O    0.000005   0.000042  -0.033357  -0.032162   0.214268   0.000424
    19  H   -0.000002  -0.000021  -0.007093   0.006786  -0.025546  -0.000121
    20  O   -0.000079   0.002929   0.231255   0.002796  -0.044071   0.000063
    21  H    0.000018   0.000779  -0.030037  -0.000226   0.006251  -0.000023
    22  O    0.005979  -0.041862  -0.032968   0.000101   0.001965   0.001473
    23  H    0.000500  -0.005114   0.005262   0.000006  -0.000167  -0.000001
    24  O    0.000019   0.001583   0.000000   0.002376   0.000076  -0.076676
    25  H    0.000005  -0.000198  -0.000034  -0.014023   0.002079   0.001904
    26  H   -0.002065  -0.008955   0.000338  -0.000693   0.001334   0.141339
    27  H    0.000004   0.000020  -0.000000  -0.000007   0.000004   0.003402
    28  O   -0.000000  -0.000015  -0.000000   0.008587  -0.000120  -0.000724
    29  H    0.000009  -0.000275  -0.000002   0.000472   0.000059   0.005655
    30  H   -0.000000  -0.000005   0.000000  -0.000388  -0.000001  -0.000005
               7          8          9         10         11         12
     1  H   -0.048778  -0.000174   0.000016   0.006870  -0.053795  -0.006649
     2  C    0.297926   0.003373   0.000819  -0.056153   0.350835  -0.035598
     3  C    0.284907   0.002252  -0.039553  -0.050392   0.003638  -0.000077
     4  C   -0.003528   0.343471  -0.059237  -0.001168  -0.000603  -0.000110
     5  C   -0.019643  -0.073556   0.348005  -0.006326  -0.000178  -0.000020
     6  O   -0.029048  -0.028994   0.001982   0.002471  -0.025401   0.000595
     7  C    5.020998   0.000474  -0.004715   0.356299  -0.034031   0.005786
     8  H    0.000474   0.656250   0.005411   0.000256  -0.000144   0.000007
     9  H   -0.004715   0.005411   0.615037   0.006976   0.000026  -0.000000
    10  H    0.356299   0.000256   0.006976   0.629954  -0.006352   0.000197
    11  C   -0.034031  -0.000144   0.000026  -0.006352   4.965273   0.360005
    12  H    0.005786   0.000007  -0.000000   0.000197   0.360005   0.594281
    13  H   -0.012353   0.000117   0.000020   0.004623   0.353306  -0.047784
    14  O    0.000968  -0.048445   0.006548   0.005799  -0.003443   0.000120
    15  H   -0.056119   0.000087   0.007760   0.007416   0.000288   0.000006
    16  O    0.008115   0.000000  -0.000000   0.000808   0.206332  -0.033275
    17  H   -0.000018  -0.000000   0.000000  -0.000077  -0.019248  -0.002258
    18  O    0.004220   0.010099  -0.037209   0.000032  -0.000001  -0.000000
    19  H    0.000458  -0.000651  -0.003896  -0.000024   0.000000  -0.000000
    20  O   -0.028913  -0.000080  -0.000026   0.000199  -0.000043   0.000000
    21  H   -0.015608   0.000007  -0.000069   0.000495  -0.000018   0.000000
    22  O    0.212445   0.000002  -0.000143  -0.040287  -0.000282  -0.000212
    23  H   -0.023398  -0.000000   0.000008  -0.003017  -0.003072   0.000228
    24  O   -0.000097   0.001825   0.000001   0.000005  -0.001034   0.005423
    25  H   -0.000039  -0.007504  -0.000026  -0.000038   0.000205  -0.000045
    26  H    0.002356  -0.000470  -0.000080  -0.000250  -0.000875   0.002299
    27  H    0.000003   0.000296  -0.000000  -0.000000   0.000011  -0.000032
    28  O    0.000001   0.003936   0.000003   0.000003  -0.000156   0.000015
    29  H    0.000016  -0.000742  -0.000001  -0.000003   0.000114   0.000276
    30  H   -0.000000  -0.000147  -0.000001  -0.000001   0.000021  -0.000018
              13         14         15         16         17         18
     1  H    0.005821  -0.000141   0.003672   0.004153  -0.000225   0.000005
     2  C   -0.029479   0.006811  -0.001447  -0.048741   0.005490   0.000042
     3  C   -0.000261  -0.000671   0.348507   0.000220   0.000005  -0.033357
     4  C    0.000806   0.362693  -0.002547   0.000017  -0.000001  -0.032162
     5  C   -0.000027  -0.050495  -0.048266  -0.000002   0.000000   0.214268
     6  O   -0.000209  -0.052471   0.003116   0.001206  -0.000082   0.000424
     7  C   -0.012353   0.000968  -0.056119   0.008115  -0.000018   0.004220
     8  H    0.000117  -0.048445   0.000087   0.000000  -0.000000   0.010099
     9  H    0.000020   0.006548   0.007760  -0.000000   0.000000  -0.037209
    10  H    0.004623   0.005799   0.007416   0.000808  -0.000077   0.000032
    11  C    0.353306  -0.003443   0.000288   0.206332  -0.019248  -0.000001
    12  H   -0.047784   0.000120   0.000006  -0.033275  -0.002258  -0.000000
    13  H    0.594683   0.008730   0.000011  -0.031020  -0.005018   0.000000
    14  O    0.008730   8.293051   0.000052   0.000019  -0.000002   0.000855
    15  H    0.000011   0.000052   0.648991  -0.000010   0.000001   0.002539
    16  O   -0.031020   0.000019  -0.000010   8.270871   0.236152   0.000000
    17  H   -0.005018  -0.000002   0.000001   0.236152   0.377435  -0.000000
    18  O    0.000000   0.000855   0.002539   0.000000  -0.000000   8.282315
    19  H    0.000000  -0.000132  -0.000496   0.000000  -0.000000   0.237040
    20  O   -0.000001  -0.000022  -0.046063  -0.000000   0.000000  -0.000921
    21  H   -0.000001   0.000003  -0.000373   0.000004  -0.000000  -0.000113
    22  O    0.000125   0.000017  -0.000643  -0.009571   0.000433  -0.000011
    23  H    0.000370   0.000000  -0.000250   0.033459  -0.001104   0.000001
    24  O   -0.000039  -0.001335   0.000003   0.000014   0.000001  -0.000000
    25  H    0.000104   0.107020   0.000002  -0.000001   0.000000  -0.000046
    26  H   -0.000122   0.004586  -0.000113  -0.000041  -0.000002  -0.000043
    27  H    0.000008   0.000015  -0.000000  -0.000001  -0.000000  -0.000000
    28  O    0.000661  -0.072919  -0.000000   0.000000   0.000000   0.000001
    29  H    0.000205   0.002715  -0.000000   0.000001  -0.000000  -0.000000
    30  H    0.000139   0.003326   0.000000  -0.000000  -0.000000  -0.000000
              19         20         21         22         23         24
     1  H   -0.000002  -0.000079   0.000018   0.005979   0.000500   0.000019
     2  C   -0.000021   0.002929   0.000779  -0.041862  -0.005114   0.001583
     3  C   -0.007093   0.231255  -0.030037  -0.032968   0.005262   0.000000
     4  C    0.006786   0.002796  -0.000226   0.000101   0.000006   0.002376
     5  C   -0.025546  -0.044071   0.006251   0.001965  -0.000167   0.000076
     6  O   -0.000121   0.000063  -0.000023   0.001473  -0.000001  -0.076676
     7  C    0.000458  -0.028913  -0.015608   0.212445  -0.023398  -0.000097
     8  H   -0.000651  -0.000080   0.000007   0.000002  -0.000000   0.001825
     9  H   -0.003896  -0.000026  -0.000069  -0.000143   0.000008   0.000001
    10  H   -0.000024   0.000199   0.000495  -0.040287  -0.003017   0.000005
    11  C    0.000000  -0.000043  -0.000018  -0.000282  -0.003072  -0.001034
    12  H   -0.000000   0.000000   0.000000  -0.000212   0.000228   0.005423
    13  H    0.000000  -0.000001  -0.000001   0.000125   0.000370  -0.000039
    14  O   -0.000132  -0.000022   0.000003   0.000017   0.000000  -0.001335
    15  H   -0.000496  -0.046063  -0.000373  -0.000643  -0.000250   0.000003
    16  O    0.000000  -0.000000   0.000004  -0.009571   0.033459   0.000014
    17  H   -0.000000   0.000000  -0.000000   0.000433  -0.001104   0.000001
    18  O    0.237040  -0.000921  -0.000113  -0.000011   0.000001  -0.000000
    19  H    0.377766   0.008999  -0.000316  -0.000001   0.000000  -0.000000
    20  O    0.008999   8.309650   0.235758  -0.007897   0.000180   0.000000
    21  H   -0.000316   0.235758   0.361123   0.027428  -0.000725  -0.000000
    22  O   -0.000001  -0.007897   0.027428   8.324574   0.231586   0.000000
    23  H    0.000000   0.000180  -0.000725   0.231586   0.343538  -0.000000
    24  O   -0.000000   0.000000  -0.000000   0.000000  -0.000000   8.451050
    25  H    0.000003   0.000000  -0.000000  -0.000000   0.000000   0.005897
    26  H    0.000004   0.000001   0.000000  -0.000028  -0.000000   0.118002
    27  H    0.000000  -0.000000   0.000000  -0.000000   0.000000   0.236146
    28  O   -0.000000  -0.000000   0.000000   0.000000  -0.000000  -0.075368
    29  H    0.000000   0.000000   0.000000  -0.000000   0.000000   0.164519
    30  H    0.000000   0.000000  -0.000000  -0.000000   0.000000   0.003256
              25         26         27         28         29         30
     1  H    0.000005  -0.002065   0.000004  -0.000000   0.000009  -0.000000
     2  C   -0.000198  -0.008955   0.000020  -0.000015  -0.000275  -0.000005
     3  C   -0.000034   0.000338  -0.000000  -0.000000  -0.000002   0.000000
     4  C   -0.014023  -0.000693  -0.000007   0.008587   0.000472  -0.000388
     5  C    0.002079   0.001334   0.000004  -0.000120   0.000059  -0.000001
     6  O    0.001904   0.141339   0.003402  -0.000724   0.005655  -0.000005
     7  C   -0.000039   0.002356   0.000003   0.000001   0.000016  -0.000000
     8  H   -0.007504  -0.000470   0.000296   0.003936  -0.000742  -0.000147
     9  H   -0.000026  -0.000080  -0.000000   0.000003  -0.000001  -0.000001
    10  H   -0.000038  -0.000250  -0.000000   0.000003  -0.000003  -0.000001
    11  C    0.000205  -0.000875   0.000011  -0.000156   0.000114   0.000021
    12  H   -0.000045   0.002299  -0.000032   0.000015   0.000276  -0.000018
    13  H    0.000104  -0.000122   0.000008   0.000661   0.000205   0.000139
    14  O    0.107020   0.004586   0.000015  -0.072919   0.002715   0.003326
    15  H    0.000002  -0.000113  -0.000000  -0.000000  -0.000000   0.000000
    16  O   -0.000001  -0.000041  -0.000001   0.000000   0.000001  -0.000000
    17  H    0.000000  -0.000002  -0.000000   0.000000  -0.000000  -0.000000
    18  O   -0.000046  -0.000043  -0.000000   0.000001  -0.000000  -0.000000
    19  H    0.000003   0.000004   0.000000  -0.000000   0.000000   0.000000
    20  O    0.000000   0.000001  -0.000000  -0.000000   0.000000   0.000000
    21  H   -0.000000   0.000000   0.000000   0.000000   0.000000  -0.000000
    22  O   -0.000000  -0.000028  -0.000000   0.000000  -0.000000  -0.000000
    23  H    0.000000  -0.000000   0.000000  -0.000000   0.000000   0.000000
    24  O    0.005897   0.118002   0.236146  -0.075368   0.164519   0.003256
    25  H    0.311111  -0.000428  -0.000253   0.159308  -0.009966  -0.006476
    26  H   -0.000428   0.281098  -0.005444   0.002607  -0.008180   0.000010
    27  H   -0.000253  -0.005444   0.365590   0.003106  -0.007565  -0.000112
    28  O    0.159308   0.002607   0.003106   8.461978   0.112428   0.233647
    29  H   -0.009966  -0.008180  -0.007565   0.112428   0.299836  -0.006163
    30  H   -0.006476   0.000010  -0.000112   0.233647  -0.006163   0.378715
 Mulliken charges:
               1
     1  H    0.156801
     2  C    0.144205
     3  C    0.118237
     4  C    0.298148
     5  C    0.126138
     6  O   -0.663312
     7  C    0.081318
     8  H    0.133043
     9  H    0.152343
    10  H    0.141685
    11  C   -0.091378
    12  H    0.156840
    13  H    0.156587
    14  O   -0.573251
    15  H    0.133879
    16  O   -0.638709
    17  H    0.408518
    18  O   -0.647980
    19  H    0.407242
    20  O   -0.663714
    21  H    0.415641
    22  O   -0.672224
    23  H    0.421710
    24  O   -0.835648
    25  H    0.451437
    26  H    0.473813
    27  H    0.404810
    28  O   -0.836977
    29  H    0.446592
    30  H    0.394206
 Sum of Mulliken charges =  -0.00000
 Mulliken charges with hydrogens summed into heavy atoms:
               1
     2  C    0.301006
     3  C    0.252116
     4  C    0.431191
     5  C    0.278481
     6  O   -0.189499
     7  C    0.223004
    11  C    0.222048
    14  O   -0.573251
    16  O   -0.230190
    18  O   -0.240738
    20  O   -0.248073
    22  O   -0.250514
    24  O    0.015753
    28  O    0.008667
 Electronic spatial extent (au):  <R**2>=           3163.7525
 Charge=             -0.0000 electrons
 Dipole moment (field-independent basis, Debye):
    X=             -2.3747    Y=              3.5720    Z=             -0.0999  Tot=              4.2905
 Quadrupole moment (field-independent basis, Debye-Ang):
   XX=            -79.0396   YY=            -80.6352   ZZ=            -79.8839
   XY=             -5.1139   XZ=             -0.1435   YZ=             -7.6182
 Traceless Quadrupole moment (field-independent basis, Debye-Ang):
   XX=              0.8133   YY=             -0.7823   ZZ=             -0.0310
   XY=             -5.1139   XZ=             -0.1435   YZ=             -7.6182
 Octapole moment (field-independent basis, Debye-Ang**2):
  XXX=            -34.7689  YYY=             47.0946  ZZZ=              5.3332  XYY=              0.4663
  XXY=              4.0829  XXZ=              1.8665  XZZ=            -25.3616  YZZ=              7.8826
  YYZ=            -21.0454  XYZ=             10.5017
 Hexadecapole moment (field-independent basis, Debye-Ang**3):
 XXXX=          -1758.9300 YYYY=          -1284.8703 ZZZZ=           -308.9302 XXXY=            -12.0521
 XXXZ=             27.1950 YYYX=            -74.4888 YYYZ=            -80.8048 ZZZX=            -14.2095
 ZZZY=            -17.1384 XXYY=           -548.0900 XXZZ=           -287.0935 YYZZ=           -275.9153
 XXYZ=            -55.7774 YYXZ=              1.4256 ZZXY=              9.9370
 N-N= 1.110671673579D+03 E-N=-4.194518710017D+03  KE= 8.330501189071D+02
 Calling FoFJK, ICntrl=      2127 FMM=F ISym2X=0 I1Cent= 0 IOpClX= 0 NMat=1 NMatS=1 NMatT=0.
 ***** Axes restored to original set *****
 -------------------------------------------------------------------
 Center     Atomic                   Forces (Hartrees/Bohr)
 Number     Number              X              Y              Z
 -------------------------------------------------------------------
      1        1           0.000333426    0.000692502   -0.000224143
      2        6           0.001628021    0.003309902    0.001592060
      3        6          -0.000621183    0.000046840    0.000348005
      4        6           0.001953106   -0.009769174   -0.009258379
      5        6           0.002243719   -0.002384263   -0.001105255
      6        8           0.006467940    0.006776090    0.009852491
      7        6          -0.000223432    0.000532007    0.000380215
      8        1          -0.000069966   -0.000158485   -0.000359275
      9        1           0.000593093   -0.000195660    0.000028008
     10        1          -0.000036454    0.000030208    0.000028601
     11        6           0.000081404    0.000485277    0.000041233
     12        1          -0.000013680    0.000044290   -0.000019838
     13        1           0.000031232   -0.000018222    0.000019442
     14        8           0.005836459   -0.000289284   -0.003939801
     15        1          -0.000063034   -0.000046655    0.000009070
     16        8          -0.000330169    0.000687460   -0.000607880
     17        1          -0.000001501    0.000038986   -0.000040031
     18        8           0.001279977   -0.001384662    0.001094994
     19        1           0.000058880   -0.000112820    0.000192704
     20        8          -0.000335137    0.000369225    0.000257009
     21        1          -0.000048993    0.000039393    0.000007844
     22        8           0.000740755   -0.000121019   -0.000510564
     23        1           0.000040151   -0.000005317   -0.000016238
     24        8          -0.007607903    0.005389554    0.008942112
     25        1          -0.000215072   -0.000309116   -0.000544815
     26        1           0.001567852    0.000186696    0.000335678
     27        1          -0.000498449    0.000185647    0.000268500
     28        8          -0.011796098   -0.003821373   -0.006525346
     29        1          -0.000480495    0.000349245    0.000253886
     30        1          -0.000514448   -0.000547271   -0.000500286
 -------------------------------------------------------------------
 Cartesian Forces:  Max     0.011796098 RMS     0.003027162

 GradGradGradGradGradGradGradGradGradGradGradGradGradGradGradGradGradGrad
 Berny optimization.
 FormGI is forming the generalized inverse of G from B-inverse, IUseBI=4.
 Internal  Forces:  Max     0.014944270 RMS     0.004331105
 Search for a local minimum.
 Step number   1 out of a maximum of  158
 All quantities printed in internal units (Hartrees-Bohrs-Radians)
 Mixed Optimization -- RFO/linear search
 Second derivative matrix not updated -- first step.
 ITU=  0
     Eigenvalues ---    0.00230   0.00230   0.00237   0.00292   0.00335
     Eigenvalues ---    0.00374   0.00399   0.00480   0.00956   0.01250
     Eigenvalues ---    0.01388   0.01402   0.01408   0.01436   0.02071
     Eigenvalues ---    0.02764   0.03311   0.04145   0.04428   0.04698
     Eigenvalues ---    0.04742   0.04898   0.05093   0.05276   0.05528
     Eigenvalues ---    0.05613   0.05772   0.05970   0.06709   0.07014
     Eigenvalues ---    0.07082   0.07349   0.08284   0.08715   0.09941
     Eigenvalues ---    0.10490   0.10711   0.10763   0.12295   0.12487
     Eigenvalues ---    0.13389   0.13463   0.14884   0.15250   0.15807
     Eigenvalues ---    0.16000   0.16000   0.16000   0.16000   0.16259
     Eigenvalues ---    0.16849   0.17455   0.18711   0.19199   0.20091
     Eigenvalues ---    0.20573   0.21956   0.27890   0.28875   0.29211
     Eigenvalues ---    0.29602   0.29646   0.33363   0.33578   0.33690
     Eigenvalues ---    0.33729   0.33864   0.33892   0.33919   0.40114
     Eigenvalues ---    0.40501   0.40903   0.42013   0.42171   0.42558
     Eigenvalues ---    0.42745   0.42914   0.52608   0.52725   0.53172
     Eigenvalues ---    0.53525   0.53644   0.53735   0.78817
 RFO step:  Lambda=-2.67624074D-02 EMin= 2.30000000D-03
 Linear search not attempted -- first point.
 Maximum step size (   0.300) exceeded in Quadratic search.
    -- Step size scaled by   0.675
 Iteration  1 RMS(Cart)=  0.12930967 RMS(Int)=  0.00520811
 Iteration  2 RMS(Cart)=  0.00938501 RMS(Int)=  0.00159341
 Iteration  3 RMS(Cart)=  0.00014042 RMS(Int)=  0.00159289
 Iteration  4 RMS(Cart)=  0.00000089 RMS(Int)=  0.00159289
 Variable       Old X    -DE/DX   Delta X   Delta X   Delta X     New X
                                 (Linear)    (Quad)   (Total)
    R1        2.07467   0.00022   0.00000   0.00040   0.00040   2.07508
    R2        2.70307   0.00061   0.00000  -0.00176  -0.00329   2.69978
    R3        2.91079   0.00701   0.00000   0.01634   0.01590   2.92669
    R4        2.88702   0.00138   0.00000   0.00284   0.00294   2.88996
    R5        2.89101   0.00935   0.00000   0.02155   0.02156   2.91257
    R6        2.88156   0.00512   0.00000   0.01567   0.01764   2.89921
    R7        2.08049   0.00001   0.00000   0.00001   0.00001   2.08050
    R8        2.68706  -0.00052   0.00000  -0.00078  -0.00078   2.68628
    R9        2.89544   0.00203   0.00000   0.00217   0.00156   2.89701
   R10        2.08419  -0.00010   0.00000  -0.00019  -0.00019   2.08400
   R11        2.37783   0.00362   0.00000   0.00152  -0.00093   2.37690
   R12        2.07789   0.00013   0.00000   0.00024   0.00024   2.07813
   R13        2.68218   0.00213   0.00000   0.00317   0.00317   2.68536
   R14        1.96203   0.00752   0.00000   0.01276   0.01331   1.97534
   R15        2.07856  -0.00002   0.00000  -0.00004  -0.00004   2.07852
   R16        2.68907   0.00039   0.00000   0.00059   0.00059   2.68966
   R17        2.07559  -0.00002   0.00000  -0.00003  -0.00007   2.07552
   R18        2.07513  -0.00002   0.00000  -0.00004  -0.00004   2.07510
   R19        2.70878   0.00051   0.00000   0.00079   0.00079   2.70957
   R20        2.78401   0.01103   0.00000   0.04841   0.04837   2.83238
   R21        1.82973   0.00005   0.00000   0.00006   0.00006   1.82979
   R22        1.83494   0.00007   0.00000   0.00008   0.00008   1.83502
   R23        1.83912   0.00001   0.00000   0.00001   0.00001   1.83913
   R24        1.84022  -0.00001   0.00000  -0.00002  -0.00002   1.84020
   R25        2.71320   0.00972   0.00000   0.04461   0.04508   2.75828
   R26        1.83167   0.00029   0.00000   0.00035   0.00035   1.83202
   R27        1.94091   0.01430   0.00000   0.02101   0.02193   1.96283
   R28        1.93915   0.01187   0.00000   0.01668   0.01674   1.95589
   R29        2.77658   0.01494   0.00000   0.06693   0.06793   2.84450
   R30        1.83057   0.00029   0.00000   0.00035   0.00035   1.83092
    A1        1.87061  -0.00283   0.00000  -0.00987  -0.00837   1.86224
    A2        1.85894   0.00145   0.00000   0.00388   0.00431   1.86326
    A3        1.90139   0.00066   0.00000  -0.00255  -0.00285   1.89854
    A4        1.91275   0.00237   0.00000   0.02231   0.02144   1.93419
    A5        1.96421   0.00240   0.00000  -0.00029  -0.00124   1.96297
    A6        1.95112  -0.00409   0.00000  -0.01342  -0.01318   1.93795
    A7        1.93243   0.00864   0.00000   0.05186   0.05466   1.98709
    A8        1.89162   0.00195   0.00000   0.01673   0.01361   1.90523
    A9        1.86545  -0.00746   0.00000  -0.03571  -0.03450   1.83096
   A10        1.90278  -0.00380   0.00000  -0.00409  -0.00447   1.89831
   A11        1.94544  -0.00073   0.00000  -0.02121  -0.02350   1.92194
   A12        1.92532   0.00157   0.00000  -0.00661  -0.00611   1.91920
   A13        1.96725  -0.00005   0.00000   0.00352   0.00128   1.96853
   A14        2.05435   0.00881   0.00000   0.03842   0.04180   2.09614
   A15        2.11032  -0.00545   0.00000  -0.00901  -0.01125   2.09907
   A16        2.02332   0.00379   0.00000   0.02712   0.02582   2.04914
   A17        1.86309  -0.00008   0.00000  -0.00467  -0.00484   1.85824
   A18        1.94505  -0.00310   0.00000  -0.01133  -0.01036   1.93469
   A19        1.82729  -0.00241   0.00000  -0.00472  -0.00278   1.82450
   A20        1.86539   0.00121   0.00000  -0.00332  -0.00452   1.86086
   A21        1.93670   0.00063   0.00000  -0.00319  -0.00352   1.93318
   A22        1.96767   0.01361   0.00000   0.02710   0.02600   1.99367
   A23        1.91265   0.00995   0.00000   0.05945   0.06264   1.97529
   A24        1.92374   0.00149   0.00000   0.00965   0.00698   1.93072
   A25        1.92399  -0.00714   0.00000  -0.02977  -0.02881   1.89518
   A26        1.90266  -0.00592   0.00000  -0.01953  -0.01985   1.88282
   A27        1.87547   0.00002   0.00000  -0.01175  -0.01413   1.86133
   A28        1.92457   0.00165   0.00000  -0.00790  -0.00760   1.91698
   A29        1.93081  -0.00020   0.00000   0.00005   0.00021   1.93102
   A30        1.90772  -0.00047   0.00000  -0.00151  -0.00154   1.90618
   A31        1.83875   0.00162   0.00000   0.00473   0.00468   1.84343
   A32        1.89809   0.00013   0.00000  -0.00060  -0.00065   1.89745
   A33        1.94096  -0.00052   0.00000  -0.00090  -0.00095   1.94001
   A34        1.94710  -0.00054   0.00000  -0.00168  -0.00167   1.94543
   A35        1.92093  -0.00003   0.00000  -0.01885  -0.02263   1.89830
   A36        1.89513   0.00004   0.00000   0.00015   0.00015   1.89528
   A37        1.85476   0.00035   0.00000   0.00126   0.00126   1.85602
   A38        1.84371  -0.00011   0.00000  -0.00039  -0.00039   1.84332
   A39        1.84565   0.00005   0.00000   0.00018   0.00018   1.84583
   A40        1.93952  -0.00019   0.00000  -0.00530  -0.00902   1.93050
   A41        1.80351   0.00301   0.00000   0.01553   0.01686   1.82038
   A42        1.85758  -0.00072   0.00000   0.00407   0.00571   1.86328
   A43        1.75292   0.00586   0.00000   0.01663   0.01765   1.77057
   A44        1.84445  -0.00055   0.00000  -0.00556  -0.00659   1.83786
   A45        1.94645  -0.00399   0.00000  -0.00423  -0.00207   1.94438
   A46        2.96470  -0.00254   0.00000  -0.05587  -0.05816   2.90654
   A47        3.15146   0.00254   0.00000   0.03717   0.04053   3.19198
   A48        2.91545   0.00867   0.00000   0.17597   0.17608   3.09152
   A49        3.27862  -0.00239   0.00000  -0.04511  -0.04899   3.22963
   A50        3.01239  -0.00945   0.00000  -0.15214  -0.14998   2.86241
   A51        3.12427   0.00282   0.00000   0.05031   0.05173   3.17600
    D1        1.56651   0.00475   0.00000   0.07017   0.06948   1.63599
    D2       -2.70609   0.00614   0.00000   0.08078   0.08096  -2.62513
    D3       -0.52347   0.00435   0.00000   0.07996   0.07914  -0.44433
    D4        1.48722   0.00308   0.00000   0.03619   0.03440   1.52162
    D5       -2.70202   0.00297   0.00000   0.05558   0.05563  -2.64638
    D6       -0.57346   0.00129   0.00000   0.03230   0.03192  -0.54154
    D7       -0.53081   0.00443   0.00000   0.03454   0.03099  -0.49981
    D8        1.56314   0.00432   0.00000   0.05393   0.05223   1.61537
    D9       -2.59148   0.00264   0.00000   0.03065   0.02851  -2.56297
   D10       -2.72096   0.00250   0.00000   0.02800   0.02628  -2.69468
   D11       -0.62701   0.00239   0.00000   0.04738   0.04751  -0.57950
   D12        1.50155   0.00071   0.00000   0.02410   0.02380   1.52535
   D13       -1.05780   0.00034   0.00000   0.00307   0.00289  -1.05491
   D14        3.13581   0.00060   0.00000   0.00473   0.00453   3.14034
   D15        1.04146   0.00058   0.00000   0.00484   0.00466   1.04612
   D16        1.01424  -0.00126   0.00000  -0.01111  -0.01015   1.00410
   D17       -1.07534  -0.00099   0.00000  -0.00945  -0.00851  -1.08384
   D18        3.11350  -0.00102   0.00000  -0.00934  -0.00837   3.10513
   D19       -3.10746   0.00057   0.00000   0.00788   0.00710  -3.10035
   D20        1.08615   0.00083   0.00000   0.00954   0.00874   1.09489
   D21       -1.00820   0.00080   0.00000   0.00965   0.00888  -0.99932
   D22       -0.68235   0.00168   0.00000  -0.01258  -0.01648  -0.69884
   D23        1.34501   0.00079   0.00000  -0.00613  -0.00840   1.33661
   D24       -2.82098  -0.00033   0.00000  -0.01974  -0.02174  -2.84272
   D25        1.40386   0.00339   0.00000   0.02376   0.02199   1.42585
   D26       -2.85196   0.00250   0.00000   0.03021   0.03008  -2.82189
   D27       -0.73477   0.00139   0.00000   0.01660   0.01673  -0.71803
   D28       -2.80430   0.00219   0.00000   0.00530   0.00310  -2.80120
   D29       -0.77694   0.00130   0.00000   0.01175   0.01119  -0.76575
   D30        1.34026   0.00019   0.00000  -0.00187  -0.00215   1.33810
   D31        1.28038   0.00923   0.00000   0.11648   0.11403   1.39441
   D32       -0.82640   0.00497   0.00000   0.08034   0.07882  -0.74758
   D33       -2.91215   0.00629   0.00000   0.10738   0.10611  -2.80604
   D34       -0.79911   0.00398   0.00000   0.06706   0.06501  -0.73410
   D35       -2.90589  -0.00028   0.00000   0.03093   0.02980  -2.87610
   D36        1.29154   0.00103   0.00000   0.05797   0.05709   1.34863
   D37       -2.92864   0.00507   0.00000   0.09199   0.09035  -2.83829
   D38        1.24776   0.00081   0.00000   0.05585   0.05514   1.30290
   D39       -0.83799   0.00212   0.00000   0.08289   0.08243  -0.75556
   D40        2.86012   0.00215   0.00000   0.01054   0.01234   2.87246
   D41        0.74641  -0.00321   0.00000  -0.01759  -0.01895   0.72746
   D42       -1.37005   0.00102   0.00000   0.00637   0.00594  -1.36411
   D43       -2.00016   0.00298   0.00000   0.03599   0.03653  -1.96363
   D44        2.23565   0.00265   0.00000   0.03018   0.03020   2.26585
   D45        0.17995   0.00255   0.00000   0.03760   0.03757   0.21752
   D46        1.69836  -0.00051   0.00000  -0.01481  -0.01604   1.68232
   D47       -0.34901  -0.00084   0.00000  -0.02062  -0.02237  -0.37138
   D48       -2.40471  -0.00095   0.00000  -0.01319  -0.01500  -2.41971
   D49        2.93965   0.01296   0.00000   0.11039   0.11125   3.05090
   D50        0.40251   0.00684   0.00000   0.04930   0.04880   0.45131
   D51       -0.96379   0.00182   0.00000   0.01426   0.01349  -0.95030
   D52        3.09245  -0.00175   0.00000  -0.01011  -0.00897   3.08348
   D53        1.10996   0.00011   0.00000  -0.00112  -0.00149   1.10847
   D54       -2.45356   0.00086   0.00000  -0.02696  -0.02985  -2.48341
   D55        1.86409   0.00179   0.00000  -0.01073  -0.01590   1.84820
   D56       -1.04370   0.00323   0.00000   0.01995   0.02148  -1.02222
   D57       -3.12711  -0.00474   0.00000  -0.02789  -0.02912   3.12695
   D58        1.08437   0.00146   0.00000   0.00703   0.00674   1.09111
   D59        2.99943  -0.00012   0.00000  -0.00087  -0.00094   2.99849
   D60       -1.19120   0.00034   0.00000   0.00157   0.00164  -1.18956
   D61        0.93128  -0.00024   0.00000  -0.00101  -0.00101   0.93026
   D62        0.86815   0.00741   0.00000   0.05764   0.05352   0.92168
   D63        2.85899   0.00494   0.00000   0.04761   0.04522   2.90421
   D64       -0.13182   0.00367   0.00000   0.02349   0.01894  -0.11288
   D65       -2.04879   0.00125   0.00000   0.00050  -0.00055  -2.04933
   D66       -2.13452   0.00082   0.00000  -0.01841  -0.02220  -2.15672
   D67        2.23169  -0.00160   0.00000  -0.04140  -0.04168   2.19001
         Item               Value     Threshold  Converged?
 Maximum Force            0.014944     0.000450     NO 
 RMS     Force            0.004331     0.000300     NO 
 Maximum Displacement     0.437969     0.001800     NO 
 RMS     Displacement     0.130699     0.001200     NO 
 Predicted change in Energy=-1.458135D-02
 GradGradGradGradGradGradGradGradGradGradGradGradGradGradGradGradGradGrad

                          Input orientation:                          
 ---------------------------------------------------------------------
 Center     Atomic      Atomic             Coordinates (Angstroms)
 Number     Number       Type             X           Y           Z
 ---------------------------------------------------------------------
      1          1           0        0.474522    1.763826    1.574850
      2          6           0        0.067788    1.259398    0.688336
      3          6           0        1.807702   -0.586237    0.253754
      4          6           0       -0.539503   -1.608867   -0.334272
      5          6           0        0.985809   -1.760906   -0.312061
      6          8           0       -0.681241    0.138532    1.161297
      7          6           0        1.279829    0.794661   -0.156393
      8          1           0       -1.047709   -2.298938    0.359778
      9          1           0        1.268919   -1.858373   -1.370215
     10          1           0        1.014956    0.751725   -1.223068
     11          6           0       -0.795609    2.252722   -0.090520
     12          1           0       -1.629253    2.609887    0.528975
     13          1           0       -1.205241    1.755741   -0.979914
     14          8           0       -1.119596   -1.220978   -1.380739
     15          1           0        1.818585   -0.649113    1.352856
     16          8           0        0.081520    3.329122   -0.448165
     17          1           0       -0.387568    3.921371   -1.053783
     18          8           0        1.264386   -2.960745    0.396531
     19          1           0        2.227328   -3.081139    0.362031
     20          8           0        3.120416   -0.779202   -0.256408
     21          1           0        3.581135    0.067308   -0.121031
     22          8           0        2.348425    1.714244    0.039225
     23          1           0        2.004336    2.582242   -0.237275
     24          8           0       -3.157069    0.317920    1.201703
     25          1           0       -2.601102   -1.284921   -1.162699
     26          1           0       -1.700429    0.328926    1.294218
     27          1           0       -3.545058   -0.113992    1.978092
     28          8           0       -3.572818   -1.149149   -0.833170
     29          1           0       -3.357772   -0.294204    0.386908
     30          1           0       -4.015168   -0.653741   -1.538599
 ---------------------------------------------------------------------
                    Distance matrix (angstroms):
                    1          2          3          4          5
     1  H    0.000000
     2  C    1.098083   0.000000
     3  C    3.007568   2.573429   0.000000
     4  C    4.006002   3.105072   2.626960   0.000000
     5  C    4.030581   3.311464   1.541266   1.533031   0.000000
     6  O    2.036761   1.428663   2.746592   2.304391   2.925355
     7  C    2.141262   1.548739   1.534194   3.019694   2.577130
     8  H    4.505512   3.743533   3.331360   1.102805   2.208176
     9  H    4.735483   3.924391   2.132109   2.099005   1.099701
    10  H    3.024031   2.192789   2.144666   2.962885   2.672844
    11  C    2.150746   1.529301   3.867227   3.877741   4.396787
    12  H    2.497108   2.174664   4.701449   4.441918   5.162337
    13  H    3.057530   2.156390   4.010565   3.490078   4.196848
    14  O    4.492858   3.441398   3.412263   1.257799   2.422050
    15  H    2.770932   2.673816   1.100953   3.054195   2.168305
    16  O    2.587894   2.361266   4.336177   4.978190   5.171522
    17  H    3.508264   3.213787   5.181447   5.578916   5.892757
    18  O    4.932940   4.396204   2.440054   2.369739   1.421029
    19  H    5.293104   4.859049   2.532261   3.210573   1.933594
    20  O    4.101373   3.790379   1.421520   3.753587   2.350189
    21  H    3.924950   3.797336   1.926823   4.453615   3.180342
    22  O    2.423245   2.414443   2.372893   4.418450   3.749239
    23  H    2.508771   2.521287   3.212325   4.903663   4.461605
    24  O    3.926619   3.398475   5.134692   3.594910   4.876109
    25  H    5.123329   4.125878   4.683167   2.245311   3.716998
    26  H    2.620706   2.087932   3.771879   2.784739   3.763429
    27  H    4.454866   4.074596   5.643439   4.076155   5.337216
    28  O    5.537594   4.622780   5.517995   3.108253   4.628917
    29  H    4.509232   3.773460   5.175436   3.192347   4.637506
    30  H    5.974572   5.028904   6.092857   3.800384   5.266876
                    6          7          8          9         10
     6  O    0.000000
     7  C    2.452062   0.000000
     8  H    2.591909   3.905665   0.000000
     9  H    3.768197   2.917545   2.924678   0.000000
    10  H    2.989696   1.099908   4.008308   2.626549   0.000000
    11  C    2.459659   2.537267   4.580822   4.775039   2.610326
    12  H    2.721425   3.496789   4.946047   5.654350   3.676175
    13  H    2.733994   2.788806   4.273174   4.397229   2.448764
    14  O    2.915882   3.364381   2.048553   2.472122   2.910795
    15  H    2.627967   2.156982   3.453081   3.029778   3.040321
    16  O    3.654044   2.818611   5.796809   5.400944   2.848640
    17  H    4.393483   3.655385   6.412970   6.020757   3.470214
    18  O    3.738429   3.795924   2.405228   2.082459   4.058047
    19  H    4.411902   4.023474   3.367151   2.326882   4.321253
    20  O    4.159895   2.423801   4.479124   2.415205   2.776893
    21  H    4.451661   2.413774   5.220775   3.258074   2.875446
    22  O    3.594551   1.423306   5.267079   3.989417   2.073154
    23  H    3.891021   1.930518   5.787691   4.641492   2.302488
    24  O    2.482647   4.664523   3.464994   5.562408   4.844945
    25  H    3.333623   4.516518   2.399833   3.917776   4.150595
    26  H    1.045304   3.347105   2.864418   4.549781   3.726767
    27  H    2.988707   5.353616   3.691840   6.117876   5.638317
    28  O    3.741288   5.271110   3.020152   4.922787   4.981265
    29  H    2.819708   4.794595   3.058772   5.190412   4.775639
    30  H    4.362591   5.660862   3.887972   5.422276   5.232307
                   11         12         13         14         15
    11  C    0.000000
    12  H    1.098318   0.000000
    13  H    1.098094   1.784964   0.000000
    14  O    3.719707   4.310717   3.004805   0.000000
    15  H    4.163892   4.815335   4.513166   4.053700   0.000000
    16  O    1.433842   2.097343   2.100961   4.797476   4.699726
    17  H    1.969458   2.401436   2.316031   5.204471   5.616792
    18  O    5.626814   6.278745   5.498991   3.445120   2.562291
    19  H    6.147603   6.876690   6.081016   4.207059   2.657735
    20  O    4.955335   5.887454   5.065641   4.408740   2.073986
    21  H    4.892122   5.833984   5.147610   5.034225   2.406695
    22  O    3.192451   4.106575   3.697149   4.760147   2.755325
    23  H    2.823086   3.713607   3.396469   5.052815   3.606200
    24  O    3.315086   2.835472   3.261352   3.631599   5.071009
    25  H    4.113914   4.356120   3.350741   1.498829   5.125027
    26  H    2.537161   2.406958   2.729961   3.145626   3.652870
    27  H    4.176118   3.631772   4.209566   4.288360   5.426412
    28  O    4.453891   4.445586   3.750379   2.514615   5.839175
    29  H    3.644098   3.382559   3.271676   2.998819   5.277659
    30  H    4.572748   4.540784   3.743451   2.954829   6.511007
                   16         17         18         19         20
    16  O    0.000000
    17  H    0.968285   0.000000
    18  O    6.455626   7.224672   0.000000
    19  H    6.808256   7.607717   0.971052   0.000000
    20  O    5.113706   5.919219   2.937738   2.545386   0.000000
    21  H    4.795180   5.610208   3.847635   3.461049   0.973226
    22  O    2.825639   3.681268   4.812311   4.807762   2.626908
    23  H    2.073529   2.860272   5.627961   5.699367   3.541936
    24  O    4.719944   5.073679   5.563022   6.422646   6.537323
    25  H    5.384832   5.658363   4.492392   5.372610   5.814885
    26  H    3.900310   4.488025   4.518618   5.284391   5.183911
    27  H    5.558222   5.953669   5.808278   6.688502   7.061448
    28  O    5.792868   5.992050   5.309669   6.229188   6.728217
    29  H    5.065034   5.354323   5.336186   6.241872   6.528093
    30  H    5.816795   5.858855   6.077886   6.962285   7.250953
                   21         22         23         24         25
    21  H    0.000000
    22  O    2.063409   0.000000
    23  H    2.970640   0.973791   0.000000
    24  O    6.871377   5.797547   5.817037   0.000000
    25  H    6.413552   5.910790   6.084523   2.910086   0.000000
    26  H    5.474147   4.459521   4.598715   1.459617   3.074436
    27  H    7.431138   6.467983   6.555403   0.969465   3.482341
    28  O    7.291498   6.634849   6.736691   2.542803   1.035015
    29  H    6.966859   6.059326   6.116841   1.038686   1.988807
    30  H    7.761007   6.970811   6.956972   3.031455   1.593510
                   26         27         28         29         30
    26  H    0.000000
    27  H    2.016561   0.000000
    28  O    3.196299   2.995917   0.000000
    29  H    1.989545   1.612272   1.505246   0.000000
    30  H    3.787942   3.588795   0.968883   2.066160   0.000000
 Stoichiometry    C6H16O8
 Framework group  C1[X(C6H16O8)]
 Deg. of freedom    84
 Full point group                 C1      NOp   1
 Largest Abelian subgroup         C1      NOp   1
 Largest concise Abelian subgroup C1      NOp   1
                         Standard orientation:                         
 ---------------------------------------------------------------------
 Center     Atomic      Atomic             Coordinates (Angstroms)
 Number     Number       Type             X           Y           Z
 ---------------------------------------------------------------------
      1          1           0        0.538313    1.825633    1.489344
      2          6           0        0.124903    1.284483    0.627929
      3          6           0        1.828653   -0.615669    0.297486
      4          6           0       -0.536515   -1.619870   -0.248846
      5          6           0        0.985293   -1.801175   -0.211259
      6          8           0       -0.648601    0.204742    1.154168
      7          6           0        1.330564    0.752594   -0.185746
      8          1           0       -1.061364   -2.262925    0.477234
      9          1           0        1.270524   -1.958687   -1.261580
     10          1           0        1.069071    0.660099   -1.250106
     11          6           0       -0.715062    2.253513   -0.205260
     12          1           0       -1.543707    2.658790    0.390895
     13          1           0       -1.131206    1.719708   -1.069949
     14          8           0       -1.104486   -1.274825   -1.316747
     15          1           0        1.833932   -0.622052    1.398407
[...]
 0089366,-0.00107938,0.00315068,-0.00076060,0.00019515,-0.00003574,-0.0
 0010756,-0.00008298,-0.00196946,-0.00021839,0.00043363,0.00023569,0.00
 029685,-0.00012958,0.00035702,0.00017868,0.00020000,-0.00001923,-0.000
 14965,-0.00010641,0.00040893,0.00072557,0.00023552,0.00009681,-0.00027
 103,0.00006777,0.00006656,0.00105446,0.00014431,0.00038162,-0.00072544
 ,-0.00029724,0.05584273,0.39272877,-0.00094868,-0.00064687,0.00096274,
 0.00208260,0.00194079,-0.00507017,0.00033850,-0.00020359,-0.00058162,-
 0.00155958,0.00040185,-0.00099856,0.00006111,0.00040789,0.00019353,-0.
 01332170,-0.00191907,0.00216839,-0.00129852,-0.00128581,-0.00112964,0.
 00007844,-0.00015228,0.00007827,-0.00000919,-0.00000915,0.00007177,0.0
 0023879,0.00028764,0.00048598,-0.00075213,0.00055418,-0.00056248,0.000
 26753,0.00034606,0.00032835,0.00051896,-0.00027019,-0.00013341,0.00220
 523,-0.00078865,0.00063223,0.00014011,-0.00037690,0.00009335,-0.000063
 23,-0.00044096,0.00094376,-0.00015863,-0.00018668,-0.00011739,0.000142
 30,0.00016739,0.00027615,0.00005753,-0.00014745,-0.00013657,0.00008529
 ,0.00035052,0.00045750,0.00003170,-0.00010409,-0.00007473,0.00000388,0
 .00053649,0.00110117,0.00003206,-0.00010340,-0.00042157,-0.20892585,0.
 20839580,0.33491084,-0.00010291,0.00000832,0.00008991,0.00075699,-0.00
 006558,-0.00086579,0.00017029,-0.00237023,-0.00225683,-0.00928680,0.00
 647960,-0.00867954,0.00032820,0.00240969,0.00315080,-0.00159572,0.0003
 9805,0.00015530,-0.00023928,-0.00049378,0.00045813,0.00086038,-0.00172
 989,0.00023496,0.00004404,-0.00033108,-0.00000776,0.00015608,-0.000423
 86,0.00001537,0.00033729,0.00002686,0.00032710,-0.00008384,0.00018006,
 0.00001847,0.00001628,0.00003628,-0.00017770,0.00281609,-0.00739495,0.
 00483905,-0.00001058,-0.00013727,-0.00001618,-0.00033188,0.00022676,0.
 00013918,0.00001674,0.00000069,0.00002727,0.00167327,-0.00007050,0.000
 74406,-0.00007275,-0.00019370,-0.00030852,0.00138504,0.00161338,0.0009
 1961,-0.00005648,-0.00043073,0.00021171,0.00005066,0.00111567,-0.00017
 059,0.00016940,-0.00055800,-0.00008608,-0.00332322,-0.00429773,-0.0028
 5087,0.38215655,0.00006910,0.00006207,0.00002418,-0.00023498,-0.000179
 30,0.00023711,0.00001466,0.00052917,0.00028170,0.00290361,-0.00156459,
 0.00178678,-0.00045996,0.00056927,0.00016663,0.00059134,0.00014657,0.0
 0018278,-0.00068255,-0.00018247,-0.00024709,0.00043791,0.00039944,-0.0
 0010019,-0.00005149,-0.00002577,0.00003102,-0.00004701,0.00007262,0.00
 015052,-0.00023542,-0.00015106,-0.00010659,0.00003777,-0.00000760,0.00
 002735,0.00003360,-0.00005808,0.00006905,-0.00549759,-0.00391949,-0.00
 110417,-0.00002701,0.00003708,-0.00004023,0.00020471,0.00013487,-0.000
 05737,-0.00003449,-0.00005604,-0.00001519,-0.00036555,-0.00036124,-0.0
 0022638,-0.00004473,0.00020087,0.00009036,0.00008276,-0.00042205,-0.00
 007830,-0.00008922,0.00015423,-0.00005336,0.00043131,-0.00006115,-0.00
 008999,-0.00006409,0.00001963,0.00002697,-0.00182096,0.00055467,0.0008
 2491,-0.16055425,0.09048127,0.00003883,0.00002161,-0.00002693,-0.00031
 806,-0.00017112,0.00024270,-0.00004913,0.00018225,0.00031205,-0.002908
 55,-0.00158540,0.00103609,-0.00034057,0.00091738,0.00037514,0.00034699
 ,0.00037395,-0.00011506,-0.00005041,-0.00000829,0.00003425,-0.00030720
 ,0.00008736,-0.00070305,0.00001358,-0.00004716,0.00000596,-0.00000216,
 0.00002842,0.00010218,0.00000135,-0.00006141,0.00003477,0.00000429,-0.
 00001833,-0.00001063,-0.00001378,-0.00000312,0.00001275,0.00305205,0.0
 0122515,-0.00657650,-0.00002995,0.00000715,-0.00010576,0.00005577,0.00
 006164,-0.00011061,0.00000769,0.00001647,0.00001923,-0.00039856,-0.000
 10170,-0.00028540,-0.00006854,0.00011259,0.00009348,0.00004611,-0.0000
 7110,-0.00011280,0.00001342,0.00002067,0.00001255,0.00009028,0.0000016
 5,-0.00017875,0.00000642,0.00002580,0.00005517,-0.00121726,0.00006912,
 -0.00065914,-0.04865270,0.02268377,0.07285930,0.00042369,-0.00050090,0
 .00255715,-0.03164706,-0.00814577,-0.00727434,-0.00101392,0.00114933,0
 .00060555,0.00194119,0.00036865,0.00063243,-0.00029075,-0.00033170,-0.
 00017753,-0.29273392,-0.04641142,-0.14959657,-0.00026198,0.00173696,0.
 00025256,-0.00007252,0.00000766,0.00009801,-0.00000656,-0.00000761,-0.
 00003982,0.00006897,0.00041045,0.00058778,0.00390476,-0.00176149,0.000
 26434,0.00009957,-0.00005202,0.00021926,0.00036126,-0.00022079,-0.0005
 8970,-0.00219642,0.00021706,-0.00043820,-0.00059583,0.00090624,-0.0001
 6276,-0.00045740,0.00243016,-0.00150552,0.00043198,0.00037374,-0.00014
 331,0.00018815,-0.00074411,-0.00029045,-0.00019720,0.00038740,0.000158
 05,0.00068002,-0.00080390,-0.00034662,-0.00034109,0.00028823,-0.000093
 69,0.00230839,-0.00030630,-0.00233058,-0.00010745,-0.00053594,0.000538
 93,-0.00099055,0.00456168,0.00844743,0.00194706,-0.00077712,-0.0001993
 1,0.32134863,-0.00216288,-0.00122375,0.00246814,-0.01965879,-0.0060187
 8,-0.00881676,0.00071194,-0.00014996,-0.00032150,0.00104264,-0.0002807
 4,0.00006815,0.00019920,-0.00030436,-0.00018661,-0.03191796,-0.0235500
 0,-0.00166095,0.00242681,0.00177783,0.00094331,-0.00002363,-0.00006802
 ,0.00000549,-0.00004205,0.00001941,0.00000368,-0.00018112,0.00025375,-
 0.00042474,-0.00369313,-0.00096606,-0.00088320,0.00008969,-0.00049855,
 -0.00018183,0.00031840,-0.00047736,0.00112770,-0.00066830,0.00042807,0
 .00017081,0.00032557,0.00023335,0.00032276,0.00181365,0.00088233,-0.00
 096961,0.00019619,-0.00013779,0.00016139,-0.00020284,-0.00000592,-0.00
 004282,0.00003876,0.00004250,0.00003849,-0.00049925,-0.00042418,0.0000
 0606,-0.00007526,0.00015359,-0.00005348,-0.00023783,-0.00112033,-0.000
 27333,-0.00047500,0.00074334,0.00022096,0.00520095,-0.00999752,0.00042
 057,-0.00018408,-0.00032520,-0.00045405,0.05086636,0.03895720,0.003837
 98,0.00239726,-0.00262789,0.02750489,0.00401184,0.01445923,0.00004765,
 -0.00000592,0.00027715,0.00106767,-0.00035538,0.00051226,0.00005264,-0
 .00033136,-0.00012442,-0.19116038,-0.01653534,-0.16053815,0.00358078,0
 .00242033,0.00229279,-0.00004277,0.00005660,-0.00005790,0.00000748,-0.
 00000506,-0.00005214,-0.00046052,-0.00067817,-0.00146603,0.00271478,0.
 00015369,0.00181139,-0.00023909,-0.00035492,-0.00027203,-0.00049501,0.
 00084691,-0.00107004,-0.00105119,0.00059099,-0.00019707,-0.00024919,0.
 00038082,-0.00003301,-0.00071608,0.00043159,-0.00104882,0.00015027,0.0
 0029189,-0.00005257,-0.00012895,-0.00006704,-0.00016116,-0.00002062,0.
 00009555,0.00008249,-0.00026715,-0.00030195,-0.00045150,-0.00004132,0.
 00013318,0.00012897,-0.00062845,-0.00093544,-0.00150450,-0.00001822,0.
 00004952,0.00048146,0.00073402,-0.00004731,-0.00797264,0.00051510,-0.0
 0058693,-0.00006332,0.15115648,0.00878461,0.15530756,0.00008931,0.0000
 3453,-0.00010405,-0.00034160,-0.00030325,0.00073025,-0.00008093,-0.000
 03983,0.00005214,0.00005508,-0.00000598,0.00006177,-0.00002165,-0.0000
 0857,0.00000632,0.00105502,-0.00014434,-0.00234143,0.00045038,0.000316
 81,0.00030251,-0.00000448,0.00001426,-0.00000445,0.00000666,-0.0000044
 5,-0.00001228,-0.00019395,-0.00005585,-0.00013634,0.00015042,-0.000106
 55,0.00040936,-0.00008186,-0.00013072,-0.00014075,-0.00019640,-0.00000
 334,-0.00008171,-0.00006232,0.00001500,-0.00006864,-0.00004265,0.00007
 437,-0.00001847,0.00009905,0.00010254,-0.00028160,0.00001649,0.0000146
 5,0.00003212,0.00003045,-0.00004593,-0.00003391,-0.00002088,0.00002692
 ,0.00001846,0.00003294,-0.00002179,-0.00007202,-0.00001392,0.00000845,
 0.00001711,-0.00001996,-0.00013144,-0.00023074,-0.00003431,0.00003250,
 0.00008065,-0.27169058,0.05445415,0.24752678,0.00008217,0.00021888,0.0
 0017562,-0.00397890,0.00082702,0.00444177,0.26916600,-0.00004879,-0.00
 006712,0.00002399,0.00027706,0.00030840,-0.00014028,0.00007984,0.00002
 058,-0.00002604,0.00020703,-0.00000044,0.00000529,0.00002527,-0.000091
 36,-0.00003647,-0.00060088,-0.00080347,-0.00027225,0.00022586,0.000113
 01,0.00006354,0.00000617,-0.00001838,0.00001725,-0.00001070,0.00000718
 ,0.00000893,0.00005999,-0.00009136,-0.00011445,-0.00012149,-0.00002244
 ,0.00036118,-0.00016343,-0.00014949,-0.00023012,0.00002681,0.00046638,
 0.00000966,-0.00027795,0.00000640,0.00002523,0.00001660,-0.00000293,0.
 00001766,0.00013498,-0.00022133,-0.00013339,-0.00005795,0.00001466,0.0
 0006054,-0.00006990,0.00001092,0.00000048,0.00002262,0.00000096,0.0000
 0104,-0.00012959,-0.00005980,-0.00002121,0.00001510,0.00002826,-0.0000
 0691,-0.00011700,-0.00017995,0.00008336,-0.00003575,0.00015518,0.00002
 288,0.01473958,-0.04654111,-0.04366992,0.00035819,0.00044795,0.0001077
 1,0.00167072,0.00089485,0.00080044,-0.04870557,0.05099053,-0.00000824,
 0.00000797,-0.00002995,0.00000291,-0.00008398,0.00021607,-0.00000192,0
 .00001290,0.00008448,0.00016427,-0.00009667,0.00013922,-0.00000123,-0.
 00004559,-0.00002538,-0.00078064,-0.00051191,-0.00222044,0.00015672,0.
 00010556,0.00009300,-0.00000475,0.00002528,-0.00000971,0.00000092,0.00
 000200,-0.00001021,0.00000390,-0.00000414,-0.00011393,0.00005564,0.000
 07365,0.00016400,-0.00000785,-0.00005843,-0.00001674,0.00010530,0.0000
 4345,-0.00012122,-0.00027345,0.00010746,-0.00006120,-0.00000983,0.0000
 2114,0.00000088,-0.00000244,0.00002556,-0.00011646,0.00003950,0.000021
 85,0.00002347,-0.00002650,0.00000676,-0.00003949,-0.00000370,0.0000059
 0,0.00002080,-0.00002794,-0.00001560,-0.00005243,0.00000642,-0.0000009
 9,0.00001228,-0.00002213,-0.00003034,-0.00009908,0.00000196,-0.0000042
 0,0.00002877,0.22506010,-0.07615924,-0.23671821,0.00037459,0.00008831,
 0.00013000,-0.00009345,0.00133532,0.00413323,-0.24235310,0.07287261,0.
 24793048,-0.00001835,-0.00006462,-0.00006177,-0.00018926,0.00025072,0.
 00029638,-0.00001879,0.00127764,0.00129613,0.00385632,-0.00436461,0.00
 550177,0.00008742,-0.00143781,-0.00202822,0.00032994,-0.00047116,-0.00
 024853,0.00066687,0.00046159,-0.00016444,-0.00040191,0.00098126,-0.000
 15403,0.00000604,0.00020911,0.00001106,-0.00010269,0.00020771,-0.00012
 259,0.00001716,0.00016041,-0.00012672,0.00002602,-0.00011886,-0.000041
 67,-0.00002956,0.00004214,0.00002709,-0.01733414,0.00775913,-0.0010755
 1,0.00003419,0.00004819,0.00002990,0.00000202,-0.00035674,-0.00000415,
 0.00001203,0.00005853,-0.00001462,-0.00114304,0.00019367,-0.00045202,0
 .00007863,0.00005351,0.00017131,-0.00102568,-0.00084772,-0.00058066,0.
 00012113,0.00021017,-0.00010099,-0.00036672,-0.00076652,0.00023852,-0.
 00006168,0.00040150,0.00001820,0.00663037,-0.00372780,-0.00167182,-0.3
 6820316,0.15147311,0.09362988,-0.00016096,0.00047824,0.00030768,-0.001
 19993,-0.00189096,-0.00137066,0.48448806,-0.00027554,-0.00009913,0.000
 05874,0.00100872,0.00030819,-0.00093534,0.00009949,-0.00106340,-0.0005
 9614,-0.00242742,0.00130000,-0.00204074,0.00029643,0.00027316,0.000507
 28,-0.00285791,0.00012060,-0.00061722,0.00075519,0.00003005,0.00019114
 ,-0.00013780,-0.00031351,-0.00014578,0.00005321,-0.00005840,-0.0000390
 4,0.00002319,-0.00024352,-0.00017826,0.00089817,0.00044187,0.00034355,
 -0.00008684,0.00008516,-0.00002852,-0.00002258,0.00015774,-0.00037879,
 0.00739940,0.00125386,0.00123516,0.00004894,-0.00013154,0.00002630,-0.
 00077846,-0.00037175,0.00030043,0.00010140,0.00014883,-0.00000377,0.00
 036050,0.00045253,0.00029210,0.00005782,-0.00026854,-0.00014356,0.0000
 1926,0.00087031,0.00022151,0.00018365,-0.00030304,0.00010395,-0.000643
 58,0.00040762,0.00028214,0.00021604,-0.00020943,-0.00016973,-0.0057556
 0,-0.01619871,-0.01447646,0.15434838,-0.07939615,-0.04382004,0.0041280
 1,-0.00032073,0.00191406,-0.00133241,-0.00188825,0.00011252,-0.2023248
 2,0.12849652,-0.00013414,-0.00004058,0.00007743,0.00073094,0.00025854,
 -0.00060408,0.00014003,-0.00033814,-0.00040315,0.00034531,0.00112349,-
 0.00119484,0.00013708,-0.00015453,0.00001923,-0.00139786,-0.00028795,0
 .00002712,-0.00000971,-0.00008924,-0.00011712,0.00018956,-0.00019944,0
 .00029741,-0.00002683,-0.00002344,0.00001190,-0.00001133,-0.00006832,-
 0.00009779,0.00024851,0.00018026,0.00003543,-0.00001428,0.00006236,0.0
 0002419,0.00003594,0.00004857,-0.00016544,0.00269009,-0.00159856,0.004
 40271,0.00004854,-0.00006197,0.00008009,-0.00029875,-0.00017099,0.0002
 5673,0.00000573,0.00000611,-0.00004583,0.00026161,0.00010601,0.0002601
 0,0.00004691,-0.00010374,-0.00010009,0.00001765,0.00024035,0.00019453,
 0.00001940,-0.00007416,-0.00000293,-0.00015410,0.00013962,0.00029668,0
 .00004483,-0.00010334,-0.00013474,-0.00277525,-0.01256378,-0.00199493,
 0.03856185,-0.01791634,-0.07104739,0.00181457,0.00029100,0.00062446,-0
 .00059533,0.00036025,0.00018702,0.07767571,-0.04012604,0.50421143,-0.0
 0001572,0.00009434,0.00010292,0.00002707,-0.00034752,-0.00013216,-0.00
 025336,0.00015542,0.00003094,-0.00073327,0.00030632,-0.00016941,-0.000
 15454,0.00020984,0.00000242,-0.00163760,0.00152993,-0.00054598,-0.0011
 1557,-0.00053368,-0.00033659,0.00003695,0.00005363,0.00015180,0.000016
 80,0.00000118,0.00000487,-0.00001773,-0.00003481,0.00042056,0.00015907
 ,-0.00018998,0.00024566,0.00002267,0.00006819,0.00002837,-0.00007582,-
 0.00005239,-0.00017772,-0.00015050,-0.00079212,-0.00023032,-0.00003537
 ,0.00000615,-0.00006761,-0.00009672,0.00019596,-0.00004247,-0.00000410
 ,-0.00001211,-0.00000369,0.00017282,-0.00020499,-0.00001102,-0.0000636
 3,0.00007657,0.00000587,0.00036950,-0.00008662,0.00007298,-0.00009879,
 0.00003287,-0.00002669,0.00059701,0.00041660,-0.00018597,0.00003744,-0
 .00022123,-0.00000490,-0.06932842,-0.10505385,-0.03140847,0.00443777,0
 .00578064,0.00337014,0.00149483,-0.00446024,-0.00044262,0.00646863,0.0
 3438673,0.01877494,-0.01231101,0.00091873,-0.00204430,0.07262539,0.000
 39684,0.00012618,-0.00016087,-0.00166172,-0.00050534,0.00144734,-0.000
 04099,0.00118642,0.00067707,0.00302800,-0.00053862,0.00151276,-0.00013
 166,-0.00081836,-0.00059630,0.00578564,-0.00033111,0.00130169,-0.00034
 756,0.00024371,0.00002783,-0.00007103,0.00015072,0.00005311,-0.0000683
 9,0.00008612,0.00001241,-0.00003848,0.00036164,0.00015508,-0.00100127,
 -0.00052789,-0.00023733,0.00009665,-0.00014640,-0.00001095,-0.00015554
 ,-0.00031590,0.00044345,-0.00468198,0.00087739,-0.00045927,-0.00005112
 ,0.00019156,0.00000899,0.00092803,0.00043531,-0.00048867,-0.00009145,-
 0.00013520,0.00003564,-0.00036829,-0.00033367,-0.00030685,-0.00003091,
 0.00023931,0.00016358,-0.00018013,-0.00096541,-0.00030446,-0.00017574,
 0.00032580,-0.00009376,0.00054379,-0.00062920,-0.00043883,-0.00025598,
 0.00031794,0.00026809,-0.06532371,-0.32156241,-0.15114186,0.00655245,-
 0.00427948,-0.00095010,-0.00862596,0.00140092,-0.00298757,-0.00498372,
 -0.00348282,0.00239803,0.00279498,-0.00150507,0.00445654,0.06984005,0.
 32500858,0.00024900,0.00005262,-0.00012755,-0.00139190,-0.00029726,0.0
 0106161,-0.00023107,0.00049118,0.00051587,0.00159378,-0.00043338,0.001
 14689,-0.00010593,-0.00042719,-0.00025004,0.00221330,0.00083029,0.0000
 6931,0.00013761,0.00027297,0.00028045,-0.00008859,0.00019173,-0.000094
 28,-0.00000356,0.00004307,-0.00003308,0.00008968,0.00009523,0.00009488
 ,-0.00047170,-0.00032543,-0.00028637,0.00001701,-0.00011367,-0.0000291
 1,-0.00029241,-0.00023849,0.00059052,-0.00279716,0.00070672,-0.0007709
 3,-0.00007597,0.00014923,-0.00006794,0.00063314,0.00035080,-0.00043039
 ,-0.00001711,-0.00003956,0.00007628,-0.00019941,-0.00014868,-0.0002480
 5,-0.00003602,0.00012653,0.00011488,-0.00007000,-0.00041184,-0.0002811
 5,-0.00004991,0.00013011,-0.00000920,0.00019980,-0.00032565,-0.0004307
 4,-0.00010376,0.00020777,0.00023253,-0.00399493,-0.11763383,-0.0873797
 8,0.00461055,-0.00231107,0.00069042,-0.00375438,-0.00211600,-0.0022715
 5,-0.00725793,-0.03026004,-0.01336922,-0.00010554,0.01106958,-0.005000
 58,0.01345429,0.14512071,0.10960171,0.00001685,0.00002522,0.00002617,0
 .00004088,-0.00007000,-0.00004101,-0.00007532,-0.00012717,-0.00018590,
 -0.00061172,0.00028705,-0.00037582,-0.00002905,0.00011092,-0.00003800,
 0.00005525,0.00008549,0.00012103,-0.00028626,-0.00014714,-0.00003859,0
 .00009098,-0.00006269,0.00018911,0.00000600,-0.00001114,0.00001422,0.0
 0004420,-0.00001685,0.00000982,-0.00007804,-0.00007321,-0.00002252,0.0
 0000787,0.00003069,0.00002713,0.00002288,-0.00003184,0.00000845,0.0001
 0011,-0.00041136,0.00160046,-0.00000539,-0.00000494,0.00000381,0.00004
 800,0.00012417,0.00001875,-0.00001444,-0.00004300,-0.00001099,0.000232
 07,-0.00008837,0.00010134,-0.00003125,0.00000506,-0.00003923,0.0002118
 1,0.00006606,0.00010797,-0.00005872,-0.00001117,-0.00000682,0.00017288
 ,0.00015599,-0.00001488,-0.00001320,-0.00010339,-0.00001933,-0.0002107
 8,0.00082821,0.00071042,-0.01409769,0.00870702,-0.04629626,-0.00014600
 ,-0.00005307,-0.00015763,0.00028169,-0.00002261,0.00024064,-0.09378933
 ,0.04572640,-0.11555242,-0.00037382,-0.00168081,-0.00215089,0.10848956
 ,0.00002214,0.00000354,0.00001584,-0.00001069,0.00002514,0.00002375,0.
 00001047,0.00016475,0.00004236,0.00004579,0.00011131,-0.00000431,-0.00
 005194,0.00002852,0.00002812,0.00018727,-0.00007233,0.00010640,-0.0001
 7793,-0.00004410,-0.00006628,0.00001258,-0.00004906,0.00003557,-0.0000
 1803,0.00000270,0.00001342,0.00000983,0.00005151,0.00000868,-0.0001642
 0,-0.00006561,-0.00007702,0.00002421,0.00000126,0.00001890,0.00002624,
 -0.00001537,0.00002430,0.00020786,-0.00026727,-0.00069654,-0.00000167,
 0.00000387,0.00000322,0.00011496,0.00004212,0.00001255,-0.00003943,-0.
 00004555,-0.00002226,-0.00000160,-0.00009845,-0.00002721,-0.00001101,0
 .00004681,0.00001990,0.00003915,-0.00013654,0.00000270,-0.00004512,0.0
 0005501,-0.00002356,0.00012534,-0.00006235,0.00001290,-0.00005508,0.00
 002942,-0.00000148,0.00063067,-0.00333131,0.00128923,0.00548125,-0.002
 82004,0.02134914,-0.00027759,0.00008211,-0.00016691,-0.00011634,0.0001
 5500,-0.00025518,0.04930999,-0.03197528,0.06664745,-0.00208361,0.00512
 528,-0.00475644,-0.05319351,0.03305489,0.00001980,0.00000723,-0.000004
 84,-0.00007189,-0.00003191,0.00005483,0.00000395,-0.00002497,-0.000051
 22,-0.00026015,0.00015254,-0.00015183,-0.00000108,0.00008509,0.0001569
 2,0.00021902,0.00002013,0.00005251,-0.00005971,-0.00002716,0.00003435,
 0.00000273,-0.00004053,-0.00000728,0.00001243,-0.00000236,-0.00000252,
 -0.00000194,-0.00000098,0.00002211,-0.00006851,-0.00004051,0.00000863,
 0.00000374,-0.00000259,-0.00000359,-0.00000472,-0.00001243,0.00002489,
 0.00107113,-0.00016380,-0.00040285,-0.00000512,0.00000361,-0.00000775,
 0.00006033,0.00003998,-0.00004710,-0.00000722,-0.00000402,0.00001423,0
 .00004539,-0.00002037,-0.00001295,-0.00000683,0.00000942,0.00000398,0.
 00005836,0.00001422,0.00001317,-0.00001224,0.00000019,0.00001052,0.000
 05181,0.00002273,-0.00007444,-0.00000611,0.00000066,0.00002908,0.00064
 029,0.00009043,0.00124681,0.00867957,-0.00373827,0.00397929,-0.0002963
 0,0.00001644,-0.00014625,-0.00012212,0.00006903,-0.00016004,-0.1708797
 1,0.08704097,-0.43009754,-0.00083585,0.00009449,-0.00339539,0.16177097
 ,-0.08355724,0.42891428\\0.00000394,-0.00000745,0.00000211,0.00000014,
 0.00000075,-0.00000287,0.00000835,-0.00001431,-0.00001226,0.00001276,-
 0.00001049,0.00001239,0.00001452,0.00001622,-0.00000234,-0.00000744,0.
 00000052,0.00001546,-0.00000676,-0.00000406,0.00000262,-0.00000561,0.0
 0000247,-0.00000271,-0.00000364,-0.00000310,-0.00000068,0.00000427,-0.
 00000139,-0.00000077,0.00001458,0.00000382,0.00000449,-0.00000107,-0.0
 0000413,0.00000132,-0.00000328,0.00000260,0.00000084,-0.00000863,0.000
 01006,-0.00001171,-0.00000522,0.00000015,0.00000368,-0.00000130,-0.000
 00779,0.00000448,0.00000347,0.00000222,0.00000435,-0.00000421,0.000001
 81,-0.00000611,-0.00000040,-0.00000142,0.00000454,-0.00000022,0.000000
 51,0.00000590,-0.00000170,-0.00000445,0.00000481,0.00000697,0.00000521
 ,-0.00000673,-0.00000376,-0.00000202,0.00000906,0.00001641,-0.00000621
 ,0.00002093,-0.00002673,-0.00000125,-0.00000976,-0.00000664,-0.0000004
 1,-0.00002186,-0.00001087,0.00000258,-0.00001100,0.00001862,0.00000246
 ,0.00000483,-0.00000668,0.00001063,-0.00000546,0.00000011,0.00000645,-
 0.00000754\\\@


 WHEN ALL ELSE FAILS, LOOK AT THE SCHRODINGER EQUATION.
     -- RUSSELL T. PACK, APRIL 1978
 Job cpu time:       0 days  0 hours 29 minutes 54.8 seconds.
 File lengths (MBytes):  RWF=    220 Int=      0 D2E=      0 Chk=      6 Scr=      1
 Normal termination of Gaussian 09 at Mon Jan 16 00:32:16 2017.
