 Entering Gaussian System, Link 0=g09
 Initial command:
 /global/software/gaussian/g09.e01/l1.exe "/scratch/10451543.yak.local/Gau-32379.inp" -scrdir="/scratch/10451543.yak.local/"
 Entering Link 1 = /global/software/gaussian/g09.e01/l1.exe PID=     32380.
  
 Copyright (c) 1988,1990,1992,1993,1995,1998,2003,2009,2015,
            Gaussian, Inc.  All Rights Reserved.
  
 This is part of the Gaussian(R) 09 program.  It is based on
 the Gaussian(R) 03 system (copyright 2003, Gaussian, Inc.),
 the Gaussian(R) 98 system (copyright 1998, Gaussian, Inc.),
 the Gaussian(R) 94 system (copyright 1995, Gaussian, Inc.),
 the Gaussian 92(TM) system (copyright 1992, Gaussian, Inc.),
 the Gaussian 90(TM) system (copyright 1990, Gaussian, Inc.),
 the Gaussian 88(TM) system (copyright 1988, Gaussian, Inc.),
 the Gaussian 86(TM) system (copyright 1986, Carnegie Mellon
 University), and the Gaussian 82(TM) system (copyright 1983,
 Carnegie Mellon University). Gaussian is a federally registered
 trademark of Gaussian, Inc.
  
 This software contains proprietary and confidential information,
 including trade secrets, belonging to Gaussian, Inc.
  
 This software is provided under written license and may be
 used, copied, transmitted, or stored only in accord with that
 written license.
  
 The following legend is applicable only to US Government
 contracts under FAR:
  
                    RESTRICTED RIGHTS LEGEND
  
 Use, reproduction and disclosure by the US Government is
 subject to restrictions as set forth in subparagraphs (a)
 and (c) of the Commercial Computer Software - Restricted
 Rights clause in FAR 52.227-19.
  
 Gaussian, Inc.
 340 Quinnipiac St., Bldg. 40, Wallingford CT 06492
  
  
 ---------------------------------------------------------------
 Warning -- This program may not be used in any manner that
 competes with the business of Gaussian, Inc. or will provide
 assistance to any competitor of Gaussian, Inc.  The licensee
 of this program is prohibited from giving any competitor of
 Gaussian, Inc. access to this program.  By using this program,
 the user acknowledges that Gaussian, Inc. is engaged in the
 business of creating and licensing software in the field of
 computational chemistry and represents and warrants to the
 licensee that it is not a competitor of Gaussian, Inc. and that
 it will not use this program in any manner prohibited above.
 ---------------------------------------------------------------
  

 Cite this work as:
 Gaussian 09, Revision E.01,
 M. J. Frisch, G. W. Trucks, H. B. Schlegel, G. E. Scuseria, 
 M. A. Robb, J. R. Cheeseman, G. Scalmani, V. Barone, B. Mennucci, 
 G. A. Petersson, H. Nakatsuji, M. Caricato, X. Li, H. P. Hratchian, 
 A. F. Izmaylov, J. Bloino, G. Zheng, J. L. Sonnenberg, M. Hada, 
 M. Ehara, K. Toyota, R. Fukuda, J. Hasegawa, M. Ishida, T. Nakajima, 
 Y. Honda, O. Kitao, H. Nakai, T. Vreven, J. A. Montgomery, Jr., 
 J. E. Peralta, F. Ogliaro, M. Bearpark, J. J. Heyd, E. Brothers, 
 K. N. Kudin, V. N. Staroverov, T. Keith, R. Kobayashi, J. Normand, 
 K. Raghavachari, A. Rendell, J. C. Burant, S. S. Iyengar, J. Tomasi, 
 M. Cossi, N. Rega, J. M. Millam, M. Klene, J. E. Knox, J. B. Cross, 
 V. Bakken, C. Adamo, J. Jaramillo, R. Gomperts, R. E. Stratmann, 
 O. Yazyev, A. J. Austin, R. Cammi, C. Pomelli, J. W. Ochterski, 
 R. L. Martin, K. Morokuma, V. G. Zakrzewski, G. A. Voth, 
 P. Salvador, J. J. Dannenberg, S. Dapprich, A. D. Daniels, 
 O. Farkas, J. B. Foresman, J. V. Ortiz, J. Cioslowski, 
 and D. J. Fox, Gaussian, Inc., Wallingford CT, 2013.
 
 ******************************************
 Gaussian 09:  ES64L-G09RevE.01 30-Nov-2015
                11-Jan-2017 
 ******************************************
 %NPROCS=4
 Will use up to    4 processors via shared memory.
 ----------------------------------------------------------------------
 # opt=(calcfc,ts,noeigentest,maxcycle=1000,cartesian) freq b3lyp/6-31g
 (d) geom=connectivity
 ----------------------------------------------------------------------
 1/5=1,6=1000,10=4,11=1,14=-1,18=10,26=3,38=1,57=2/1,3;
 2/12=2,17=6,18=5,29=2,40=1/2;
 3/5=1,6=6,7=1,11=2,16=1,25=1,30=1,71=2,74=-5,140=1/1,2,3;
 4//1;
 5/5=2,38=5/2;
 8/6=4,10=90,11=11/1;
 11/6=1,8=1,9=11,15=111,16=1/1,2,10;
 10/6=1,13=1/2;
 6/7=2,8=2,9=2,10=2,28=1/1;
 7/7=1,10=1,18=20,25=1/1,2,3,16;
 1/5=1,6=1000,10=4,11=1,14=-1,18=10,26=3/3(2);
 2/29=1/2;
 99/12=1/99;
 2/29=1/2;
 3/5=1,6=6,7=1,11=2,16=1,25=1,30=1,71=1,74=-5/1,2,3;
 4/5=5,16=3,69=1/1;
 5/5=2,38=5/2;
 7/7=1/1,2,3,16;
 1/5=1,6=1000,11=1,14=-1,18=10,26=3/3(-5);
 2/29=1/2;
 6/7=2,8=2,9=2,10=2,19=2,28=1/1;
 99/9=1,12=1/99;
 -------------------------
 boat6_Alpha_B3LYP_6-31G_d
 -------------------------
 Symbolic Z-matrix:
 Charge =  0 Multiplicity = 1
 C                    -0.39253  -0.15317   1.16678 
 C                     1.35867   0.64404  -0.47132 
 C                     0.28714   1.0622    0.54832 
 C                     1.38021  -0.8885   -0.73499 
 H                     1.95196  -1.05991  -1.62303 
 H                     2.3289    1.016    -0.21599 
 H                     0.22005  -0.67345   1.87315 
 H                    -0.39092   1.75365   0.09332 
 C                     0.17662  -1.50774  -1.01435 
 O                    -1.06423  -1.0235    0.16641 
 C                    -1.5699    0.35907   2.01709 
 H                    -1.20109   1.01183   2.78048 
 H                    -2.25555   0.89244   1.39235 
 O                    -2.23972  -0.75049   2.62133 
 H                    -2.83542  -0.43232   3.30362 
 O                     2.03757  -1.60284   0.31501 
 H                     2.88757  -1.92139   0.00257 
 O                     1.0255    1.25452  -1.7208 
 H                     0.67496   0.59022  -2.31865 
 O                     0.92616   1.78943   1.60079 
 H                     0.76872   2.72902   1.48256 
 O                    -0.53223  -4.32732   0.42709 
 H                     0.16224  -3.80878  -0.40287 
 H                    -1.546    -4.10895   1.0309 
 H                     0.10666  -5.05391   1.13694 
 O                     0.45555  -2.80804  -0.99658 
 H                    -0.21578  -1.2402   -1.97318 
 O                    -1.56004  -2.93695   1.28822 
 H                    -1.27804  -2.86027   2.20265 
 H                    -1.69727  -1.83584   0.82225 
 

 GradGradGradGradGradGradGradGradGradGradGradGradGradGradGradGradGradGrad
 Berny optimization.
 Initialization pass.
 No Z-matrix variables, so optimization will use Cartesian coordinates.
 Trust Radius=3.00D-01 FncErr=1.00D-07 GrdErr=1.00D-06
 Number of steps in this run=    180 maximum allowed number of steps=    180.
 Search for a saddle point of order  1.
 GradGradGradGradGradGradGradGradGradGradGradGradGradGradGradGradGradGrad

 ---------------------------------------------------------------------------------------------------
                            Z-MATRIX (ANGSTROMS AND DEGREES)
   CD    Cent   Atom    N1       Length/X        N2       Alpha/Y        N3        Beta/Z          J
 ---------------------------------------------------------------------------------------------------
      1      1  C        0  -0.392526         -0.153168          1.166785
      2      2  C        0   1.358668          0.644041         -0.471315
      3      3  C        0   0.287144          1.062202          0.548325
      4      4  C        0   1.380206         -0.888503         -0.734985
      5      5  H        0   1.951956         -1.059914         -1.623028
      6      6  H        0   2.328903          1.016002         -0.215993
      7      7  H        0   0.220052         -0.673448          1.873154
      8      8  H        0  -0.390916          1.753653          0.093320
      9      9  C        0   0.176621         -1.507740         -1.014353
     10     10  O        0  -1.064227         -1.023500          0.166413
     11     11  C        0  -1.569897          0.359068          2.017085
     12     12  H        0  -1.201090          1.011834          2.780484
     13     13  H        0  -2.255551          0.892437          1.392349
     14     14  O        0  -2.239720         -0.750490          2.621334
     15     15  H        0  -2.835417         -0.432318          3.303618
     16     16  O        0   2.037570         -1.602841          0.315012
     17     17  H        0   2.887574         -1.921391          0.002570
     18     18  O        0   1.025496          1.254523         -1.720798
     19     19  H        0   0.674956          0.590222         -2.318648
     20     20  O        0   0.926164          1.789431          1.600794
     21     21  H        0   0.768724          2.729023          1.482556
     22     22  O        0  -0.532227         -4.327320          0.427091
     23     23  H        0   0.162236         -3.808776         -0.402869
     24     24  H        0  -1.545997         -4.108954          1.030900
     25     25  H        0   0.106656         -5.053915          1.136943
     26     26  O        0   0.455548         -2.808041         -0.996584
     27     27  H        0  -0.215781         -1.240203         -1.973178
     28     28  O        0  -1.560038         -2.936951          1.288217
     29     29  H        0  -1.278039         -2.860267          2.202654
     30     30  H        0  -1.697265         -1.835837          0.822247
 ---------------------------------------------------------------------------------------------------
                         Z-Matrix orientation:                         
 ---------------------------------------------------------------------
 Center     Atomic      Atomic             Coordinates (Angstroms)
 Number     Number       Type             X           Y           Z
 ---------------------------------------------------------------------
      1          6           0       -0.392526   -0.153168    1.166785
      2          6           0        1.358668    0.644041   -0.471315
      3          6           0        0.287144    1.062202    0.548325
      4          6           0        1.380206   -0.888503   -0.734985
      5          1           0        1.951956   -1.059914   -1.623028
      6          1           0        2.328903    1.016002   -0.215993
      7          1           0        0.220052   -0.673448    1.873154
      8          1           0       -0.390916    1.753653    0.093320
      9          6           0        0.176621   -1.507740   -1.014353
     10          8           0       -1.064227   -1.023500    0.166413
     11          6           0       -1.569897    0.359068    2.017085
     12          1           0       -1.201090    1.011834    2.780484
     13          1           0       -2.255551    0.892437    1.392349
     14          8           0       -2.239720   -0.750490    2.621334
     15          1           0       -2.835417   -0.432318    3.303618
     16          8           0        2.037570   -1.602841    0.315012
     17          1           0        2.887574   -1.921391    0.002570
     18          8           0        1.025496    1.254523   -1.720798
     19          1           0        0.674956    0.590222   -2.318648
     20          8           0        0.926164    1.789431    1.600794
     21          1           0        0.768724    2.729023    1.482556
     22          8           0       -0.532227   -4.327320    0.427091
     23          1           0        0.162236   -3.808776   -0.402869
     24          1           0       -1.545997   -4.108954    1.030900
     25          1           0        0.106656   -5.053915    1.136943
     26          8           0        0.455548   -2.808041   -0.996584
     27          1           0       -0.215781   -1.240203   -1.973178
     28          8           0       -1.560038   -2.936951    1.288217
     29          1           0       -1.278039   -2.860267    2.202654
     30          1           0       -1.697265   -1.835837    0.822247
 ---------------------------------------------------------------------
                    Distance matrix (angstroms):
                    1          2          3          4          5
     1  C    0.000000
     2  C    2.526973   0.000000
     3  C    1.523669   1.537104   0.000000
     4  C    2.701856   1.555210   2.578162   0.000000
     5  H    3.755242   2.140536   3.462621   1.070000   0.000000
     6  H    3.268824   1.070000   2.180618   2.190096   2.535994
     7  H    1.070000   2.920404   2.184526   2.862621   3.920732
     8  H    2.188218   2.147346   1.070000   3.286936   4.043644
     9  C    2.629858   2.514415   3.009780   1.382070   1.929468
    10  O    1.486407   3.009620   2.514401   2.608830   3.507247
    11  C    1.540000   3.853549   2.469869   4.222965   5.259980
    12  H    2.148263   4.154736   2.683265   4.757404   5.798686
    13  H    2.148263   4.074006   2.684492   4.573405   5.532385
    14  O    2.425826   4.945462   3.737414   4.938399   5.973316
    15  H    3.257560   5.744477   4.424434   5.855758   6.898163
    16  O    2.955069   2.475419   3.197011   1.430000   2.014473
    17  H    3.903980   3.023831   3.995235   1.970533   2.063999
    18  O    3.511484   1.430000   2.393966   2.385416   2.494896
    19  H    3.720268   1.970533   2.931331   2.278595   2.199447
    20  O    2.387677   2.406785   1.430000   3.582367   4.423126
    21  H    3.123338   2.917670   1.970533   4.286945   5.039914
    22  O    4.241487   5.394168   5.452799   4.102838   4.588038
    23  H    4.016845   4.611259   4.964554   3.181469   3.499733
    24  H    4.122767   5.769289   5.507644   4.695990   5.345621
    25  H    4.926194   6.051506   6.147026   4.740960   5.193709
    26  O    3.528136   3.606716   4.170597   2.146637   2.384872
    27  H    3.327499   2.878343   3.451373   2.050363   2.203223
    28  O    3.021138   4.943511   4.466850   4.115157   4.932820
    29  H    3.030766   5.136391   4.535677   4.425364   5.320713
    30  H    2.156948   4.142683   3.523002   3.576765   4.460745
                    6          7          8          9         10
     6  H    0.000000
     7  H    3.415557   0.000000
     8  H    2.834998   3.071142   0.000000
     9  C    3.411593   3.005932   3.490805   0.000000
    10  O    3.977327   2.164457   2.858543   1.780000   0.000000
    11  C    4.540797   2.071406   2.652497   3.965465   2.364780
    12  H    4.630307   2.383918   2.903021   4.758900   3.315824
    13  H    4.859964   2.968465   2.430234   4.179536   2.567681
    14  O    5.660674   2.572195   4.009946   4.430615   2.735499
    15  H    6.415255   3.382346   4.589125   5.373433   3.650845
    16  O    2.687970   2.568064   4.148825   2.288970   3.158934
    17  H    2.998026   3.488857   4.925716   2.924808   4.055833
    18  O    2.005043   4.157199   2.355075   2.974853   3.621864
    19  H    2.708873   4.401705   2.882229   2.520112   3.435751
    20  O    2.422103   2.576538   2.002113   4.274593   3.732518
    21  H    2.872919   3.468489   2.055745   4.953312   4.378741
    22  O    6.095139   4.000976   6.091766   3.245036   3.356517
    23  H    5.292245   3.874779   5.611844   2.380943   3.096136
    24  H    6.544828   3.953609   6.048424   3.730522   3.240288
    25  H    6.603992   4.443350   6.905049   4.148292   4.307800
    26  O    4.329213   3.584319   4.765862   1.330000   2.616652
    27  H    3.827999   3.912216   3.642013   1.070000   2.311854
    28  O    5.745637   2.938421   4.979598   3.218766   2.272789
    29  H    5.821112   2.671147   5.150198   3.780807   2.750583
    30  H    5.041920   2.476219   3.888743   2.644277   1.220962
                   11         12         13         14         15
    11  C    0.000000
    12  H    1.070000   0.000000
    13  H    1.070000   1.747303   0.000000
    14  O    1.430000   2.051796   2.051796   0.000000
    15  H    1.970533   2.242826   2.396700   0.960000   0.000000
    16  O    4.445218   4.837768   5.081138   4.933643   5.835057
    17  H    5.397019   5.747851   6.025018   5.875208   6.772509
    18  O    4.637853   5.027736   4.537407   5.791013   6.557198
    19  H    4.887881   5.449629   4.738217   5.890354   6.706577
    20  O    2.906812   2.553730   3.312305   4.185155   4.688846
    21  H    3.372174   2.917794   3.539411   4.738625   5.128370
    22  O    5.056390   5.873024   5.580989   4.530336   5.361915
    23  H    5.121269   5.935544   5.583002   4.926287   5.841613
    24  H    4.575627   5.422405   5.064388   3.780213   4.510599
    25  H    5.734620   6.419091   6.403464   5.121363   5.891471
    26  O    4.818217   5.621578   5.172098   4.958560   5.913227
    27  H    4.507050   5.351617   4.476113   5.044372   5.946406
    28  O    3.375662   4.236580   3.893430   2.649487   3.458558
    29  H    3.237860   3.915735   3.961681   2.356116   3.087472
    30  H    2.502293   3.491434   2.842565   2.170011   3.069601
                   16         17         18         19         20
    16  O    0.000000
    17  H    0.960000   0.000000
    18  O    3.651486   4.064942   0.000000
    19  H    3.688145   4.073319   0.960000   0.000000
    20  O    3.794203   4.491286   3.365853   4.106487   0.000000
    21  H    4.662422   5.320360   3.535754   4.362616   0.960000
    22  O    3.746892   4.202827   6.180364   5.760086   6.396806
    23  H    2.983016   3.339772   5.302750   4.825378   5.994846
    24  H    4.431146   5.049698   6.553725   6.183394   6.420850
    25  H    4.039048   4.339703   6.986225   6.642315   6.907832
    26  O    2.382348   2.774744   4.165784   3.652969   5.301378
    27  H    3.231858   3.741444   2.797878   2.064756   4.822447
    28  O    3.958505   4.739779   5.771275   5.517755   5.349542
    29  H    4.017160   4.803560   6.134432   6.013505   5.180776
    30  H    3.776317   4.658320   4.840541   4.623680   4.542145
                   21         22         23         24         25
    21  H    0.000000
    22  O    7.252480   0.000000
    23  H    6.831213   1.200000   0.000000
    24  H    7.233247   1.200000   2.250302   0.000000
    25  H    7.818689   1.200000   1.981030   1.906687   0.000000
    26  O    6.074808   2.304508   1.200000   3.131972   3.117309
    27  H    5.354073   3.923228   3.034194   4.361616   4.931654
    28  O    6.128961   1.931595   2.566335   1.200000   2.698571
    29  H    5.995661   2.420972   3.124550   1.733213   2.804498
    30  H    5.230206   2.778661   2.975087   2.287681   3.702593
                   26         27         28         29         30
    26  O    0.000000
    27  H    1.965333   0.000000
    28  O    3.049511   3.914418   0.000000
    29  H    3.639118   4.603322   0.960000   0.000000
    30  H    2.981264   3.219313   1.203500   1.769387   0.000000
 Stoichiometry    C6H16O8
 Framework group  C1[X(C6H16O8)]
 Deg. of freedom    84
 Full point group                 C1      NOp   1
 Largest Abelian subgroup         C1      NOp   1
 Largest concise Abelian subgroup C1      NOp   1
                         Standard orientation:                         
 ---------------------------------------------------------------------
 Center     Atomic      Atomic             Coordinates (Angstroms)
 Number     Number       Type             X           Y           Z
 ---------------------------------------------------------------------
      1          6           0        0.398823    1.020582    0.131274
      2          6           0        2.042862   -0.898240    0.102071
      3          6           0        1.861483    0.622923   -0.023844
      4          6           0        0.692937   -1.664358    0.199241
      5          1           0        0.891032   -2.700625    0.020894
      6          1           0        2.707191   -1.163201    0.897912
      7          1           0        0.042970    0.960484    1.138576
      8          1           0        2.309498    0.963739   -0.933804
      9          6           0       -0.281158   -1.367521   -0.735181
     10          8           0       -0.491199    0.394019   -0.880993
     11          6           0        0.290182    2.520170   -0.201942
     12          1           0        0.904902    3.080540    0.471115
     13          1           0        0.617673    2.686877   -1.206859
     14          8           0       -1.069916    2.940944   -0.067843
     15          1           0       -1.110642    3.900065   -0.073160
     16          8           0        0.122679   -1.579637    1.507877
     17          1           0        0.200522   -2.429757    1.947009
     18          8           0        2.671547   -1.357585   -1.097369
     19          1           0        2.027129   -1.815908   -1.641671
     20          8           0        2.600347    1.253161    1.025813
     21          1           0        3.417756    1.611275    0.671982
     22          8           0       -3.349132   -0.962079    0.241247
     23          1           0       -2.483978   -1.775995    0.070809
     24          1           0       -3.625855    0.155910   -0.095689
     25          1           0       -3.884044   -1.111769    1.304949
     26          8           0       -1.366481   -2.003159   -0.302818
     27          1           0       -0.033620   -1.712062   -1.717482
     28          8           0       -2.601350    0.779780   -0.129981
     29          1           0       -2.569086    1.286457    0.684781
     30          1           0       -1.574161    0.939066   -0.736548
 ---------------------------------------------------------------------
 Rotational constants (GHZ):      0.7656236      0.5930878      0.3927686
 Standard basis: 6-31G(d) (6D, 7F)
 There are   242 symmetry adapted cartesian basis functions of A   symmetry.
 There are   242 symmetry adapted basis functions of A   symmetry.
   242 basis functions,   456 primitive gaussians,   242 cartesian basis functions
    58 alpha electrons       58 beta electrons
       nuclear repulsion energy      1135.9734284161 Hartrees.
 NAtoms=   30 NActive=   30 NUniq=   30 SFac= 1.00D+00 NAtFMM=   60 NAOKFM=F Big=F
 Integral buffers will be    131072 words long.
 Raffenetti 2 integral format.
 Two-electron integral symmetry is turned on.
 One-electron integrals computed using PRISM.
 NBasis=   242 RedAO= T EigKep=  1.20D-03  NBF=   242
 NBsUse=   242 1.00D-06 EigRej= -1.00D+00 NBFU=   242
 ExpMin= 1.61D-01 ExpMax= 5.48D+03 ExpMxC= 8.25D+02 IAcc=1 IRadAn=         1 AccDes= 0.00D+00
 Harris functional with IExCor=  402 and IRadAn=       1 diagonalized for initial guess.
 HarFok:  IExCor=  402 AccDes= 0.00D+00 IRadAn=         1 IDoV= 1 UseB2=F ITyADJ=14
 ICtDFT=  3500011 ScaDFX=  1.000000  1.000000  1.000000  1.000000
 FoFCou: FMM=F IPFlag=           0 FMFlag=      100000 FMFlg1=           0
         NFxFlg=           0 DoJE=T BraDBF=F KetDBF=T FulRan=T
         wScrn=  0.000000 ICntrl=     500 IOpCl=  0 I1Cent=   200000004 NGrid=           0
         NMat0=    1 NMatS0=      1 NMatT0=    0 NMatD0=    1 NMtDS0=    0 NMtDT0=    0
 Petite list used in FoFCou.
 Requested convergence on RMS density matrix=1.00D-08 within 128 cycles.
 Requested convergence on MAX density matrix=1.00D-06.
 Requested convergence on             energy=1.00D-06.
 No special actions if energy rises.
 Integral accuracy reduced to 1.0D-05 until final iterations.
 Initial convergence to 1.0D-05 achieved.  Increase integral accuracy.
 SCF Done:  E(RB3LYP) =  -839.719357885     A.U. after   15 cycles
            NFock= 15  Conv=0.54D-08     -V/T= 2.0075
 DoSCS=F DFT=T ScalE2(SS,OS)=  1.000000  1.000000
 Range of M.O.s used for correlation:     1   242
 NBasis=   242 NAE=    58 NBE=    58 NFC=     0 NFV=     0
 NROrb=    242 NOA=    58 NOB=    58 NVA=   184 NVB=   184
 Symmetrizing basis deriv contribution to polar:
 IMax=3 JMax=2 DiffMx= 0.00D+00
 G2DrvN: will do    31 centers at a time, making    1 passes.
 Calling FoFCou, ICntrl=  3107 FMM=F I1Cent=   0 AccDes= 0.00D+00.
 End of G2Drv F.D. properties file   721 does not exist.
 End of G2Drv F.D. properties file   722 does not exist.
 End of G2Drv F.D. properties file   788 does not exist.
          IDoAtm=111111111111111111111111111111
          Differentiating once with respect to nuclear coordinates.
          There are    93 degrees of freedom in the 1st order CPHF.  IDoFFX=6 NUNeed=     0.
     87 vectors produced by pass  0 Test12= 1.15D-14 1.08D-09 XBig12= 1.24D-01 1.43D-01.
 AX will form    87 AO Fock derivatives at one time.
     87 vectors produced by pass  1 Test12= 1.15D-14 1.08D-09 XBig12= 1.54D-02 1.74D-02.
     87 vectors produced by pass  2 Test12= 1.15D-14 1.08D-09 XBig12= 9.76D-05 1.74D-03.
     87 vectors produced by pass  3 Test12= 1.15D-14 1.08D-09 XBig12= 2.71D-07 7.18D-05.
     87 vectors produced by pass  4 Test12= 1.15D-14 1.08D-09 XBig12= 3.20D-10 1.77D-06.
     73 vectors produced by pass  5 Test12= 1.15D-14 1.08D-09 XBig12= 2.93D-13 5.89D-08.
      6 vectors produced by pass  6 Test12= 1.15D-14 1.08D-09 XBig12= 2.55D-16 1.25D-09.
 InvSVY:  IOpt=1 It=  1 EMax= 4.16D-16
 Solved reduced A of dimension   514 with    93 vectors.
 End of Minotr F.D. properties file   721 does not exist.
 End of Minotr F.D. properties file   722 does not exist.
 End of Minotr F.D. properties file   788 does not exist.

 **********************************************************************

            Population analysis using the SCF density.

 **********************************************************************

 Orbital symmetries:
       Occupied  (A) (A) (A) (A) (A) (A) (A) (A) (A) (A) (A) (A)
                 (A) (A) (A) (A) (A) (A) (A) (A) (A) (A) (A) (A)
                 (A) (A) (A) (A) (A) (A) (A) (A) (A) (A) (A) (A)
                 (A) (A) (A) (A) (A) (A) (A) (A) (A) (A) (A) (A)
                 (A) (A) (A) (A) (A) (A) (A) (A) (A) (A)
       Virtual   (A) (A) (A) (A) (A) (A) (A) (A) (A) (A) (A) (A)
                 (A) (A) (A) (A) (A) (A) (A) (A) (A) (A) (A) (A)
                 (A) (A) (A) (A) (A) (A) (A) (A) (A) (A) (A) (A)
                 (A) (A) (A) (A) (A) (A) (A) (A) (A) (A) (A) (A)
                 (A) (A) (A) (A) (A) (A) (A) (A) (A) (A) (A) (A)
                 (A) (A) (A) (A) (A) (A) (A) (A) (A) (A) (A) (A)
                 (A) (A) (A) (A) (A) (A) (A) (A) (A) (A) (A) (A)
                 (A) (A) (A) (A) (A) (A) (A) (A) (A) (A) (A) (A)
                 (A) (A) (A) (A) (A) (A) (A) (A) (A) (A) (A) (A)
                 (A) (A) (A) (A) (A) (A) (A) (A) (A) (A) (A) (A)
                 (A) (A) (A) (A) (A) (A) (A) (A) (A) (A) (A) (A)
                 (A) (A) (A) (A) (A) (A) (A) (A) (A) (A) (A) (A)
                 (A) (A) (A) (A) (A) (A) (A) (A) (A) (A) (A) (A)
                 (A) (A) (A) (A) (A) (A) (A) (A) (A) (A) (A) (A)
                 (A) (A) (A) (A) (A) (A) (A) (A) (A) (A) (A) (A)
                 (A) (A) (A) (A)
 The electronic state is 1-A.
 Alpha  occ. eigenvalues --  -19.15786 -19.14893 -19.14781 -19.14282 -19.13416
 Alpha  occ. eigenvalues --  -19.10910 -19.09032 -19.07892 -10.27248 -10.23849
 Alpha  occ. eigenvalues --  -10.23617 -10.23048 -10.22992 -10.22621  -1.04160
 Alpha  occ. eigenvalues --   -1.02649  -1.02605  -1.01554  -0.99887  -0.96986
 Alpha  occ. eigenvalues --   -0.96097  -0.89082  -0.78201  -0.76084  -0.70507
 Alpha  occ. eigenvalues --   -0.64355  -0.60455  -0.56571  -0.54543  -0.54116
 Alpha  occ. eigenvalues --   -0.53326  -0.52492  -0.50741  -0.48865  -0.47952
 Alpha  occ. eigenvalues --   -0.46509  -0.45987  -0.44024  -0.42262  -0.41769
 Alpha  occ. eigenvalues --   -0.40778  -0.39011  -0.37700  -0.36047  -0.35142
 Alpha  occ. eigenvalues --   -0.34364  -0.33964  -0.32567  -0.31210  -0.29849
 Alpha  occ. eigenvalues --   -0.28705  -0.27647  -0.27252  -0.26354  -0.25017
 Alpha  occ. eigenvalues --   -0.23883  -0.21665  -0.18686
 Alpha virt. eigenvalues --    0.02110   0.03764   0.05330   0.06365   0.07131
 Alpha virt. eigenvalues --    0.08057   0.12342   0.13127   0.13385   0.14181
 Alpha virt. eigenvalues --    0.15816   0.16676   0.17541   0.17831   0.19409
 Alpha virt. eigenvalues --    0.20077   0.20541   0.22001   0.23288   0.24375
 Alpha virt. eigenvalues --    0.25763   0.26878   0.27806   0.29419   0.31369
 Alpha virt. eigenvalues --    0.32302   0.35534   0.38497   0.51797   0.53072
 Alpha virt. eigenvalues --    0.54509   0.57047   0.57441   0.59244   0.61521
 Alpha virt. eigenvalues --    0.62732   0.63259   0.64835   0.65550   0.68205
 Alpha virt. eigenvalues --    0.69324   0.70457   0.72314   0.73788   0.74410
 Alpha virt. eigenvalues --    0.75613   0.76720   0.77832   0.80513   0.81075
 Alpha virt. eigenvalues --    0.81851   0.82641   0.84731   0.85507   0.86611
 Alpha virt. eigenvalues --    0.87323   0.87753   0.88966   0.91256   0.91996
 Alpha virt. eigenvalues --    0.92535   0.93343   0.94181   0.94485   0.97448
 Alpha virt. eigenvalues --    0.98659   0.98873   0.99781   1.02971   1.03999
 Alpha virt. eigenvalues --    1.04734   1.05965   1.07344   1.07552   1.10306
 Alpha virt. eigenvalues --    1.10949   1.12357   1.15035   1.15586   1.17642
 Alpha virt. eigenvalues --    1.22138   1.24415   1.25375   1.26318   1.26804
 Alpha virt. eigenvalues --    1.27878   1.31908   1.33867   1.34722   1.35684
 Alpha virt. eigenvalues --    1.40520   1.41477   1.43892   1.47664   1.48990
 Alpha virt. eigenvalues --    1.53994   1.55574   1.58787   1.60284   1.61416
 Alpha virt. eigenvalues --    1.63587   1.66488   1.68156   1.69642   1.70692
 Alpha virt. eigenvalues --    1.72091   1.74796   1.76602   1.77869   1.78306
 Alpha virt. eigenvalues --    1.79655   1.80704   1.82536   1.83474   1.86207
 Alpha virt. eigenvalues --    1.87558   1.88171   1.89120   1.90811   1.92989
 Alpha virt. eigenvalues --    1.93520   1.95212   1.96669   1.98127   2.02461
 Alpha virt. eigenvalues --    2.03160   2.04288   2.05804   2.06867   2.08522
 Alpha virt. eigenvalues --    2.09644   2.11718   2.12206   2.14952   2.15944
 Alpha virt. eigenvalues --    2.17696   2.21984   2.25238   2.26504   2.29642
 Alpha virt. eigenvalues --    2.33746   2.34849   2.36607   2.37519   2.40113
 Alpha virt. eigenvalues --    2.42248   2.44016   2.47666   2.49478   2.51298
 Alpha virt. eigenvalues --    2.52262   2.53138   2.54208   2.60418   2.62313
 Alpha virt. eigenvalues --    2.63505   2.65555   2.67173   2.72141   2.74014
 Alpha virt. eigenvalues --    2.76768   2.78175   2.83725   2.89585   2.91185
 Alpha virt. eigenvalues --    2.94127   2.97044   3.01879   3.02899   3.06171
 Alpha virt. eigenvalues --    3.73662   3.74890   3.80637   3.82051   3.85796
 Alpha virt. eigenvalues --    3.94275   4.05404   4.11486   4.30167   4.37633
 Alpha virt. eigenvalues --    4.41513   4.57056   4.62512   4.84630
          Condensed to atoms (all electrons):
               1          2          3          4          5          6
     1  C    4.987553  -0.055331   0.293614   0.001447  -0.000104   0.004295
     2  C   -0.055331   5.024331   0.299209   0.278147  -0.048677   0.361102
     3  C    0.293614   0.299209   5.026030  -0.016870   0.006821  -0.058764
     4  C    0.001447   0.278147  -0.016870   5.175941   0.369076  -0.023985
     5  H   -0.000104  -0.048677   0.006821   0.369076   0.614762  -0.007096
     6  H    0.004295   0.361102  -0.058764  -0.023985  -0.007096   0.586419
     7  H    0.348023  -0.006378  -0.038675  -0.000970   0.000045   0.000257
     8  H   -0.032764  -0.051636   0.355891   0.002876  -0.000308   0.004805
     9  C   -0.008906  -0.050376  -0.022815   0.235263  -0.051359   0.006324
    10  O    0.155009   0.002657  -0.020173  -0.012614   0.002952   0.000021
    11  C    0.344155   0.004781  -0.024739   0.000230   0.000027  -0.000208
    12  H   -0.036478   0.000197  -0.002985  -0.000005  -0.000000  -0.000000
    13  H   -0.041161  -0.000215  -0.004631   0.000025  -0.000001  -0.000002
    14  O   -0.044225  -0.000038   0.002306  -0.000000   0.000000   0.000001
    15  H    0.005798   0.000003  -0.000206  -0.000000   0.000000  -0.000000
    16  O   -0.001704  -0.045137   0.001320   0.197657  -0.023662   0.002573
    17  H    0.000172   0.002981  -0.000324  -0.014108  -0.013570   0.000859
    18  O    0.004377   0.210629  -0.057084  -0.022183   0.002469  -0.040024
    19  H   -0.000422  -0.046167   0.003895  -0.007459   0.002397   0.005353
    20  O   -0.038497  -0.040575   0.169672   0.002099  -0.000106   0.006219
    21  H    0.004923   0.002886  -0.015810  -0.000143   0.000005   0.000537
    22  O   -0.000119   0.000008  -0.000003  -0.000280  -0.000009  -0.000000
    23  H    0.000008   0.000023  -0.000005   0.001525  -0.000158   0.000000
    24  H   -0.000155  -0.000003   0.000001   0.000010  -0.000000   0.000000
    25  H    0.000012  -0.000002   0.000000  -0.000037  -0.000001   0.000000
    26  O    0.000276   0.006244   0.000150  -0.078707  -0.006167  -0.000130
    27  H    0.001689   0.002678   0.000867  -0.095658  -0.006361  -0.000198
    28  O    0.013988   0.000006   0.000084  -0.000482   0.000001   0.000000
    29  H   -0.000398  -0.000009   0.000137   0.000016   0.000000   0.000000
    30  H   -0.020451  -0.000171   0.000579   0.001331  -0.000045   0.000004
               7          8          9         10         11         12
     1  C    0.348023  -0.032764  -0.008906   0.155009   0.344155  -0.036478
     2  C   -0.006378  -0.051636  -0.050376   0.002657   0.004781   0.000197
     3  C   -0.038675   0.355891  -0.022815  -0.020173  -0.024739  -0.002985
     4  C   -0.000970   0.002876   0.235263  -0.012614   0.000230  -0.000005
     5  H    0.000045  -0.000308  -0.051359   0.002952   0.000027  -0.000000
     6  H    0.000257   0.004805   0.006324   0.000021  -0.000208  -0.000000
     7  H    0.579340   0.005895  -0.002576  -0.034268  -0.054230  -0.001811
     8  H    0.005895   0.609264   0.001109   0.001374  -0.013952   0.000269
     9  C   -0.002576   0.001109   4.780527   0.091748   0.001717  -0.000037
    10  O   -0.034268   0.001374   0.091748   8.548701  -0.041762   0.004078
    11  C   -0.054230  -0.013952   0.001717  -0.041762   4.928815   0.349681
    12  H   -0.001811   0.000269  -0.000037   0.004078   0.349681   0.618714
    13  H    0.007962   0.008666  -0.000055   0.000188   0.351987  -0.048046
    14  O    0.003728   0.000027  -0.000045  -0.001116   0.231734  -0.033870
    15  H   -0.000218  -0.000013   0.000005   0.000020  -0.018308  -0.006547
    16  O    0.007484  -0.000111  -0.061407  -0.000941   0.000182   0.000000
    17  H   -0.000084   0.000007   0.005411  -0.000035  -0.000007  -0.000000
    18  O    0.000007   0.007229   0.002392  -0.000273  -0.000108  -0.000004
    19  H    0.000022  -0.000224   0.006231  -0.000320   0.000003   0.000001
    20  O    0.002545  -0.031598   0.000185   0.000894  -0.004211   0.013804
    21  H   -0.000213  -0.011243  -0.000016  -0.000066   0.000320  -0.000282
    22  O    0.000004  -0.000000   0.006729  -0.001346   0.000011  -0.000000
    23  H   -0.000029  -0.000000  -0.018415   0.002186  -0.000001  -0.000000
    24  H   -0.000184  -0.000000  -0.000122   0.002728   0.000010   0.000000
    25  H    0.000019   0.000000   0.000059   0.000001  -0.000001   0.000000
    26  O    0.000742   0.000007   0.345721  -0.032638  -0.000037   0.000001
    27  H   -0.000035  -0.000009   0.374911  -0.027487  -0.000194   0.000003
    28  O    0.003280   0.000001   0.003467  -0.118355   0.000418  -0.000026
    29  H    0.000765   0.000001  -0.000011   0.006374  -0.000930  -0.000032
    30  H    0.000468   0.000008  -0.002736   0.100591  -0.004619   0.000779
              13         14         15         16         17         18
     1  C   -0.041161  -0.044225   0.005798  -0.001704   0.000172   0.004377
     2  C   -0.000215  -0.000038   0.000003  -0.045137   0.002981   0.210629
     3  C   -0.004631   0.002306  -0.000206   0.001320  -0.000324  -0.057084
     4  C    0.000025  -0.000000  -0.000000   0.197657  -0.014108  -0.022183
     5  H   -0.000001   0.000000   0.000000  -0.023662  -0.013570   0.002469
     6  H   -0.000002   0.000001  -0.000000   0.002573   0.000859  -0.040024
     7  H    0.007962   0.003728  -0.000218   0.007484  -0.000084   0.000007
     8  H    0.008666   0.000027  -0.000013  -0.000111   0.000007   0.007229
     9  C   -0.000055  -0.000045   0.000005  -0.061407   0.005411   0.002392
    10  O    0.000188  -0.001116   0.000020  -0.000941  -0.000035  -0.000273
    11  C    0.351987   0.231734  -0.018308   0.000182  -0.000007  -0.000108
    12  H   -0.048046  -0.033870  -0.006547   0.000000  -0.000000  -0.000004
    13  H    0.637510  -0.042497  -0.001229  -0.000004   0.000000  -0.000016
    14  O   -0.042497   8.281524   0.232432  -0.000000   0.000000   0.000000
    15  H   -0.001229   0.232432   0.389918   0.000000  -0.000000  -0.000000
    16  O   -0.000004  -0.000000   0.000000   8.324087   0.234057   0.001902
    17  H    0.000000   0.000000  -0.000000   0.234057   0.382494  -0.000092
    18  O   -0.000016   0.000000  -0.000000   0.001902  -0.000092   8.298936
    19  H    0.000001  -0.000000   0.000000   0.000282  -0.000025   0.243430
    20  O    0.000289   0.000050   0.000009  -0.000097   0.000011   0.002108
    21  H   -0.000069  -0.000002  -0.000002   0.000001  -0.000000  -0.000102
    22  O   -0.000000  -0.000010   0.000003  -0.000105   0.000014   0.000000
    23  H    0.000000   0.000004  -0.000000   0.002967  -0.000059  -0.000000
    24  H   -0.000001   0.000037   0.000003  -0.000003  -0.000000   0.000000
    25  H    0.000000   0.000002  -0.000000   0.000038   0.000002   0.000000
    26  O    0.000001  -0.000001   0.000000  -0.023867   0.003523   0.000079
    27  H   -0.000007   0.000001  -0.000000   0.004378  -0.000254   0.001386
    28  O   -0.000018  -0.014073   0.001159  -0.000001   0.000002  -0.000000
    29  H    0.000176   0.011121  -0.000092   0.000027  -0.000000   0.000000
    30  H   -0.000759   0.012860  -0.000161  -0.000054   0.000002   0.000001
              19         20         21         22         23         24
     1  C   -0.000422  -0.038497   0.004923  -0.000119   0.000008  -0.000155
     2  C   -0.046167  -0.040575   0.002886   0.000008   0.000023  -0.000003
     3  C    0.003895   0.169672  -0.015810  -0.000003  -0.000005   0.000001
     4  C   -0.007459   0.002099  -0.000143  -0.000280   0.001525   0.000010
     5  H    0.002397  -0.000106   0.000005  -0.000009  -0.000158  -0.000000
     6  H    0.005353   0.006219   0.000537  -0.000000   0.000000   0.000000
     7  H    0.000022   0.002545  -0.000213   0.000004  -0.000029  -0.000184
     8  H   -0.000224  -0.031598  -0.011243  -0.000000  -0.000000  -0.000000
     9  C    0.006231   0.000185  -0.000016   0.006729  -0.018415  -0.000122
    10  O   -0.000320   0.000894  -0.000066  -0.001346   0.002186   0.002728
    11  C    0.000003  -0.004211   0.000320   0.000011  -0.000001   0.000010
    12  H    0.000001   0.013804  -0.000282  -0.000000  -0.000000   0.000000
    13  H    0.000001   0.000289  -0.000069  -0.000000   0.000000  -0.000001
    14  O   -0.000000   0.000050  -0.000002  -0.000010   0.000004   0.000037
    15  H    0.000000   0.000009  -0.000002   0.000003  -0.000000   0.000003
    16  O    0.000282  -0.000097   0.000001  -0.000105   0.002967  -0.000003
    17  H   -0.000025   0.000011  -0.000000   0.000014  -0.000059  -0.000000
    18  O    0.243430   0.002108  -0.000102   0.000000  -0.000000   0.000000
    19  H    0.385336  -0.000143   0.000013  -0.000000   0.000003   0.000000
    20  O   -0.000143   8.323811   0.234335   0.000000  -0.000000  -0.000000
    21  H    0.000013   0.234335   0.384163  -0.000000   0.000000   0.000000
    22  O   -0.000000   0.000000  -0.000000   8.755724   0.114815   0.103664
    23  H    0.000003  -0.000000   0.000000   0.114815   0.280169  -0.003029
    24  H    0.000000  -0.000000   0.000000   0.103664  -0.003029   0.342647
    25  H    0.000000  -0.000000   0.000000   0.160091   0.002980  -0.004900
    26  O   -0.000376   0.000000  -0.000000  -0.100882   0.123071   0.004457
    27  H    0.011834  -0.000000  -0.000001  -0.000276   0.001801   0.000055
    28  O    0.000000   0.000000  -0.000000  -0.323845   0.015149   0.108572
    29  H   -0.000000  -0.000001   0.000000   0.020745  -0.000771  -0.007099
    30  H   -0.000002  -0.000016   0.000002   0.009267  -0.001793   0.002850
              25         26         27         28         29         30
     1  C    0.000012   0.000276   0.001689   0.013988  -0.000398  -0.020451
     2  C   -0.000002   0.006244   0.002678   0.000006  -0.000009  -0.000171
     3  C    0.000000   0.000150   0.000867   0.000084   0.000137   0.000579
     4  C   -0.000037  -0.078707  -0.095658  -0.000482   0.000016   0.001331
     5  H   -0.000001  -0.006167  -0.006361   0.000001   0.000000  -0.000045
     6  H    0.000000  -0.000130  -0.000198   0.000000   0.000000   0.000004
     7  H    0.000019   0.000742  -0.000035   0.003280   0.000765   0.000468
     8  H    0.000000   0.000007  -0.000009   0.000001   0.000001   0.000008
     9  C    0.000059   0.345721   0.374911   0.003467  -0.000011  -0.002736
    10  O    0.000001  -0.032638  -0.027487  -0.118355   0.006374   0.100591
    11  C   -0.000001  -0.000037  -0.000194   0.000418  -0.000930  -0.004619
    12  H    0.000000   0.000001   0.000003  -0.000026  -0.000032   0.000779
    13  H    0.000000   0.000001  -0.000007  -0.000018   0.000176  -0.000759
    14  O    0.000002  -0.000001   0.000001  -0.014073   0.011121   0.012860
    15  H   -0.000000   0.000000  -0.000000   0.001159  -0.000092  -0.000161
    16  O    0.000038  -0.023867   0.004378  -0.000001   0.000027  -0.000054
    17  H    0.000002   0.003523  -0.000254   0.000002  -0.000000   0.000002
    18  O    0.000000   0.000079   0.001386  -0.000000   0.000000   0.000001
    19  H    0.000000  -0.000376   0.011834   0.000000  -0.000000  -0.000002
    20  O   -0.000000   0.000000  -0.000000   0.000000  -0.000001  -0.000016
    21  H    0.000000  -0.000000  -0.000001  -0.000000   0.000000   0.000002
    22  O    0.160091  -0.100882  -0.000276  -0.323845   0.020745   0.009267
    23  H    0.002980   0.123071   0.001801   0.015149  -0.000771  -0.001793
    24  H   -0.004900   0.004457   0.000055   0.108572  -0.007099   0.002850
    25  H    0.550050   0.003405   0.000005   0.022125  -0.003123  -0.000376
    26  O    0.003405   8.443881  -0.047679  -0.002986   0.000245   0.002998
    27  H    0.000005  -0.047679   0.657562   0.000017   0.000003  -0.000195
    28  O    0.022125  -0.002986   0.000017   8.771359   0.209406   0.122577
    29  H   -0.003123   0.000245   0.000003   0.209406   0.391338  -0.010253
    30  H   -0.000376   0.002998  -0.000195   0.122577  -0.010253   0.292527
 Mulliken charges:
               1
     1  C    0.115377
     2  C    0.148832
     3  C    0.102508
     4  C    0.007858
     5  H    0.159070
     6  H    0.151636
     7  H    0.179083
     8  H    0.144426
     9  C    0.357078
    10  O   -0.628129
    11  C   -0.050763
    12  H    0.142597
    13  H    0.131906
    14  O   -0.639950
    15  H    0.397428
    16  O   -0.619863
    17  H    0.399024
    18  O   -0.655060
    19  H    0.396337
    20  O   -0.640786
    21  H    0.400763
    22  O   -0.744199
    23  H    0.479558
    24  H    0.450463
    25  H    0.269652
    26  O   -0.641334
    27  H    0.121162
    28  O   -0.811826
    29  H    0.382366
    30  H    0.494787
 Sum of Mulliken charges =  -0.00000
 Mulliken charges with hydrogens summed into heavy atoms:
               1
     1  C    0.294459
     2  C    0.300468
     3  C    0.246934
     4  C    0.166928
     9  C    0.478240
    10  O   -0.628129
    11  C    0.223740
    14  O   -0.242522
    16  O   -0.220839
    18  O   -0.258723
    20  O   -0.240023
    22  O   -0.474546
    26  O   -0.161776
    28  O    0.515789
 APT charges:
               1
     1  C   -0.287038
     2  C   -0.305615
     3  C   -0.197208
     4  C   -0.465786
     5  H    0.538408
     6  H    0.568361
     7  H    0.348689
     8  H    0.463985
     9  C   -0.392895
    10  O   -0.438959
    11  C   -0.647476
    12  H    0.483920
    13  H    0.395528
    14  O   -1.121042
    15  H    0.970116
    16  O   -0.991421
    17  H    0.858416
    18  O   -0.619632
    19  H    0.475958
    20  O   -1.077851
    21  H    0.894937
    22  O   -1.336363
    23  H    0.456692
    24  H    0.560641
    25  H    0.589016
    26  O   -0.374163
    27  H    0.490763
    28  O   -0.757083
    29  H    0.550731
    30  H    0.366373
 Sum of APT charges =  -0.00000
 APT charges with hydrogens summed into heavy atoms:
               1
     1  C    0.061651
     2  C    0.262745
     3  C    0.266778
     4  C    0.072623
     9  C    0.097868
    10  O   -0.438959
    11  C    0.231971
    14  O   -0.150926
    16  O   -0.133005
    18  O   -0.143674
    20  O   -0.182913
    22  O   -0.747347
    26  O    0.082528
    28  O    0.720662
 Electronic spatial extent (au):  <R**2>=           2947.7752
 Charge=             -0.0000 electrons
 Dipole moment (field-independent basis, Debye):
    X=              1.6843    Y=              2.1262    Z=              1.1290  Tot=              2.9380
 Quadrupole moment (field-independent basis, Debye-Ang):
   XX=            -82.0688   YY=            -66.2325   ZZ=            -81.6346
   XY=             -1.0882   XZ=             -7.2948   YZ=             -3.2859
 Traceless Quadrupole moment (field-independent basis, Debye-Ang):
   XX=             -5.4235   YY=             10.4128   ZZ=             -4.9893
   XY=             -1.0882   XZ=             -7.2948   YZ=             -3.2859
 Octapole moment (field-independent basis, Debye-Ang**2):
  XXX=            -29.0772  YYY=             40.6310  ZZZ=              2.3645  XYY=              5.9246
  XXY=             32.4983  XXZ=             32.6797  XZZ=            -18.4673  YZZ=            -16.4797
  YYZ=             11.1535  XYZ=             -3.1719
 Hexadecapole moment (field-independent basis, Debye-Ang**3):
 XXXX=          -1600.4195 YYYY=          -1050.0601 ZZZZ=           -313.8748 XXXY=             80.0357
 XXXZ=            -51.4405 YYYX=            -62.0653 YYYZ=            -40.0331 ZZZX=            -25.3376
 ZZZY=            -12.6508 XXYY=           -504.9664 XXZZ=           -334.4272 YYZZ=           -244.2849
 XXYZ=            -29.0332 YYXZ=            -16.7799 ZZXY=             -8.4452
 N-N= 1.135973428416D+03 E-N=-4.246906014392D+03  KE= 8.334272493864D+02
  Exact polarizability:   0.000   0.000   0.000   0.000   0.000   0.000
 Approx polarizability: 148.963   8.197 149.163 -15.162  -1.642 128.971
 Calling FoFJK, ICntrl=    100147 FMM=F ISym2X=0 I1Cent= 0 IOpClX= 0 NMat=1 NMatS=1 NMatT=0.
 ***** Axes restored to original set *****
 -------------------------------------------------------------------
 Center     Atomic                   Forces (Hartrees/Bohr)
 Number     Number              X              Y              Z
 -------------------------------------------------------------------
      1        6          -0.065576334    0.012837772    0.002549826
      2        6          -0.026170086   -0.015969005   -0.027975020
      3        6           0.032395353   -0.006674688    0.011525347
      4        6           0.094403691    0.058219073    0.052874775
      5        1           0.010544602    0.005832307   -0.018703252
      6        1           0.012618297    0.002291978    0.011608782
      7        1           0.019259377   -0.015034280   -0.002405722
      8        1          -0.016671193   -0.001136767   -0.015127673
      9        6          -0.059790558   -0.113664819    0.001177364
     10        8           0.047662032    0.050423264   -0.017056577
     11        6           0.001465420   -0.015673779    0.006428986
     12        1           0.009259705    0.013416621    0.010662437
     13        1          -0.011674198    0.011353540   -0.013288338
     14        8           0.008098337   -0.003420138   -0.002799947
     15        1          -0.004964792    0.005524432    0.004535133
     16        8           0.000730722    0.019559959    0.018980991
     17        1           0.003032250   -0.001608117   -0.004240310
     18        8           0.004380721    0.015114596   -0.007983297
     19        1          -0.003536960   -0.002727227   -0.005040038
     20        8           0.004369514   -0.008205389    0.017653933
     21        1          -0.001827499    0.005633367   -0.003123862
     22        8           0.109657435   -0.184558477    0.027132698
     23        1          -0.028197835    0.026627888    0.018665731
     24        1           0.028657231    0.040755419   -0.024042613
     25        1          -0.047717578    0.053742731   -0.066818102
     26        8          -0.016704925    0.004222782   -0.031227448
     27        1          -0.029110528    0.015430684   -0.007855488
     28        8          -0.092972371    0.055601188    0.058460891
     29        1          -0.002170012    0.008710770    0.008451367
     30        1           0.020550183   -0.036625686   -0.003020573
 -------------------------------------------------------------------
 Cartesian Forces:  Max     0.184558477 RMS     0.037966513

 GradGradGradGradGradGradGradGradGradGradGradGradGradGradGradGradGradGrad
 Berny optimization.
 Search for a saddle point.
 Step number   1 out of a maximum of  180
 All quantities printed in internal units (Hartrees-Bohrs-Radians)
 Swapping is turned off.
 Second derivative matrix not updated -- analytic derivatives used.
 ITU=  0
     Eigenvalues ---   -0.25408  -0.05790  -0.02326  -0.01876  -0.01395
     Eigenvalues ---   -0.01012  -0.00869  -0.00826  -0.00586  -0.00240
     Eigenvalues ---   -0.00176  -0.00131   0.00199   0.00509   0.00672
     Eigenvalues ---    0.00882   0.01309   0.01838   0.02147   0.02280
     Eigenvalues ---    0.02476   0.02512   0.02971   0.03061   0.03305
     Eigenvalues ---    0.03451   0.03886   0.04180   0.04467   0.04709
     Eigenvalues ---    0.04948   0.05230   0.05621   0.05919   0.05967
     Eigenvalues ---    0.06325   0.06457   0.06523   0.07009   0.08340
     Eigenvalues ---    0.09070   0.09630   0.10035   0.11116   0.11527
     Eigenvalues ---    0.12184   0.12536   0.13365   0.14040   0.14840
     Eigenvalues ---    0.15765   0.17585   0.18912   0.19243   0.21649
     Eigenvalues ---    0.23185   0.25098   0.26687   0.26874   0.29563
     Eigenvalues ---    0.31789   0.38060   0.44392   0.45986   0.54695
     Eigenvalues ---    0.57278   0.59106   0.62102   0.63780   0.67243
     Eigenvalues ---    0.70351   0.81587   0.86929   0.89063   0.95331
     Eigenvalues ---    0.96140   0.98591   1.04384   1.07607   1.10852
     Eigenvalues ---    1.12982   1.13627   1.15620   1.29330
 Eigenvectors required to have negative eigenvalues:
                          Y23       Y24       Y28       Y30       X24
   1                    0.35236  -0.35053   0.32026  -0.30365   0.24872
                          X10       Z30       X22       Z10       Z24
   1                    0.23318   0.23024  -0.22359  -0.21963  -0.21408
 RFO step:  Lambda0=6.075988154D-04 Lambda=-2.26719375D-01.
 Linear search not attempted -- option 19 set.
 Maximum step size (   0.300) exceeded in Quadratic search.
    -- Step size scaled by   0.252
 B after Tr=    -0.000450   -0.002645    0.000907
         Rot=    1.000000    0.000445    0.000056    0.000098 Ang=   0.05 deg.
 Variable       Old X    -DE/DX   Delta X   Delta X   Delta X     New X
                                 (Linear)    (Quad)   (Total)
    X1       -0.74177  -0.06558   0.00000  -0.01776  -0.01851  -0.76027
    Y1       -0.28945   0.01284   0.00000   0.01085   0.01032  -0.27912
    Z1        2.20490   0.00255   0.00000   0.00320   0.00427   2.20917
    X2        2.56751  -0.02617   0.00000  -0.00333  -0.00344   2.56407
    Y2        1.21706  -0.01597   0.00000  -0.00158  -0.00553   1.21153
    Z2       -0.89066  -0.02798   0.00000  -0.00780  -0.00769  -0.89834
    X3        0.54262   0.03240   0.00000   0.01227   0.01210   0.55473
    Y3        2.00727  -0.00667   0.00000   0.00330   0.00147   2.00874
    Z3        1.03618   0.01153   0.00000   0.00934   0.00852   1.04471
    X4        2.60821   0.09440   0.00000   0.01599   0.01537   2.62358
    Y4       -1.67903   0.05822   0.00000   0.00676   0.00237  -1.67666
    Z4       -1.38892   0.05287   0.00000   0.00521   0.00790  -1.38102
    X5        3.68866   0.01054   0.00000   0.00678   0.00628   3.69495
    Y5       -2.00295   0.00583   0.00000   0.00859   0.00248  -2.00047
    Z5       -3.06708  -0.01870   0.00000  -0.01127  -0.00818  -3.07526
    X6        4.40099   0.01262   0.00000   0.00264   0.00261   4.40360
    Y6        1.91997   0.00229   0.00000  -0.00320  -0.00706   1.91290
    Z6       -0.40817   0.01161   0.00000   0.00918   0.00887  -0.39930
    X7        0.41584   0.01926   0.00000   0.00671   0.00562   0.42146
    Y7       -1.27263  -0.01503   0.00000  -0.01109  -0.01068  -1.28331
    Z7        3.53975  -0.00241   0.00000  -0.01689  -0.01479   3.52496
    X8       -0.73872  -0.01667   0.00000  -0.00052  -0.00034  -0.73907
    Y8        3.31392  -0.00114   0.00000  -0.00051  -0.00285   3.31107
    Z8        0.17635  -0.01513   0.00000  -0.00092  -0.00304   0.17331
    X9        0.33377  -0.05979   0.00000  -0.00916  -0.00996   0.32381
    Y9       -2.84922  -0.11366   0.00000  -0.02276  -0.02719  -2.87640
    Z9       -1.91685   0.00118   0.00000  -0.01329  -0.00979  -1.92664
   X10       -2.01110   0.04766   0.00000   0.01389   0.01304  -1.99806
   Y10       -1.93413   0.05042   0.00000   0.04317   0.04119  -1.89295
   Z10        0.31447  -0.01706   0.00000  -0.01335  -0.01098   0.30350
   X11       -2.96668   0.00147   0.00000   0.00239   0.00165  -2.96503
   Y11        0.67854  -0.01567   0.00000   0.00043   0.00177   0.68032
   Z11        3.81174   0.00643   0.00000   0.01494   0.01491   3.82665
   X12       -2.26973   0.00926   0.00000   0.01443   0.01377  -2.25596
   Y12        1.91209   0.01342   0.00000   0.00304   0.00553   1.91762
   Z12        5.25435   0.01066   0.00000   0.01657   0.01552   5.26988
   X13       -4.26237  -0.01167   0.00000  -0.00320  -0.00362  -4.26599
   Y13        1.68646   0.01135   0.00000   0.00904   0.00959   1.69605
   Z13        2.63116  -0.01329   0.00000   0.01288   0.01180   2.64296
   X14       -4.23246   0.00810   0.00000   0.01700   0.01571  -4.21674
   Y14       -1.41822  -0.00342   0.00000  -0.00563  -0.00303  -1.42125
   Z14        4.95360  -0.00280   0.00000   0.01021   0.01191   4.96551
   X15       -5.35816  -0.00496   0.00000   0.00264   0.00133  -5.35683
   Y15       -0.81696   0.00552   0.00000  -0.00727  -0.00330  -0.82026
   Z15        6.24293   0.00454   0.00000   0.00231   0.00335   6.24628
   X16        3.85045   0.00073   0.00000  -0.00240  -0.00351   3.84694
   Y16       -3.02893   0.01956   0.00000  -0.00657  -0.00944  -3.03837
   Z16        0.59529   0.01898   0.00000  -0.00158   0.00246   0.59775
   X17        5.45672   0.00303   0.00000   0.00521   0.00404   5.46077
   Y17       -3.63090  -0.00161   0.00000   0.00785   0.00414  -3.62676
   Z17        0.00486  -0.00424   0.00000  -0.00249   0.00225   0.00711
   X18        1.93791   0.00438   0.00000   0.01456   0.01494   1.95285
   Y18        2.37070   0.01511   0.00000   0.01074   0.00481   2.37551
   Z18       -3.25184  -0.00798   0.00000  -0.00600  -0.00700  -3.25883
   X19        1.27548  -0.00354   0.00000  -0.03045  -0.03019   1.24529
   Y19        1.11536  -0.00273   0.00000   0.01528   0.00850   1.12386
   Z19       -4.38161  -0.00504   0.00000   0.01001   0.01005  -4.37156
   X20        1.75020   0.00437   0.00000   0.01435   0.01422   1.76442
   Y20        3.38154  -0.00821   0.00000  -0.00262  -0.00291   3.37862
   Z20        3.02506   0.01765   0.00000   0.01260   0.01069   3.03575
   X21        1.45268  -0.00183   0.00000   0.00284   0.00308   1.45576
   Y21        5.15711   0.00563   0.00000  -0.00162  -0.00204   5.15506
   Z21        2.80162  -0.00312   0.00000   0.01002   0.00650   2.80812
   X22       -1.00576   0.10966   0.00000   0.12379   0.12162  -0.88414
   Y22       -8.17745  -0.18456   0.00000  -0.06307  -0.06471  -8.24216
   Z22        0.80709   0.02713   0.00000   0.11840   0.12655   0.93363
   X23        0.30658  -0.02820   0.00000  -0.00987  -0.01165   0.29493
   Y23       -7.19754   0.02663   0.00000   0.00071  -0.00261  -7.20016
   Z23       -0.76131   0.01867   0.00000   0.06495   0.07230  -0.68902
   X24       -2.92151   0.02866   0.00000   0.03894   0.03676  -2.88475
   Y24       -7.76480   0.04076   0.00000   0.02311   0.02274  -7.74206
   Z24        1.94812  -0.02404   0.00000  -0.04276  -0.03528   1.91284
   X25        0.20155  -0.04772   0.00000   0.01660   0.01404   0.21559
   Y25       -9.55051   0.05374   0.00000   0.02087   0.02009  -9.53043
   Z25        2.14851  -0.06682   0.00000  -0.01111  -0.00169   2.14682
   X26        0.86086  -0.01670   0.00000  -0.06243  -0.06371   0.79715
   Y26       -5.30643   0.00422   0.00000  -0.00825  -0.01275  -5.31918
   Z26       -1.88327  -0.03123   0.00000  -0.03190  -0.02617  -1.90944
   X27       -0.40777  -0.02911   0.00000  -0.02038  -0.02087  -0.42863
   Y27       -2.34364   0.01543   0.00000   0.02376   0.01787  -2.32577
   Z27       -3.72877  -0.00786   0.00000  -0.00755  -0.00462  -3.73339
   X28       -2.94804  -0.09297   0.00000  -0.13341  -0.13521  -3.08326
   Y28       -5.55003   0.05560   0.00000   0.00523   0.00531  -5.54473
   Z28        2.43438   0.05846   0.00000  -0.05913  -0.05363   2.38075
   X29       -2.41514  -0.00217   0.00000   0.01112   0.00916  -2.40599
   Y29       -5.40512   0.00871   0.00000  -0.00241  -0.00096  -5.40608
   Z29        4.16241   0.00845   0.00000  -0.09602  -0.09057   4.07185
   X30       -3.20737   0.02055   0.00000  -0.00305  -0.00434  -3.21171
   Y30       -3.46923  -0.03663   0.00000  -0.00241  -0.00309  -3.47231
   Z30        1.55382  -0.00302   0.00000  -0.04807  -0.04443   1.50939
         Item               Value     Threshold  Converged?
 Maximum Force            0.184558     0.000450     NO 
 RMS     Force            0.037967     0.000300     NO 
 Maximum Displacement     0.135212     0.001800     NO 
 RMS     Displacement     0.031472     0.001200     NO 
 Predicted change in Energy=-5.575183D-02
 GradGradGradGradGradGradGradGradGradGradGradGradGradGradGradGradGradGrad

                          Input orientation:                          
 ---------------------------------------------------------------------
 Center     Atomic      Atomic             Coordinates (Angstroms)
 Number     Number       Type             X           Y           Z
 ---------------------------------------------------------------------
      1          6           0       -0.402320   -0.147706    1.169042
      2          6           0        1.356846    0.641113   -0.475383
      3          6           0        0.293548    1.062981    0.552834
      4          6           0        1.388337   -0.887250   -0.730802
      5          1           0        1.955281   -1.058603   -1.627355
      6          1           0        2.330284    1.012264   -0.211300
      7          1           0        0.223025   -0.679098    1.865327
      8          1           0       -0.391097    1.752144    0.091709
      9          6           0        0.171352   -1.522127   -1.019532
     10          8           0       -1.057329   -1.001705    0.160604
     11          6           0       -1.569026    0.360008    2.024974
     12          1           0       -1.193802    1.014759    2.788698
     13          1           0       -2.257464    0.897510    1.398592
     14          8           0       -2.231404   -0.752093    2.627636
     15          1           0       -2.834713   -0.434065    3.305390
     16          8           0        2.035712   -1.607837    0.316314
     17          1           0        2.889714   -1.919201    0.003761
     18          8           0        1.033401    1.257067   -1.724500
     19          1           0        0.658980    0.594719   -2.313328
     20          8           0        0.933690    1.787891    1.606450
     21          1           0        0.770355    2.727941    1.485994
     22          8           0       -0.467866   -4.361565    0.494058
     23          1           0        0.156071   -3.810160   -0.364612
     24          1           0       -1.526544   -4.096923    1.012230
     25          1           0        0.114087   -5.043285    1.136049
     26          8           0        0.421835   -2.814789   -1.010431
     27          1           0       -0.226823   -1.230746   -1.975623
     28          8           0       -1.631589   -2.934144    1.259839
     29          1           0       -1.273193   -2.860776    2.154729
     30          1           0       -1.699564   -1.837469    0.798736
 ---------------------------------------------------------------------
                    Distance matrix (angstroms):
                    1          2          3          4          5
     1  C    0.000000
     2  C    2.533976   0.000000
     3  C    1.526338   1.538117   0.000000
     4  C    2.713446   1.549879   2.578698   0.000000
     5  H    3.769331   2.138738   3.466367   1.074521   0.000000
     6  H    3.273836   1.074744   2.175951   2.182957   2.536598
     7  H    1.076219   2.916751   2.182304   2.853273   3.917087
     8  H    2.184079   2.147390   1.075324   3.287751   4.044869
     9  C    2.647261   2.526084   3.028208   1.402671   1.940801
    10  O    1.474890   2.988573   2.498328   2.605568   3.503691
    11  C    1.533491   3.858955   2.475995   4.230360   5.269982
    12  H    2.145006   4.159284   2.685819   4.761508   5.806641
    13  H    2.141665   4.079309   2.692648   4.583836   5.543461
    14  O    2.416263   4.944217   3.738272   4.939625   5.977226
    15  H    3.250003   5.746252   4.427610   5.859213   6.904062
    16  O    2.967007   2.478996   3.197553   1.426462   2.021380
    17  H    3.915809   3.022329   3.991862   1.964342   2.067446
    18  O    3.522395   1.429793   2.402354   2.389876   2.494318
    19  H    3.715435   1.966522   2.927062   2.287484   2.210074
    20  O    2.392234   2.414165   1.430169   3.581317   4.427604
    21  H    3.121694   2.923324   1.967289   4.285521   5.043303
    22  O    4.268080   5.412594   5.478038   4.125123   4.613198
    23  H    4.009671   4.611720   4.960655   3.193114   3.521753
    24  H    4.109111   5.742466   5.490755   4.672976   5.321834
    25  H    4.922851   6.037677   6.136679   4.730907   5.186916
    26  O    3.541563   3.619914   4.182984   2.174333   2.411689
    27  H    3.330569   2.874470   3.453268   2.067924   2.216416
    28  O    3.046897   4.972343   4.492551   4.156005   4.971839
    29  H    3.015086   5.108602   4.518474   4.393727   5.289143
    30  H    2.162237   4.136229   3.527829   3.574568   4.455384
                    6          7          8          9         10
     6  H    0.000000
     7  H    3.407877   0.000000
     8  H    2.836397   3.071450   0.000000
     9  C    3.425984   3.005958   3.503149   0.000000
    10  O    3.958573   2.156261   2.834131   1.781352   0.000000
    11  C    4.542134   2.077661   2.657644   3.979995   2.364735
    12  H    4.628086   2.393567   2.908921   4.775149   3.315363
    13  H    4.863369   2.975964   2.433448   4.195368   2.565143
    14  O    5.655220   2.571121   4.011092   4.434864   2.743539
    15  H    6.413748   3.388743   4.591134   5.378220   3.656636
    16  O    2.688881   2.558874   4.150822   2.295140   3.155716
    17  H    2.992106   3.480591   4.924452   2.931602   4.055310
    18  O    2.007886   4.158402   2.360702   2.993998   3.609268
    19  H    2.717742   4.390197   2.868187   2.528384   3.408024
    20  O    2.419977   2.580329   2.012654   4.293386   3.719741
    21  H    2.873627   3.471510   2.060384   4.969863   4.359742
    22  O    6.099607   3.989771   6.127415   3.280543   3.427435
    23  H    5.292115   3.844562   5.607748   2.379968   3.104127
    24  H    6.517357   3.933230   6.028946   3.693303   3.244350
    25  H    6.587606   4.426041   6.893744   4.128967   4.319499
    26  O    4.350531   3.587574   4.767856   1.316739   2.616586
    27  H    3.831804   3.906351   3.632971   1.075897   2.303402
    28  O    5.782285   2.981852   4.986446   3.231087   2.296173
    29  H    5.795134   2.661228   5.129636   3.735589   2.734826
    30  H    5.037939   2.485114   3.885524   2.627902   1.232145
                   11         12         13         14         15
    11  C    0.000000
    12  H    1.073670   0.000000
    13  H    1.074807   1.754287   0.000000
    14  O    1.427835   2.055316   2.057284   0.000000
    15  H    1.967735   2.249144   2.396286   0.961495   0.000000
    16  O    4.448154   4.839469   5.087186   4.927757   5.833812
    17  H    5.400042   5.747965   6.030991   5.871347   6.773141
    18  O    4.651440   5.038661   4.551130   5.799721   6.566736
    19  H    4.882619   5.444255   4.730294   5.880591   6.695840
    20  O    2.911632   2.553755   3.319555   4.184753   4.693010
    21  H    3.371990   2.913752   3.539182   4.735456   5.128841
    22  O    5.084241   5.890434   5.628384   4.548682   5.378736
    23  H    5.106503   5.919912   5.576396   4.899526   5.814784
    24  H    4.570743   5.421794   5.062399   3.780774   4.515132
    25  H    5.728754   6.414181   6.402049   5.112777   5.886116
    26  O    4.822504   5.631084   5.173317   4.952770   5.907560
    27  H    4.509631   5.355006   4.476416   5.043554   5.943474
    28  O    3.382422   4.257100   3.884912   2.644238   3.447054
    29  H    3.236943   3.927847   3.957934   2.363970   3.106652
    30  H    2.519842   3.514392   2.855029   2.192207   3.088919
                   16         17         18         19         20
    16  O    0.000000
    17  H    0.961226   0.000000
    18  O    3.657488   4.064659   0.000000
    19  H    3.696169   4.082263   0.962088   0.000000
    20  O    3.796035   4.487447   3.374455   4.106554   0.000000
    21  H    4.665646   5.318329   3.541177   4.358657   0.961708
    22  O    3.725924   4.180775   6.224534   5.806544   6.404497
    23  H    2.974380   3.344283   5.319378   4.842868   5.985646
    24  H    4.401082   5.026214   6.535153   6.152021   6.406004
    25  H    4.020810   4.329675   6.980137   6.631908   6.896230
    26  O    2.412796   2.814443   4.178985   3.657666   5.319279
    27  H    3.242566   3.755626   2.800078   2.056943   4.825993
    28  O    4.012284   4.801044   5.794368   5.519701   5.385017
    29  H    3.987289   4.779437   6.109453   5.969696   5.175040
    30  H    3.773295   4.658341   4.838592   4.600350   4.552985
                   21         22         23         24         25
    21  H    0.000000
    22  O    7.264863   0.000000
    23  H    6.822672   1.196101   0.000000
    24  H    7.216577   1.208030   2.192971   0.000000
    25  H    7.806735   1.102527   1.942767   1.898052   0.000000
    26  O    6.088963   2.334003   1.215926   3.087266   3.109386
    27  H    5.352416   3.994928   3.065182   4.339529   4.932968
    28  O    6.154648   1.994543   2.569430   1.193483   2.740654
    29  H    5.988076   2.378812   3.048147   1.702219   2.779496
    30  H    5.236010   2.825060   2.947586   2.276104   3.698698
                   26         27         28         29         30
    26  O    0.000000
    27  H    1.965081   0.000000
    28  O    3.063482   3.917032   0.000000
    29  H    3.590748   4.561983   0.966778   0.000000
    30  H    2.954416   3.199085   1.191609   1.751475   0.000000
 Stoichiometry    C6H16O8
 Framework group  C1[X(C6H16O8)]
 Deg. of freedom    84
 Full point group                 C1      NOp   1
 Largest Abelian subgroup         C1      NOp   1
 Largest concise Abelian subgroup C1      NOp   1
                         Standard orientation:                         
 ---------------------------------------------------------------------
 Center     Atomic      Atomic             Coordinates (Angstroms)
 Number     Number       Type             X           Y           Z
 ---------------------------------------------------------------------
      1          6           0        0.401979    1.028425    0.126277
      2          6           0        2.041933   -0.903123    0.099655
      3          6           0        1.866267    0.620774   -0.012965
      4          6           0        0.697883   -1.667691    0.204958
      5          1           0        0.895671   -2.706808    0.015985
      6          1           0        2.703756   -1.165616    0.904741
      7          1           0        0.040422    0.947784    1.136733
      8          1           0        2.312506    0.961805   -0.929966
      9          6           0       -0.292186   -1.373376   -0.744056
     10          8           0       -0.463815    0.394054   -0.885293
     11          6           0        0.293300    2.524483   -0.192458
     12          1           0        0.911038    3.080668    0.487120
     13          1           0        0.625737    2.694843   -1.200264
     14          8           0       -1.066232    2.938813   -0.055653
     15          1           0       -1.108983    3.899280   -0.067892
     16          8           0        0.116163   -1.583364    1.504682
     17          1           0        0.201047   -2.434072    1.944053
     18          8           0        2.681373   -1.364181   -1.093178
     19          1           0        2.029294   -1.799939   -1.650422
     20          8           0        2.601403    1.248345    1.041128
     21          1           0        3.418132    1.609007    0.683695
     22          8           0       -3.365406   -0.967090    0.329354
     23          1           0       -2.491969   -1.746599    0.084140
     24          1           0       -3.602198    0.135115   -0.104710
     25          1           0       -3.871952   -1.115558    1.297308
     26          8           0       -1.380782   -1.995648   -0.342142
     27          1           0       -0.023672   -1.702098   -1.732691
     28          8           0       -2.618452    0.803345   -0.205268
     29          1           0       -2.558937    1.247560    0.651348
     30          1           0       -1.568964    0.923480   -0.756697
 ---------------------------------------------------------------------
 Rotational constants (GHZ):      0.7621196      0.5886871      0.3911798
 Standard basis: 6-31G(d) (6D, 7F)
 There are   242 symmetry adapted cartesian basis functions of A   symmetry.
 There are   242 symmetry adapted basis functions of A   symmetry.
   242 basis functions,   456 primitive gaussians,   242 cartesian basis functions
    58 alpha electrons       58 beta electrons
       nuclear repulsion energy      1133.6735545776 Hartrees.
 NAtoms=   30 NActive=   30 NUniq=   30 SFac= 1.00D+00 NAtFMM=   60 NAOKFM=F Big=F
 Integral buffers will be    131072 words long.
 Raffenetti 2 integral format.
 Two-electron integral symmetry is turned on.
 One-electron integrals computed using PRISM.
 NBasis=   242 RedAO= T EigKep=  1.23D-03  NBF=   242
 NBsUse=   242 1.00D-06 EigRej= -1.00D+00 NBFU=   242
 Initial guess from the checkpoint file:  "/scratch/10451543.yak.local/Gau-32380.chk"
 B after Tr=     0.000000    0.000000   -0.000000
         Rot=    0.999999   -0.000434    0.000624    0.000805 Ang=  -0.13 deg.
 ExpMin= 1.61D-01 ExpMax= 5.48D+03 ExpMxC= 8.25D+02 IAcc=1 IRadAn=         1 AccDes= 0.00D+00
 Harris functional with IExCor=  402 and IRadAn=       1 diagonalized for initial guess.
 HarFok:  IExCor=  402 AccDes= 0.00D+00 IRadAn=         1 IDoV= 1 UseB2=F ITyADJ=14
 ICtDFT=  3500011 ScaDFX=  1.000000  1.000000  1.000000  1.000000
 FoFCou: FMM=F IPFlag=           0 FMFlag=      100000 FMFlg1=           0
         NFxFlg=           0 DoJE=T BraDBF=F KetDBF=T FulRan=T
         wScrn=  0.000000 ICntrl=     500 IOpCl=  0 I1Cent=   200000004 NGrid=           0
         NMat0=    1 NMatS0=      1 NMatT0=    0 NMatD0=    1 NMtDS0=    0 NMtDT0=    0
 Petite list used in FoFCou.
 Requested convergence on RMS density matrix=1.00D-08 within 128 cycles.
 Requested convergence on MAX density matrix=1.00D-06.
 Requested convergence on             energy=1.00D-06.
 No special actions if energy rises.
 Integral accuracy reduced to 1.0D-05 until final iterations.
 Initial convergence to 1.0D-05 achieved.  Increase integral accuracy.
 SCF Done:  E(RB3LYP) =  -839.774130766     A.U. after   12 cycles
            NFock= 12  Conv=0.52D-08     -V/T= 2.0077
 Calling FoFJK, ICntrl=      2127 FMM=F ISym2X=0 I1Cent= 0 IOpClX= 0 NMat=1 NMatS=1 NMatT=0.
 ***** Axes restored to original set *****
 -------------------------------------------------------------------
 Center     Atomic                   Forces (Hartrees/Bohr)
 Number     Number              X              Y              Z
 -------------------------------------------------------------------
      1        6          -0.052971811    0.010848132    0.002663384
      2        6          -0.020751889   -0.012525865   -0.022961561
      3        6           0.026030651   -0.005159643    0.009861322
      4        6           0.075899764    0.045587726    0.042194773
      5        1           0.009809994    0.005665048   -0.015682480
      6        1           0.009790483    0.001567735    0.010167549
      7        1           0.015827847   -0.012405333   -0.003783459
      8        1          -0.013586374   -0.002140360   -0.012800633
      9        6          -0.046728364   -0.091776543    0.000873371
     10        8           0.041099791    0.041432486   -0.014836393
     11        6          -0.000177979   -0.011884902    0.005675593
     12        1           0.008200452    0.011787138    0.008858713
     13        1          -0.010124167    0.009752561   -0.010742969
     14        8           0.006809575   -0.002759589   -0.001171648
     15        1          -0.004164043    0.004491765    0.003439759
     16        8           0.002177950    0.017220899    0.017470686
     17        1           0.002443396   -0.001159264   -0.002985882
     18        8           0.003836618    0.011746179   -0.007884234
     19        1          -0.003409290   -0.001088241   -0.004070103
     20        8           0.003569702   -0.006365610    0.015217785
     21        1          -0.001095682    0.004156923   -0.002440865
     22        8           0.089182050   -0.148632230    0.025027676
     23        1          -0.024587143    0.022470072    0.021877744
     24        1           0.030336436    0.039497984   -0.023564431
     25        1          -0.036241582    0.043998072   -0.054236876
     26        8          -0.017922361   -0.001618678   -0.026170102
     27        1          -0.026453756    0.014185324   -0.004994331
     28        8          -0.083353693    0.039969401    0.050208564
     29        1          -0.003125343    0.007451337    0.000483168
     30        1           0.019678764   -0.034312525   -0.005694119
 -------------------------------------------------------------------
 Cartesian Forces:  Max     0.148632230 RMS     0.031313653

 GradGradGradGradGradGradGradGradGradGradGradGradGradGradGradGradGradGrad
 Berny optimization.
 Search for a saddle point.
 Step number   2 out of a maximum of  180
 All quantities printed in internal units (Hartrees-Bohrs-Radians)
 Swapping is turned off.
 Update second derivatives using D2CorN and points    1    2
 ITU=  0  0
     Eigenvalues ---   -0.25377  -0.05263  -0.02156  -0.01724  -0.01390
     Eigenvalues ---   -0.01012  -0.00869  -0.00825  -0.00585  -0.00239
     Eigenvalues ---   -0.00176  -0.00130   0.00201   0.00507   0.00671
     Eigenvalues ---    0.00881   0.01314   0.01841   0.02149   0.02262
     Eigenvalues ---    0.02480   0.02509   0.02971   0.03067   0.03304
     Eigenvalues ---    0.03450   0.03921   0.04191   0.04549   0.04759
     Eigenvalues ---    0.04939   0.05237   0.05625   0.05927   0.05986
     Eigenvalues ---    0.06336   0.06458   0.06590   0.07017   0.08476
     Eigenvalues ---    0.09019   0.09644   0.10252   0.11077   0.11595
     Eigenvalues ---    0.12413   0.12509   0.13406   0.14058   0.14992
     Eigenvalues ---    0.15831   0.17590   0.18964   0.19265   0.21897
     Eigenvalues ---    0.23201   0.25233   0.26849   0.27330   0.29575
     Eigenvalues ---    0.31789   0.38060   0.44391   0.46014   0.54702
     Eigenvalues ---    0.57278   0.59123   0.62122   0.64054   0.67267
     Eigenvalues ---    0.70350   0.81574   0.86920   0.89072   0.95288
     Eigenvalues ---    0.96145   0.98584   1.04399   1.07518   1.10853
     Eigenvalues ---    1.12952   1.13623   1.15622   1.29293
 Eigenvectors required to have negative eigenvalues:
                          Y23       Y24       Y28       Y30       X24
   1                    0.35229  -0.35102   0.31923  -0.30403   0.24907
                          X10       Z30       X22       Z10       Z24
   1                    0.23264   0.23173  -0.22226  -0.21866  -0.21326
 RFO step:  Lambda0=2.897244827D-04 Lambda=-1.75971361D-01.
 Linear search not attempted -- option 19 set.
 Maximum step size (   0.300) exceeded in Quadratic search.
    -- Step size scaled by   0.256
 B after Tr=     0.000390   -0.002498    0.000973
         Rot=    1.000000    0.000116    0.000102   -0.000657 Ang=   0.08 deg.
 Variable       Old X    -DE/DX   Delta X   Delta X   Delta X     New X
                                 (Linear)    (Quad)   (Total)
    X1       -0.76027  -0.05297   0.00000  -0.01700  -0.01670  -0.77697
    Y1       -0.27912   0.01085   0.00000   0.00594   0.00293  -0.27619
    Z1        2.20917   0.00266   0.00000  -0.00122  -0.00034   2.20883
    X2        2.56407  -0.02075   0.00000  -0.00844  -0.00947   2.55460
    Y2        1.21153  -0.01253   0.00000   0.00766   0.00831   1.21984
    Z2       -0.89834  -0.02296   0.00000  -0.01538  -0.01417  -0.91252
    X3        0.55473   0.02603   0.00000   0.00506   0.00259   0.55732
    Y3        2.00874  -0.00516   0.00000   0.00305   0.00153   2.01027
    Z3        1.04471   0.00986   0.00000   0.00204   0.00266   1.04737
    X4        2.62358   0.07590   0.00000   0.01869   0.02154   2.64511
    Y4       -1.67666   0.04559   0.00000   0.02049   0.02114  -1.65552
    Z4       -1.38102   0.04219   0.00000   0.00847   0.01037  -1.37065
    X5        3.69495   0.00981   0.00000   0.01470   0.01833   3.71328
    Y5       -2.00047   0.00567   0.00000   0.01060   0.01226  -1.98821
    Z5       -3.07526  -0.01568   0.00000  -0.00187   0.00032  -3.07493
    X6        4.40360   0.00979   0.00000  -0.00310  -0.00516   4.39844
    Y6        1.91290   0.00157   0.00000   0.00727   0.01046   1.92336
    Z6       -0.39930   0.01017   0.00000  -0.00278  -0.00135  -0.40065
    X7        0.42146   0.01583   0.00000   0.00494   0.00630   0.42776
    Y7       -1.28331  -0.01241   0.00000  -0.00205  -0.00317  -1.28648
    Z7        3.52496  -0.00378   0.00000  -0.01194  -0.01058   3.51438
    X8       -0.73907  -0.01359   0.00000  -0.00776  -0.01174  -0.75081
    Y8        3.31107  -0.00214   0.00000  -0.00409  -0.00754   3.30354
    Z8        0.17331  -0.01280   0.00000  -0.00763  -0.00758   0.16573
    X9        0.32381  -0.04673   0.00000   0.00780   0.01240   0.33621
    Y9       -2.87640  -0.09178   0.00000  -0.03003  -0.03253  -2.90894
    Z9       -1.92664   0.00087   0.00000   0.00613   0.00785  -1.91879
   X10       -1.99806   0.04110   0.00000   0.02217   0.02497  -1.97309
   Y10       -1.89295   0.04143   0.00000   0.01007   0.00505  -1.88790
   Z10        0.30350  -0.01484   0.00000  -0.01016  -0.00916   0.29434
   X11       -2.96503  -0.00018   0.00000  -0.00738  -0.00867  -2.97370
   Y11        0.68032  -0.01188   0.00000   0.00512  -0.00039   0.67992
   Z11        3.82665   0.00568   0.00000  -0.00269  -0.00249   3.82416
   X12       -2.25596   0.00820   0.00000   0.00558   0.00236  -2.25360
   Y12        1.91762   0.01179   0.00000   0.00933   0.00510   1.92272
[...]
    Y6        1.26994  -0.00058   0.00000  -0.01841  -0.01226   1.25769
    Z6        0.58596  -0.00045   0.00000   0.04885   0.05200   0.63796
    X7        0.79025  -0.00125   0.00000   0.03508   0.03545   0.82570
    Y7       -1.57173   0.00052   0.00000   0.03045   0.03535  -1.53638
    Z7        3.04394  -0.00024   0.00000  -0.00232  -0.00055   3.04339
    X8       -1.11568   0.00286   0.00000  -0.00467  -0.00414  -1.11982
    Y8        2.46020  -0.00129   0.00000  -0.03241  -0.03174   2.42846
    Z8       -0.57241   0.00248   0.00000  -0.04547  -0.04838  -0.62079
    X9        0.18908   0.00019   0.00000  -0.00723  -0.00069   0.18839
    Y9       -2.97736   0.00061   0.00000   0.00787   0.00856  -2.96881
    Z9       -2.16894  -0.00018   0.00000   0.02246   0.02463  -2.14432
   X10       -1.76285  -0.00027   0.00000   0.01831   0.02194  -1.74091
   Y10       -2.00199   0.00007   0.00000  -0.03753  -0.03690  -2.03889
   Z10        0.05090   0.00127   0.00000   0.02415   0.02382   0.07472
   X11       -2.75437  -0.00128   0.00000   0.02434   0.02241  -2.73196
   Y11        0.07686  -0.00053   0.00000  -0.01626  -0.01365   0.06321
   Z11        4.03317  -0.00040   0.00000   0.00660   0.00384   4.03701
   X12       -2.03836   0.00019   0.00000   0.02239   0.01802  -2.02034
   Y12        1.57273   0.00043   0.00000  -0.01594  -0.01185   1.56087
   Z12        5.26426   0.00032   0.00000   0.00936   0.00621   5.27047
   X13       -4.49161   0.00148   0.00000   0.01875   0.01716  -4.47445
   Y13        0.73183  -0.00039   0.00000  -0.02392  -0.02343   0.70840
   Z13        3.09400   0.00070   0.00000   0.01875   0.01386   3.10785
   X14       -3.26400  -0.00149   0.00000   0.04563   0.04419  -3.21981
   Y14       -2.17256   0.00229   0.00000  -0.02561  -0.02237  -2.19493
   Z14        5.52496  -0.00158   0.00000  -0.01077  -0.01240   5.51256
   X15       -4.33290   0.00060   0.00000   0.08761   0.08439  -4.24851
   Y15       -1.69929   0.00077   0.00000  -0.03557  -0.03216  -1.73145
   Z15        6.93768  -0.00065   0.00000   0.03112   0.02817   6.96585
   X16        4.02018   0.00555   0.00000   0.01935   0.02370   4.04389
   Y16       -3.18180   0.01107   0.00000   0.02162   0.02728  -3.15452
   Z16        0.29093   0.00421   0.00000   0.00377   0.00976   0.30069
   X17        4.28628  -0.00402   0.00000  -0.06648  -0.05995   4.22633
   Y17       -4.82114  -0.00824   0.00000  -0.04953  -0.04426  -4.86540
   Z17       -0.45380  -0.00357   0.00000  -0.02137  -0.01399  -0.46779
   X18        3.21660  -0.00039   0.00000   0.05502   0.05714   3.27374
   Y18        2.84142  -0.00236   0.00000   0.00608   0.00900   2.85042
   Z18       -2.68595   0.00303   0.00000   0.03322   0.03422  -2.65174
   X19        1.86849  -0.00074   0.00000   0.07928   0.08274   1.95123
   Y19        2.66799  -0.00005   0.00000   0.02683   0.02774   2.69574
   Z19       -3.91658  -0.00066   0.00000   0.00455   0.00439  -3.91219
   X20        0.86897  -0.00036   0.00000  -0.05214  -0.05576   0.81321
   Y20        3.76896  -0.00183   0.00000   0.02722   0.03173   3.80069
   Z20        2.57134  -0.00351   0.00000  -0.05184  -0.05386   2.51748
   X21        1.65613   0.00000   0.00000  -0.04642  -0.05025   1.60588
   Y21        5.12794  -0.00138   0.00000   0.01422   0.01872   5.14666
   Z21        1.61324   0.00166   0.00000  -0.05984  -0.06206   1.55119
   X22       -0.20539   0.01078   0.00000  -0.01671  -0.01006  -0.21544
   Y22       -7.76879   0.00957   0.00000   0.07641   0.07961  -7.68918
   Z22        1.87551   0.01085   0.00000   0.00842   0.01354   1.88905
   X23        0.25240  -0.00071   0.00000  -0.02750  -0.01996   0.23245
   Y23       -6.81663  -0.00241   0.00000   0.03659   0.03894  -6.77769
   Z23        0.17060   0.00131   0.00000  -0.01720  -0.01229   0.15831
   X24       -2.64717   0.00221   0.00000  -0.02749  -0.02179  -2.66897
   Y24       -6.76204  -0.00062   0.00000  -0.01626  -0.01499  -6.77703
   Z24        2.07620   0.00200   0.00000  -0.00110   0.00104   2.07724
   X25        0.87100  -0.01045   0.00000  -0.05324  -0.04844   0.82256
   Y25       -6.95000  -0.00814   0.00000   0.03930   0.04425  -6.90574
   Z25        3.17422  -0.01331   0.00000  -0.04212  -0.03656   3.13767
   X26        0.24430  -0.00088   0.00000   0.01326   0.02194   0.26623
   Y26       -5.41877  -0.00027   0.00000   0.00147   0.00216  -5.41661
   Z26       -2.22172  -0.00151   0.00000  -0.01105  -0.00707  -2.22880
   X27       -0.76592   0.00055   0.00000  -0.00934  -0.00204  -0.76797
   Y27       -2.04650  -0.00124   0.00000   0.00150   0.00023  -2.04627
   Z27       -3.78433   0.00023   0.00000   0.02030   0.02090  -3.76343
   X28       -4.26590  -0.00295   0.00000  -0.06208  -0.05727  -4.32316
   Y28       -5.49473  -0.00123   0.00000  -0.02682  -0.02707  -5.52180
   Z28        1.89848   0.00008   0.00000   0.00456   0.00422   1.90270
   X29       -4.44450   0.00275   0.00000  -0.03792  -0.03542  -4.47992
   Y29       -4.56846  -0.00317   0.00000  -0.05134  -0.05056  -4.61903
   Z29        3.52212   0.00138   0.00000   0.00308   0.00196   3.52407
   X30       -3.33428  -0.00098   0.00000  -0.06201  -0.05740  -3.39168
   Y30       -4.05735   0.00234   0.00000  -0.02890  -0.02911  -4.08646
   Z30        0.83770  -0.00299   0.00000   0.00682   0.00636   0.84406
         Item               Value     Threshold  Converged?
 Maximum Force            0.013311     0.000450     NO 
 RMS     Force            0.003507     0.000300     NO 
 Maximum Displacement     0.084388     0.001800     NO 
 RMS     Displacement     0.031402     0.001200     NO 
 Predicted change in Energy=-2.539623D-03
 GradGradGradGradGradGradGradGradGradGradGradGradGradGradGradGradGradGrad

                          Input orientation:                          
 ---------------------------------------------------------------------
 Center     Atomic      Atomic             Coordinates (Angstroms)
 Number     Number       Type             X           Y           Z
 ---------------------------------------------------------------------
      1          6           0       -0.380614   -0.284543    1.097697
      2          6           0        1.455742    0.564963   -0.359365
      3          6           0        0.177225    0.963510    0.399782
      4          6           0        1.462754   -0.903937   -0.837364
      5          1           0        2.031677   -0.926912   -1.779850
      6          1           0        2.300157    0.665539    0.337594
      7          1           0        0.436940   -0.813019    1.610492
      8          1           0       -0.592584    1.285084   -0.328507
      9          6           0        0.099691   -1.571025   -1.134724
     10          8           0       -0.921250   -1.078935    0.039542
     11          6           0       -1.445689    0.033450    2.136293
     12          1           0       -1.069118    0.825978    2.789011
     13          1           0       -2.367778    0.374868    1.644604
     14          8           0       -1.703851   -1.161508    2.917120
     15          1           0       -2.248216   -0.916244    3.686170
     16          8           0        2.139932   -1.669301    0.159118
     17          1           0        2.236476   -2.574661   -0.247546
     18          8           0        1.732388    1.508379   -1.403238
     19          1           0        1.032546    1.426522   -2.070240
     20          8           0        0.430331    2.011240    1.332195
     21          1           0        0.849797    2.723495    0.820852
     22          8           0       -0.114006   -4.068941    0.999644
     23          1           0        0.123005   -3.586599    0.083775
     24          1           0       -1.412356   -3.586248    1.099226
     25          1           0        0.435279   -3.654363    1.660382
     26          8           0        0.140885   -2.866347   -1.179428
     27          1           0       -0.406390   -1.082838   -1.991521
     28          8           0       -2.287720   -2.922010    1.006865
     29          1           0       -2.370669   -2.444283    1.864859
     30          1           0       -1.794798   -2.162460    0.446660
 ---------------------------------------------------------------------
                    Distance matrix (angstroms):
                    1          2          3          4          5
     1  C    0.000000
     2  C    2.493370   0.000000
     3  C    1.534896   1.539399   0.000000
     4  C    2.743377   1.544733   2.582726   0.000000
     5  H    3.809470   2.138965   3.429793   1.101127   0.000000
     6  H    2.943968   1.099502   2.144644   2.131906   2.662997
     7  H    1.100292   2.610963   2.165486   2.655666   3.748410
     8  H    2.131365   2.171443   1.107438   3.045515   3.726401
     9  C    2.620960   2.646224   2.963880   1.546406   2.136268
    10  O    1.429349   2.917468   2.346913   2.546186   3.471754
    11  C    1.521245   3.863821   2.552319   4.263845   5.324523
    12  H    2.137250   4.044171   2.698278   4.749061   5.793276
    13  H    2.163966   4.321034   2.893635   4.740093   5.725096
    14  O    2.414606   4.868170   3.793565   4.918321   6.005891
    15  H    3.253795   5.681517   4.496286   5.850967   6.942260
    16  O    3.025167   2.393507   3.292694   1.427350   2.079052
    17  H    3.728737   3.237173   4.144660   1.933352   2.259419
    18  O    3.732830   1.433959   2.442600   2.492425   2.482348
    19  H    3.867892   1.961752   2.654611   2.671347   2.573177
    20  O    2.446066   2.450420   1.425200   3.777716   4.569668
    21  H    3.261725   2.533642   1.930596   4.035302   4.635295
    22  O    3.795045   5.077803   5.076437   3.984724   4.711889
    23  H    3.490736   4.382696   4.561391   3.136893   3.766970
    24  H    3.459155   5.252240   4.869937   4.383085   5.217520
    25  H    3.512546   4.787842   4.793793   3.854774   4.671474
    26  O    3.481805   3.765002   4.142828   2.390690   2.774348
    27  H    3.190800   2.974343   3.201011   2.204038   2.452201
    28  O    3.256000   5.295193   4.641311   4.641105   5.513926
    29  H    3.035347   5.352024   4.500141   4.936579   5.913288
    30  H    2.439332   4.319088   3.696317   3.720786   4.596285
                    6          7          8          9         10
     6  H    0.000000
     7  H    2.697773   0.000000
     8  H    3.032405   3.036721   0.000000
     9  C    3.465832   2.867843   3.047390   0.000000
    10  O    3.675526   2.093628   2.414967   1.631984   0.000000
    11  C    4.203120   2.130087   2.893028   3.957536   2.430803
    12  H    4.169796   2.518617   3.186970   4.744200   3.348155
    13  H    4.856170   3.046093   2.805882   4.195184   2.604269
    14  O    5.101385   2.532135   4.213646   4.453977   2.983243
    15  H    5.865381   3.395462   4.868736   5.402076   3.883968
    16  O    2.347126   2.395806   4.053740   2.417906   3.119882
    17  H    3.293226   3.129540   4.786206   2.521948   3.505831
    18  O    2.015748   4.018662   2.571070   3.495787   3.977135
    19  H    2.825526   4.349492   2.386354   3.275774   3.813897
    20  O    2.509261   2.837945   2.081247   4.362068   3.612050
    21  H    2.563643   3.647042   2.338914   4.778058   4.266794
    22  O    5.355539   3.358230   5.537021   3.292534   3.242464
    23  H    4.783836   3.181535   4.941187   2.355382   2.716763
    24  H    5.695659   3.372253   5.142015   3.367186   2.765996
    25  H    4.887646   2.841782   5.423127   3.502219   3.331684
    26  O    4.408858   3.476702   4.300746   1.296748   2.410157
    27  H    3.975801   3.709246   2.899541   1.108397   2.095307
    28  O    5.862341   3.497997   4.728249   3.480129   2.489955
    29  H    5.815509   3.257053   4.677672   3.982808   2.701254
    30  H    4.977764   2.855898   3.732527   2.537649   1.450124
                   11         12         13         14         15
    11  C    0.000000
    12  H    1.093594   0.000000
    13  H    1.099351   1.788766   0.000000
    14  O    1.450608   2.090310   2.102510   0.000000
    15  H    1.986980   2.287030   2.418524   0.973615   0.000000
    16  O    4.434553   4.841565   5.167663   4.758056   5.680056
    17  H    5.103261   5.631339   5.786114   5.247694   6.191683
    18  O    4.980348   5.088129   5.233120   6.132008   6.901165
    19  H    5.077127   5.328223   5.144730   6.249762   7.027675
    20  O    2.842126   2.403228   3.256490   4.139208   4.613673
    21  H    3.773060   3.340128   4.067850   5.099873   5.572740
    22  O    4.460377   5.298519   5.024232   3.828510   4.659589
    23  H    4.447290   5.311336   4.932890   4.152868   5.072547
    24  H    3.765480   4.737186   4.111048   3.044516   3.810494
    25  H    4.167073   4.859060   4.908368   3.517043   4.336157
    26  O    4.681885   5.553906   4.977351   4.805334   5.760620
    27  H    4.400578   5.190017   4.381023   5.077829   5.971286
    28  O    3.274045   4.325326   3.358947   2.662583   3.347138
    29  H    2.658651   3.639052   2.827744   1.788131   2.380561
    30  H    2.792626   3.865745   2.863811   2.667087   3.500439
                   16         17         18         19         20
    16  O    0.000000
    17  H    0.997183   0.000000
    18  O    3.564365   4.273282   0.000000
    19  H    3.972462   4.558631   0.970242   0.000000
    20  O    4.224361   5.175735   3.070963   3.504443   0.000000
    21  H    4.625905   5.579858   2.683664   3.173949   0.971973
    22  O    3.397793   3.051741   6.347402   6.398350   6.113550
    23  H    2.783829   2.366548   5.546180   5.531584   5.743587
    24  H    4.144543   4.018841   6.488988   6.414898   5.897596
    25  H    3.016638   2.837297   6.141837   6.331639   5.675102
    26  O    2.687157   2.311922   4.660600   4.474072   5.493895
    27  H    3.384219   3.500246   3.410990   2.893721   4.617414
    28  O    4.678894   4.707711   6.449667   6.277138   5.641861
    29  H    4.884227   5.070014   6.568034   6.484598   5.289709
    30  H    3.975926   4.111326   5.416477   5.216268   4.811980
                   21         22         23         24         25
    21  H    0.000000
    22  O    6.862804   0.000000
    23  H    6.394435   1.061906   0.000000
    24  H    6.708777   1.388748   1.840781   0.000000
    25  H    6.446217   0.954025   1.608663   1.932173   0.000000
    26  O    5.979131   2.501911   1.454223   2.850101   2.961783
    27  H    4.896490   4.236670   3.294834   4.102651   4.545057
    28  O    6.461450   2.457749   2.665589   1.102726   2.894503
    29  H    6.177967   2.912154   3.270406   1.675901   3.062589
    30  H    5.568345   2.601062   2.416159   1.612227   2.944850
                   26         27         28         29         30
    26  O    0.000000
    27  H    2.034676   0.000000
    28  O    3.268194   3.989019   0.000000
    29  H    3.969097   4.536915   0.985525   0.000000
    30  H    2.624212   3.006324   1.064761   1.556387   0.000000
 Stoichiometry    C6H16O8
 Framework group  C1[X(C6H16O8)]
 Deg. of freedom    84
 Full point group                 C1      NOp   1
 Largest Abelian subgroup         C1      NOp   1
 Largest concise Abelian subgroup C1      NOp   1
                         Standard orientation:                         
 ---------------------------------------------------------------------
 Center     Atomic      Atomic             Coordinates (Angstroms)
 Number     Number       Type             X           Y           Z
 ---------------------------------------------------------------------
      1          6           0        0.057720    0.986644    0.078912
      2          6           0        2.156529   -0.349794    0.239613
      3          6           0        1.562502    0.992717   -0.223577
      4          6           0        1.155852   -1.525215    0.182783
      5          1           0        1.741618   -2.428010   -0.050283
      6          1           0        2.441593   -0.239466    1.295772
      7          1           0       -0.107917    0.621351    1.103493
      8          1           0        1.660131    1.073083   -1.323772
      9          6           0        0.023626   -1.456932   -0.868298
     10          8           0       -0.500484    0.088536   -0.882779
     11          6           0       -0.582122    2.362636   -0.028022
     12          1           0        0.023689    3.072946    0.541540
     13          1           0       -0.625283    2.682405   -1.078953
     14          8           0       -1.917768    2.298291    0.534270
     15          1           0       -2.257880    3.205855    0.626886
     16          8           0        0.571040   -1.645296    1.479281
     17          1           0        0.038742   -2.487281    1.433521
     18          8           0        3.389452   -0.613587   -0.443434
     19          1           0        3.183840   -0.762633   -1.379852
     20          8           0        2.214331    2.094500    0.402832
     21          1           0        3.162483    1.975542    0.225106
     22          8           0       -2.765894   -1.419015    0.880394
     23          1           0       -1.960294   -1.849765    0.338999
     24          1           0       -3.086165   -0.449397   -0.060822
     25          1           0       -2.372648   -1.007300    1.645909
     26          8           0       -0.964970   -2.263645   -0.637114
     27          1           0        0.431343   -1.489560   -1.898466
     28          8           0       -2.981535    0.298143   -0.864713
     29          1           0       -2.929255    1.178812   -0.425456
     30          1           0       -1.942004    0.139679   -1.031986
 ---------------------------------------------------------------------
 Rotational constants (GHZ):      0.7941475      0.5601474      0.3878077
 Standard basis: 6-31G(d) (6D, 7F)
 There are   242 symmetry adapted cartesian basis functions of A   symmetry.
 There are   242 symmetry adapted basis functions of A   symmetry.
   242 basis functions,   456 primitive gaussians,   242 cartesian basis functions
    58 alpha electrons       58 beta electrons
       nuclear repulsion energy      1127.8246845987 Hartrees.
 NAtoms=   30 NActive=   30 NUniq=   30 SFac= 1.00D+00 NAtFMM=   60 NAOKFM=F Big=F
 Integral buffers will be    131072 words long.
 Raffenetti 2 integral format.
 Two-electron integral symmetry is turned on.
 One-electron integrals computed using PRISM.
 NBasis=   242 RedAO= T EigKep=  1.29D-03  NBF=   242
 NBsUse=   242 1.00D-06 EigRej= -1.00D+00 NBFU=   242
 Initial guess from the checkpoint file:  "/scratch/10451543.yak.local/Gau-32380.chk"
 B after Tr=    -0.000000   -0.000000   -0.000000
         Rot=    0.999993    0.000501   -0.001712   -0.003373 Ang=   0.44 deg.
 ExpMin= 1.61D-01 ExpMax= 5.48D+03 ExpMxC= 8.25D+02 IAcc=1 IRadAn=         1 AccDes= 0.00D+00
 Harris functional with IExCor=  402 and IRadAn=       1 diagonalized for initial guess.
 HarFok:  IExCor=  402 AccDes= 0.00D+00 IRadAn=         1 IDoV= 1 UseB2=F ITyADJ=14
 ICtDFT=  3500011 ScaDFX=  1.000000  1.000000  1.000000  1.000000
 FoFCou: FMM=F IPFlag=           0 FMFlag=      100000 FMFlg1=           0
         NFxFlg=           0 DoJE=T BraDBF=F KetDBF=T FulRan=T
         wScrn=  0.000000 ICntrl=     500 IOpCl=  0 I1Cent=   200000004 NGrid=           0
         NMat0=    1 NMatS0=      1 NMatT0=    0 NMatD0=    1 NMtDS0=    0 NMtDT0=    0
 Petite list used in FoFCou.
 Requested convergence on RMS density matrix=1.00D-08 within 128 cycles.
 Requested convergence on MAX density matrix=1.00D-06.
 Requested convergence on             energy=1.00D-06.
 No special actions if energy rises.
 Integral accuracy reduced to 1.0D-05 until final iterations.
 Initial convergence to 1.0D-05 achieved.  Increase integral accuracy.
 SCF Done:  E(RB3LYP) =  -839.955247365     A.U. after   11 cycles
            NFock= 11  Conv=0.91D-08     -V/T= 2.0086
