 Entering Gaussian System, Link 0=g09
 Initial command:
 /global/software/gaussian/g09.e01/l1.exe "/scratch/10451471.yak.local/Gau-19742.inp" -scrdir="/scratch/10451471.yak.local/"
 Entering Link 1 = /global/software/gaussian/g09.e01/l1.exe PID=     19743.
  
 Copyright (c) 1988,1990,1992,1993,1995,1998,2003,2009,2015,
            Gaussian, Inc.  All Rights Reserved.
  
 This is part of the Gaussian(R) 09 program.  It is based on
 the Gaussian(R) 03 system (copyright 2003, Gaussian, Inc.),
 the Gaussian(R) 98 system (copyright 1998, Gaussian, Inc.),
 the Gaussian(R) 94 system (copyright 1995, Gaussian, Inc.),
 the Gaussian 92(TM) system (copyright 1992, Gaussian, Inc.),
 the Gaussian 90(TM) system (copyright 1990, Gaussian, Inc.),
 the Gaussian 88(TM) system (copyright 1988, Gaussian, Inc.),
 the Gaussian 86(TM) system (copyright 1986, Carnegie Mellon
 University), and the Gaussian 82(TM) system (copyright 1983,
 Carnegie Mellon University). Gaussian is a federally registered
 trademark of Gaussian, Inc.
  
 This software contains proprietary and confidential information,
 including trade secrets, belonging to Gaussian, Inc.
  
 This software is provided under written license and may be
 used, copied, transmitted, or stored only in accord with that
 written license.
  
 The following legend is applicable only to US Government
 contracts under FAR:
  
                    RESTRICTED RIGHTS LEGEND
  
 Use, reproduction and disclosure by the US Government is
 subject to restrictions as set forth in subparagraphs (a)
 and (c) of the Commercial Computer Software - Restricted
 Rights clause in FAR 52.227-19.
  
 Gaussian, Inc.
 340 Quinnipiac St., Bldg. 40, Wallingford CT 06492
  
  
 ---------------------------------------------------------------
 Warning -- This program may not be used in any manner that
 competes with the business of Gaussian, Inc. or will provide
 assistance to any competitor of Gaussian, Inc.  The licensee
 of this program is prohibited from giving any competitor of
 Gaussian, Inc. access to this program.  By using this program,
 the user acknowledges that Gaussian, Inc. is engaged in the
 business of creating and licensing software in the field of
 computational chemistry and represents and warrants to the
 licensee that it is not a competitor of Gaussian, Inc. and that
 it will not use this program in any manner prohibited above.
 ---------------------------------------------------------------
  

 Cite this work as:
 Gaussian 09, Revision E.01,
 M. J. Frisch, G. W. Trucks, H. B. Schlegel, G. E. Scuseria, 
 M. A. Robb, J. R. Cheeseman, G. Scalmani, V. Barone, B. Mennucci, 
 G. A. Petersson, H. Nakatsuji, M. Caricato, X. Li, H. P. Hratchian, 
 A. F. Izmaylov, J. Bloino, G. Zheng, J. L. Sonnenberg, M. Hada, 
 M. Ehara, K. Toyota, R. Fukuda, J. Hasegawa, M. Ishida, T. Nakajima, 
 Y. Honda, O. Kitao, H. Nakai, T. Vreven, J. A. Montgomery, Jr., 
 J. E. Peralta, F. Ogliaro, M. Bearpark, J. J. Heyd, E. Brothers, 
 K. N. Kudin, V. N. Staroverov, T. Keith, R. Kobayashi, J. Normand, 
 K. Raghavachari, A. Rendell, J. C. Burant, S. S. Iyengar, J. Tomasi, 
 M. Cossi, N. Rega, J. M. Millam, M. Klene, J. E. Knox, J. B. Cross, 
 V. Bakken, C. Adamo, J. Jaramillo, R. Gomperts, R. E. Stratmann, 
 O. Yazyev, A. J. Austin, R. Cammi, C. Pomelli, J. W. Ochterski, 
 R. L. Martin, K. Morokuma, V. G. Zakrzewski, G. A. Voth, 
 P. Salvador, J. J. Dannenberg, S. Dapprich, A. D. Daniels, 
 O. Farkas, J. B. Foresman, J. V. Ortiz, J. Cioslowski, 
 and D. J. Fox, Gaussian, Inc., Wallingford CT, 2013.
 
 ******************************************
 Gaussian 09:  ES64L-G09RevE.01 30-Nov-2015
                11-Jan-2017 
 ******************************************
 %NPROCS=4
 Will use up to    4 processors via shared memory.
 ----------------------------------------------------------------------
 # opt=(calcfc,ts,noeigentest,maxcycle=1000,cartesian) b3lyp 6-31g(d) f
 req
 ----------------------------------------------------------------------
 1/5=1,6=1000,10=4,11=1,14=-1,18=10,26=3,38=1/1,3;
 2/12=2,17=6,18=5,29=2,40=1/2;
 3/5=1,6=6,7=1,11=2,16=1,25=1,30=1,71=2,74=-5,140=1/1,2,3;
 4//1;
 5/5=2,38=5/2;
 8/6=4,10=90,11=11/1;
 11/6=1,8=1,9=11,15=111,16=1/1,2,10;
 10/6=1,13=1/2;
 6/7=2,8=2,9=2,10=2,28=1/1;
 7/7=1,10=1,18=20,25=1/1,2,3,16;
 1/5=1,6=1000,10=4,11=1,14=-1,18=10,26=3/3(2);
 2/29=1/2;
 99/12=1/99;
 2/29=1/2;
 3/5=1,6=6,7=1,11=2,16=1,25=1,30=1,71=1,74=-5/1,2,3;
 4/5=5,16=3,69=1/1;
 5/5=2,38=5/2;
 7/7=1/1,2,3,16;
 1/5=1,6=1000,11=1,14=-1,18=10,26=3/3(-5);
 2/29=1/2;
 6/7=2,8=2,9=2,10=2,19=2,28=1/1;
 99/9=1,12=1/99;
 -------------------------
 boat6_Alpha_B3LYP_6-31G_d
 -------------------------
 Symbolic Z-matrix:
 Charge =  0 Multiplicity = 1
 C                    -0.46059  -0.0233    1.05039 
 C                     1.29061   0.77391  -0.58771 
 C                     0.21908   1.19207   0.43193 
 C                     1.31215  -0.75863  -0.85138 
 H                     1.8839   -0.93004  -1.73942 
 H                     2.26084   1.14587  -0.33239 
 H                     0.15199  -0.54358   1.75676 
 H                    -0.45898   1.88352  -0.02308 
 C                     0.10856  -1.37787  -1.13075 
 H                     0.33296  -2.42398  -1.11645 
 O                    -1.13229  -0.89363   0.05002 
 C                    -1.63796   0.48894   1.90069 
 H                    -1.26915   1.14171   2.66409 
 H                    -2.32361   1.02231   1.27595 
 O                    -2.30778  -0.62062   2.50494 
 H                    -2.90348  -0.30245   3.18722 
 O                    -0.36085  -1.05782  -2.27775 
 O                     1.96951  -1.47297   0.19862 
 H                     2.81951  -1.79152  -0.11383 
 O                     0.95744   1.38439  -1.83719 
 H                     0.6069    0.72009  -2.43504 
 O                     0.8581    1.9193    1.4844 
 H                     0.70066   2.85889   1.36616 
 O                    -2.31675  -0.00488  -1.77536 
 H                    -1.42672  -0.51909  -2.3948 
 H                    -2.6372    0.90006  -1.77536 
 H                    -1.9118   -0.59466  -0.81195 
 O                     0.86761   3.26198  -0.27411 
 H                     0.91778   4.22054  -0.25853 
 H                     0.9856    2.9495   -1.17412 
 

 GradGradGradGradGradGradGradGradGradGradGradGradGradGradGradGradGradGrad
 Berny optimization.
 Initialization pass.
 No Z-matrix variables, so optimization will use Cartesian coordinates.
 Trust Radius=3.00D-01 FncErr=1.00D-07 GrdErr=1.00D-06
 Number of steps in this run=    180 maximum allowed number of steps=    180.
 Search for a saddle point of order  1.
 GradGradGradGradGradGradGradGradGradGradGradGradGradGradGradGradGradGrad

 ---------------------------------------------------------------------------------------------------
                            Z-MATRIX (ANGSTROMS AND DEGREES)
   CD    Cent   Atom    N1       Length/X        N2       Alpha/Y        N3        Beta/Z          J
 ---------------------------------------------------------------------------------------------------
      1      1  C        0  -0.460586         -0.023297          1.050390
      2      2  C        0   1.290608          0.773912         -0.587710
      3      3  C        0   0.219084          1.192073          0.431930
      4      4  C        0   1.312146         -0.758632         -0.851380
      5      5  H        0   1.883896         -0.930043         -1.739423
      6      6  H        0   2.260843          1.145874         -0.332388
      7      7  H        0   0.151992         -0.543576          1.756759
      8      8  H        0  -0.458976          1.883524         -0.023075
      9      9  C        0   0.108561         -1.377868         -1.130748
     10     10  H        0   0.332961         -2.423976         -1.116453
     11     11  O        0  -1.132287         -0.893629          0.050018
     12     12  C        0  -1.637957          0.488940          1.900690
     13     13  H        0  -1.269150          1.141705          2.664089
     14     14  H        0  -2.323612          1.022308          1.275954
     15     15  O        0  -2.307780         -0.620619          2.504939
     16     16  H        0  -2.903477         -0.302447          3.187223
     17     17  O        0  -0.360855         -1.057825         -2.277753
     18     18  O        0   1.969510         -1.472970          0.198617
     19     19  H        0   2.819514         -1.791519         -0.113825
     20     20  O        0   0.957436          1.384394         -1.837193
     21     21  H        0   0.606895          0.720093         -2.435043
     22     22  O        0   0.858104          1.919303          1.484399
     23     23  H        0   0.700664          2.858894          1.366161
     24     24  O        0  -2.316748         -0.004879         -1.775363
     25     25  H        0  -1.426719         -0.519091         -2.394801
     26     26  H        0  -2.637202          0.900056         -1.775363
     27     27  H        0  -1.911798         -0.594664         -0.811947
     28     28  O        0   0.867607          3.261980         -0.274105
     29     29  H        0   0.917776          4.220541         -0.258526
     30     30  H        0   0.985603          2.949496         -1.174122
 ---------------------------------------------------------------------------------------------------
                         Z-Matrix orientation:                         
 ---------------------------------------------------------------------
 Center     Atomic      Atomic             Coordinates (Angstroms)
 Number     Number       Type             X           Y           Z
 ---------------------------------------------------------------------
      1          6           0       -0.460586   -0.023297    1.050390
      2          6           0        1.290608    0.773912   -0.587710
      3          6           0        0.219084    1.192073    0.431930
      4          6           0        1.312146   -0.758632   -0.851380
      5          1           0        1.883896   -0.930043   -1.739423
      6          1           0        2.260843    1.145874   -0.332388
      7          1           0        0.151992   -0.543576    1.756759
      8          1           0       -0.458976    1.883524   -0.023075
      9          6           0        0.108561   -1.377868   -1.130748
     10          1           0        0.332961   -2.423976   -1.116453
     11          8           0       -1.132287   -0.893629    0.050018
     12          6           0       -1.637957    0.488940    1.900690
     13          1           0       -1.269150    1.141705    2.664089
     14          1           0       -2.323612    1.022308    1.275954
     15          8           0       -2.307780   -0.620619    2.504939
     16          1           0       -2.903477   -0.302447    3.187223
     17          8           0       -0.360855   -1.057825   -2.277753
     18          8           0        1.969510   -1.472970    0.198617
     19          1           0        2.819514   -1.791519   -0.113825
     20          8           0        0.957436    1.384394   -1.837193
     21          1           0        0.606895    0.720093   -2.435043
     22          8           0        0.858104    1.919303    1.484399
     23          1           0        0.700664    2.858894    1.366161
     24          8           0       -2.316748   -0.004879   -1.775363
     25          1           0       -1.426719   -0.519091   -2.394801
     26          1           0       -2.637202    0.900056   -1.775363
     27          1           0       -1.911798   -0.594664   -0.811947
     28          8           0        0.867607    3.261980   -0.274105
     29          1           0        0.917776    4.220541   -0.258526
     30          1           0        0.985603    2.949496   -1.174122
 ---------------------------------------------------------------------
                    Distance matrix (angstroms):
                    1          2          3          4          5
     1  C    0.000000
     2  C    2.526973   0.000000
     3  C    1.523669   1.537104   0.000000
     4  C    2.701856   1.555210   2.578162   0.000000
     5  H    3.755242   2.140536   3.462621   1.070000   0.000000
     6  H    3.268824   1.070000   2.180618   2.190096   2.535994
     7  H    1.070000   2.920404   2.184526   2.862621   3.920732
     8  H    2.188218   2.147346   1.070000   3.286936   4.043644
     9  C    2.629858   2.514415   3.009780   1.382070   1.929468
    10  H    3.329892   3.379814   3.935259   1.949984   2.241724
    11  O    1.486407   3.009620   2.514401   2.608830   3.507247
    12  C    1.540000   3.853549   2.469869   4.222965   5.259980
    13  H    2.148263   4.154736   2.683265   4.757404   5.798686
    14  H    2.148263   4.074006   2.684492   4.573405   5.532385
    15  O    2.425826   4.945462   3.737414   4.938399   5.973316
    16  H    3.257560   5.744477   4.424434   5.855758   6.898163
    17  O    3.486650   2.989788   3.569419   2.218781   2.311932
    18  O    2.955069   2.475419   3.197011   1.430000   2.014473
    19  H    3.903980   3.023831   3.995235   1.970533   2.063999
    20  O    3.511484   1.430000   2.393966   2.385416   2.494896
    21  H    3.720268   1.970533   2.931331   2.278595   2.199447
    22  O    2.387677   2.406785   1.430000   3.582367   4.423126
    23  H    3.123338   2.917670   1.970533   4.286945   5.039914
    24  O    3.380910   3.876861   3.568652   3.819785   4.301468
    25  H    3.612280   3.510171   3.691498   3.152921   3.399789
    26  H    3.684443   4.105378   3.621572   4.382048   4.877590
    27  H    2.429151   3.489797   3.046361   3.228352   3.921732
    28  O    3.783045   2.543179   2.281136   4.086096   4.555552
    29  H    4.650087   3.482330   3.183790   5.029828   5.445637
    30  H    3.984648   2.273780   2.501098   3.736443   4.022103
                    6          7          8          9         10
     6  H    0.000000
     7  H    3.415557   0.000000
     8  H    2.834998   3.071142   0.000000
     9  C    3.411593   3.005932   3.490805   0.000000
    10  H    4.132228   3.438604   4.514110   1.070000   0.000000
    11  O    3.977327   2.164457   2.858543   1.780000   2.418588
    12  C    4.540797   2.071406   2.652497   3.965465   4.633869
    13  H    4.630307   2.383918   2.903021   4.758900   5.438137
    14  H    4.859964   2.968465   2.430234   4.179536   4.965668
    15  O    5.660674   2.572195   4.009946   4.430615   4.831158
    16  H    6.415255   3.382346   4.589125   5.373433   5.787663
    17  O    3.938785   4.099360   3.707389   1.280000   1.922594
    18  O    2.687970   2.568064   4.148825   2.288970   2.304802
    19  H    2.998026   3.488857   4.925716   2.924808   2.754670
    20  O    2.005043   4.157199   2.355075   2.974853   3.925954
    21  H    2.708873   4.401705   2.882229   2.520112   3.420364
    22  O    2.422103   2.576538   2.002113   4.274593   5.089624
    23  H    2.872919   3.468489   2.055745   4.953312   5.848700
    24  O    4.935660   4.342897   3.176145   2.860551   3.647896
    25  H    4.541340   4.441664   3.512004   2.166198   2.891234
    26  H    5.112088   4.726475   2.963510   3.625422   4.506132
    27  H    4.546469   3.295465   2.978998   2.190181   2.911709
    28  O    2.534247   4.372502   1.929502   4.778930   5.772823
    29  H    3.356019   5.229208   2.722596   5.723442   6.725151
    30  H    2.363854   4.635357   2.132607   4.415560   5.413268
                   11         12         13         14         15
    11  O    0.000000
    12  C    2.364780   0.000000
    13  H    3.315824   1.070000   0.000000
    14  H    2.567681   1.070000   1.747303   0.000000
    15  O    2.735499   1.430000   2.051796   2.051796   0.000000
    16  H    3.650845   1.970533   2.242826   2.396700   0.960000
    17  O    2.457760   4.634961   5.484956   4.561601   5.182259
    18  O    3.158934   4.445218   4.837768   5.081138   4.933643
    19  H    4.055833   5.397019   5.747851   6.025018   5.875208
    20  O    3.621864   4.637853   5.027736   4.537407   5.791013
    21  H    3.435751   4.887881   5.449629   4.738217   5.890354
    22  O    3.732518   2.906812   2.553730   3.312305   4.185155
    23  H    4.378741   3.372174   2.917794   3.539411   4.738625
    24  O    2.350497   3.770674   4.703281   3.219579   4.324373
    25  H    2.490805   4.417239   5.326861   4.081026   4.979361
    26  H    2.968853   3.831563   4.651741   3.069823   4.554334
    27  H    1.200000   2.933869   3.938376   2.672736   3.340540
    28  O    4.623171   4.324042   4.206457   4.195556   5.734173
    29  H    5.518396   5.011870   4.775307   4.805197   6.440325
    30  H    4.555611   4.732006   4.804570   4.546188   6.093241
                   16         17         18         19         20
    16  H    0.000000
    17  O    6.074659   0.000000
    18  O    5.835057   3.425690   0.000000
    19  H    6.772509   3.916074   0.960000   0.000000
    20  O    6.557198   2.810057   3.651486   4.064942   0.000000
    21  H    6.706577   2.030338   3.688145   4.073319   0.960000
    22  O    4.688846   4.950044   3.794203   4.491286   3.365853
    23  H    5.128370   5.453955   4.662422   5.320360   3.535754
    24  O    5.006002   2.277413   4.942053   5.686297   3.557272
    25  H    5.778126   1.200000   4.378364   4.985219   3.101351
    26  H    5.113137   3.044249   5.545237   6.307221   3.627648
    27  H    4.130639   2.183696   4.105754   4.930025   3.633223
    28  O    6.237548   4.917767   4.884404   5.419731   2.444717
    29  H    6.850736   5.794249   5.807856   6.307330   3.246150
    30  H    6.687407   4.369161   4.733993   5.192753   1.700000
                   21         22         23         24         25
    21  H    0.000000
    22  O    4.106487   0.000000
    23  H    4.362616   0.960000   0.000000
    24  O    3.083578   4.940466   5.212978   0.000000
    25  H    2.381760   5.119997   5.484650   1.200113   0.000000
    26  H    3.315379   4.886929   4.984733   0.960000   1.965440
    27  H    3.272131   4.389258   4.847285   1.200000   1.657239
    28  O    3.346463   2.212512   1.697298   4.802734   4.904873
    29  H    4.133644   2.887394   2.130922   5.533274   5.703021
    30  H    2.589127   2.853995   2.557819   4.471616   4.397778
                   26         27         28         29         30
    26  H    0.000000
    27  H    1.920565   0.000000
    28  O    4.485102   4.784147   0.000000
    29  H    5.095516   5.612394   0.960000   0.000000
    30  H    4.205522   4.592078   0.960000   1.567952   0.000000
 Stoichiometry    C6H16O8
 Framework group  C1[X(C6H16O8)]
 Deg. of freedom    84
 Full point group                 C1      NOp   1
 Largest Abelian subgroup         C1      NOp   1
 Largest concise Abelian subgroup C1      NOp   1
                         Standard orientation:                         
 ---------------------------------------------------------------------
 Center     Atomic      Atomic             Coordinates (Angstroms)
 Number     Number       Type             X           Y           Z
 ---------------------------------------------------------------------
      1          6           0       -1.115763    0.259351    0.512418
      2          6           0        1.399589    0.477853    0.408251
      3          6           0        0.051470    1.105043    0.018515
      4          6           0        1.249538   -0.924092    1.064536
      5          1           0        2.212091   -1.391411    1.062153
      6          1           0        1.994463    1.134647    1.007958
      7          1           0       -1.276217    0.325479    1.568251
      8          1           0        0.034794    1.294627   -1.034423
      9          6           0        0.451133   -1.850783    0.421178
     10          1           0        0.365628   -2.661524    1.114206
     11          8           0       -1.110020   -1.124483   -0.030144
     12          6           0       -2.403380    0.854444   -0.087172
     13          1           0       -2.511617    1.868749    0.235895
     14          1           0       -2.346462    0.824457   -1.155236
     15          8           0       -3.530437    0.091543    0.351717
     16          1           0       -4.338469    0.570284    0.152997
     17          8           0        0.964411   -2.275935   -0.671612
     18          8           0        0.845822   -0.833598    2.433377
     19          1           0        1.583886   -1.066804    3.001246
     20          8           0        2.142841    0.272056   -0.795960
     21          1           0        2.149881   -0.663219   -1.012318
     22          8           0       -0.044394    2.389347    0.640024
     23          1           0        0.134465    3.073634   -0.009099
     24          8           0       -0.516505   -1.584264   -2.257514
     25          1           0        0.412739   -2.127621   -1.726914
     26          1           0       -0.539883   -0.904965   -2.935457
     27          1           0       -1.011904   -1.491207   -1.168514
     28          8           0        1.446872    2.608405   -0.979651
     29          1           0        1.686136    3.423329   -1.427147
     30          1           0        2.066224    1.916060   -1.221852
 ---------------------------------------------------------------------
 Rotational constants (GHZ):      0.6664565      0.6189367      0.4914749
 Standard basis: 6-31G(d) (6D, 7F)
 There are   242 symmetry adapted cartesian basis functions of A   symmetry.
 There are   242 symmetry adapted basis functions of A   symmetry.
   242 basis functions,   456 primitive gaussians,   242 cartesian basis functions
    58 alpha electrons       58 beta electrons
       nuclear repulsion energy      1155.7361710013 Hartrees.
 NAtoms=   30 NActive=   30 NUniq=   30 SFac= 1.00D+00 NAtFMM=   60 NAOKFM=F Big=F
 Integral buffers will be    131072 words long.
 Raffenetti 2 integral format.
 Two-electron integral symmetry is turned on.
 One-electron integrals computed using PRISM.
 NBasis=   242 RedAO= T EigKep=  1.29D-03  NBF=   242
 NBsUse=   242 1.00D-06 EigRej= -1.00D+00 NBFU=   242
 ExpMin= 1.61D-01 ExpMax= 5.48D+03 ExpMxC= 8.25D+02 IAcc=1 IRadAn=         1 AccDes= 0.00D+00
 Harris functional with IExCor=  402 and IRadAn=       1 diagonalized for initial guess.
 HarFok:  IExCor=  402 AccDes= 0.00D+00 IRadAn=         1 IDoV= 1 UseB2=F ITyADJ=14
 ICtDFT=  3500011 ScaDFX=  1.000000  1.000000  1.000000  1.000000
 FoFCou: FMM=F IPFlag=           0 FMFlag=      100000 FMFlg1=           0
         NFxFlg=           0 DoJE=T BraDBF=F KetDBF=T FulRan=T
         wScrn=  0.000000 ICntrl=     500 IOpCl=  0 I1Cent=   200000004 NGrid=           0
         NMat0=    1 NMatS0=      1 NMatT0=    0 NMatD0=    1 NMtDS0=    0 NMtDT0=    0
 Petite list used in FoFCou.
 Requested convergence on RMS density matrix=1.00D-08 within 128 cycles.
 Requested convergence on MAX density matrix=1.00D-06.
 Requested convergence on             energy=1.00D-06.
 No special actions if energy rises.
 Integral accuracy reduced to 1.0D-05 until final iterations.
 Initial convergence to 1.0D-05 achieved.  Increase integral accuracy.
 SCF Done:  E(RB3LYP) =  -839.819985394     A.U. after   14 cycles
            NFock= 14  Conv=0.66D-08     -V/T= 2.0071
 DoSCS=F DFT=T ScalE2(SS,OS)=  1.000000  1.000000
 Range of M.O.s used for correlation:     1   242
 NBasis=   242 NAE=    58 NBE=    58 NFC=     0 NFV=     0
 NROrb=    242 NOA=    58 NOB=    58 NVA=   184 NVB=   184
 Symmetrizing basis deriv contribution to polar:
 IMax=3 JMax=2 DiffMx= 0.00D+00
 G2DrvN: will do    31 centers at a time, making    1 passes.
 Calling FoFCou, ICntrl=  3107 FMM=F I1Cent=   0 AccDes= 0.00D+00.
 End of G2Drv F.D. properties file   721 does not exist.
 End of G2Drv F.D. properties file   722 does not exist.
 End of G2Drv F.D. properties file   788 does not exist.
          IDoAtm=111111111111111111111111111111
          Differentiating once with respect to nuclear coordinates.
          There are    93 degrees of freedom in the 1st order CPHF.  IDoFFX=6 NUNeed=     0.
     87 vectors produced by pass  0 Test12= 1.15D-14 1.08D-09 XBig12= 1.18D-01 7.89D-02.
 AX will form    87 AO Fock derivatives at one time.
     87 vectors produced by pass  1 Test12= 1.15D-14 1.08D-09 XBig12= 1.92D-02 1.62D-02.
     87 vectors produced by pass  2 Test12= 1.15D-14 1.08D-09 XBig12= 1.38D-04 1.47D-03.
     87 vectors produced by pass  3 Test12= 1.15D-14 1.08D-09 XBig12= 3.53D-07 5.56D-05.
     87 vectors produced by pass  4 Test12= 1.15D-14 1.08D-09 XBig12= 5.72D-10 1.63D-06.
     70 vectors produced by pass  5 Test12= 1.15D-14 1.08D-09 XBig12= 4.59D-13 7.17D-08.
      2 vectors produced by pass  6 Test12= 1.15D-14 1.08D-09 XBig12= 4.19D-16 1.61D-09.
 InvSVY:  IOpt=1 It=  1 EMax= 5.00D-16
 Solved reduced A of dimension   507 with    93 vectors.
 End of Minotr F.D. properties file   721 does not exist.
 End of Minotr F.D. properties file   722 does not exist.
 End of Minotr F.D. properties file   788 does not exist.

 **********************************************************************

            Population analysis using the SCF density.

 **********************************************************************

 Orbital symmetries:
       Occupied  (A) (A) (A) (A) (A) (A) (A) (A) (A) (A) (A) (A)
                 (A) (A) (A) (A) (A) (A) (A) (A) (A) (A) (A) (A)
                 (A) (A) (A) (A) (A) (A) (A) (A) (A) (A) (A) (A)
                 (A) (A) (A) (A) (A) (A) (A) (A) (A) (A) (A) (A)
                 (A) (A) (A) (A) (A) (A) (A) (A) (A) (A)
       Virtual   (A) (A) (A) (A) (A) (A) (A) (A) (A) (A) (A) (A)
                 (A) (A) (A) (A) (A) (A) (A) (A) (A) (A) (A) (A)
                 (A) (A) (A) (A) (A) (A) (A) (A) (A) (A) (A) (A)
                 (A) (A) (A) (A) (A) (A) (A) (A) (A) (A) (A) (A)
                 (A) (A) (A) (A) (A) (A) (A) (A) (A) (A) (A) (A)
                 (A) (A) (A) (A) (A) (A) (A) (A) (A) (A) (A) (A)
                 (A) (A) (A) (A) (A) (A) (A) (A) (A) (A) (A) (A)
                 (A) (A) (A) (A) (A) (A) (A) (A) (A) (A) (A) (A)
                 (A) (A) (A) (A) (A) (A) (A) (A) (A) (A) (A) (A)
                 (A) (A) (A) (A) (A) (A) (A) (A) (A) (A) (A) (A)
                 (A) (A) (A) (A) (A) (A) (A) (A) (A) (A) (A) (A)
                 (A) (A) (A) (A) (A) (A) (A) (A) (A) (A) (A) (A)
                 (A) (A) (A) (A) (A) (A) (A) (A) (A) (A) (A) (A)
                 (A) (A) (A) (A) (A) (A) (A) (A) (A) (A) (A) (A)
                 (A) (A) (A) (A) (A) (A) (A) (A) (A) (A) (A) (A)
                 (A) (A) (A) (A)
 The electronic state is 1-A.
 Alpha  occ. eigenvalues --  -19.16712 -19.14870 -19.14579 -19.13716 -19.13422
 Alpha  occ. eigenvalues --  -19.12840 -19.11314 -19.10727 -10.27384 -10.23259
 Alpha  occ. eigenvalues --  -10.23242 -10.22964 -10.21695 -10.21659  -1.06244
 Alpha  occ. eigenvalues --   -1.03910  -1.02627  -1.01405  -1.00617  -0.98847
 Alpha  occ. eigenvalues --   -0.98220  -0.97081  -0.78053  -0.75793  -0.70379
 Alpha  occ. eigenvalues --   -0.63797  -0.61380  -0.59034  -0.56410  -0.55282
 Alpha  occ. eigenvalues --   -0.53661  -0.52370  -0.51046  -0.50418  -0.49258
 Alpha  occ. eigenvalues --   -0.46966  -0.46352  -0.44349  -0.43000  -0.41824
 Alpha  occ. eigenvalues --   -0.41152  -0.40358  -0.38436  -0.37158  -0.35432
 Alpha  occ. eigenvalues --   -0.35013  -0.33728  -0.32795  -0.31574  -0.30863
 Alpha  occ. eigenvalues --   -0.30275  -0.29167  -0.28205  -0.27461  -0.26504
 Alpha  occ. eigenvalues --   -0.25557  -0.24182  -0.23231
 Alpha virt. eigenvalues --    0.01461   0.05830   0.06479   0.06842   0.08801
 Alpha virt. eigenvalues --    0.09580   0.12244   0.14263   0.14805   0.15943
 Alpha virt. eigenvalues --    0.16364   0.17477   0.18167   0.19755   0.20388
 Alpha virt. eigenvalues --    0.21237   0.21750   0.22993   0.23643   0.24330
 Alpha virt. eigenvalues --    0.25271   0.28147   0.29203   0.30258   0.31995
 Alpha virt. eigenvalues --    0.33612   0.35433   0.37700   0.52072   0.53472
 Alpha virt. eigenvalues --    0.55917   0.57497   0.57964   0.60672   0.62151
 Alpha virt. eigenvalues --    0.63621   0.64620   0.65442   0.67382   0.67759
 Alpha virt. eigenvalues --    0.69822   0.71545   0.72214   0.73616   0.75556
 Alpha virt. eigenvalues --    0.77807   0.78538   0.80057   0.80596   0.82906
 Alpha virt. eigenvalues --    0.83096   0.84510   0.85731   0.87423   0.88041
 Alpha virt. eigenvalues --    0.88309   0.88962   0.90761   0.91494   0.93203
 Alpha virt. eigenvalues --    0.93745   0.95413   0.96625   0.98107   0.98510
 Alpha virt. eigenvalues --    0.99081   1.00574   1.01463   1.02052   1.02818
 Alpha virt. eigenvalues --    1.04879   1.06220   1.07696   1.08669   1.10258
 Alpha virt. eigenvalues --    1.12066   1.13504   1.16135   1.17500   1.18427
 Alpha virt. eigenvalues --    1.21885   1.24518   1.25512   1.26325   1.27803
 Alpha virt. eigenvalues --    1.30426   1.33238   1.35846   1.37306   1.38684
 Alpha virt. eigenvalues --    1.40340   1.43377   1.45601   1.47562   1.48649
 Alpha virt. eigenvalues --    1.54058   1.56980   1.58508   1.59253   1.60227
 Alpha virt. eigenvalues --    1.61616   1.64371   1.66224   1.69473   1.71242
 Alpha virt. eigenvalues --    1.72444   1.72737   1.74729   1.75639   1.77864
 Alpha virt. eigenvalues --    1.78567   1.78820   1.81149   1.82802   1.82991
 Alpha virt. eigenvalues --    1.85490   1.87881   1.90619   1.91382   1.92154
 Alpha virt. eigenvalues --    1.93168   1.96111   1.98600   1.99973   2.00606
 Alpha virt. eigenvalues --    2.00718   2.02759   2.05861   2.06455   2.08271
 Alpha virt. eigenvalues --    2.09553   2.11468   2.16219   2.17859   2.18903
 Alpha virt. eigenvalues --    2.21451   2.25575   2.26914   2.28669   2.33562
 Alpha virt. eigenvalues --    2.36081   2.38502   2.39412   2.41165   2.42950
 Alpha virt. eigenvalues --    2.43939   2.48025   2.50003   2.50141   2.51356
 Alpha virt. eigenvalues --    2.54038   2.54839   2.61396   2.63372   2.64576
 Alpha virt. eigenvalues --    2.66792   2.69017   2.71986   2.73605   2.74289
 Alpha virt. eigenvalues --    2.77059   2.84546   2.86006   2.90736   2.93113
 Alpha virt. eigenvalues --    2.95831   3.01441   3.05454   3.07242   3.10087
 Alpha virt. eigenvalues --    3.74577   3.77459   3.80606   3.83494   3.91731
 Alpha virt. eigenvalues --    3.98407   4.09679   4.12145   4.32510   4.37823
 Alpha virt. eigenvalues --    4.48469   4.59221   4.72059   4.85039
          Condensed to atoms (all electrons):
               1          2          3          4          5          6
     1  C    4.951284  -0.046969   0.292123  -0.000216   0.000036   0.003180
     2  C   -0.046969   4.996422   0.320845   0.295533  -0.042378   0.361751
     3  C    0.292123   0.320845   5.032234  -0.023679   0.006119  -0.050676
     4  C   -0.000216   0.295533  -0.023679   5.188520   0.373584  -0.023902
     5  H    0.000036  -0.042378   0.006119   0.373584   0.611609  -0.006700
     6  H    0.003180   0.361751  -0.050676  -0.023902  -0.006700   0.572982
     7  H    0.356393  -0.006159  -0.034869  -0.001111   0.000086   0.000339
     8  H   -0.034879  -0.059711   0.351298   0.001898  -0.000303   0.004948
     9  C   -0.013474  -0.032761  -0.021815   0.243258  -0.065202   0.005456
    10  H    0.000413   0.009072   0.000071  -0.106837  -0.004097  -0.000271
    11  O    0.157735  -0.005273  -0.022475  -0.017664   0.003230  -0.000029
    12  C    0.357931   0.004317  -0.036862   0.000265   0.000029  -0.000206
    13  H   -0.035543   0.000278  -0.001152  -0.000004  -0.000000   0.000003
    14  H   -0.043356  -0.000177  -0.003901   0.000014  -0.000000  -0.000000
    15  O   -0.046725  -0.000041   0.002214  -0.000000  -0.000000   0.000001
    16  H    0.006026   0.000004  -0.000249   0.000000   0.000000  -0.000000
    17  O    0.000685   0.006730   0.000630  -0.066566  -0.001318  -0.000126
    18  O   -0.003035  -0.047565   0.001698   0.182955  -0.027068   0.001867
    19  H    0.000271   0.002593  -0.000336  -0.012595  -0.013536   0.000850
    20  O    0.003606   0.171964  -0.059582  -0.012137   0.002565  -0.039514
    21  H   -0.000548  -0.023222   0.003601  -0.020088   0.003418   0.003304
    22  O   -0.030169  -0.045192   0.180539   0.001970  -0.000106   0.005918
    23  H    0.003085   0.005917  -0.025377  -0.000219   0.000008  -0.000029
    24  O    0.005130  -0.000132   0.000920  -0.001728   0.000016  -0.000007
    25  H   -0.000342  -0.000140  -0.000275   0.003039  -0.000108   0.000026
    26  H   -0.000322   0.000012   0.000010  -0.000051  -0.000005   0.000004
    27  H   -0.006635  -0.000287   0.000666   0.003115  -0.000189   0.000018
    28  O    0.002622   0.006924  -0.053521   0.000659  -0.000006   0.004351
    29  H   -0.000113  -0.000057   0.002488  -0.000026  -0.000000   0.000158
    30  H    0.000017  -0.017396   0.001752   0.000803  -0.000005  -0.002781
               7          8          9         10         11         12
     1  C    0.356393  -0.034879  -0.013474   0.000413   0.157735   0.357931
     2  C   -0.006159  -0.059711  -0.032761   0.009072  -0.005273   0.004317
     3  C   -0.034869   0.351298  -0.021815   0.000071  -0.022475  -0.036862
     4  C   -0.001111   0.001898   0.243258  -0.106837  -0.017664   0.000265
     5  H    0.000086  -0.000303  -0.065202  -0.004097   0.003230   0.000029
     6  H    0.000339   0.004948   0.005456  -0.000271  -0.000029  -0.000206
     7  H    0.540056   0.005375  -0.002655   0.000574  -0.026965  -0.045757
     8  H    0.005375   0.608067   0.001385   0.000018   0.000005  -0.012136
     9  C   -0.002655   0.001385   4.796036   0.369947   0.132789   0.002450
    10  H    0.000574   0.000018   0.369947   0.656084  -0.018454  -0.000095
    11  O   -0.026965   0.000005   0.132789  -0.018454   8.492460  -0.041924
    12  C   -0.045757  -0.012136   0.002450  -0.000095  -0.041924   4.898059
    13  H   -0.003313   0.000190  -0.000059   0.000003   0.004090   0.353143
    14  H    0.007538   0.008586  -0.000123   0.000003  -0.004457   0.347186
    15  O    0.005359   0.000039  -0.000038   0.000003   0.002015   0.244893
    16  H   -0.000192  -0.000010   0.000004  -0.000000   0.000076  -0.022042
    17  O    0.000005  -0.000078   0.294556  -0.056789  -0.046450  -0.000128
    18  O    0.006432  -0.000054  -0.064032   0.012976   0.000934   0.000162
    19  H   -0.000039   0.000007   0.004982   0.000299  -0.000080  -0.000007
    20  O   -0.000006   0.004370   0.002534  -0.000392  -0.000434  -0.000094
    21  H    0.000017   0.000174  -0.002535   0.001452   0.001011   0.000025
    22  O    0.003125  -0.029938   0.000274   0.000005   0.001100  -0.004921
    23  H   -0.000400  -0.013079  -0.000020  -0.000000  -0.000054   0.000277
    24  O   -0.000114   0.002329   0.016951  -0.000245  -0.101848  -0.000459
    25  H    0.000029  -0.000009  -0.019342   0.000810   0.008078   0.000002
    26  H    0.000027   0.001430   0.000116   0.000016   0.005137  -0.000200
    27  H    0.000755   0.000117  -0.014551   0.000023   0.104694  -0.002097
    28  O   -0.000037   0.013657  -0.000022  -0.000000   0.000002  -0.000043
    29  H    0.000003   0.001528   0.000002  -0.000000   0.000000   0.000004
    30  H   -0.000004  -0.002469  -0.000042   0.000003  -0.000017  -0.000002
              13         14         15         16         17         18
     1  C   -0.035543  -0.043356  -0.046725   0.006026   0.000685  -0.003035
     2  C    0.000278  -0.000177  -0.000041   0.000004   0.006730  -0.047565
     3  C   -0.001152  -0.003901   0.002214  -0.000249   0.000630   0.001698
     4  C   -0.000004   0.000014  -0.000000   0.000000  -0.066566   0.182955
     5  H   -0.000000  -0.000000  -0.000000   0.000000  -0.001318  -0.027068
     6  H    0.000003  -0.000000   0.000001  -0.000000  -0.000126   0.001867
     7  H   -0.003313   0.007538   0.005359  -0.000192   0.000005   0.006432
     8  H    0.000190   0.008586   0.000039  -0.000010  -0.000078  -0.000054
     9  C   -0.000059  -0.000123  -0.000038   0.000004   0.294556  -0.064032
    10  H    0.000003   0.000003   0.000003  -0.000000  -0.056789   0.012976
    11  O    0.004090  -0.004457   0.002015   0.000076  -0.046450   0.000934
    12  C    0.353143   0.347186   0.244893  -0.022042  -0.000128   0.000162
    13  H    0.611495  -0.049921  -0.033623  -0.006259   0.000002  -0.000001
    14  H   -0.049921   0.671461  -0.044435  -0.001200   0.000010  -0.000005
    15  O   -0.033623  -0.044435   8.265557   0.233033  -0.000000  -0.000000
    16  H   -0.006259  -0.001200   0.233033   0.400545   0.000000   0.000000
    17  O    0.000002   0.000010  -0.000000   0.000000   8.465664   0.003089
    18  O   -0.000001  -0.000005  -0.000000   0.000000   0.003089   8.327564
    19  H   -0.000000   0.000000   0.000000  -0.000000  -0.000225   0.233836
    20  O   -0.000005  -0.000018   0.000000  -0.000000  -0.017607   0.001584
    21  H    0.000000   0.000001  -0.000000   0.000000   0.054312   0.000321
    22  O    0.014455   0.000452   0.000070   0.000007   0.000000  -0.000085
    23  H    0.000541  -0.000082   0.000003  -0.000001   0.000000  -0.000001
    24  O    0.000006   0.000882  -0.000013   0.000002  -0.119187   0.000002
    25  H   -0.000001  -0.000023  -0.000001  -0.000000   0.125774  -0.000063
    26  H    0.000002   0.001025  -0.000011  -0.000000   0.005273  -0.000000
    27  H    0.000112   0.000952   0.000739  -0.000020   0.018205  -0.000019
    28  O    0.000034  -0.000063  -0.000000  -0.000000  -0.000001  -0.000000
    29  H   -0.000008   0.000002  -0.000000   0.000000   0.000000   0.000000
    30  H   -0.000010  -0.000006  -0.000000  -0.000000   0.000044  -0.000022
              19         20         21         22         23         24
     1  C    0.000271   0.003606  -0.000548  -0.030169   0.003085   0.005130
     2  C    0.002593   0.171964  -0.023222  -0.045192   0.005917  -0.000132
     3  C   -0.000336  -0.059582   0.003601   0.180539  -0.025377   0.000920
     4  C   -0.012595  -0.012137  -0.020088   0.001970  -0.000219  -0.001728
     5  H   -0.013536   0.002565   0.003418  -0.000106   0.000008   0.000016
     6  H    0.000850  -0.039514   0.003304   0.005918  -0.000029  -0.000007
     7  H   -0.000039  -0.000006   0.000017   0.003125  -0.000400  -0.000114
     8  H    0.000007   0.004370   0.000174  -0.029938  -0.013079   0.002329
     9  C    0.004982   0.002534  -0.002535   0.000274  -0.000020   0.016951
    10  H    0.000299  -0.000392   0.001452   0.000005  -0.000000  -0.000245
    11  O   -0.000080  -0.000434   0.001011   0.001100  -0.000054  -0.101848
    12  C   -0.000007  -0.000094   0.000025  -0.004921   0.000277  -0.000459
    13  H   -0.000000  -0.000005   0.000000   0.014455   0.000541   0.000006
    14  H    0.000000  -0.000018   0.000001   0.000452  -0.000082   0.000882
    15  O    0.000000   0.000000  -0.000000   0.000070   0.000003  -0.000013
    16  H   -0.000000  -0.000000   0.000000   0.000007  -0.000001   0.000002
    17  O   -0.000225  -0.017607   0.054312   0.000000   0.000000  -0.119187
    18  O    0.233836   0.001584   0.000321  -0.000085  -0.000001   0.000002
    19  H    0.381767  -0.000098  -0.000052   0.000012  -0.000000  -0.000000
    20  O   -0.000098   8.404431   0.220663   0.002299  -0.000068  -0.000360
    21  H   -0.000052   0.220663   0.340651  -0.000100   0.000015   0.002068
    22  O    0.000012   0.002299  -0.000100   8.384894   0.236454   0.000006
    23  H   -0.000000  -0.000068   0.000015   0.236454   0.359725  -0.000000
    24  O   -0.000000  -0.000360   0.002068   0.000006  -0.000000   8.563306
    25  H    0.000003   0.001556   0.000019  -0.000000   0.000000   0.126166
    26  H    0.000000   0.000304  -0.000139  -0.000000  -0.000001   0.239503
    27  H    0.000003   0.000198  -0.000532  -0.000054   0.000002   0.134591
    28  O   -0.000000  -0.037537   0.000886  -0.082059   0.032213  -0.000000
    29  H   -0.000000   0.001042  -0.000040   0.005027  -0.003368  -0.000000
    30  H    0.000001   0.051308  -0.001020   0.006861  -0.001469  -0.000005
              25         26         27         28         29         30
     1  C   -0.000342  -0.000322  -0.006635   0.002622  -0.000113   0.000017
     2  C   -0.000140   0.000012  -0.000287   0.006924  -0.000057  -0.017396
     3  C   -0.000275   0.000010   0.000666  -0.053521   0.002488   0.001752
     4  C    0.003039  -0.000051   0.003115   0.000659  -0.000026   0.000803
     5  H   -0.000108  -0.000005  -0.000189  -0.000006  -0.000000  -0.000005
     6  H    0.000026   0.000004   0.000018   0.004351   0.000158  -0.002781
     7  H    0.000029   0.000027   0.000755  -0.000037   0.000003  -0.000004
     8  H   -0.000009   0.001430   0.000117   0.013657   0.001528  -0.002469
     9  C   -0.019342   0.000116  -0.014551  -0.000022   0.000002  -0.000042
    10  H    0.000810   0.000016   0.000023  -0.000000  -0.000000   0.000003
    11  O    0.008078   0.005137   0.104694   0.000002   0.000000  -0.000017
    12  C    0.000002  -0.000200  -0.002097  -0.000043   0.000004  -0.000002
    13  H   -0.000001   0.000002   0.000112   0.000034  -0.000008  -0.000010
    14  H   -0.000023   0.001025   0.000952  -0.000063   0.000002  -0.000006
    15  O   -0.000001  -0.000011   0.000739  -0.000000  -0.000000  -0.000000
    16  H   -0.000000  -0.000000  -0.000020  -0.000000   0.000000  -0.000000
    17  O    0.125774   0.005273   0.018205  -0.000001   0.000000   0.000044
    18  O   -0.000063  -0.000000  -0.000019  -0.000000   0.000000  -0.000022
    19  H    0.000003   0.000000   0.000003  -0.000000  -0.000000   0.000001
    20  O    0.001556   0.000304   0.000198  -0.037537   0.001042   0.051308
    21  H    0.000019  -0.000139  -0.000532   0.000886  -0.000040  -0.001020
    22  O   -0.000000  -0.000000  -0.000054  -0.082059   0.005027   0.006861
    23  H    0.000000  -0.000001   0.000002   0.032213  -0.003368  -0.001469
    24  O    0.126166   0.239503   0.134591  -0.000000  -0.000000  -0.000005
    25  H    0.289327  -0.003072  -0.015642  -0.000001   0.000000  -0.000001
    26  H   -0.003072   0.350823  -0.006855  -0.000012   0.000001   0.000005
    27  H   -0.015642  -0.006855   0.288810  -0.000002  -0.000000   0.000001
    28  O   -0.000001  -0.000012  -0.000002   8.506298   0.220456   0.200550
    29  H    0.000000   0.000001  -0.000000   0.220456   0.392664  -0.001747
    30  H   -0.000001   0.000005   0.000001   0.200550  -0.001747   0.331366
 Mulliken charges:
               1
     1  C    0.121788
     2  C    0.145096
     3  C    0.137562
     4  C   -0.008791
     5  H    0.160322
     6  H    0.159086
     7  H    0.195508
     8  H    0.147247
     9  C    0.365932
    10  H    0.135412
    11  O   -0.627234
    12  C   -0.041771
    13  H    0.145545
    14  H    0.109654
    15  O   -0.629038
    16  H    0.390278
    17  O   -0.666508
    18  O   -0.631470
    19  H    0.402344
    20  O   -0.700574
    21  H    0.416337
    22  O   -0.650844
    23  H    0.405928
    24  O   -0.867781
    25  H    0.484191
    26  H    0.406980
    27  H    0.493878
    28  O   -0.815348
    29  H    0.381985
    30  H    0.434284
 Sum of Mulliken charges =  -0.00000
 Mulliken charges with hydrogens summed into heavy atoms:
               1
     1  C    0.317296
     2  C    0.304183
     3  C    0.284809
     4  C    0.151531
     9  C    0.501344
    11  O   -0.627234
    12  C    0.213428
    15  O   -0.238760
    17  O   -0.182316
    18  O   -0.229126
    20  O   -0.284237
    22  O   -0.244915
    24  O    0.033077
    28  O    0.000921
 APT charges:
               1
     1  C   -0.392629
     2  C   -0.279406
     3  C   -0.005059
     4  C   -0.403718
     5  H    0.519463
     6  H    0.519370
     7  H    0.474553
     8  H    0.352034
     9  C   -0.310902
    10  H    0.557262
    11  O   -0.474756
    12  C   -0.513090
    13  H    0.459794
    14  H    0.304048
    15  O   -1.114138
    16  H    0.959960
    17  O   -0.457427
    18  O   -1.043802
    19  H    0.895220
    20  O   -0.694095
    21  H    0.508948
    22  O   -0.859694
    23  H    0.740357
    24  O   -1.037127
    25  H    0.434074
    26  H    0.661892
    27  H    0.395875
    28  O   -1.501531
    29  H    0.930009
    30  H    0.374516
 Sum of APT charges =  -0.00000
 APT charges with hydrogens summed into heavy atoms:
               1
     1  C    0.081925
     2  C    0.239963
     3  C    0.346974
     4  C    0.115745
     9  C    0.246361
    11  O   -0.474756
    12  C    0.250752
    15  O   -0.154178
    17  O   -0.023353
    18  O   -0.148583
    20  O   -0.185148
    22  O   -0.119336
    24  O    0.020641
    28  O   -0.197006
 Electronic spatial extent (au):  <R**2>=           2749.1708
 Charge=             -0.0000 electrons
 Dipole moment (field-independent basis, Debye):
    X=              2.0367    Y=              3.0521    Z=             -1.9676  Tot=              4.1635
 Quadrupole moment (field-independent basis, Debye-Ang):
   XX=            -74.5701   YY=            -80.5766   ZZ=            -76.2885
   XY=             -5.8310   XZ=              6.2396   YZ=            -11.9570
 Traceless Quadrupole moment (field-independent basis, Debye-Ang):
   XX=              2.5749   YY=             -3.4315   ZZ=              0.8566
   XY=             -5.8310   XZ=              6.2396   YZ=            -11.9570
 Octapole moment (field-independent basis, Debye-Ang**2):
  XXX=            -22.7335  YYY=             52.1002  ZZZ=            -16.6705  XYY=             15.7307
  XXY=             28.1594  XXZ=             -0.3495  XZZ=             22.8464  YZZ=              1.2197
  YYZ=            -13.3402  XYZ=            -13.7667
 Hexadecapole moment (field-independent basis, Debye-Ang**3):
 XXXX=          -1078.5315 YYYY=          -1027.9305 ZZZZ=           -569.2919 XXXY=            -78.9770
 XXXZ=             32.9290 YYYX=             79.7031 YYYZ=           -115.5292 ZZZX=             37.1004
 ZZZY=            -41.5678 XXYY=           -376.6163 XXZZ=           -293.0808 YYZZ=           -299.6792
 XXYZ=            -28.2015 YYXZ=            -24.7373 ZZXY=            -11.8263
 N-N= 1.155736171001D+03 E-N=-4.285935256432D+03  KE= 8.338595696595D+02
  Exact polarizability:   0.000   0.000   0.000   0.000   0.000   0.000
 Approx polarizability: 133.143 -10.927 132.405  -3.720  -2.944 132.974
 Calling FoFJK, ICntrl=    100147 FMM=F ISym2X=0 I1Cent= 0 IOpClX= 0 NMat=1 NMatS=1 NMatT=0.
 ***** Axes restored to original set *****
 -------------------------------------------------------------------
 Center     Atomic                   Forces (Hartrees/Bohr)
 Number     Number              X              Y              Z
 -------------------------------------------------------------------
      1        6          -0.067383763    0.023215543    0.002948487
      2        6          -0.026129226   -0.021877260   -0.022171112
      3        6           0.029313101   -0.011099646    0.027000807
      4        6           0.093951441    0.049326809    0.050499665
      5        1           0.009910159    0.002861888   -0.018220382
      6        1           0.012070947    0.000253983    0.012409859
      7        1           0.014860125   -0.019619028   -0.005043334
      8        1          -0.016957250   -0.008790860   -0.011138680
      9        6          -0.071781961   -0.034317891   -0.003123465
     10        1          -0.019205799   -0.028881668    0.026315320
     11        8           0.072088059   -0.033300966    0.002378689
     12        6          -0.001324821   -0.023777629    0.009132790
     13        1           0.009847180    0.013833434    0.009332541
     14        1          -0.011890076    0.012902991   -0.013561810
     15        8           0.008744476   -0.008559530   -0.008686553
     16        1          -0.003613019    0.006131496    0.004713042
     17        8          -0.021105054    0.016214892   -0.070992907
     18        8          -0.003549782    0.003049204    0.016552964
     19        1           0.006054857    0.000599795   -0.002197088
     20        8           0.011387850    0.011716564   -0.015258650
     21        1          -0.010182196   -0.009846723   -0.006620315
     22        8          -0.004592670   -0.040999108    0.047662176
     23        1          -0.001817461   -0.006713602   -0.006092469
     24        8          -0.020778947   -0.029016608   -0.010947753
     25        1           0.007136498    0.011166474    0.016777363
     26        1           0.004731346    0.005298858    0.002143323
     27        1          -0.008655569    0.043971732    0.008744722
     28        8           0.006244627    0.066052066   -0.013409404
     29        1           0.004061820    0.010798243   -0.009590189
     30        1          -0.001434892   -0.000593452   -0.019557636
 -------------------------------------------------------------------
 Cartesian Forces:  Max     0.093951441 RMS     0.025939173

 GradGradGradGradGradGradGradGradGradGradGradGradGradGradGradGradGradGrad
 Berny optimization.
 Search for a saddle point.
 Step number   1 out of a maximum of  180
 All quantities printed in internal units (Hartrees-Bohrs-Radians)
 Swapping is turned off.
 Second derivative matrix not updated -- analytic derivatives used.
 ITU=  0
     Eigenvalues ---   -0.11977  -0.02933  -0.02770  -0.01708  -0.00971
     Eigenvalues ---   -0.00921  -0.00628  -0.00479  -0.00301  -0.00206
     Eigenvalues ---   -0.00108  -0.00055   0.00005   0.00224   0.00247
     Eigenvalues ---    0.00552   0.00695   0.00970   0.01468   0.01763
     Eigenvalues ---    0.01808   0.02253   0.02463   0.02986   0.03129
     Eigenvalues ---    0.03161   0.03618   0.04159   0.04398   0.04716
     Eigenvalues ---    0.05016   0.05482   0.05603   0.05762   0.06168
     Eigenvalues ---    0.06336   0.06558   0.07267   0.07505   0.07768
     Eigenvalues ---    0.08373   0.10346   0.11063   0.11418   0.12300
     Eigenvalues ---    0.12994   0.13409   0.15050   0.16037   0.16840
     Eigenvalues ---    0.17309   0.18400   0.19903   0.21543   0.24442
     Eigenvalues ---    0.25549   0.27238   0.28844   0.31538   0.32906
     Eigenvalues ---    0.38211   0.44949   0.45595   0.54625   0.57072
     Eigenvalues ---    0.61168   0.61784   0.67683   0.70479   0.81053
     Eigenvalues ---    0.86754   0.90294   0.91500   0.96434   0.98739
     Eigenvalues ---    1.04769   1.08565   1.09602   1.12646   1.13200
     Eigenvalues ---    1.14652   1.20637   1.25818   1.37849
 Eigenvectors required to have negative eigenvalues:
                          X25       Z27       Y25       X27       Z9
   1                    0.50409  -0.41101  -0.37414  -0.30904   0.26380
                          X11       Z26       X9        Y27       Z11
   1                    0.24109   0.21044  -0.20000   0.19748  -0.11459
 RFO step:  Lambda0=5.013266407D-03 Lambda=-1.18372428D-01.
 Linear search not attempted -- option 19 set.
 Maximum step size (   0.300) exceeded in Quadratic search.
    -- Step size scaled by   0.263
 B after Tr=     0.000623   -0.000047   -0.002232
         Rot=    0.999999   -0.000003    0.000095   -0.001052 Ang=  -0.12 deg.
 Variable       Old X    -DE/DX   Delta X   Delta X   Delta X     New X
                                 (Linear)    (Quad)   (Total)
    X1       -0.87038  -0.06738   0.00000  -0.02008  -0.01975  -0.89013
    Y1       -0.04402   0.02322   0.00000   0.00298   0.00105  -0.04297
    Z1        1.98495   0.00295   0.00000   0.00651   0.00411   1.98906
    X2        2.43890  -0.02613   0.00000   0.01365   0.01145   2.45034
    Y2        1.46248  -0.02188   0.00000  -0.02042  -0.01531   1.44717
    Z2       -1.11061  -0.02217   0.00000  -0.00343  -0.00518  -1.11580
    X3        0.41401   0.02931   0.00000   0.02165   0.01741   0.43142
    Y3        2.25269  -0.01110   0.00000  -0.01595  -0.01509   2.23760
    Z3        0.81623   0.02700   0.00000   0.01214   0.01000   0.82623
    X4        2.47960   0.09395   0.00000   0.03603   0.04000   2.51960
    Y4       -1.43361   0.04933   0.00000  -0.01439  -0.00913  -1.44274
    Z4       -1.60888   0.05050   0.00000   0.01876   0.01700  -1.59187
    X5        3.56005   0.00991   0.00000   0.02714   0.03209   3.59214
    Y5       -1.75753   0.00286   0.00000  -0.00931  -0.00179  -1.75932
    Z5       -3.28703  -0.01822   0.00000   0.00127  -0.00029  -3.28732
    X6        4.27237   0.01207   0.00000   0.01389   0.01010   4.28247
    Y6        2.16539   0.00025   0.00000  -0.01941  -0.01043   2.15495
    Z6       -0.62812   0.01241   0.00000   0.03063   0.02922  -0.59890
    X7        0.28722   0.01486   0.00000   0.00117   0.00337   0.29059
    Y7       -1.02721  -0.01962   0.00000  -0.02223  -0.02169  -1.04890
    Z7        3.31979  -0.00504   0.00000  -0.01581  -0.01799   3.30181
    X8       -0.86734  -0.01696   0.00000   0.00346  -0.00334  -0.87068
    Y8        3.55935  -0.00879   0.00000  -0.02813  -0.03000   3.52935
    Z8       -0.04361  -0.01114   0.00000  -0.00431  -0.00669  -0.05029
    X9        0.20515  -0.07178   0.00000  -0.01108  -0.00458   0.20057
    Y9       -2.60379  -0.03432   0.00000   0.00723   0.00760  -2.59619
    Z9       -2.13680  -0.00312   0.00000  -0.02403  -0.02624  -2.16304
   X10        0.62921  -0.01921   0.00000  -0.07300  -0.06230   0.56690
   Y10       -4.58065  -0.02888   0.00000  -0.01609  -0.01494  -4.59559
   Z10       -2.10979   0.02632   0.00000   0.00433   0.00218  -2.10761
   X11       -2.13971   0.07209   0.00000   0.04275   0.04693  -2.09278
   Y11       -1.68871  -0.03330   0.00000  -0.00815  -0.01261  -1.70132
   Z11        0.09452   0.00238   0.00000  -0.01554  -0.01818   0.07634
   X12       -3.09529  -0.00132   0.00000  -0.00403  -0.00604  -3.10133
   Y12        0.92396  -0.02378   0.00000   0.00270  -0.00389   0.92007
   Z12        3.59178   0.00913   0.00000   0.00675   0.00393   3.59572
   X13       -2.39835   0.00985   0.00000   0.01570   0.01080  -2.38755
   Y13        2.15751   0.01383   0.00000   0.01594   0.01085   2.16836
   Z13        5.03440   0.00933   0.00000   0.00066  -0.00201   5.03239
   X14       -4.39099  -0.01189   0.00000  -0.00270  -0.00663  -4.39762
   Y14        1.93188   0.01290   0.00000   0.01784   0.00853   1.94041
   Z14        2.41120  -0.01356   0.00000  -0.00230  -0.00536   2.40584
   X15       -4.36107   0.00874   0.00000   0.00363   0.00581  -4.35526
   Y15       -1.17280  -0.00856   0.00000   0.00817  -0.00107  -1.17387
   Z15        4.73365  -0.00869   0.00000   0.00738   0.00432   4.73796
   X16       -5.48678  -0.00361   0.00000  -0.00401  -0.00336  -5.49013
   Y16       -0.57154   0.00613   0.00000   0.01746   0.00583  -0.56572
   Z16        6.02298   0.00471   0.00000   0.00075  -0.00253   6.02045
   X17       -0.68192  -0.02111   0.00000   0.02172   0.02720  -0.65472
   Y17       -1.99900   0.01621   0.00000   0.08450   0.08309  -1.91591
   Z17       -4.30433  -0.07099   0.00000  -0.03031  -0.03267  -4.33700
   X18        3.72183  -0.00355   0.00000  -0.00020   0.00624   3.72807
   Y18       -2.78351   0.00305   0.00000  -0.02182  -0.01403  -2.79754
   Z18        0.37533   0.01655   0.00000   0.02438   0.02284   0.39817
   X19        5.32811   0.00605   0.00000  -0.00221   0.00562   5.33373
   Y19       -3.38548   0.00060   0.00000  -0.02633  -0.01516  -3.40064
   Z19       -0.21510  -0.00220   0.00000   0.01519   0.01395  -0.20114
   X20        1.80929   0.01139   0.00000   0.07257   0.06837   1.87766
   Y20        2.61613   0.01172   0.00000  -0.01111  -0.00719   2.60894
   Z20       -3.47179  -0.01526   0.00000  -0.01735  -0.01921  -3.49100
   X21        1.14687  -0.01018   0.00000  -0.04510  -0.04646   1.10040
   Y21        1.36078  -0.00985   0.00000  -0.00238  -0.00009   1.36069
   Z21       -4.60157  -0.00662   0.00000   0.02706   0.02505  -4.57652
   X22        1.62158  -0.00459   0.00000   0.01750   0.00999   1.63158
   Y22        3.62696  -0.04100   0.00000  -0.02378  -0.02040   3.60655
   Z22        2.80511   0.04766   0.00000   0.01774   0.01584   2.82094
   X23        1.32406  -0.00182   0.00000   0.00456  -0.00663   1.31743
   Y23        5.40253  -0.00671   0.00000  -0.02317  -0.02045   5.38208
   Z23        2.58167  -0.00609   0.00000  -0.01099  -0.01294   2.56873
   X24       -4.37802  -0.02078   0.00000  -0.09053  -0.08910  -4.46712
   Y24       -0.00922  -0.02902   0.00000  -0.06650  -0.07593  -0.08515
   Z24       -3.35495  -0.01095   0.00000  -0.00867  -0.01176  -3.36671
   X25       -2.69611   0.00714   0.00000  -0.06518  -0.06173  -2.75784
   Y25       -0.98094   0.01117   0.00000   0.04473   0.03890  -0.94204
   Z25       -4.52552   0.01678   0.00000   0.03282   0.03006  -4.49546
   X26       -4.98359   0.00473   0.00000   0.07882   0.07651  -4.90708
   Y26        1.70086   0.00530   0.00000   0.00016  -0.01019   1.69067
   Z26       -3.35495   0.00214   0.00000   0.00670   0.00355  -3.35140
   X27       -3.61277  -0.00866   0.00000   0.00319   0.00641  -3.60637
   Y27       -1.12375   0.04397   0.00000   0.02842   0.02079  -1.10296
   Z27       -1.53436   0.00874   0.00000   0.03390   0.03098  -1.50338
   X28        1.63954   0.00624   0.00000  -0.11258  -0.12496   1.51458
   Y28        6.16425   0.06605   0.00000   0.06164   0.06479   6.22904
   Z28       -0.51798  -0.01341   0.00000  -0.02799  -0.02990  -0.54789
   X29        1.73435   0.00406   0.00000   0.04443   0.02826   1.76261
   Y29        7.97567   0.01080   0.00000   0.04643   0.05012   8.02578
   Z29       -0.48854  -0.00959   0.00000  -0.02050  -0.02235  -0.51089
   X30        1.86252  -0.00143   0.00000   0.03901   0.02832   1.89084
   Y30        5.57374  -0.00059   0.00000   0.00390   0.00785   5.58159
   Z30       -2.21877  -0.01956   0.00000   0.00211   0.00027  -2.21850
         Item               Value     Threshold  Converged?
 Maximum Force            0.093951     0.000450     NO 
 RMS     Force            0.025939     0.000300     NO 
 Maximum Displacement     0.124961     0.001800     NO 
 RMS     Displacement     0.031171     0.001200     NO 
 Predicted change in Energy=-3.062660D-02
 GradGradGradGradGradGradGradGradGradGradGradGradGradGradGradGradGradGrad

                          Input orientation:                          
 ---------------------------------------------------------------------
 Center     Atomic      Atomic             Coordinates (Angstroms)
 Number     Number       Type             X           Y           Z
 ---------------------------------------------------------------------
      1          6           0       -0.471036   -0.022741    1.052565
      2          6           0        1.296667    0.765811   -0.590454
      3          6           0        0.228298    1.184087    0.437224
      4          6           0        1.333313   -0.763463   -0.842383
      5          1           0        1.900879   -0.930990   -1.739575
      6          1           0        2.266188    1.140352   -0.316924
      7          1           0        0.153775   -0.555053    1.747240
      8          1           0       -0.460744    1.867650   -0.026614
      9          6           0        0.106136   -1.373844   -1.144631
     10          1           0        0.299992   -2.431883   -1.115298
     11          8           0       -1.107452   -0.900299    0.040397
     12          6           0       -1.641153    0.486879    1.902772
     13          1           0       -1.263437    1.147448    2.663025
     14          1           0       -2.327118    1.026822    1.273116
     15          8           0       -2.304703   -0.621184    2.507223
     16          1           0       -2.905254   -0.299364    3.185883
     17          8           0       -0.346463   -1.013857   -2.295043
     18          8           0        1.972812   -1.480394    0.210703
     19          1           0        2.822489   -1.799542   -0.106441
     20          8           0        0.993616    1.380591   -1.847359
     21          1           0        0.582308    0.720047   -2.421788
     22          8           0        0.863393    1.908506    1.492778
     23          1           0        0.697154    2.848073    1.359311
     24          8           0       -2.363897   -0.045062   -1.781584
     25          1           0       -1.459384   -0.498507   -2.378893
     26          1           0       -2.596713    0.894662   -1.773486
     27          1           0       -1.908407   -0.583663   -0.795554
     28          8           0        0.801481    3.296265   -0.289929
     29          1           0        0.932731    4.247061   -0.270354
     30          1           0        1.000587    2.953652   -1.173979
 ---------------------------------------------------------------------
                    Distance matrix (angstroms):
                    1          2          3          4          5
     1  C    0.000000
     2  C    2.538917   0.000000
     3  C    1.524515   1.540288   0.000000
     4  C    2.719406   1.550320   2.579032   0.000000
     5  H    3.774512   2.136513   3.465477   1.074779   0.000000
     6  H    3.274245   1.074742   2.173395   2.184233   2.539261
     7  H    1.075323   2.918166   2.178601   2.853225   3.918109
     8  H    2.176766   2.149524   1.075724   3.287381   4.042756
     9  C    2.643157   2.510498   3.010017   1.403525   1.941953
    10  H    3.331377   3.390290   3.935823   1.981378   2.281499
    11  O    1.483110   2.992270   2.507262   2.599107   3.495611
    12  C    1.533538   3.863258   2.475636   4.236352   5.274754
    13  H    2.142621   4.157511   2.679702   4.762623   5.806521
    14  H    2.143657   4.083238   2.693250   4.591210   5.548449
    15  O    2.415884   4.948658   3.736307   4.947248   5.984830
    16  H    3.248535   5.749039   4.424352   5.865813   6.910716
    17  O    3.493467   2.961878   3.553392   2.234853   2.316454
    18  O    2.967470   2.478802   3.192820   1.425460   2.027462
    19  H    3.917604   3.023812   3.990920   1.957732   2.066609
    20  O    3.538941   1.431644   2.417364   2.392142   2.485589
    21  H    3.705725   1.966263   2.917980   2.293324   2.220353
    22  O    2.388347   2.415229   1.429099   3.579556   4.425745
    23  H    3.114537   2.914929   1.959317   4.277306   5.033226
    24  O    3.408199   3.933959   3.626761   3.881696   4.356024
    25  H    3.602511   3.520345   3.689161   3.198472   3.447773
    26  H    3.653313   4.071189   3.598846   4.365941   4.854121
    27  H    2.407532   3.483625   3.034829   3.247040   3.939857
    28  O    3.799657   2.595905   2.306207   4.131519   4.602155
    29  H    4.685284   3.514828   3.221600   5.058956   5.468833
    30  H    3.997761   2.283596   2.514710   3.746680   4.027514
                    6          7          8          9         10
     6  H    0.000000
     7  H    3.405504   0.000000
     8  H    2.837146   3.064911   0.000000
     9  C    3.416446   3.005929   3.475428   0.000000
    10  H    4.155020   3.426076   4.499992   1.076051   0.000000
    11  O    3.958962   2.150163   2.843284   1.761060   2.379554
    12  C    4.541078   2.081245   2.649985   3.975170   4.625577
    13  H    4.619350   2.397011   2.897786   4.767692   5.434302
    14  H    4.862054   2.980260   2.424797   4.186816   4.956699
    15  O    5.654366   2.574114   4.001850   4.440122   4.815155
    16  H    6.409855   3.390093   4.581671   5.382966   5.772468
    17  O    3.921673   4.098877   3.669048   1.287588   1.954610
    18  O    2.689380   2.554623   4.145830   2.309278   2.337079
    19  H    2.999458   3.479500   4.922832   2.938985   2.789380
    20  O    2.004840   4.168116   2.380651   2.977980   3.943601
    21  H    2.728106   4.380676   2.853385   2.498450   3.423636
    22  O    2.415143   2.576321   2.015827   4.278223   5.094944
    23  H    2.861458   3.467999   2.054932   4.944049   5.844601
    24  O    4.998812   4.364787   3.218754   2.876184   3.638290
    25  H    4.562616   4.430627   3.482700   2.177262   2.903449
    26  H    5.082297   4.697060   2.925856   3.584267   4.459822
    27  H    4.541867   3.274021   2.948886   2.191946   2.897444
    28  O    2.606541   4.404797   1.924445   4.798327   5.808993
    29  H    3.381112   5.266664   2.768173   5.748234   6.761847
    30  H    2.371570   4.643449   2.152054   4.419064   5.431230
                   11         12         13         14         15
    11  O    0.000000
    12  C    2.382759   0.000000
    13  H    3.331032   1.075642   0.000000
    14  H    2.592485   1.076360   1.754370   0.000000
    15  O    2.756183   1.425995   2.058292   2.058991   0.000000
    16  H    3.672505   1.965325   2.249935   2.398267   0.961670
    17  O    2.458918   4.642206   5.485847   4.562798   5.201024
    18  O    3.139035   4.449046   4.836605   5.089622   4.930455
    19  H    4.034183   5.402662   5.748868   6.034066   5.874340
    20  O    3.630506   4.669498   5.048981   4.570535   5.817937
    21  H    3.397524   4.868261   5.426304   4.712875   5.867613
    22  O    3.725993   2.908929   2.544030   3.317374   4.179145
    23  H    4.364222   3.367235   2.904430   3.531375   4.729122
    24  O    2.372699   3.792070   4.731558   3.237512   4.327734
    25  H    2.477550   4.397349   5.307400   4.051760   4.960215
    26  H    2.954650   3.820242   4.639414   3.061361   4.550552
    27  H    1.200251   2.915209   3.921033   2.654877   3.326679
    28  O    4.622152   4.320538   4.195383   4.169126   5.728773
    29  H    5.545650   5.048398   4.799528   4.835168   6.472690
    30  H    4.557574   4.746594   4.807367   4.557913   6.103740
                   16         17         18         19         20
    16  H    0.000000
    17  O    6.090850   0.000000
    18  O    5.834557   3.446078   0.000000
    19  H    6.774730   3.930590   0.961450   0.000000
    20  O    6.584600   2.780219   3.657824   4.060642   0.000000
    21  H    6.681935   1.971067   3.702087   4.089936   0.967193
    22  O    4.684441   4.934729   3.789349   4.488338   3.384105
    23  H    5.120554   5.418298   4.656418   5.316559   3.538944
    24  O    5.003345   2.296137   4.983616   5.725636   3.648248
    25  H    5.752992   1.229312   4.410224   5.019080   3.135403
    26  H    5.110404   2.996346   5.518918   6.277382   3.623817
    27  H    4.114166   2.207534   4.108594   4.933013   3.658733
    28  O    6.224926   4.890338   4.943594   5.485015   2.476350
    29  H    6.880819   5.780395   5.840969   6.337149   3.272201
    30  H    6.696723   4.337333   4.745874   5.201136   1.711142
                   21         22         23         24         25
    21  H    0.000000
    22  O    4.100643   0.000000
    23  H    4.340322   0.963450   0.000000
    24  O    3.110527   4.995325   5.254093   0.000000
    25  H    2.378071   5.116526   5.461175   1.174962   0.000000
    26  H    3.249148   4.865049   4.947707   0.968168   1.897618
    27  H    3.247762   4.373813   4.817593   1.212360   1.647979
    28  O    3.351083   2.260035   1.712237   4.838297   4.886264
    29  H    4.146239   2.929553   2.160664   5.619065   5.717392
    30  H    2.592484   2.867534   2.553582   4.547661   4.406890
                   26         27         28         29         30
    26  H    0.000000
    27  H    1.901463   0.000000
    28  O    4.417733   4.759515   0.000000
    29  H    5.094602   5.628836   0.960012   0.000000
    30  H    4.188009   4.595437   0.968799   1.579257   0.000000
 Stoichiometry    C6H16O8
 Framework group  C1[X(C6H16O8)]
 Deg. of freedom    84
 Full point group                 C1      NOp   1
 Largest Abelian subgroup         C1      NOp   1
 Largest concise Abelian subgroup C1      NOp   1
                         Standard orientation:                         
 ---------------------------------------------------------------------
 Center     Atomic      Atomic             Coordinates (Angstroms)
 Number     Number       Type             X           Y           Z
 ---------------------------------------------------------------------
      1          6           0       -1.127284    0.251909    0.507504
      2          6           0        1.399651    0.481346    0.417739
      3          6           0        0.044375    1.104914    0.034491
      4          6           0        1.261997   -0.910280    1.087010
      5          1           0        2.231741   -1.373527    1.074824
      6          1           0        1.977587    1.152520    1.026495
      7          1           0       -1.274793    0.302525    1.571458
      8          1           0        0.023484    1.282157   -1.026325
      9          6           0        0.470929   -1.851037    0.409463
     10          1           0        0.356234   -2.672491    1.094989
     11          8           0       -1.080868   -1.135104   -0.015621
     12          6           0       -2.413953    0.838598   -0.085805
     13          1           0       -2.518996    1.858695    0.238808
     14          1           0       -2.351776    0.813231   -1.160069
     15          8           0       -3.531522    0.070450    0.355160
     16          1           0       -4.342787    0.544150    0.149571
     17          8           0        1.010397   -2.236050   -0.694450
     18          8           0        0.841819   -0.828847    2.446700
     19          1           0        1.583969   -1.060792    3.012209
     20          8           0        2.171964    0.288694   -0.772228
     21          1           0        2.127588   -0.645151   -1.020072
     22          8           0       -0.065789    2.386103    0.657982
     23          1           0        0.112948    3.062647   -0.004270
     24          8           0       -0.543448   -1.630759   -2.272877
     25          1           0        0.397602   -2.103523   -1.751866
     26          1           0       -0.507316   -0.897746   -2.904333
     27          1           0       -1.008593   -1.476794   -1.163935
     28          8           0        1.400809    2.626078   -1.044739
     29          1           0        1.687439    3.457191   -1.430377
     30          1           0        2.064479    1.939673   -1.208943
 ---------------------------------------------------------------------
 Rotational constants (GHZ):      0.6616267      0.6134319      0.4901530
 Standard basis: 6-31G(d) (6D, 7F)
 There are   242 symmetry adapted cartesian basis functions of A   symmetry.
 There are   242 symmetry adapted basis functions of A   symmetry.
   242 basis functions,   456 primitive gaussians,   242 cartesian basis functions
    58 alpha electrons       58 beta electrons
       nuclear repulsion energy      1152.5699331966 Hartrees.
 NAtoms=   30 NActive=   30 NUniq=   30 SFac= 1.00D+00 NAtFMM=   60 NAOKFM=F Big=F
 Integral buffers will be    131072 words long.
 Raffenetti 2 integral format.
 Two-electron integral symmetry is turned on.
 One-electron integrals computed using PRISM.
 NBasis=   242 RedAO= T EigKep=  1.33D-03  NBF=   242
 NBsUse=   242 1.00D-06 EigRej= -1.00D+00 NBFU=   242
 Initial guess from the checkpoint file:  "/scratch/10451471.yak.local/Gau-19743.chk"
 B after Tr=    -0.000000    0.000000   -0.000000
         Rot=    0.999989    0.000779   -0.000637   -0.004478 Ang=   0.53 deg.
 ExpMin= 1.61D-01 ExpMax= 5.48D+03 ExpMxC= 8.25D+02 IAcc=1 IRadAn=         1 AccDes= 0.00D+00
 Harris functional with IExCor=  402 and IRadAn=       1 diagonalized for initial guess.
 HarFok:  IExCor=  402 AccDes= 0.00D+00 IRadAn=         1 IDoV= 1 UseB2=F ITyADJ=14
 ICtDFT=  3500011 ScaDFX=  1.000000  1.000000  1.000000  1.000000
 FoFCou: FMM=F IPFlag=           0 FMFlag=      100000 FMFlg1=           0
         NFxFlg=           0 DoJE=T BraDBF=F KetDBF=T FulRan=T
         wScrn=  0.000000 ICntrl=     500 IOpCl=  0 I1Cent=   200000004 NGrid=           0
         NMat0=    1 NMatS0=      1 NMatT0=    0 NMatD0=    1 NMtDS0=    0 NMtDT0=    0
 Petite list used in FoFCou.
 Requested convergence on RMS density matrix=1.00D-08 within 128 cycles.
 Requested convergence on MAX density matrix=1.00D-06.
 Requested convergence on             energy=1.00D-06.
 No special actions if energy rises.
 Integral accuracy reduced to 1.0D-05 until final iterations.
 Initial convergence to 1.0D-05 achieved.  Increase integral accuracy.
 SCF Done:  E(RB3LYP) =  -839.850337668     A.U. after   12 cycles
            NFock= 12  Conv=0.68D-08     -V/T= 2.0074
 Calling FoFJK, ICntrl=      2127 FMM=F ISym2X=0 I1Cent= 0 IOpClX= 0 NMat=1 NMatS=1 NMatT=0.
 ***** Axes restored to original set *****
 -------------------------------------------------------------------
 Center     Atomic                   Forces (Hartrees/Bohr)
 Number     Number              X              Y              Z
 -------------------------------------------------------------------
      1        6          -0.051992590    0.016675359    0.002433145
      2        6          -0.019037419   -0.017017880   -0.017134865
      3        6           0.022645211   -0.009372181    0.021657800
      4        6           0.073273625    0.037404107    0.038351102
      5        1           0.009590317    0.002450350   -0.014214917
      6        1           0.009251485   -0.000476868    0.011075539
      7        1           0.011306687   -0.016467271   -0.005656794
      8        1          -0.013092569   -0.008893751   -0.008629750
      9        6          -0.055266224   -0.025410751   -0.003701441
     10        1          -0.019532342   -0.022618426    0.022073304
     11        8           0.059707059   -0.026704688   -0.001013882
     12        6          -0.002295799   -0.018963678    0.006975555
     13        1           0.008244112    0.010998970    0.006661919
     14        1          -0.009998421    0.010588112   -0.010534487
     15        8           0.006442968   -0.007778420   -0.006464009
     16        1          -0.002950046    0.004971579    0.003623625
     17        8          -0.015213095    0.014808247   -0.056246935
     18        8          -0.001596508    0.002538518    0.014152971
     19        1           0.005089794    0.000367087   -0.000426335
     20        8           0.009943500    0.007199452   -0.013601319
     21        1          -0.008911400   -0.006422353   -0.003446537
     22        8          -0.005033605   -0.033536446    0.039247780
     23        1           0.000082767   -0.007542770   -0.006208011
     24        8          -0.020731679   -0.020635335   -0.007911890
     25        1           0.003292580    0.009745111    0.015041511
     26        1           0.008139551   -0.001146715    0.001677814
     27        1          -0.006726186    0.036682698    0.008272030
     28        8           0.002410402    0.057687580   -0.015320964
     29        1           0.004742347    0.009898984   -0.009455363
     30        1          -0.001784523    0.000971379   -0.011276598
 -------------------------------------------------------------------
 Cartesian Forces:  Max     0.073273625 RMS     0.020772051

 GradGradGradGradGradGradGradGradGradGradGradGradGradGradGradGradGradGrad
 Berny optimization.
 Search for a saddle point.
 Step number   2 out of a maximum of  180
 All quantities printed in internal units (Hartrees-Bohrs-Radians)
 Swapping is turned off.
 Update second derivatives using D2CorN and points    1    2
 ITU=  0  0
     Eigenvalues ---   -0.11969  -0.02923  -0.02148  -0.01634  -0.00961
     Eigenvalues ---   -0.00918  -0.00624  -0.00469  -0.00300  -0.00206
     Eigenvalues ---   -0.00107  -0.00055   0.00004   0.00229   0.00250
     Eigenvalues ---    0.00553   0.00693   0.00988   0.01470   0.01763
     Eigenvalues ---    0.01806   0.02253   0.02463   0.02990   0.03127
     Eigenvalues ---    0.03162   0.03619   0.04151   0.04400   0.04723
     Eigenvalues ---    0.05020   0.05484   0.05603   0.05770   0.06172
     Eigenvalues ---    0.06341   0.06561   0.07293   0.07527   0.07775
     Eigenvalues ---    0.08431   0.10348   0.11057   0.11425   0.12311
     Eigenvalues ---    0.13001   0.13404   0.15067   0.16057   0.16840
     Eigenvalues ---    0.17296   0.18406   0.19895   0.21558   0.24479
     Eigenvalues ---    0.25552   0.27249   0.28843   0.31517   0.32928
     Eigenvalues ---    0.38227   0.44956   0.45591   0.54618   0.57074
     Eigenvalues ---    0.61165   0.61791   0.67694   0.70478   0.81036
     Eigenvalues ---    0.86714   0.90293   0.91535   0.96399   0.98740
     Eigenvalues ---    1.04745   1.08413   1.09559   1.12603   1.13189
     Eigenvalues ---    1.14595   1.20632   1.25872   1.37822
 Eigenvectors required to have negative eigenvalues:
                          X25       Z27       Y25       X27       Z9
   1                    0.50320  -0.41186  -0.37279  -0.30956   0.26375
                          X11       Z26       X9        Y27       Z11
   1                    0.24156   0.21150  -0.19989   0.19817  -0.11510
 RFO step:  Lambda0=3.008251316D-03 Lambda=-9.29272937D-02.
 Linear search not attempted -- option 19 set.
 Maximum step size (   0.300) exceeded in Quadratic search.
    -- Step size scaled by   0.266
 B after Tr=     0.000588   -0.000956   -0.000979
         Rot=    1.000000   -0.000188    0.000149   -0.000235 Ang=  -0.04 deg.
 Variable       Old X    -DE/DX   Delta X   Delta X   Delta X     New X
                                 (Linear)    (Quad)   (Total)
    X1       -0.89013  -0.05199   0.00000  -0.02308  -0.02307  -0.91320
    Y1       -0.04297   0.01668   0.00000   0.00466   0.00253  -0.04045
    Z1        1.98906   0.00243   0.00000  -0.00025  -0.00151   1.98755
    X2        2.45034  -0.01904   0.00000  -0.00351  -0.00327   2.44708
    Y2        1.44717  -0.01702   0.00000  -0.00072  -0.00011   1.44706
    Z2       -1.11580  -0.01713   0.00000  -0.00578  -0.00549  -1.12128
    X3        0.43142   0.02265   0.00000   0.00403   0.00332   0.43474
    Y3        2.23760  -0.00937   0.00000  -0.00098  -0.00205   2.23555
    Z3        0.82623   0.02166   0.00000   0.01423   0.01422   0.84045
    X4        2.51960   0.07327   0.00000   0.02916   0.03090   2.55049
    Y4       -1.44274   0.03740   0.00000   0.00390   0.00473  -1.43800
    Z4       -1.59187   0.03835   0.00000   0.01234   0.01158  -1.58029
    X5        3.59214   0.00959   0.00000   0.02916   0.03155   3.62369
    Y5       -1.75932   0.00245   0.00000   0.00878   0.01076  -1.74855
    Z5       -3.28732  -0.01421   0.00000   0.00170   0.00115  -3.28617
    X6        4.28247   0.00925   0.00000  -0.00158  -0.00183   4.28064
    Y6        2.15495  -0.00048   0.00000   0.00668   0.00796   2.16291
    Z6       -0.59890   0.01108   0.00000   0.00548   0.00659  -0.59231
    X7        0.29059   0.01131   0.00000   0.00235   0.00245   0.29305
    Y7       -1.04890  -0.01647   0.00000  -0.01161  -0.01366  -1.06256
    Z7        3.30181  -0.00566   0.00000  -0.02250  -0.02379   3.27801
    X8       -0.87068  -0.01309   0.00000  -0.00315  -0.00420  -0.87488
    Y8        3.52935  -0.00889   0.00000  -0.00696  -0.00831   3.52104
    Z8       -0.05029  -0.00863   0.00000  -0.00591  -0.00583  -0.05612
    X9        0.20057  -0.05527   0.00000  -0.00216   0.00030   0.20087
    Y9       -2.59619  -0.02541   0.00000   0.00863   0.00859  -2.58760
    Z9       -2.16304  -0.00370   0.00000  -0.02267  -0.02456  -2.18760
   X10        0.56690  -0.01953   0.00000  -0.05462  -0.05125   0.51566
   Y10       -4.59559  -0.02262   0.00000  -0.01015  -0.01007  -4.60567
   Z10       -2.10761   0.02207   0.00000   0.01582   0.01326  -2.09434
   X11       -2.09278   0.05971   0.00000   0.03848   0.03985  -2.05293
   Y11       -1.70132  -0.02670   0.00000   0.00193  -0.00001  -1.70133
   Z11        0.07634  -0.00101   0.00000  -0.02015  -0.02238   0.05396
   X12       -3.10133  -0.00230   0.00000  -0.00933  -0.01024  -3.11157
   Y12        0.92007  -0.01896   0.00000  -0.00243  -0.00620   0.91387
[...]
    Z5       -3.28642  -0.00832   0.00000  -0.00146  -0.00010  -3.28652
    X6        4.29213   0.00533   0.00000  -0.00294   0.00549   4.29762
    Y6        2.14915  -0.00116   0.00000   0.00395  -0.00552   2.14362
    Z6       -0.55885   0.00824   0.00000   0.01917   0.02756  -0.53129
    X7        0.29794   0.00614   0.00000   0.00486   0.00053   0.29847
    Y7       -1.08884  -0.01131   0.00000  -0.01166  -0.01911  -1.10795
    Z7        3.25917  -0.00538   0.00000  -0.02919  -0.03259   3.22658
    X8       -0.87787  -0.00772   0.00000  -0.01106  -0.00080  -0.87867
    Y8        3.48421  -0.00749   0.00000  -0.01229  -0.01233   3.47188
    Z8       -0.06605  -0.00526   0.00000  -0.02522  -0.02361  -0.08966
    X9        0.19213  -0.03330   0.00000  -0.01221  -0.01014   0.18199
    Y9       -2.57511  -0.01554   0.00000   0.01145   0.01259  -2.56252
    Z9       -2.20006  -0.00373   0.00000  -0.00906  -0.01490  -2.21496
   X10        0.44247  -0.01754   0.00000  -0.07606  -0.07824   0.36423
   Y10       -4.61199  -0.01127   0.00000  -0.00251  -0.00195  -4.61395
   Z10       -2.08167   0.01421   0.00000   0.01774   0.00906  -2.07261
   X11       -1.99811   0.03709   0.00000   0.04037   0.04027  -1.95783
   Y11       -1.72467  -0.01537   0.00000  -0.01987  -0.01795  -1.74262
   Z11        0.02908  -0.00383   0.00000  -0.02051  -0.02873   0.00035
   X12       -3.11659  -0.00257   0.00000  -0.01032  -0.01136  -3.12795
   Y12        0.90539  -0.01215   0.00000  -0.00969  -0.01100   0.89439
   Z12        3.59626   0.00348   0.00000  -0.00052  -0.00668   3.58958
   X13       -2.36765   0.00549   0.00000   0.01728   0.01629  -2.35136
   Y13        2.17961   0.00621   0.00000  -0.01631  -0.02131   2.15829
   Z13        5.01718   0.00264   0.00000  -0.00011  -0.00300   5.01417
   X14       -4.41759  -0.00714   0.00000  -0.00696  -0.00387  -4.42146
   Y14        1.94972   0.00653   0.00000   0.02205   0.02510   1.97482
   Z14        2.39907  -0.00624   0.00000   0.01018   0.00347   2.40254
   X15       -4.34805   0.00292   0.00000  -0.01884  -0.02590  -4.37395
   Y15       -1.18315  -0.00602   0.00000  -0.00584  -0.00647  -1.18962
   Z15        4.74856  -0.00348   0.00000  -0.00983  -0.02130   4.72726
   X16       -5.50284  -0.00191   0.00000   0.03543   0.02738  -5.47547
   Y16       -0.55737   0.00297   0.00000  -0.00138  -0.00187  -0.55924
   Z16        6.01194   0.00203   0.00000   0.03776   0.02538   6.03731
   X17       -0.61433  -0.00915   0.00000   0.01052   0.01795  -0.59638
   Y17       -1.79185   0.01014   0.00000   0.05380   0.05984  -1.73201
   Z17       -4.39030  -0.03373   0.00000  -0.01956  -0.02546  -4.41575
   X18        3.75079   0.00142   0.00000  -0.00345  -0.00640   3.74439
   Y18       -2.78453   0.00155   0.00000  -0.01893  -0.02886  -2.81338
   Z18        0.44486   0.00944   0.00000   0.00914   0.00899   0.45385
   X19        5.32518   0.00257   0.00000   0.04935   0.04627   5.37145
   Y19       -3.45741   0.00012   0.00000   0.07970   0.06749  -3.38992
   Z19       -0.18109   0.00216   0.00000   0.05060   0.05233  -0.12876
   X20        1.94533   0.00519   0.00000   0.03050   0.04490   1.99023
   Y20        2.60069   0.00059   0.00000  -0.01093  -0.01129   2.58941
   Z20       -3.51973  -0.01020   0.00000  -0.01905  -0.01392  -3.53365
   X21        1.04600  -0.00483   0.00000  -0.07399  -0.06037   0.98563
   Y21        1.34894  -0.00072   0.00000  -0.00727  -0.00416   1.34478
   Z21       -4.54871   0.00113   0.00000   0.03435   0.03586  -4.51285
   X22        1.60647  -0.00558   0.00000  -0.06157  -0.05626   1.55021
   Y22        3.56423  -0.02208   0.00000  -0.01938  -0.02876   3.53547
   Z22        2.86682   0.02654   0.00000   0.03049   0.03635   2.90317
   X23        1.31578   0.00303   0.00000   0.00594   0.01538   1.33116
   Y23        5.34147  -0.00750   0.00000  -0.01475  -0.02312   5.31835
   Z23        2.54469  -0.00590   0.00000  -0.02728  -0.01907   2.52562
   X24       -4.59317  -0.01383   0.00000  -0.02482  -0.01623  -4.60941
   Y24       -0.19578  -0.00146   0.00000  -0.02267  -0.01042  -0.20620
   Z24       -3.36473  -0.00236   0.00000   0.02901   0.01862  -3.34611
   X25       -2.86494  -0.00029   0.00000  -0.04270  -0.03363  -2.89857
   Y25       -0.89948   0.00427   0.00000  -0.00814   0.00242  -0.89707
   Z25       -4.43757   0.01049   0.00000   0.02372   0.01518  -4.42239
   X26       -4.78520   0.00657   0.00000  -0.04865  -0.03647  -4.82166
   Y26        1.64990  -0.01212   0.00000  -0.04788  -0.03518   1.61472
   Z26       -3.34038   0.00077   0.00000  -0.01731  -0.02526  -3.36564
   X27       -3.59788  -0.00323   0.00000   0.00551   0.00916  -3.58872
   Y27       -1.06768   0.02298   0.00000   0.01279   0.02006  -1.04762
   Z27       -1.44793   0.00674   0.00000   0.05024   0.04030  -1.40763
   X28        1.45733   0.00072   0.00000   0.13084   0.14760   1.60492
   Y28        6.33567   0.04284   0.00000   0.03507   0.03093   6.36660
   Z28       -0.58051  -0.01382   0.00000  -0.00321   0.00707  -0.57344
   X29        1.78869   0.00487   0.00000  -0.06397  -0.04367   1.74502
   Y29        8.11997   0.00819   0.00000   0.04390   0.03952   8.15949
   Z29       -0.55238  -0.00925   0.00000  -0.05283  -0.03956  -0.59194
   X30        1.89854  -0.00287   0.00000  -0.05284  -0.03466   1.86387
   Y30        5.62412   0.00259   0.00000   0.02033   0.01826   5.64237
   Z30       -2.22997  -0.00269   0.00000  -0.02453  -0.01492  -2.24489
         Item               Value     Threshold  Converged?
 Maximum Force            0.045434     0.000450     NO 
 RMS     Force            0.013123     0.000300     NO 
 Maximum Displacement     0.147597     0.001800     NO 
 RMS     Displacement     0.030697     0.001200     NO 
 Predicted change in Energy=-1.387803D-02
 GradGradGradGradGradGradGradGradGradGradGradGradGradGradGradGradGradGrad

                          Input orientation:                          
 ---------------------------------------------------------------------
 Center     Atomic      Atomic             Coordinates (Angstroms)
 Number     Number       Type             X           Y           Z
 ---------------------------------------------------------------------
      1          6           0       -0.496230   -0.028826    1.044430
      2          6           0        1.309372    0.753800   -0.597505
      3          6           0        0.236951    1.168618    0.445059
      4          6           0        1.381196   -0.773321   -0.830286
      5          1           0        1.952724   -0.929612   -1.739151
      6          1           0        2.274201    1.134357   -0.281149
      7          1           0        0.157942   -0.586303    1.707430
      8          1           0       -0.464971    1.837240   -0.047448
      9          6           0        0.096304   -1.356027   -1.172109
     10          1           0        0.192742   -2.441595   -1.096777
     11          8           0       -1.036040   -0.922156    0.000183
     12          6           0       -1.655242    0.473290    1.899526
     13          1           0       -1.244285    1.142118    2.653387
     14          1           0       -2.339735    1.045028    1.271370
     15          8           0       -2.314597   -0.629518    2.501558
     16          1           0       -2.897492   -0.295937    3.194808
     17          8           0       -0.315591   -0.916539   -2.336715
     18          8           0        1.981447   -1.488779    0.240168
     19          1           0        2.842449   -1.793866   -0.068136
     20          8           0        1.053182    1.370256   -1.869929
     21          1           0        0.521571    0.711627   -2.388096
     22          8           0        0.820335    1.870890    1.536290
     23          1           0        0.704420    2.814350    1.336501
     24          8           0       -2.439193   -0.109116   -1.770685
     25          1           0       -1.533858   -0.474708   -2.340228
     26          1           0       -2.551513    0.854472   -1.781019
     27          1           0       -1.899070   -0.554378   -0.744888
     28          8           0        0.849288    3.369059   -0.303452
     29          1           0        0.923426    4.317818   -0.313243
     30          1           0        0.986320    2.985816   -1.187944
 ---------------------------------------------------------------------
                    Distance matrix (angstroms):
                    1          2          3          4          5
     1  C    0.000000
     2  C    2.562938   0.000000
     3  C    1.526654   1.552128   0.000000
     4  C    2.755642   1.546430   2.589774   0.000000
     5  H    3.815378   2.133338   3.480980   1.084945   0.000000
     6  H    3.284120   1.084343   2.163086   2.176751   2.547368
     7  H    1.085491   2.904203   2.163231   2.823355   3.901029
     8  H    2.162261   2.150510   1.087342   3.291838   4.045068
     9  C    2.650585   2.500614   3.001474   1.451667   1.987375
    10  H    3.298621   3.421503   3.925920   2.065570   2.407545
    11  O    1.476443   2.943980   2.487923   2.560247   3.458042
    12  C    1.525326   3.886230   2.485830   4.269177   5.312770
    13  H    2.125898   4.152138   2.659224   4.764246   5.814406
    14  H    2.145502   4.110169   2.708759   4.644210   5.602468
    15  O    2.406349   4.964968   3.738031   4.978027   6.023595
    16  H    3.234429   5.760320   4.419363   5.893764   6.947668
    17  O    3.500401   2.907815   3.520149   2.273528   2.345743
    18  O    2.986165   2.486472   3.185436   1.420582   2.056987
    19  H    3.936997   3.020126   3.978480   1.938464   2.081066
    20  O    3.584912   1.436911   2.462938   2.404864   2.472988
    21  H    3.656012   1.956687   2.883855   2.317498   2.272222
    22  O    2.363089   2.457667   1.422781   3.592645   4.455741
    23  H    3.100083   2.890019   1.929152   4.245512   5.003513
    24  O    3.421465   4.021531   3.701874   3.990099   4.468013
    25  H    3.568107   3.553909   3.687019   3.296458   3.567140
    26  H    3.603827   4.039465   3.581850   4.361171   4.844880
    27  H    2.333628   3.468018   2.991199   3.288674   3.995708
    28  O    3.895232   2.671652   2.403574   4.209489   4.664480
    29  H    4.769907   3.596107   3.311153   5.137761   5.534274
    30  H    4.033548   2.331282   2.555477   3.796703   4.070422
                    6          7          8          9         10
     6  H    0.000000
     7  H    3.375451   0.000000
     8  H    2.837556   3.056334   0.000000
     9  C    3.426230   2.981278   3.431741   0.000000
    10  H    4.217244   3.362573   4.454448   1.092443   0.000000
    11  O    3.907185   2.110233   2.818272   1.686629   2.240965
    12  C    4.542343   2.108856   2.658535   3.981112   4.570496
    13  H    4.581627   2.418370   2.895692   4.761546   5.382544
    14  H    4.868953   3.014926   2.425205   4.203563   4.917124
    15  O    5.649052   2.597298   4.000430   4.453772   4.745355
    16  H    6.393311   3.410613   4.580374   5.399682   5.707110
    17  O    3.890829   4.085144   3.584181   1.311151   2.030184
    18  O    2.690412   2.508484   4.138850   2.359218   2.427909
    19  H    2.990446   3.437648   4.911657   2.991950   2.915236
    20  O    2.017612   4.174575   2.417499   2.972404   3.983506
    21  H    2.773020   4.311633   2.778291   2.436118   3.423221
    22  O    2.441166   2.550657   2.039943   4.274650   5.091605
    23  H    2.811295   3.464198   2.058527   4.904586   5.814431
    24  O    5.097159   4.366933   3.264262   2.888222   3.580739
    25  H    4.618464   4.388414   3.427019   2.190583   2.897579
    26  H    5.061173   4.646101   2.885267   3.502573   4.343177
    27  H    4.525823   3.200966   2.874526   2.192414   2.839206
    28  O    2.650428   4.490712   2.034524   4.862920   5.901196
    29  H    3.458330   5.359057   2.855094   5.797784   6.843792
    30  H    2.430806   4.672198   2.173983   4.432152   5.485878
                   11         12         13         14         15
    11  O    0.000000
    12  C    2.436839   0.000000
    13  H    3.368098   1.088358   0.000000
    14  H    2.680551   1.090869   1.766185   0.000000
    15  O    2.824397   1.418935   2.075407   2.078004   0.000000
    16  H    3.750037   1.952601   2.257040   2.410165   0.965214
    17  O    2.445439   4.655323   5.477377   4.578557   5.242833
    18  O    3.079591   4.452942   4.811506   5.114310   4.930335
    19  H    3.975830   5.407487   5.720846   6.058764   5.878278
    20  O    3.621785   4.727462   5.078463   4.635237   5.869491
    21  H    3.286226   4.814460   5.359115   4.657243   5.809581
    22  O    3.688747   2.865956   2.457980   3.276930   4.124509
    23  H    4.333177   3.371285   2.885827   3.521594   4.725680
    24  O    2.401218   3.797924   4.750348   3.255156   4.305625
    25  H    2.434247   4.346142   5.256821   4.000334   4.906772
    26  H    2.936963   3.807232   4.632013   3.065655   4.538592
    27  H    1.198004   2.847539   3.854233   2.611050   3.273792
    28  O    4.696934   4.417156   4.252671   4.248653   5.819525
    29  H    5.603131   5.130913   4.856432   4.885731   6.548590
    30  H    4.557832   4.777353   4.809432   4.569192   6.130180
                   16         17         18         19         20
    16  H    0.000000
    17  O    6.135887   0.000000
    18  O    5.827247   3.499167   0.000000
    19  H    6.770341   3.986148   0.964082   0.000000
    20  O    6.635931   2.705708   3.672637   4.057043   0.000000
    21  H    6.623744   1.831503   3.725694   4.128702   0.992421
    22  O    4.611730   4.905125   3.783581   4.482584   3.450678
    23  H    5.108910   5.334086   4.620569   5.270657   3.533870
    24  O    4.990097   2.341368   5.048669   5.799379   3.794084
    25  H    5.703339   1.295917   4.477069   5.104375   3.212141
    26  H    5.118789   2.905964   5.488511   6.248399   3.642495
    27  H    4.072449   2.274309   4.111186   4.947355   3.699422
    28  O    6.301458   4.884409   5.017559   5.539301   2.547673
    29  H    6.942087   5.747007   5.928089   6.410570   3.335901
    30  H    6.712854   4.271184   4.801227   5.248289   1.754881
                   21         22         23         24         25
    21  H    0.000000
    22  O    4.102920   0.000000
    23  H    4.281063   0.971323   0.000000
    24  O    3.133838   5.047874   5.299393   0.000000
    25  H    2.373704   5.106020   5.417206   1.130339   0.000000
    26  H    3.135729   4.838078   4.915400   0.970167   1.764952
    27  H    3.187853   4.298937   4.739058   1.241874   1.638547
    28  O    3.393388   2.372762   1.737278   5.006455   4.960079
    29  H    4.179846   3.069016   2.242774   5.747094   5.754582
    30  H    2.613099   2.948230   2.545916   4.653206   4.433314
                   26         27         28         29         30
    26  H    0.000000
    27  H    1.866577   0.000000
    28  O    4.480157   4.810582   0.000000
    29  H    5.120971   5.647220   0.951701   0.000000
    30  H    4.172604   4.588545   0.973642   1.594769   0.000000
 Stoichiometry    C6H16O8
 Framework group  C1[X(C6H16O8)]
 Deg. of freedom    84
 Full point group                 C1      NOp   1
 Largest Abelian subgroup         C1      NOp   1
 Largest concise Abelian subgroup C1      NOp   1
                         Standard orientation:                         
 ---------------------------------------------------------------------
 Center     Atomic      Atomic             Coordinates (Angstroms)
 Number     Number       Type             X           Y           Z
 ---------------------------------------------------------------------
      1          6           0       -1.132026    0.305363    0.485186
      2          6           0        1.428471    0.396802    0.420815
      3          6           0        0.095933    1.095517    0.039714
      4          6           0        1.228037   -0.959837    1.135519
      5          1           0        2.183972   -1.472646    1.117604
      6          1           0        2.013890    1.067838    1.039521
      7          1           0       -1.240426    0.341652    1.564641
      8          1           0        0.089098    1.233644   -1.038797
      9          6           0        0.376953   -1.871812    0.393028
     10          1           0        0.111016   -2.695649    1.059364
     11          8           0       -1.077406   -1.098328    0.030703
     12          6           0       -2.382101    0.955743   -0.098713
     13          1           0       -2.400027    1.992712    0.231283
     14          1           0       -2.314183    0.944206   -1.187405
     15          8           0       -3.534047    0.258494    0.348769
     16          1           0       -4.311783    0.795518    0.152886
     17          8           0        0.952264   -2.231226   -0.729004
     18          8           0        0.775636   -0.839862    2.476784
     19          1           0        1.510524   -1.088924    3.048941
     20          8           0        2.231575    0.152878   -0.745478
     21          1           0        2.013313   -0.770424   -1.036637
     22          8           0       -0.008306    2.377846    0.647228
     23          1           0        0.286827    3.014120   -0.024725
     24          8           0       -0.719952   -1.678498   -2.271790
     25          1           0        0.199827   -2.111039   -1.777238
     26          1           0       -0.539605   -0.921526   -2.851182
     27          1           0       -1.115220   -1.374685   -1.134376
     28          8           0        1.598400    2.597156   -1.084938
     29          1           0        1.907821    3.378719   -1.531204
     30          1           0        2.168034    1.828148   -1.264168
 ---------------------------------------------------------------------
 Rotational constants (GHZ):      0.6556825      0.6020848      0.4842501
 Standard basis: 6-31G(d) (6D, 7F)
 There are   242 symmetry adapted cartesian basis functions of A   symmetry.
 There are   242 symmetry adapted basis functions of A   symmetry.
   242 basis functions,   456 primitive gaussians,   242 cartesian basis functions
    58 alpha electrons       58 beta electrons
       nuclear repulsion energy      1146.6208390222 Hartrees.
 NAtoms=   30 NActive=   30 NUniq=   30 SFac= 1.00D+00 NAtFMM=   60 NAOKFM=F Big=F
 Integral buffers will be    131072 words long.
 Raffenetti 2 integral format.
 Two-electron integral symmetry is turned on.
 One-electron integrals computed using PRISM.
 NBasis=   242 RedAO= T EigKep=  1.43D-03  NBF=   242
 NBsUse=   242 1.00D-06 EigRej= -1.00D+00 NBFU=   242
 Initial guess from the checkpoint file:  "/scratch/10451471.yak.local/Gau-19743.chk"
 B after Tr=    -0.000000   -0.000000   -0.000000
         Rot=    0.999858    0.000576    0.000741    0.016811 Ang=   1.93 deg.
 ExpMin= 1.61D-01 ExpMax= 5.48D+03 ExpMxC= 8.25D+02 IAcc=1 IRadAn=         1 AccDes= 0.00D+00
 Harris functional with IExCor=  402 and IRadAn=       1 diagonalized for initial guess.
 HarFok:  IExCor=  402 AccDes= 0.00D+00 IRadAn=         1 IDoV= 1 UseB2=F ITyADJ=14
 ICtDFT=  3500011 ScaDFX=  1.000000  1.000000  1.000000  1.000000
 FoFCou: FMM=F IPFlag=           0 FMFlag=      100000 FMFlg1=           0
         NFxFlg=           0 DoJE=T BraDBF=F KetDBF=T FulRan=T
         wScrn=  0.000000 ICntrl=     500 IOpCl=  0 I1Cent=   200000004 NGrid=           0
         NMat0=    1 NMatS0=      1 NMatT0=    0 NMatD0=    1 NMtDS0=    0 NMtDT0=    0
 Petite list used in FoFCou.
 Requested convergence on RMS density matrix=1.00D-08 within 128 cycles.
 Requested convergence on MAX density matrix=1.00D-06.
 Requested convergence on             energy=1.00D-06.
 No special actions if energy rises.
 Integral accuracy reduced to 1.0D-05 until final iterations.
 Initial convergence to 1.0D-05 achieved.  Increase integral accuracy.
