 Entering Gaussian System, Link 0=g09
 Initial command:
 /global/software/gaussian/g09.e01/l1.exe "/scratch/10451542.yak.local/Gau-1723.inp" -scrdir="/scratch/10451542.yak.local/"
 Entering Link 1 = /global/software/gaussian/g09.e01/l1.exe PID=      1724.
  
 Copyright (c) 1988,1990,1992,1993,1995,1998,2003,2009,2015,
            Gaussian, Inc.  All Rights Reserved.
  
 This is part of the Gaussian(R) 09 program.  It is based on
 the Gaussian(R) 03 system (copyright 2003, Gaussian, Inc.),
 the Gaussian(R) 98 system (copyright 1998, Gaussian, Inc.),
 the Gaussian(R) 94 system (copyright 1995, Gaussian, Inc.),
 the Gaussian 92(TM) system (copyright 1992, Gaussian, Inc.),
 the Gaussian 90(TM) system (copyright 1990, Gaussian, Inc.),
 the Gaussian 88(TM) system (copyright 1988, Gaussian, Inc.),
 the Gaussian 86(TM) system (copyright 1986, Carnegie Mellon
 University), and the Gaussian 82(TM) system (copyright 1983,
 Carnegie Mellon University). Gaussian is a federally registered
 trademark of Gaussian, Inc.
  
 This software contains proprietary and confidential information,
 including trade secrets, belonging to Gaussian, Inc.
  
 This software is provided under written license and may be
 used, copied, transmitted, or stored only in accord with that
 written license.
  
 The following legend is applicable only to US Government
 contracts under FAR:
  
                    RESTRICTED RIGHTS LEGEND
  
 Use, reproduction and disclosure by the US Government is
 subject to restrictions as set forth in subparagraphs (a)
 and (c) of the Commercial Computer Software - Restricted
 Rights clause in FAR 52.227-19.
  
 Gaussian, Inc.
 340 Quinnipiac St., Bldg. 40, Wallingford CT 06492
  
  
 ---------------------------------------------------------------
 Warning -- This program may not be used in any manner that
 competes with the business of Gaussian, Inc. or will provide
 assistance to any competitor of Gaussian, Inc.  The licensee
 of this program is prohibited from giving any competitor of
 Gaussian, Inc. access to this program.  By using this program,
 the user acknowledges that Gaussian, Inc. is engaged in the
 business of creating and licensing software in the field of
 computational chemistry and represents and warrants to the
 licensee that it is not a competitor of Gaussian, Inc. and that
 it will not use this program in any manner prohibited above.
 ---------------------------------------------------------------
  

 Cite this work as:
 Gaussian 09, Revision E.01,
 M. J. Frisch, G. W. Trucks, H. B. Schlegel, G. E. Scuseria, 
 M. A. Robb, J. R. Cheeseman, G. Scalmani, V. Barone, B. Mennucci, 
 G. A. Petersson, H. Nakatsuji, M. Caricato, X. Li, H. P. Hratchian, 
 A. F. Izmaylov, J. Bloino, G. Zheng, J. L. Sonnenberg, M. Hada, 
 M. Ehara, K. Toyota, R. Fukuda, J. Hasegawa, M. Ishida, T. Nakajima, 
 Y. Honda, O. Kitao, H. Nakai, T. Vreven, J. A. Montgomery, Jr., 
 J. E. Peralta, F. Ogliaro, M. Bearpark, J. J. Heyd, E. Brothers, 
 K. N. Kudin, V. N. Staroverov, T. Keith, R. Kobayashi, J. Normand, 
 K. Raghavachari, A. Rendell, J. C. Burant, S. S. Iyengar, J. Tomasi, 
 M. Cossi, N. Rega, J. M. Millam, M. Klene, J. E. Knox, J. B. Cross, 
 V. Bakken, C. Adamo, J. Jaramillo, R. Gomperts, R. E. Stratmann, 
 O. Yazyev, A. J. Austin, R. Cammi, C. Pomelli, J. W. Ochterski, 
 R. L. Martin, K. Morokuma, V. G. Zakrzewski, G. A. Voth, 
 P. Salvador, J. J. Dannenberg, S. Dapprich, A. D. Daniels, 
 O. Farkas, J. B. Foresman, J. V. Ortiz, J. Cioslowski, 
 and D. J. Fox, Gaussian, Inc., Wallingford CT, 2013.
 
 ******************************************
 Gaussian 09:  ES64L-G09RevE.01 30-Nov-2015
                11-Jan-2017 
 ******************************************
 %NPROCS=4
 Will use up to    4 processors via shared memory.
 ----------------------------------------------------------------------
 # opt=(calcfc,ts,noeigentest,maxcycle=1000,cartesian) freq b3lyp/6-31g
 (d) geom=connectivity
 ----------------------------------------------------------------------
 1/5=1,6=1000,10=4,11=1,14=-1,18=10,26=3,38=1,57=2/1,3;
 2/12=2,17=6,18=5,29=2,40=1/2;
 3/5=1,6=6,7=1,11=2,16=1,25=1,30=1,71=2,74=-5,140=1/1,2,3;
 4//1;
 5/5=2,38=5/2;
 8/6=4,10=90,11=11/1;
 11/6=1,8=1,9=11,15=111,16=1/1,2,10;
 10/6=1,13=1/2;
 6/7=2,8=2,9=2,10=2,28=1/1;
 7/7=1,10=1,18=20,25=1/1,2,3,16;
 1/5=1,6=1000,10=4,11=1,14=-1,18=10,26=3/3(2);
 2/29=1/2;
 99/12=1/99;
 2/29=1/2;
 3/5=1,6=6,7=1,11=2,16=1,25=1,30=1,71=1,74=-5/1,2,3;
 4/5=5,16=3,69=1/1;
 5/5=2,38=5/2;
 7/7=1/1,2,3,16;
 1/5=1,6=1000,11=1,14=-1,18=10,26=3/3(-5);
 2/29=1/2;
 6/7=2,8=2,9=2,10=2,19=2,28=1/1;
 99/9=1,12=1/99;
 -------------------------
 boat6_Alpha_B3LYP_6-31G_d
 -------------------------
 Symbolic Z-matrix:
 Charge =  0 Multiplicity = 1
 C                    -0.39253  -0.15317   1.16678 
 C                     1.35867   0.64404  -0.47132 
 C                     0.28714   1.0622    0.54832 
 C                     1.38021  -0.8885   -0.73499 
 H                     1.95196  -1.05991  -1.62303 
 H                     2.3289    1.016    -0.21599 
 H                     0.22005  -0.67345   1.87315 
 H                    -0.39092   1.75365   0.09332 
 C                     0.17662  -1.50774  -1.01435 
 O                    -1.06423  -1.0235    0.16641 
 C                    -1.5699    0.35907   2.01709 
 H                    -1.20109   1.01183   2.78048 
 H                    -2.25555   0.89244   1.39235 
 O                    -2.23972  -0.75049   2.62133 
 H                    -2.83542  -0.43232   3.30362 
 O                     2.03757  -1.60284   0.31501 
 H                     2.88757  -1.92139   0.00257 
 O                     1.0255    1.25452  -1.7208 
 H                     0.67496   0.59022  -2.31865 
 O                     0.92616   1.78943   1.60079 
 H                     0.76872   2.72902   1.48256 
 O                    -0.99452  -3.20609   0.69276 
 H                    -0.06465  -3.3528   -0.06244 
 H                    -1.36556  -2.07974   0.64968 
 H                    -0.51523  -3.33337   1.7855 
 O                     0.86761   3.26198  -0.27411 
 H                     0.91778   4.22054  -0.25853 
 H                     0.9856    2.9495   -1.17412 
 O                     0.45555  -2.80804  -0.99658 
 H                    -0.21578  -1.2402   -1.97318 
 

 GradGradGradGradGradGradGradGradGradGradGradGradGradGradGradGradGradGrad
 Berny optimization.
 Initialization pass.
 No Z-matrix variables, so optimization will use Cartesian coordinates.
 Trust Radius=3.00D-01 FncErr=1.00D-07 GrdErr=1.00D-06
 Number of steps in this run=    180 maximum allowed number of steps=    180.
 Search for a saddle point of order  1.
 GradGradGradGradGradGradGradGradGradGradGradGradGradGradGradGradGradGrad

 ---------------------------------------------------------------------------------------------------
                            Z-MATRIX (ANGSTROMS AND DEGREES)
   CD    Cent   Atom    N1       Length/X        N2       Alpha/Y        N3        Beta/Z          J
 ---------------------------------------------------------------------------------------------------
      1      1  C        0  -0.392526         -0.153168          1.166785
      2      2  C        0   1.358668          0.644041         -0.471315
      3      3  C        0   0.287144          1.062202          0.548325
      4      4  C        0   1.380206         -0.888503         -0.734985
      5      5  H        0   1.951956         -1.059914         -1.623028
      6      6  H        0   2.328903          1.016002         -0.215993
      7      7  H        0   0.220052         -0.673448          1.873154
      8      8  H        0  -0.390916          1.753653          0.093320
      9      9  C        0   0.176621         -1.507740         -1.014353
     10     10  O        0  -1.064227         -1.023500          0.166413
     11     11  C        0  -1.569897          0.359068          2.017085
     12     12  H        0  -1.201090          1.011834          2.780484
     13     13  H        0  -2.255551          0.892437          1.392349
     14     14  O        0  -2.239720         -0.750490          2.621334
     15     15  H        0  -2.835417         -0.432318          3.303618
     16     16  O        0   2.037570         -1.602841          0.315012
     17     17  H        0   2.887574         -1.921391          0.002570
     18     18  O        0   1.025496          1.254523         -1.720798
     19     19  H        0   0.674956          0.590222         -2.318648
     20     20  O        0   0.926164          1.789431          1.600794
     21     21  H        0   0.768724          2.729023          1.482556
     22     22  O        0  -0.994518         -3.206091          0.692756
     23     23  H        0  -0.064653         -3.352803         -0.062440
     24     24  H        0  -1.365564         -2.079744          0.649676
     25     25  H        0  -0.515234         -3.333369          1.785499
     26     26  O        0   0.867607          3.261980         -0.274105
     27     27  H        0   0.917776          4.220541         -0.258526
     28     28  H        0   0.985603          2.949496         -1.174122
     29     29  O        0   0.455548         -2.808041         -0.996584
     30     30  H        0  -0.215781         -1.240203         -1.973178
 ---------------------------------------------------------------------------------------------------
                         Z-Matrix orientation:                         
 ---------------------------------------------------------------------
 Center     Atomic      Atomic             Coordinates (Angstroms)
 Number     Number       Type             X           Y           Z
 ---------------------------------------------------------------------
      1          6           0       -0.392526   -0.153168    1.166785
      2          6           0        1.358668    0.644041   -0.471315
      3          6           0        0.287144    1.062202    0.548325
      4          6           0        1.380206   -0.888503   -0.734985
      5          1           0        1.951956   -1.059914   -1.623028
      6          1           0        2.328903    1.016002   -0.215993
      7          1           0        0.220052   -0.673448    1.873154
      8          1           0       -0.390916    1.753653    0.093320
      9          6           0        0.176621   -1.507740   -1.014353
     10          8           0       -1.064227   -1.023500    0.166413
     11          6           0       -1.569897    0.359068    2.017085
     12          1           0       -1.201090    1.011834    2.780484
     13          1           0       -2.255551    0.892437    1.392349
     14          8           0       -2.239720   -0.750490    2.621334
     15          1           0       -2.835417   -0.432318    3.303618
     16          8           0        2.037570   -1.602841    0.315012
     17          1           0        2.887574   -1.921391    0.002570
     18          8           0        1.025496    1.254523   -1.720798
     19          1           0        0.674956    0.590222   -2.318648
     20          8           0        0.926164    1.789431    1.600794
     21          1           0        0.768724    2.729023    1.482556
     22          8           0       -0.994518   -3.206091    0.692756
     23          1           0       -0.064653   -3.352803   -0.062440
     24          1           0       -1.365564   -2.079744    0.649676
     25          1           0       -0.515234   -3.333369    1.785499
     26          8           0        0.867607    3.261980   -0.274105
     27          1           0        0.917776    4.220541   -0.258526
     28          1           0        0.985603    2.949496   -1.174122
     29          8           0        0.455548   -2.808041   -0.996584
     30          1           0       -0.215781   -1.240203   -1.973178
 ---------------------------------------------------------------------
                    Distance matrix (angstroms):
                    1          2          3          4          5
     1  C    0.000000
     2  C    2.526973   0.000000
     3  C    1.523669   1.537104   0.000000
     4  C    2.701856   1.555210   2.578162   0.000000
     5  H    3.755242   2.140536   3.462621   1.070000   0.000000
     6  H    3.268824   1.070000   2.180618   2.190096   2.535994
     7  H    1.070000   2.920404   2.184526   2.862621   3.920732
     8  H    2.188218   2.147346   1.070000   3.286936   4.043644
     9  C    2.629858   2.514415   3.009780   1.382070   1.929468
    10  O    1.486407   3.009620   2.514401   2.608830   3.507247
    11  C    1.540000   3.853549   2.469869   4.222965   5.259980
    12  H    2.148263   4.154736   2.683265   4.757404   5.798686
    13  H    2.148263   4.074006   2.684492   4.573405   5.532385
    14  O    2.425826   4.945462   3.737414   4.938399   5.973316
    15  H    3.257560   5.744477   4.424434   5.855758   6.898163
    16  O    2.955069   2.475419   3.197011   1.430000   2.014473
    17  H    3.903980   3.023831   3.995235   1.970533   2.063999
    18  O    3.511484   1.430000   2.393966   2.385416   2.494896
    19  H    3.720268   1.970533   2.931331   2.278595   2.199447
    20  O    2.387677   2.406785   1.430000   3.582367   4.423126
    21  H    3.123338   2.917670   1.970533   4.286945   5.039914
    22  O    3.147608   4.660049   4.458906   3.612336   4.318639
    23  H    3.443277   4.262368   4.470913   2.934742   3.429211
    24  H    2.219437   4.012115   3.551555   3.297817   4.148636
    25  H    3.242150   4.942115   4.636318   3.990351   4.782644
    26  O    3.915014   2.670887   2.419163   4.207336   4.655553
    27  H    4.783068   3.609851   3.320213   5.152009   5.551090
    28  H    4.123786   2.438902   2.648877   3.883142   4.148581
    29  O    3.528136   3.606716   4.170597   2.146637   2.384872
    30  H    3.327499   2.878343   3.451373   2.050363   2.203223
                    6          7          8          9         10
     6  H    0.000000
     7  H    3.415557   0.000000
     8  H    2.834998   3.071142   0.000000
     9  C    3.411593   3.005932   3.490805   0.000000
    10  O    3.977327   2.164457   2.858543   1.780000   0.000000
    11  C    4.540797   2.071406   2.652497   3.965465   2.364780
    12  H    4.630307   2.383918   2.903021   4.758900   3.315824
    13  H    4.859964   2.968465   2.430234   4.179536   2.567681
    14  O    5.660674   2.572195   4.009946   4.430615   2.735499
    15  H    6.415255   3.382346   4.589125   5.373433   3.650845
    16  O    2.687970   2.568064   4.148825   2.288970   3.158934
    17  H    2.998026   3.488857   4.925716   2.924808   4.055833
    18  O    2.005043   4.157199   2.355075   2.974853   3.621864
    19  H    2.708873   4.401705   2.882229   2.520112   3.435751
    20  O    2.422103   2.576538   2.002113   4.274593   3.732518
    21  H    2.872919   3.468489   2.055745   4.953312   4.378741
    22  O    5.449497   3.046769   5.032169   2.677720   2.246241
    23  H    4.983889   3.317609   5.119239   2.090122   2.545029
    24  H    4.897154   2.447192   3.994297   2.339769   1.200000
    25  H    5.568852   2.761070   5.362529   3.413320   2.873731
    26  O    2.680145   4.529640   1.998482   4.876028   4.721374
    27  H    3.501736   5.383494   2.814606   5.825271   5.622177
    28  H    2.541823   4.795590   2.220643   4.532872   4.667284
    29  O    4.329213   3.584319   4.765862   1.330000   2.616652
    30  H    3.827999   3.912216   3.642013   1.070000   2.311854
                   11         12         13         14         15
    11  C    0.000000
    12  H    1.070000   0.000000
    13  H    1.070000   1.747303   0.000000
    14  O    1.430000   2.051796   2.051796   0.000000
    15  H    1.970533   2.242826   2.396700   0.960000   0.000000
    16  O    4.445218   4.837768   5.081138   4.933643   5.835057
    17  H    5.397019   5.747851   6.025018   5.875208   6.772509
    18  O    4.637853   5.027736   4.537407   5.791013   6.557198
    19  H    4.887881   5.449629   4.738217   5.890354   6.706577
    20  O    2.906812   2.553730   3.312305   4.185155   4.688846
    21  H    3.372174   2.917794   3.539411   4.738625   5.128370
    22  O    3.846462   4.710857   4.344832   3.361535   4.230759
    23  H    4.513112   5.331394   4.993847   4.324996   5.247543
    24  H    2.803456   3.758358   3.190220   2.533476   3.452229
    25  H    3.847082   4.510120   4.587015   3.216167   4.012982
    26  O    4.429207   4.321247   4.259803   5.842856   6.337218
    27  H    5.126197   4.901120   4.885865   6.555496   6.958766
    28  H    4.839907   4.916816   4.617721   6.204684   6.788742
    29  O    4.818217   5.621578   5.172098   4.958560   5.913227
    30  H    4.507050   5.351617   4.476113   5.044372   5.946406
                   16         17         18         19         20
    16  O    0.000000
    17  H    0.960000   0.000000
    18  O    3.651486   4.064942   0.000000
    19  H    3.688145   4.073319   0.960000   0.000000
    20  O    3.794203   4.491286   3.365853   4.106487   0.000000
    21  H    4.662422   5.320360   3.535754   4.362616   0.960000
    22  O    3.450603   4.146981   5.459192   5.125201   5.428517
    23  H    2.761192   3.281587   5.016576   4.602710   5.494601
    24  H    3.452645   4.304998   4.738529   4.483681   4.596429
    25  H    3.416704   4.092874   5.976347   5.801305   5.324925
    26  O    5.038091   5.569932   2.479462   3.369802   2.384759
    27  H    5.957740   6.455354   3.308641   4.181182   3.060627
    28  H    4.903869   5.359817   1.781398   2.640572   3.008229
    29  O    2.382348   2.774744   4.165784   3.652969   5.301378
    30  H    3.231858   3.741444   2.797878   2.064756   4.822447
                   21         22         23         24         25
    21  H    0.000000
    22  O    6.241665   0.000000
    23  H    6.330098   1.206853   0.000000
    24  H    5.326642   1.186671   1.954522   0.000000
    25  H    6.204266   1.200000   1.902178   1.893338   0.000000
    26  O    1.838390   6.799873   6.683507   5.862972   7.046477
    27  H    2.297435   7.727656   7.639317   6.762549   7.955697
    28  H    2.674618   6.730332   6.485203   5.843585   7.105369
    29  O    6.074808   2.261638   1.200000   2.560672   2.993054
    30  H    5.354073   3.402697   2.852514   2.984325   4.312617
                   26         27         28         29         30
    26  O    0.000000
    27  H    0.960000   0.000000
    28  H    0.960000   1.567952   0.000000
    29  O    6.126738   7.082327   5.784610   0.000000
    30  H    4.932568   5.834785   4.431184   1.965333   0.000000
 Stoichiometry    C6H16O8
 Framework group  C1[X(C6H16O8)]
 Deg. of freedom    84
 Full point group                 C1      NOp   1
 Largest Abelian subgroup         C1      NOp   1
 Largest concise Abelian subgroup C1      NOp   1
                         Standard orientation:                         
 ---------------------------------------------------------------------
 Center     Atomic      Atomic             Coordinates (Angstroms)
 Number     Number       Type             X           Y           Z
 ---------------------------------------------------------------------
      1          6           0       -0.234783    0.986522    0.186343
      2          6           0        1.320813   -1.004407    0.230158
      3          6           0        1.212638    0.521839    0.083329
      4          6           0       -0.064840   -1.707973    0.290459
      5          1           0        0.091827   -2.754049    0.128965
      6          1           0        1.946339   -1.289887    1.049986
      7          1           0       -0.625436    0.953902    1.181947
      8          1           0        1.704862    0.831841   -0.814733
      9          6           0       -0.993720   -1.378313   -0.678366
     10          8           0       -1.118988    0.389114   -0.848397
     11          6           0       -0.264593    2.485598   -0.165059
     12          1           0        0.352731    3.025397    0.522275
     13          1           0        0.102490    2.626012   -1.160265
     14          8           0       -1.607884    2.968525   -0.079908
     15          1           0       -1.604966    3.928385   -0.096034
     16          8           0       -0.672774   -1.582880    1.578741
     17          1           0       -0.647752   -2.430600    2.028569
     18          8           0        1.966592   -1.505107   -0.943371
     19          1           0        1.320063   -1.940174   -1.504010
     20          8           0        1.944875    1.130132    1.150432
     21          1           0        2.788688    1.447135    0.820145
     22          8           0       -3.212460    0.015018   -0.125189
     23          1           0       -2.935762   -1.145259    0.058361
     24          1           0       -2.274775    0.577432   -0.586301
     25          1           0       -3.336282    0.471027    0.977863
     26          8           0        3.577301    0.291338   -0.372290
     27          1           0        4.486680    0.584699   -0.464859
     28          1           0        3.456324   -0.532867   -0.849417
     29          8           0       -2.120135   -1.959619   -0.275660
     30          1           0       -0.730336   -1.744750   -1.648548
 ---------------------------------------------------------------------
 Rotational constants (GHZ):      0.7928848      0.5756431      0.3934597
 Standard basis: 6-31G(d) (6D, 7F)
 There are   242 symmetry adapted cartesian basis functions of A   symmetry.
 There are   242 symmetry adapted basis functions of A   symmetry.
   242 basis functions,   456 primitive gaussians,   242 cartesian basis functions
    58 alpha electrons       58 beta electrons
       nuclear repulsion energy      1140.5088215878 Hartrees.
 NAtoms=   30 NActive=   30 NUniq=   30 SFac= 1.00D+00 NAtFMM=   60 NAOKFM=F Big=F
 Integral buffers will be    131072 words long.
 Raffenetti 2 integral format.
 Two-electron integral symmetry is turned on.
 One-electron integrals computed using PRISM.
 NBasis=   242 RedAO= T EigKep=  1.18D-03  NBF=   242
 NBsUse=   242 1.00D-06 EigRej= -1.00D+00 NBFU=   242
 ExpMin= 1.61D-01 ExpMax= 5.48D+03 ExpMxC= 8.25D+02 IAcc=1 IRadAn=         1 AccDes= 0.00D+00
 Harris functional with IExCor=  402 and IRadAn=       1 diagonalized for initial guess.
 HarFok:  IExCor=  402 AccDes= 0.00D+00 IRadAn=         1 IDoV= 1 UseB2=F ITyADJ=14
 ICtDFT=  3500011 ScaDFX=  1.000000  1.000000  1.000000  1.000000
 FoFCou: FMM=F IPFlag=           0 FMFlag=      100000 FMFlg1=           0
         NFxFlg=           0 DoJE=T BraDBF=F KetDBF=T FulRan=T
         wScrn=  0.000000 ICntrl=     500 IOpCl=  0 I1Cent=   200000004 NGrid=           0
         NMat0=    1 NMatS0=      1 NMatT0=    0 NMatD0=    1 NMtDS0=    0 NMtDT0=    0
 Petite list used in FoFCou.
 Requested convergence on RMS density matrix=1.00D-08 within 128 cycles.
 Requested convergence on MAX density matrix=1.00D-06.
 Requested convergence on             energy=1.00D-06.
 No special actions if energy rises.
 Integral accuracy reduced to 1.0D-05 until final iterations.
 Initial convergence to 1.0D-05 achieved.  Increase integral accuracy.
 SCF Done:  E(RB3LYP) =  -839.805694125     A.U. after   14 cycles
            NFock= 14  Conv=0.98D-08     -V/T= 2.0076
 DoSCS=F DFT=T ScalE2(SS,OS)=  1.000000  1.000000
 Range of M.O.s used for correlation:     1   242
 NBasis=   242 NAE=    58 NBE=    58 NFC=     0 NFV=     0
 NROrb=    242 NOA=    58 NOB=    58 NVA=   184 NVB=   184
 Symmetrizing basis deriv contribution to polar:
 IMax=3 JMax=2 DiffMx= 0.00D+00
 G2DrvN: will do    31 centers at a time, making    1 passes.
 Calling FoFCou, ICntrl=  3107 FMM=F I1Cent=   0 AccDes= 0.00D+00.
 End of G2Drv F.D. properties file   721 does not exist.
 End of G2Drv F.D. properties file   722 does not exist.
 End of G2Drv F.D. properties file   788 does not exist.
          IDoAtm=111111111111111111111111111111
          Differentiating once with respect to nuclear coordinates.
          There are    93 degrees of freedom in the 1st order CPHF.  IDoFFX=6 NUNeed=     0.
     87 vectors produced by pass  0 Test12= 1.15D-14 1.08D-09 XBig12= 1.16D-01 9.27D-02.
 AX will form    87 AO Fock derivatives at one time.
     87 vectors produced by pass  1 Test12= 1.15D-14 1.08D-09 XBig12= 1.37D-02 1.58D-02.
     87 vectors produced by pass  2 Test12= 1.15D-14 1.08D-09 XBig12= 1.28D-04 1.73D-03.
     87 vectors produced by pass  3 Test12= 1.15D-14 1.08D-09 XBig12= 4.22D-07 8.03D-05.
     87 vectors produced by pass  4 Test12= 1.15D-14 1.08D-09 XBig12= 5.39D-10 2.57D-06.
     74 vectors produced by pass  5 Test12= 1.15D-14 1.08D-09 XBig12= 5.40D-13 7.03D-08.
      3 vectors produced by pass  6 Test12= 1.15D-14 1.08D-09 XBig12= 4.32D-16 1.77D-09.
 InvSVY:  IOpt=1 It=  1 EMax= 5.55D-16
 Solved reduced A of dimension   512 with    93 vectors.
 End of Minotr F.D. properties file   721 does not exist.
 End of Minotr F.D. properties file   722 does not exist.
 End of Minotr F.D. properties file   788 does not exist.

 **********************************************************************

            Population analysis using the SCF density.

 **********************************************************************

 Orbital symmetries:
       Occupied  (A) (A) (A) (A) (A) (A) (A) (A) (A) (A) (A) (A)
                 (A) (A) (A) (A) (A) (A) (A) (A) (A) (A) (A) (A)
                 (A) (A) (A) (A) (A) (A) (A) (A) (A) (A) (A) (A)
                 (A) (A) (A) (A) (A) (A) (A) (A) (A) (A) (A) (A)
                 (A) (A) (A) (A) (A) (A) (A) (A) (A) (A)
       Virtual   (A) (A) (A) (A) (A) (A) (A) (A) (A) (A) (A) (A)
                 (A) (A) (A) (A) (A) (A) (A) (A) (A) (A) (A) (A)
                 (A) (A) (A) (A) (A) (A) (A) (A) (A) (A) (A) (A)
                 (A) (A) (A) (A) (A) (A) (A) (A) (A) (A) (A) (A)
                 (A) (A) (A) (A) (A) (A) (A) (A) (A) (A) (A) (A)
                 (A) (A) (A) (A) (A) (A) (A) (A) (A) (A) (A) (A)
                 (A) (A) (A) (A) (A) (A) (A) (A) (A) (A) (A) (A)
                 (A) (A) (A) (A) (A) (A) (A) (A) (A) (A) (A) (A)
                 (A) (A) (A) (A) (A) (A) (A) (A) (A) (A) (A) (A)
                 (A) (A) (A) (A) (A) (A) (A) (A) (A) (A) (A) (A)
                 (A) (A) (A) (A) (A) (A) (A) (A) (A) (A) (A) (A)
                 (A) (A) (A) (A) (A) (A) (A) (A) (A) (A) (A) (A)
                 (A) (A) (A) (A) (A) (A) (A) (A) (A) (A) (A) (A)
                 (A) (A) (A) (A) (A) (A) (A) (A) (A) (A) (A) (A)
                 (A) (A) (A) (A) (A) (A) (A) (A) (A) (A) (A) (A)
                 (A) (A) (A) (A)
 The electronic state is 1-A.
 Alpha  occ. eigenvalues --  -19.16745 -19.16254 -19.14344 -19.13943 -19.13825
 Alpha  occ. eigenvalues --  -19.13242 -19.11653 -19.08522 -10.27040 -10.23293
 Alpha  occ. eigenvalues --  -10.23178 -10.23127 -10.22145 -10.21825  -1.05302
 Alpha  occ. eigenvalues --   -1.03744  -1.01962  -1.01517  -1.00285  -0.99219
 Alpha  occ. eigenvalues --   -0.96875  -0.92564  -0.77964  -0.75880  -0.70173
 Alpha  occ. eigenvalues --   -0.63820  -0.60441  -0.56400  -0.56093  -0.54333
 Alpha  occ. eigenvalues --   -0.53685  -0.52199  -0.51081  -0.48970  -0.48379
 Alpha  occ. eigenvalues --   -0.46477  -0.44994  -0.43687  -0.42475  -0.42118
 Alpha  occ. eigenvalues --   -0.40494  -0.38899  -0.38520  -0.37425  -0.36288
 Alpha  occ. eigenvalues --   -0.34632  -0.33911  -0.33211  -0.32363  -0.31361
 Alpha  occ. eigenvalues --   -0.29783  -0.29532  -0.27159  -0.26478  -0.26198
 Alpha  occ. eigenvalues --   -0.24402  -0.23944  -0.22159
 Alpha virt. eigenvalues --    0.01764   0.03287   0.05086   0.06556   0.06935
 Alpha virt. eigenvalues --    0.08345   0.11015   0.13309   0.14169   0.16229
 Alpha virt. eigenvalues --    0.16336   0.17379   0.17900   0.19337   0.20008
 Alpha virt. eigenvalues --    0.20577   0.21304   0.22359   0.23275   0.24298
 Alpha virt. eigenvalues --    0.26169   0.26605   0.27948   0.28922   0.31584
 Alpha virt. eigenvalues --    0.32184   0.35290   0.38354   0.51884   0.54452
 Alpha virt. eigenvalues --    0.55107   0.57691   0.59716   0.60668   0.62477
 Alpha virt. eigenvalues --    0.63662   0.64513   0.65037   0.67177   0.68807
 Alpha virt. eigenvalues --    0.69592   0.70264   0.73248   0.74640   0.75792
 Alpha virt. eigenvalues --    0.76273   0.77616   0.78697   0.80106   0.80922
 Alpha virt. eigenvalues --    0.82955   0.84229   0.85039   0.85881   0.86097
 Alpha virt. eigenvalues --    0.87507   0.88894   0.89344   0.91842   0.91946
 Alpha virt. eigenvalues --    0.92852   0.93702   0.95107   0.96731   0.98364
 Alpha virt. eigenvalues --    0.99246   1.00270   1.01015   1.01874   1.02676
 Alpha virt. eigenvalues --    1.04349   1.05569   1.06780   1.07684   1.09104
 Alpha virt. eigenvalues --    1.10881   1.13211   1.14954   1.17365   1.18891
 Alpha virt. eigenvalues --    1.21710   1.22408   1.25245   1.25894   1.26977
 Alpha virt. eigenvalues --    1.27616   1.29911   1.34606   1.36730   1.37765
 Alpha virt. eigenvalues --    1.40471   1.41375   1.46195   1.47200   1.50151
 Alpha virt. eigenvalues --    1.54793   1.57176   1.57927   1.59683   1.61157
 Alpha virt. eigenvalues --    1.63918   1.67157   1.69307   1.70970   1.73082
 Alpha virt. eigenvalues --    1.73728   1.75537   1.76098   1.77061   1.77801
 Alpha virt. eigenvalues --    1.78149   1.80414   1.80730   1.82492   1.83702
 Alpha virt. eigenvalues --    1.84948   1.86290   1.88206   1.89939   1.92478
 Alpha virt. eigenvalues --    1.94161   1.96440   1.97394   1.97783   1.99675
 Alpha virt. eigenvalues --    2.01117   2.03380   2.05394   2.06920   2.07610
 Alpha virt. eigenvalues --    2.08490   2.09811   2.15155   2.16452   2.18608
 Alpha virt. eigenvalues --    2.19324   2.22608   2.25942   2.27497   2.28921
 Alpha virt. eigenvalues --    2.34545   2.35681   2.37034   2.37448   2.41491
 Alpha virt. eigenvalues --    2.44286   2.45897   2.49030   2.50186   2.50977
 Alpha virt. eigenvalues --    2.52418   2.53627   2.54703   2.56489   2.61715
 Alpha virt. eigenvalues --    2.62307   2.67077   2.67124   2.69711   2.76691
 Alpha virt. eigenvalues --    2.77446   2.83042   2.85917   2.91834   2.93260
 Alpha virt. eigenvalues --    2.94245   2.99920   3.01808   3.04353   3.07509
 Alpha virt. eigenvalues --    3.73189   3.74091   3.78711   3.87163   3.89266
 Alpha virt. eigenvalues --    3.95401   4.08396   4.12882   4.32226   4.39094
 Alpha virt. eigenvalues --    4.43011   4.57110   4.65101   4.85878
          Condensed to atoms (all electrons):
               1          2          3          4          5          6
     1  C    4.989788  -0.051844   0.307409  -0.002216   0.000057   0.003426
     2  C   -0.051844   5.054725   0.310286   0.279095  -0.049248   0.359868
     3  C    0.307409   0.310286   4.984404  -0.018602   0.006346  -0.050622
     4  C   -0.002216   0.279095  -0.018602   5.184945   0.367504  -0.023237
     5  H    0.000057  -0.049248   0.006346   0.367504   0.621341  -0.006686
     6  H    0.003426   0.359868  -0.050622  -0.023237  -0.006686   0.571071
     7  H    0.344059  -0.006254  -0.033588  -0.000911   0.000043   0.000330
     8  H   -0.035186  -0.055238   0.356083   0.001608  -0.000310   0.004583
     9  C   -0.011381  -0.048995  -0.022329   0.214970  -0.053628   0.005927
    10  O    0.143163   0.002445  -0.019488  -0.017377   0.002991   0.000028
    11  C    0.354401   0.004852  -0.030709   0.000138   0.000029  -0.000189
    12  H   -0.035177   0.000222  -0.003100   0.000015  -0.000000   0.000001
    13  H   -0.040437  -0.000203  -0.003643   0.000036  -0.000001  -0.000000
    14  O   -0.046032  -0.000042   0.002122   0.000005   0.000000   0.000000
    15  H    0.005943   0.000004  -0.000217  -0.000000   0.000000  -0.000000
    16  O   -0.001400  -0.046644   0.001207   0.207711  -0.023407   0.002361
    17  H    0.000158   0.003080  -0.000320  -0.014312  -0.013615   0.000828
    18  O    0.003867   0.169692  -0.056681  -0.017510   0.002352  -0.039057
    19  H   -0.000224  -0.039000   0.003883  -0.009620   0.003317   0.005220
    20  O   -0.034017  -0.042981   0.187103   0.001942  -0.000114   0.006012
    21  H    0.003917   0.005171  -0.024637  -0.000157   0.000008   0.000043
    22  O    0.010079   0.000156   0.000021  -0.002626  -0.000024  -0.000000
    23  H   -0.000153  -0.000001   0.000008  -0.001009  -0.000082   0.000001
    24  H   -0.010235  -0.000477   0.001553   0.002224  -0.000124   0.000008
    25  H    0.000140  -0.000060   0.000158  -0.000130   0.000008   0.000000
    26  O    0.001581   0.007275  -0.041062   0.000449  -0.000004   0.003216
    27  H   -0.000062  -0.000173   0.001885  -0.000014  -0.000000   0.000108
    28  H   -0.000027  -0.010994   0.001694   0.000425  -0.000001  -0.001593
    29  O   -0.000072   0.006060   0.000123  -0.081049  -0.006052  -0.000129
    30  H    0.001689   0.003104   0.000675  -0.098756  -0.006542  -0.000215
               7          8          9         10         11         12
     1  C    0.344059  -0.035186  -0.011381   0.143163   0.354401  -0.035177
     2  C   -0.006254  -0.055238  -0.048995   0.002445   0.004852   0.000222
     3  C   -0.033588   0.356083  -0.022329  -0.019488  -0.030709  -0.003100
     4  C   -0.000911   0.001608   0.214970  -0.017377   0.000138   0.000015
     5  H    0.000043  -0.000310  -0.053628   0.002991   0.000029  -0.000000
     6  H    0.000330   0.004583   0.005927   0.000028  -0.000189   0.000001
     7  H    0.583659   0.005667  -0.002497  -0.034272  -0.052400  -0.002500
     8  H    0.005667   0.587361   0.001273   0.001059  -0.012312   0.000191
     9  C   -0.002497   0.001273   4.855427   0.113692   0.002199  -0.000059
    10  O   -0.034272   0.001059   0.113692   8.543707  -0.040821   0.004056
    11  C   -0.052400  -0.012312   0.002199  -0.040821   4.901139   0.351502
    12  H   -0.002500   0.000191  -0.000059   0.004056   0.351502   0.615362
    13  H    0.008049   0.008470  -0.000094  -0.000935   0.351471  -0.048742
    14  O    0.004452   0.000036  -0.000063  -0.001244   0.241721  -0.034719
    15  H   -0.000156  -0.000010   0.000005   0.000112  -0.021953  -0.006158
    16  O    0.007022  -0.000058  -0.060676  -0.000822   0.000176  -0.000001
    17  H   -0.000048   0.000006   0.005417  -0.000027  -0.000007  -0.000000
    18  O    0.000007   0.003681   0.002292  -0.000256  -0.000103  -0.000004
    19  H    0.000017   0.000048   0.007599  -0.000226   0.000004   0.000001
    20  O    0.002999  -0.030128   0.000183   0.000900  -0.005101   0.014363
    21  H   -0.000352  -0.012516  -0.000022  -0.000050   0.000238   0.000345
    22  O    0.003384   0.000001   0.014707  -0.128755  -0.000212  -0.000002
    23  H   -0.000224  -0.000001  -0.031363   0.007228  -0.000017  -0.000000
    24  H    0.000394   0.000014  -0.009530   0.092520  -0.006224   0.000538
    25  H    0.000772  -0.000000   0.000946   0.004861  -0.000260  -0.000007
    26  O   -0.000025   0.016649  -0.000012   0.000001  -0.000022   0.000009
    27  H    0.000002   0.000839   0.000001  -0.000000   0.000001  -0.000003
    28  H   -0.000001  -0.001835  -0.000034  -0.000008   0.000000  -0.000005
    29  O    0.000448   0.000005   0.328329  -0.032885  -0.000039   0.000001
    30  H   -0.000065   0.000030   0.373316  -0.025468  -0.000201   0.000002
              13         14         15         16         17         18
     1  C   -0.040437  -0.046032   0.005943  -0.001400   0.000158   0.003867
     2  C   -0.000203  -0.000042   0.000004  -0.046644   0.003080   0.169692
     3  C   -0.003643   0.002122  -0.000217   0.001207  -0.000320  -0.056681
     4  C    0.000036   0.000005  -0.000000   0.207711  -0.014312  -0.017510
     5  H   -0.000001   0.000000   0.000000  -0.023407  -0.013615   0.002352
     6  H   -0.000000   0.000000  -0.000000   0.002361   0.000828  -0.039057
     7  H    0.008049   0.004452  -0.000156   0.007022  -0.000048   0.000007
     8  H    0.008470   0.000036  -0.000010  -0.000058   0.000006   0.003681
     9  C   -0.000094  -0.000063   0.000005  -0.060676   0.005417   0.002292
    10  O   -0.000935  -0.001244   0.000112  -0.000822  -0.000027  -0.000256
    11  C    0.351471   0.241721  -0.021953   0.000176  -0.000007  -0.000103
    12  H   -0.048742  -0.034719  -0.006158  -0.000001  -0.000000  -0.000004
    13  H    0.641406  -0.042495  -0.001073  -0.000005   0.000000  -0.000015
    14  O   -0.042495   8.269264   0.236592  -0.000000   0.000000   0.000000
    15  H   -0.001073   0.236592   0.390726   0.000000  -0.000000  -0.000000
    16  O   -0.000005  -0.000000   0.000000   8.319214   0.235780   0.001755
    17  H    0.000000   0.000000  -0.000000   0.235780   0.377343  -0.000090
    18  O   -0.000015   0.000000  -0.000000   0.001755  -0.000090   8.348463
    19  H    0.000000  -0.000000   0.000000   0.000206  -0.000031   0.242214
    20  O    0.000306   0.000067   0.000008  -0.000096   0.000013   0.002272
    21  H   -0.000071   0.000001  -0.000002  -0.000001  -0.000000  -0.000124
    22  O    0.000014  -0.001144   0.000047  -0.000173   0.000024  -0.000000
    23  H   -0.000001   0.000006  -0.000000   0.004702  -0.000102  -0.000001
    24  H    0.000009   0.013521  -0.000446  -0.000188   0.000008   0.000003
    25  H    0.000013   0.001108   0.000001   0.000591  -0.000018   0.000000
    26  O   -0.000053  -0.000000  -0.000000   0.000000  -0.000000  -0.029676
    27  H    0.000002  -0.000000   0.000000   0.000000  -0.000000   0.000976
    28  H   -0.000003  -0.000000  -0.000000  -0.000013   0.000001   0.042663
    29  O    0.000001   0.000000   0.000000  -0.024557   0.003351   0.000079
    30  H   -0.000007   0.000000   0.000000   0.004232  -0.000252   0.001119
              19         20         21         22         23         24
     1  C   -0.000224  -0.034017   0.003917   0.010079  -0.000153  -0.010235
     2  C   -0.039000  -0.042981   0.005171   0.000156  -0.000001  -0.000477
     3  C    0.003883   0.187103  -0.024637   0.000021   0.000008   0.001553
     4  C   -0.009620   0.001942  -0.000157  -0.002626  -0.001009   0.002224
     5  H    0.003317  -0.000114   0.000008  -0.000024  -0.000082  -0.000124
     6  H    0.005220   0.006012   0.000043  -0.000000   0.000001   0.000008
     7  H    0.000017   0.002999  -0.000352   0.003384  -0.000224   0.000394
     8  H    0.000048  -0.030128  -0.012516   0.000001  -0.000001   0.000014
     9  C    0.007599   0.000183  -0.000022   0.014707  -0.031363  -0.009530
    10  O   -0.000226   0.000900  -0.000050  -0.128755   0.007228   0.092520
    11  C    0.000004  -0.005101   0.000238  -0.000212  -0.000017  -0.006224
    12  H    0.000001   0.014363   0.000345  -0.000002  -0.000000   0.000538
    13  H    0.000000   0.000306  -0.000071   0.000014  -0.000001   0.000009
    14  O   -0.000000   0.000067   0.000001  -0.001144   0.000006   0.013521
    15  H    0.000000   0.000008  -0.000002   0.000047  -0.000000  -0.000446
    16  O    0.000206  -0.000096  -0.000001  -0.000173   0.004702  -0.000188
    17  H   -0.000031   0.000013  -0.000000   0.000024  -0.000102   0.000008
    18  O    0.242214   0.002272  -0.000124  -0.000000  -0.000001   0.000003
    19  H    0.370418  -0.000166   0.000019  -0.000002   0.000015   0.000012
    20  O   -0.000166   8.354181   0.235725   0.000000  -0.000000  -0.000015
    21  H    0.000019   0.235725   0.356693  -0.000000   0.000000   0.000002
    22  O   -0.000002   0.000000  -0.000000   8.560809   0.124635   0.133028
    23  H    0.000015  -0.000000   0.000000   0.124635   0.302743  -0.010389
    24  H    0.000012  -0.000015   0.000002   0.133028  -0.010389   0.295638
    25  H    0.000000  -0.000001   0.000000   0.197883  -0.003340  -0.007394
    26  O    0.001039  -0.042589   0.032026   0.000000  -0.000000   0.000000
    27  H   -0.000047   0.002609  -0.002751   0.000000   0.000000  -0.000000
    28  H   -0.001790   0.003971  -0.001485  -0.000000   0.000000   0.000000
    29  O   -0.000370   0.000000  -0.000000  -0.129136   0.135527   0.013102
    30  H    0.011275   0.000001  -0.000001  -0.000686   0.004404   0.000874
              25         26         27         28         29         30
     1  C    0.000140   0.001581  -0.000062  -0.000027  -0.000072   0.001689
     2  C   -0.000060   0.007275  -0.000173  -0.010994   0.006060   0.003104
     3  C    0.000158  -0.041062   0.001885   0.001694   0.000123   0.000675
     4  C   -0.000130   0.000449  -0.000014   0.000425  -0.081049  -0.098756
     5  H    0.000008  -0.000004  -0.000000  -0.000001  -0.006052  -0.006542
     6  H    0.000000   0.003216   0.000108  -0.001593  -0.000129  -0.000215
     7  H    0.000772  -0.000025   0.000002  -0.000001   0.000448  -0.000065
     8  H   -0.000000   0.016649   0.000839  -0.001835   0.000005   0.000030
     9  C    0.000946  -0.000012   0.000001  -0.000034   0.328329   0.373316
    10  O    0.004861   0.000001  -0.000000  -0.000008  -0.032885  -0.025468
    11  C   -0.000260  -0.000022   0.000001   0.000000  -0.000039  -0.000201
    12  H   -0.000007   0.000009  -0.000003  -0.000005   0.000001   0.000002
    13  H    0.000013  -0.000053   0.000002  -0.000003   0.000001  -0.000007
    14  O    0.001108  -0.000000  -0.000000  -0.000000   0.000000   0.000000
    15  H    0.000001  -0.000000   0.000000  -0.000000   0.000000   0.000000
    16  O    0.000591   0.000000   0.000000  -0.000013  -0.024557   0.004232
    17  H   -0.000018  -0.000000  -0.000000   0.000001   0.003351  -0.000252
    18  O    0.000000  -0.029676   0.000976   0.042663   0.000079   0.001119
    19  H    0.000000   0.001039  -0.000047  -0.001790  -0.000370   0.011275
    20  O   -0.000001  -0.042589   0.002609   0.003971   0.000000   0.000001
    21  H    0.000000   0.032026  -0.002751  -0.001485  -0.000000  -0.000001
    22  O    0.197883   0.000000   0.000000  -0.000000  -0.129136  -0.000686
    23  H   -0.003340  -0.000000   0.000000   0.000000   0.135527   0.004404
    24  H   -0.007394   0.000000  -0.000000   0.000000   0.013102   0.000874
    25  H    0.468692  -0.000000   0.000000   0.000000   0.004659  -0.000005
    26  O   -0.000000   8.421743   0.228818   0.211433   0.000000   0.000002
    27  H    0.000000   0.228818   0.385503  -0.005424  -0.000000  -0.000000
    28  H    0.000000   0.211433  -0.005424   0.331517   0.000000  -0.000001
    29  O    0.004659   0.000000  -0.000000   0.000000   8.468775  -0.047082
    30  H   -0.000005   0.000002  -0.000000  -0.000001  -0.047082   0.657136
 Mulliken charges:
               1
     1  C    0.098783
     2  C    0.146119
     3  C    0.140039
     4  C    0.026460
     5  H    0.155840
     6  H    0.158699
     7  H    0.171988
     8  H    0.159989
     9  C    0.314398
    10  O   -0.614128
    11  C   -0.037303
    12  H    0.143870
    13  H    0.128001
    14  O   -0.643157
    15  H    0.396578
    16  O   -0.626919
    17  H    0.402812
    18  O   -0.677917
    19  H    0.406189
    20  O   -0.657445
    21  H    0.407982
    22  O   -0.782028
    23  H    0.467413
    24  H    0.491575
    25  H    0.331381
    26  O   -0.810796
    27  H    0.387733
    28  H    0.431510
    29  O   -0.639089
    30  H    0.121424
 Sum of Mulliken charges =  -0.00000
 Mulliken charges with hydrogens summed into heavy atoms:
               1
     1  C    0.270771
     2  C    0.304818
     3  C    0.300028
     4  C    0.182299
     9  C    0.435822
    10  O   -0.614128
    11  C    0.234568
    14  O   -0.246579
    16  O   -0.224107
    18  O   -0.271728
    20  O   -0.249463
    22  O    0.040928
    26  O    0.008448
    29  O   -0.171677
 APT charges:
               1
     1  C   -0.320137
     2  C   -0.225879
     3  C   -0.084418
     4  C   -0.422496
     5  H    0.526429
     6  H    0.513404
     7  H    0.374881
     8  H    0.417486
     9  C   -0.366408
    10  O   -0.390080
    11  C   -0.551140
    12  H    0.450376
    13  H    0.365393
    14  O   -1.122833
    15  H    0.972286
    16  O   -1.001114
    17  H    0.872979
    18  O   -0.710251
    19  H    0.524283
    20  O   -0.927384
    21  H    0.801497
    22  O   -1.008618
    23  H    0.481419
    24  H    0.376326
    25  H    0.523652
    26  O   -1.557868
    27  H    1.004521
    28  H    0.407630
    29  O   -0.406690
    30  H    0.482757
 Sum of APT charges =  -0.00000
 APT charges with hydrogens summed into heavy atoms:
               1
     1  C    0.054744
     2  C    0.287526
     3  C    0.333069
     4  C    0.103932
     9  C    0.116349
    10  O   -0.390080
    11  C    0.264628
    14  O   -0.150548
    16  O   -0.128136
    18  O   -0.185969
    20  O   -0.125887
    22  O   -0.108641
    26  O   -0.145717
    29  O    0.074729
 Electronic spatial extent (au):  <R**2>=           2944.1390
 Charge=              0.0000 electrons
 Dipole moment (field-independent basis, Debye):
    X=              4.8472    Y=              0.6848    Z=             -0.1666  Tot=              4.8982
 Quadrupole moment (field-independent basis, Debye-Ang):
   XX=            -80.5493   YY=            -67.8541   ZZ=            -82.2353
   XY=             -2.7670   XZ=            -10.2366   YZ=             -2.0291
 Traceless Quadrupole moment (field-independent basis, Debye-Ang):
   XX=             -3.6697   YY=              9.0255   ZZ=             -5.3557
   XY=             -2.7670   XZ=            -10.2366   YZ=             -2.0291
 Octapole moment (field-independent basis, Debye-Ang**2):
  XXX=            107.8411  YYY=             40.3658  ZZZ=             -1.7579  XYY=              6.1007
  XXY=             27.4059  XXZ=             10.0065  XZZ=             -5.7171  YZZ=            -17.1677
  YYZ=              7.9516  XYZ=              0.2399
 Hexadecapole moment (field-independent basis, Debye-Ang**3):
 XXXX=          -1428.6421 YYYY=           -996.0222 ZZZZ=           -321.4769 XXXY=             54.8259
 XXXZ=           -126.0960 YYYX=            -79.5263 YYYZ=            -42.0224 ZZZX=            -27.3493
 ZZZY=            -13.6195 XXYY=           -511.1838 XXZZ=           -333.3067 YYZZ=           -235.1377
 XXYZ=             -0.9990 YYXZ=            -14.9739 ZZXY=             -6.1165
 N-N= 1.140508821588D+03 E-N=-4.255533052323D+03  KE= 8.334403705531D+02
  Exact polarizability:   0.000   0.000   0.000   0.000   0.000   0.000
 Approx polarizability: 140.334   7.283 146.182  -8.200   5.754 123.936
 Calling FoFJK, ICntrl=    100147 FMM=F ISym2X=0 I1Cent= 0 IOpClX= 0 NMat=1 NMatS=1 NMatT=0.
 ***** Axes restored to original set *****
 -------------------------------------------------------------------
 Center     Atomic                   Forces (Hartrees/Bohr)
 Number     Number              X              Y              Z
 -------------------------------------------------------------------
      1        6          -0.062022873    0.014399306    0.008419775
      2        6          -0.022459619   -0.020020821   -0.016403831
      3        6           0.030129513   -0.007786183    0.020667677
      4        6           0.092510943    0.060936313    0.048639143
      5        1           0.011115100    0.004694490   -0.019024532
      6        1           0.011511512    0.002099999    0.011219792
      7        1           0.017936052   -0.016090640   -0.002089033
      8        1          -0.016004608   -0.006482216   -0.011484454
      9        6          -0.054795260   -0.082441888   -0.005944809
     10        8           0.047092163    0.042782147   -0.022104748
     11        6          -0.000321967   -0.019123284    0.005748143
     12        1           0.009758410    0.013223392    0.009902182
     13        1          -0.011420074    0.011516741   -0.013501978
     14        8           0.009616784   -0.010245956   -0.007694925
     15        1          -0.004089819    0.004919568    0.004159858
     16        8           0.000087743    0.019875615    0.019265172
     17        1           0.002984250   -0.001842013   -0.004072582
     18        8           0.005665131    0.006633191   -0.018879906
     19        1          -0.004013109   -0.000964622   -0.006679139
     20        8          -0.001483163   -0.028940139    0.032733996
     21        1          -0.001518128   -0.001323789   -0.010126350
     22        8           0.023251503   -0.051410249    0.128646547
     23        1          -0.014790151    0.030048675   -0.005660078
     24        1           0.025398760   -0.021130714   -0.007319267
     25        1          -0.045270675    0.011220650   -0.092633502
     26        8           0.000904341    0.039901237    0.003535442
     27        1           0.002793141    0.009149664   -0.007882643
     28        1          -0.000544320   -0.002737709   -0.014044700
     29        8          -0.024628775   -0.016095103   -0.018397207
     30        1          -0.027392806    0.015234338   -0.008994041
 -------------------------------------------------------------------
 Cartesian Forces:  Max     0.128646547 RMS     0.029691644

 GradGradGradGradGradGradGradGradGradGradGradGradGradGradGradGradGradGrad
 Berny optimization.
 Search for a saddle point.
 Step number   1 out of a maximum of  180
 All quantities printed in internal units (Hartrees-Bohrs-Radians)
 Swapping is turned off.
 Second derivative matrix not updated -- analytic derivatives used.
 ITU=  0
     Eigenvalues ---   -0.15467  -0.02336  -0.01617  -0.01428  -0.00905
     Eigenvalues ---   -0.00642  -0.00534  -0.00294  -0.00225  -0.00169
     Eigenvalues ---   -0.00008   0.00105   0.00246   0.00360   0.00492
     Eigenvalues ---    0.00737   0.01332   0.01636   0.01924   0.02173
     Eigenvalues ---    0.02631   0.02671   0.03006   0.03497   0.03759
     Eigenvalues ---    0.04012   0.04362   0.04455   0.04794   0.04985
     Eigenvalues ---    0.05415   0.05620   0.05879   0.05997   0.06192
     Eigenvalues ---    0.06429   0.07048   0.07365   0.07884   0.08889
     Eigenvalues ---    0.09338   0.10796   0.11031   0.12024   0.12565
     Eigenvalues ---    0.13859   0.14267   0.14806   0.16146   0.16852
     Eigenvalues ---    0.17176   0.18468   0.19306   0.20355   0.22485
     Eigenvalues ---    0.24989   0.26649   0.27702   0.29768   0.34926
     Eigenvalues ---    0.35379   0.39692   0.45402   0.47981   0.55126
     Eigenvalues ---    0.57604   0.59499   0.61842   0.66937   0.69801
     Eigenvalues ---    0.81629   0.86719   0.88637   0.90747   0.95553
     Eigenvalues ---    0.96001   0.98678   1.04558   1.11035   1.12323
     Eigenvalues ---    1.13270   1.15695   1.25711   1.29154
 Eigenvectors required to have negative eigenvalues:
                          Y24       Z23       X23       X10       Z9
   1                    0.48251   0.43782  -0.31900  -0.27147  -0.25941
                          Z10       X9        X22       Y22       Y9
   1                    0.24044   0.21736   0.21454  -0.15986  -0.15810
 RFO step:  Lambda0=2.429130157D-03 Lambda=-1.58885716D-01.
 Linear search not attempted -- option 19 set.
 Maximum step size (   0.300) exceeded in Quadratic search.
    -- Step size scaled by   0.258
 B after Tr=    -0.000193   -0.003988    0.000833
         Rot=    1.000000    0.000345   -0.000289   -0.000247 Ang=   0.06 deg.
 Variable       Old X    -DE/DX   Delta X   Delta X   Delta X     New X
                                 (Linear)    (Quad)   (Total)
    X1       -0.74177  -0.06202   0.00000  -0.02232  -0.02109  -0.76286
    Y1       -0.28945   0.01440   0.00000   0.00359   0.00075  -0.28870
    Z1        2.20490   0.00842   0.00000   0.00292   0.00439   2.20930
    X2        2.56751  -0.02246   0.00000   0.01344   0.01214   2.57965
    Y2        1.21706  -0.02002   0.00000  -0.01671  -0.02004   1.19702
    Z2       -0.89066  -0.01640   0.00000   0.00355   0.00206  -0.88860
    X3        0.54262   0.03013   0.00000   0.01196   0.01139   0.55401
    Y3        2.00727  -0.00779   0.00000  -0.00939  -0.01238   1.99489
    Z3        1.03618   0.02067   0.00000   0.00518   0.00432   1.04050
    X4        2.60821   0.09251   0.00000   0.02752   0.02736   2.63557
    Y4       -1.67903   0.06094   0.00000  -0.00508  -0.00872  -1.68775
    Z4       -1.38892   0.04864   0.00000   0.01216   0.01263  -1.37629
    X5        3.68866   0.01112   0.00000   0.01863   0.01765   3.70631
    Y5       -2.00295   0.00469   0.00000  -0.00061  -0.00489  -2.00784
    Z5       -3.06708  -0.01902   0.00000  -0.00508  -0.00501  -3.07209
    X6        4.40099   0.01151   0.00000   0.01306   0.01171   4.41270
    Y6        1.91997   0.00210   0.00000  -0.01894  -0.02101   1.89896
    Z6       -0.40817   0.01122   0.00000   0.04098   0.03794  -0.37022
    X7        0.41584   0.01794   0.00000   0.00357   0.00605   0.42189
    Y7       -1.27263  -0.01609   0.00000  -0.01236  -0.01370  -1.28634
    Z7        3.53975  -0.00209   0.00000  -0.01408  -0.01261   3.52714
    X8       -0.73872  -0.01600   0.00000  -0.00176  -0.00348  -0.74220
    Y8        3.31392  -0.00648   0.00000  -0.02011  -0.02435   3.28957
    Z8        0.17635  -0.01148   0.00000  -0.01288  -0.01389   0.16246
    X9        0.33377  -0.05480   0.00000  -0.00015  -0.00005   0.33371
    Y9       -2.84922  -0.08244   0.00000  -0.01893  -0.02409  -2.87331
    Z9       -1.91685  -0.00594   0.00000  -0.03058  -0.02796  -1.94481
   X10       -2.01110   0.04709   0.00000   0.01223   0.01316  -1.99794
   Y10       -1.93413   0.04278   0.00000   0.01745   0.01268  -1.92145
   Z10        0.31447  -0.02210   0.00000  -0.01363  -0.01032   0.30416
   X11       -2.96668  -0.00032   0.00000  -0.00462  -0.00294  -2.96962
   Y11        0.67854  -0.01912   0.00000   0.00092  -0.00190   0.67664
   Z11        3.81174   0.00575   0.00000   0.00518   0.00727   3.81900
   X12       -2.26973   0.00976   0.00000   0.00666   0.00855  -2.26118
   Y12        1.91209   0.01322   0.00000   0.01928   0.01780   1.92989
   Z12        5.25435   0.00990   0.00000  -0.00281  -0.00201   5.25235
   X13       -4.26237  -0.01142   0.00000  -0.01203  -0.01154  -4.27391
   Y13        1.68646   0.01152   0.00000  -0.00089  -0.00518   1.68129
   Z13        2.63116  -0.01350   0.00000  -0.00504  -0.00289   2.62826
   X14       -4.23246   0.00962   0.00000   0.01699   0.02037  -4.21208
   Y14       -1.41822  -0.01025   0.00000  -0.00309  -0.00572  -1.42394
   Z14        4.95360  -0.00769   0.00000   0.01309   0.01734   4.97094
   X15       -5.35816  -0.00409   0.00000  -0.01673  -0.01292  -5.37108
   Y15       -0.81696   0.00492   0.00000   0.00619   0.00386  -0.81310
   Z15        6.24293   0.00416   0.00000  -0.01553  -0.01103   6.23190
   X16        3.85045   0.00009   0.00000  -0.01450  -0.01283   3.83762
   Y16       -3.02893   0.01988   0.00000  -0.04061  -0.04230  -3.07123
   Z16        0.59529   0.01927   0.00000   0.00352   0.00425   0.59954
   X17        5.45672   0.00298   0.00000   0.03794   0.03953   5.49625
   Y17       -3.63090  -0.00184   0.00000   0.05975   0.05849  -3.57241
   Z17        0.00486  -0.00407   0.00000   0.03417   0.03429   0.03915
   X18        1.93791   0.00567   0.00000   0.10276   0.09951   2.03742
   Y18        2.37070   0.00663   0.00000  -0.00187  -0.00712   2.36359
   Z18       -3.25184  -0.01888   0.00000  -0.01788  -0.01986  -3.27170
   X19        1.27548  -0.00401   0.00000  -0.09425  -0.09752   1.17796
   Y19        1.11536  -0.00096   0.00000   0.04127   0.03487   1.15023
   Z19       -4.38161  -0.00668   0.00000   0.04449   0.04384  -4.33777
   X20        1.75020  -0.00148   0.00000   0.00242   0.00232   1.75252
   Y20        3.38154  -0.02894   0.00000  -0.01192  -0.01294   3.36859
   Z20        3.02506   0.03273   0.00000   0.01195   0.00944   3.03450
   X21        1.45268  -0.00152   0.00000  -0.00201  -0.00313   1.44955
   Y21        5.15711  -0.00132   0.00000  -0.01020  -0.01155   5.14555
   Z21        2.80162  -0.01013   0.00000  -0.01724  -0.02080   2.78082
   X22       -1.87937   0.02325   0.00000   0.04098   0.04459  -1.83478
   Y22       -6.05863  -0.05141   0.00000  -0.01411  -0.01804  -6.07668
   Z22        1.30912   0.12865   0.00000   0.08409   0.09018   1.39930
   X23       -0.12218  -0.01479   0.00000  -0.03124  -0.02838  -0.15056
   Y23       -6.33588   0.03005   0.00000   0.02579   0.02166  -6.31422
   Z23       -0.11799  -0.00566   0.00000   0.01813   0.02341  -0.09459
   X24       -2.58054   0.02540   0.00000   0.03800   0.04045  -2.54009
   Y24       -3.93015  -0.02113   0.00000  -0.00222  -0.00661  -3.93676
   Z24        1.22771  -0.00732   0.00000  -0.00727  -0.00225   1.22546
   X25       -0.97365  -0.04527   0.00000  -0.02914  -0.02433  -0.99798
   Y25       -6.29915   0.01122   0.00000   0.01402   0.01181  -6.28734
   Z25        3.37410  -0.09263   0.00000  -0.07905  -0.07330   3.30081
   X26        1.63954   0.00090   0.00000  -0.10619  -0.10975   1.52979
   Y26        6.16425   0.03990   0.00000   0.04352   0.03992   6.20417
   Z26       -0.51798   0.00354   0.00000  -0.01175  -0.01609  -0.53408
   X27        1.73435   0.00279   0.00000   0.03709   0.03265   1.76700
   Y27        7.97567   0.00915   0.00000   0.03185   0.02838   8.00405
   Z27       -0.48854  -0.00788   0.00000  -0.01850  -0.02422  -0.51277
   X28        1.86252  -0.00054   0.00000   0.03626   0.03205   1.89457
   Y28        5.57374  -0.00274   0.00000  -0.01058  -0.01516   5.55858
   Z28       -2.21877  -0.01404   0.00000   0.01722   0.01311  -2.20566
   X29        0.86086  -0.02463   0.00000  -0.07132  -0.07001   0.79085
   Y29       -5.30643  -0.01610   0.00000  -0.00965  -0.01458  -5.32101
   Z29       -1.88327  -0.01840   0.00000  -0.05520  -0.05115  -1.93442
   X30       -0.40777  -0.02739   0.00000  -0.02029  -0.02151  -0.42928
   Y30       -2.34364   0.01523   0.00000   0.04685   0.04006  -2.30358
   Z30       -3.72877  -0.00899   0.00000  -0.01375  -0.01108  -3.73985
         Item               Value     Threshold  Converged?
 Maximum Force            0.128647     0.000450     NO 
 RMS     Force            0.029692     0.000300     NO 
 Maximum Displacement     0.109747     0.001800     NO 
 RMS     Displacement     0.031460     0.001200     NO 
 Predicted change in Energy=-3.880969D-02
 GradGradGradGradGradGradGradGradGradGradGradGradGradGradGradGradGradGrad

                          Input orientation:                          
 ---------------------------------------------------------------------
 Center     Atomic      Atomic             Coordinates (Angstroms)
 Number     Number       Type             X           Y           Z
 ---------------------------------------------------------------------
      1          6           0       -0.403688   -0.152773    1.169110
      2          6           0        1.365091    0.633437   -0.470225
      3          6           0        0.293169    1.055649    0.550609
      4          6           0        1.394686   -0.893120   -0.728302
      5          1           0        1.961297   -1.062501   -1.625678
      6          1           0        2.335101    1.004885   -0.195914
      7          1           0        0.223255   -0.680700    1.866483
      8          1           0       -0.392758    1.740767    0.085968
      9          6           0        0.176594   -1.520490   -1.029147
     10          8           0       -1.057266   -1.016788    0.160954
     11          6           0       -1.571454    0.358063    2.020930
     12          1           0       -1.196563    1.021255    2.779423
     13          1           0       -2.261657    0.889698    1.390817
     14          8           0       -2.228938   -0.753518    2.630510
     15          1           0       -2.842253   -0.430276    3.297780
     16          8           0        2.030781   -1.625224    0.317262
     17          1           0        2.908492   -1.890437    0.020717
     18          8           0        1.078154    1.250758   -1.731309
     19          1           0        0.623348    0.608674   -2.295449
     20          8           0        0.927392    1.782582    1.605789
     21          1           0        0.767069    2.722910    1.471546
     22          8           0       -0.970923   -3.215640    0.740476
     23          1           0       -0.079672   -3.341342   -0.050053
     24          1           0       -1.344158   -2.083245    0.648483
     25          1           0       -0.528108   -3.327117    1.746712
     26          8           0        0.809532    3.283103   -0.282621
     27          1           0        0.935054    4.235560   -0.271345
     28          1           0        1.002564    2.941475   -1.167183
     29          8           0        0.418499   -2.815758   -1.023650
     30          1           0       -0.227163   -1.219002   -1.979041
 ---------------------------------------------------------------------
                    Distance matrix (angstroms):
                    1          2          3          4          5
     1  C    0.000000
     2  C    2.536558   0.000000
     3  C    1.525922   1.539280   0.000000
     4  C    2.717064   1.548501   2.578111   0.000000
     5  H    3.772480   2.136993   3.464886   1.074720   0.000000
     6  H    3.271763   1.074309   2.174709   2.184089   2.541268
     7  H    1.076148   2.913923   2.179752   2.854869   3.919407
     8  H    2.181470   2.150712   1.075069   3.285628   4.040993
     9  C    2.653245   2.522760   3.024188   1.402800   1.936690
    10  O    1.479886   2.998240   2.504097   2.611156   3.507972
    11  C    1.533045   3.860697   2.474932   4.233405   5.272199
    12  H    2.144785   4.156042   2.681063   4.762724   5.806810
    13  H    2.141949   4.084415   2.694555   4.586714   5.544697
    14  O    2.414150   4.945225   3.736322   4.942849   5.980692
    15  H    3.248822   5.747269   4.425585   5.863038   6.907550
    16  O    2.969916   2.482907   3.203253   1.426112   2.023981
    17  H    3.912649   2.998842   3.974937   1.961448   2.072022
    18  O    3.546574   1.433091   2.421036   2.387976   2.478359
    19  H    3.692936   1.970340   2.899802   2.303540   2.243106
    20  O    2.389155   2.412871   1.429711   3.581302   4.427847
    21  H    3.119566   2.914448   1.962770   4.278891   5.034711
    22  O    3.144302   4.662419   4.458463   3.625950   4.339655
    23  H    3.429041   4.250030   4.453464   2.937268   3.441114
    24  H    2.209583   3.996486   3.541621   3.288343   4.140019
    25  H    3.228864   4.917825   4.616687   3.968271   4.764309
    26  O    3.922330   2.713775   2.433609   4.240505   4.691976
    27  H    4.808805   3.633149   3.346559   5.169471   5.563887
    28  H    4.124340   2.438077   2.647714   3.879497   4.142609
    29  O    3.546220   3.619290   4.181124   2.176398   2.411758
    30  H    3.328492   2.871120   3.441499   2.073872   2.222322
                    6          7          8          9         10
     6  H    0.000000
     7  H    3.399201   0.000000
     8  H    2.839400   3.068095   0.000000
     9  C    3.425048   3.015311   3.493343   0.000000
    10  O    3.965182   2.159055   2.837482   1.786747   0.000000
    11  C    4.538056   2.079390   2.654293   3.985926   2.369412
    12  H    4.617960   2.397081   2.901465   4.780297   3.321055
    13  H    4.864275   2.977784   2.433050   4.196463   2.568620
    14  O    5.648992   2.569493   4.008455   4.446113   2.746058
    15  H    6.408634   3.392443   4.585760   5.387421   3.656481
    16  O    2.696931   2.561125   4.154147   2.293860   3.151294
    17  H    2.959493   3.475746   4.907968   2.949974   4.063270
    18  O    1.999452   4.171988   2.388762   2.997608   3.644508
    19  H    2.737724   4.375413   2.825820   2.517230   3.391239
    20  O    2.415075   2.575175   2.013553   4.291487   3.723289
    21  H    2.861950   3.469333   2.056606   4.960703   4.362475
    22  O    5.442376   3.019913   5.032756   2.705900   2.275577
    23  H    4.974143   3.293007   5.093561   2.083219   2.530566
    24  H    4.877141   2.430523   3.980535   2.333200   1.207196
    25  H    5.544187   2.753619   5.334777   3.386134   2.851711
    26  O    2.743202   4.546878   1.990014   4.902287   4.708583
    27  H    3.521801   5.408010   2.848639   5.855052   5.634126
    28  H    2.543502   4.788591   2.226883   4.539869   4.655609
    29  O    4.353829   3.598536   4.759340   1.317675   2.611026
    30  H    3.832808   3.909054   3.612744   1.075274   2.304244
                   11         12         13         14         15
    11  C    0.000000
    12  H    1.075025   0.000000
    13  H    1.075201   1.754981   0.000000
    14  O    1.428106   2.058591   2.058657   0.000000
    15  H    1.966407   2.254758   2.390802   0.962233   0.000000
    16  O    4.451068   4.845807   5.089438   4.925058   5.835911
    17  H    5.396899   5.739328   6.027999   5.873397   6.778074
    18  O    4.679382   5.057045   4.586106   5.829189   6.594483
    19  H    4.848823   5.407090   4.689433   5.852877   6.661383
    20  O    2.906170   2.543269   3.318657   4.176634   4.687195
    21  H    3.370906   2.908955   3.541237   4.733372   5.128832
    22  O    3.843378   4.707387   4.352325   3.349160   4.218997
    23  H    4.494439   5.318425   4.973818   4.301348   5.226294
    24  H    2.809850   3.768370   3.198633   2.545474   3.463434
    25  H    3.839833   4.519034   4.573115   3.208945   4.019051
    26  O    4.419423   4.303079   4.238040   5.832062   6.320126
    27  H    5.154812   4.917594   4.916964   6.581984   6.984034
    28  H    4.843929   4.909084   4.626909   6.206291   6.788757
    29  O    4.827268   5.638658   5.171391   4.961314   5.915893
    30  H    4.504889   5.348034   4.465616   5.046953   5.941854
                   16         17         18         19         20
    16  O    0.000000
    17  H    0.963667   0.000000
    18  O    3.657241   4.035695   0.000000
    19  H    3.714488   4.102690   0.968181   0.000000
    20  O    3.806693   4.464110   3.382571   4.085359   0.000000
    21  H    4.672859   5.289005   3.538684   4.322141   0.963298
    22  O    3.423267   4.162221   5.500649   5.136528   5.416141
    23  H    2.744813   3.322539   5.025392   4.597680   5.478192
    24  H    3.421944   4.303057   4.758842   4.447948   4.584865
    25  H    3.389348   4.105281   5.969392   5.758070   5.314824
    26  O    5.093426   5.591348   2.510235   3.352419   2.414860
    27  H    5.991315   6.442639   3.325811   4.165149   3.088817
    28  H    4.910758   5.328325   1.783950   2.618922   3.006336
    29  O    2.411404   2.854294   4.180009   3.658711   5.321433
    30  H    3.245972   3.779179   2.804450   2.040559   4.815964
                   21         22         23         24         25
    21  H    0.000000
    22  O    6.230686   0.000000
    23  H    6.309310   1.197942   0.000000
    24  H    5.313552   1.195862   1.915642   0.000000
    25  H    6.193224   1.104999   1.851935   1.849125   0.000000
    26  O    1.841935   6.815454   6.687903   5.856878   7.042903
    27  H    2.313871   7.757378   7.647751   6.779984   7.962881
    28  H    2.658218   6.741208   6.472481   5.835371   7.080183
    29  O    6.084764   2.280908   1.213385   2.537629   2.971945
    30  H    5.332328   3.454781   2.871772   2.983031   4.291381
                   26         27         28         29         30
    26  O    0.000000
    27  H    0.960758   0.000000
    28  H    0.967689   1.575354   0.000000
    29  O    6.156147   7.110125   5.788564   0.000000
    30  H    4.921537   5.832600   4.413719   1.969589   0.000000
 Stoichiometry    C6H16O8
 Framework group  C1[X(C6H16O8)]
 Deg. of freedom    84
 Full point group                 C1      NOp   1
 Largest Abelian subgroup         C1      NOp   1
 Largest concise Abelian subgroup C1      NOp   1
                         Standard orientation:                         
 ---------------------------------------------------------------------
 Center     Atomic      Atomic             Coordinates (Angstroms)
 Number     Number       Type             X           Y           Z
 ---------------------------------------------------------------------
      1          6           0       -0.234132    0.996600    0.175150
      2          6           0        1.312305   -1.012831    0.244752
      3          6           0        1.211749    0.515722    0.093767
      4          6           0       -0.067847   -1.712082    0.308658
      5          1           0        0.088915   -2.761859    0.140082
      6          1           0        1.929782   -1.284047    1.080996
      7          1           0       -0.630948    0.949452    1.174355
      8          1           0        1.702053    0.818273   -0.813888
      9          6           0       -1.000282   -1.392001   -0.689321
     10          8           0       -1.101708    0.384108   -0.855495
     11          6           0       -0.257326    2.489711   -0.171704
     12          1           0        0.370257    3.025869    0.517029
     13          1           0        0.112670    2.625283   -1.172094
     14          8           0       -1.598668    2.971523   -0.081448
     15          1           0       -1.592192    3.932818   -0.123415
     16          8           0       -0.704588   -1.578635    1.577732
     17          1           0       -0.627260   -2.413421    2.052923
     18          8           0        1.985654   -1.552044   -0.899626
     19          1           0        1.323264   -1.891929   -1.518570
     20          8           0        1.937880    1.129676    1.161412
     21          1           0        2.786158    1.434423    0.821565
     22          8           0       -3.217334    0.039512   -0.091539
     23          1           0       -2.931592   -1.116244    0.041294
     24          1           0       -2.263902    0.566607   -0.584716
     25          1           0       -3.329570    0.463015    0.922893
     26          8           0        3.585055    0.319032   -0.407416
     27          1           0        4.514608    0.559207   -0.443527
     28          1           0        3.459058   -0.549917   -0.814201
     29          8           0       -2.135283   -1.954587   -0.326642
     30          1           0       -0.706169   -1.736929   -1.664378
 ---------------------------------------------------------------------
 Rotational constants (GHZ):      0.7883469      0.5735707      0.3917206
 Standard basis: 6-31G(d) (6D, 7F)
 There are   242 symmetry adapted cartesian basis functions of A   symmetry.
 There are   242 symmetry adapted basis functions of A   symmetry.
   242 basis functions,   456 primitive gaussians,   242 cartesian basis functions
    58 alpha electrons       58 beta electrons
       nuclear repulsion energy      1138.2748443257 Hartrees.
 NAtoms=   30 NActive=   30 NUniq=   30 SFac= 1.00D+00 NAtFMM=   60 NAOKFM=F Big=F
 Integral buffers will be    131072 words long.
 Raffenetti 2 integral format.
 Two-electron integral symmetry is turned on.
 One-electron integrals computed using PRISM.
 NBasis=   242 RedAO= T EigKep=  1.22D-03  NBF=   242
 NBsUse=   242 1.00D-06 EigRej= -1.00D+00 NBFU=   242
 Initial guess from the checkpoint file:  "/scratch/10451542.yak.local/Gau-1724.chk"
 B after Tr=     0.000000   -0.000000   -0.000000
         Rot=    0.999997    0.000907    0.001558    0.001334 Ang=   0.26 deg.
 ExpMin= 1.61D-01 ExpMax= 5.48D+03 ExpMxC= 8.25D+02 IAcc=1 IRadAn=         1 AccDes= 0.00D+00
 Harris functional with IExCor=  402 and IRadAn=       1 diagonalized for initial guess.
 HarFok:  IExCor=  402 AccDes= 0.00D+00 IRadAn=         1 IDoV= 1 UseB2=F ITyADJ=14
 ICtDFT=  3500011 ScaDFX=  1.000000  1.000000  1.000000  1.000000
 FoFCou: FMM=F IPFlag=           0 FMFlag=      100000 FMFlg1=           0
         NFxFlg=           0 DoJE=T BraDBF=F KetDBF=T FulRan=T
         wScrn=  0.000000 ICntrl=     500 IOpCl=  0 I1Cent=   200000004 NGrid=           0
         NMat0=    1 NMatS0=      1 NMatT0=    0 NMatD0=    1 NMtDS0=    0 NMtDT0=    0
 Petite list used in FoFCou.
 Requested convergence on RMS density matrix=1.00D-08 within 128 cycles.
 Requested convergence on MAX density matrix=1.00D-06.
 Requested convergence on             energy=1.00D-06.
 No special actions if energy rises.
 Integral accuracy reduced to 1.0D-05 until final iterations.
 Initial convergence to 1.0D-05 achieved.  Increase integral accuracy.
 SCF Done:  E(RB3LYP) =  -839.843844553     A.U. after   12 cycles
            NFock= 12  Conv=0.65D-08     -V/T= 2.0078
 Calling FoFJK, ICntrl=      2127 FMM=F ISym2X=0 I1Cent= 0 IOpClX= 0 NMat=1 NMatS=1 NMatT=0.
 ***** Axes restored to original set *****
 -------------------------------------------------------------------
 Center     Atomic                   Forces (Hartrees/Bohr)
 Number     Number              X              Y              Z
 -------------------------------------------------------------------
      1        6          -0.049156791    0.010874361    0.007042675
      2        6          -0.016723539   -0.015550338   -0.012773061
      3        6           0.023596682   -0.006709769    0.017107339
      4        6           0.073298299    0.046882269    0.037721149
      5        1           0.010726736    0.004551645   -0.015486391
      6        1           0.008826990    0.001101048    0.010255446
      7        1           0.014115442   -0.013618765   -0.003370256
      8        1          -0.012860756   -0.007180247   -0.009321180
      9        6          -0.041698947   -0.065320387   -0.005920880
     10        8           0.039511863    0.033116771   -0.018620651
     11        6          -0.001400555   -0.014982293    0.005085730
     12        1           0.008114294    0.010803410    0.007594549
     13        1          -0.009793716    0.009541167   -0.010833571
     14        8           0.007386719   -0.008632382   -0.005084381
     15        1          -0.003130488    0.003611585    0.002672841
     16        8           0.003366188    0.016355024    0.016056080
     17        1           0.000897652   -0.000447676   -0.001413444
     18        8           0.003516202    0.000009370   -0.019101876
     19        1          -0.002376146    0.004903751   -0.001966942
     20        8          -0.002302519   -0.023881520    0.027867534
     21        1          -0.000210447   -0.003067154   -0.009468619
     22        8           0.018598652   -0.040113330    0.101491243
     23        1          -0.014553865    0.025517937   -0.002193987
     24        1           0.024341247   -0.018500022   -0.005844741
     25        1          -0.035939463    0.008879402   -0.073317293
     26        8          -0.000772260    0.036342483   -0.001662559
     27        1           0.003354486    0.008026055   -0.007657325
     28        1          -0.000865962   -0.001212009   -0.007023471
     29        8          -0.023839149   -0.015318773   -0.015245074
     30        1          -0.024026850    0.014018389   -0.006588883
 -------------------------------------------------------------------
 Cartesian Forces:  Max     0.101491243 RMS     0.023815520

 GradGradGradGradGradGradGradGradGradGradGradGradGradGradGradGradGradGrad
 Berny optimization.
 Search for a saddle point.
 Step number   2 out of a maximum of  180
 All quantities printed in internal units (Hartrees-Bohrs-Radians)
 Swapping is turned off.
 Update second derivatives using D2CorN and points    1    2
 ITU=  0  0
     Eigenvalues ---   -0.15455  -0.02215  -0.01548  -0.01314  -0.00907
     Eigenvalues ---   -0.00636  -0.00535  -0.00294  -0.00224  -0.00167
     Eigenvalues ---   -0.00010   0.00104   0.00248   0.00360   0.00491
     Eigenvalues ---    0.00735   0.01330   0.01635   0.01925   0.02174
     Eigenvalues ---    0.02626   0.02671   0.03006   0.03499   0.03757
     Eigenvalues ---    0.04011   0.04358   0.04451   0.04795   0.04990
     Eigenvalues ---    0.05418   0.05612   0.05879   0.05986   0.06187
     Eigenvalues ---    0.06428   0.07047   0.07364   0.08032   0.09051
     Eigenvalues ---    0.09408   0.10847   0.11041   0.12118   0.12670
     Eigenvalues ---    0.13844   0.14282   0.15162   0.16397   0.16894
     Eigenvalues ---    0.17317   0.18483   0.19309   0.20376   0.22729
     Eigenvalues ---    0.25007   0.26696   0.27709   0.29784   0.35051
     Eigenvalues ---    0.35412   0.39726   0.45399   0.48020   0.55116
     Eigenvalues ---    0.57606   0.59500   0.61839   0.66945   0.69800
     Eigenvalues ---    0.81617   0.86684   0.88652   0.90782   0.95525
     Eigenvalues ---    0.95997   0.98689   1.04556   1.11010   1.12318
     Eigenvalues ---    1.13264   1.15687   1.25673   1.29164
 Eigenvectors required to have negative eigenvalues:
                          Y24       Z23       X23       X10       Z9
   1                    0.48282   0.43797  -0.31884  -0.27115  -0.25886
                          Z10       X9        X22       Y22       Y9
   1                    0.24086   0.21746   0.21218  -0.16000  -0.15845
 RFO step:  Lambda0=1.588457782D-03 Lambda=-1.16353514D-01.
 Linear search not attempted -- option 19 set.
 Maximum step size (   0.300) exceeded in Quadratic search.
    -- Step size scaled by   0.265
 B after Tr=     0.004757    0.000760    0.004561
         Rot=    1.000000    0.000272    0.000481   -0.000219 Ang=   0.07 deg.
 Variable       Old X    -DE/DX   Delta X   Delta X   Delta X     New X
                                 (Linear)    (Quad)   (Total)
    X1       -0.76286  -0.04916   0.00000  -0.02636  -0.02360  -0.78646
    Y1       -0.28870   0.01087   0.00000  -0.00127   0.00034  -0.28835
    Z1        2.20930   0.00704   0.00000  -0.00309   0.00087   2.21017
    X2        2.57965  -0.01672   0.00000  -0.02276  -0.01766   2.56198
    Y2        1.19702  -0.01555   0.00000   0.01169   0.01308   1.21010
    Z2       -0.88860  -0.01277   0.00000  -0.01929  -0.01293  -0.90153
    X3        0.55401   0.02360   0.00000  -0.00589  -0.00302   0.55099
    Y3        1.99489  -0.00671   0.00000  -0.00095   0.00062   1.99551
    Z3        1.04050   0.01711   0.00000   0.00938   0.01338   1.05388
    X4        2.63557   0.07330   0.00000   0.01547   0.02228   2.65786
    Y4       -1.68775   0.04688   0.00000   0.02813   0.02930  -1.65845
    Z4       -1.37629   0.03772   0.00000  -0.00371   0.00431  -1.37198
    X5        3.70631   0.01073   0.00000   0.01374   0.02233   3.72865
    Y5       -2.00784   0.00455   0.00000   0.02463   0.02534  -1.98249
    Z5       -3.07209  -0.01549   0.00000  -0.01479  -0.00557  -3.07766
    X6        4.41270   0.00883   0.00000  -0.01669  -0.01240   4.40031
    Y6        1.89896   0.00110   0.00000   0.01791   0.02038   1.91934
    Z6       -0.37022   0.01026   0.00000  -0.01910  -0.01136  -0.38158
    X7        0.42189   0.01412   0.00000   0.00371   0.00566   0.42755
    Y7       -1.28634  -0.01362   0.00000  -0.00768  -0.00482  -1.29116
    Z7        3.52714  -0.00337   0.00000  -0.02025  -0.01458   3.51256
    X8       -0.74220  -0.01286   0.00000  -0.01406  -0.01089  -0.75310
    Y8        3.28957  -0.00718   0.00000  -0.00332  -0.00280   3.28677
    Z8        0.16246  -0.00932   0.00000  -0.00094   0.00110   0.16356
    X9        0.33371  -0.04170   0.00000   0.01154   0.01945   0.35316
    Y9       -2.87331  -0.06532   0.00000  -0.03237  -0.03252  -2.90583
    Z9       -1.94481  -0.00592   0.00000  -0.01026  -0.00379  -1.94859
   X10       -1.99794   0.03951   0.00000   0.02035   0.02567  -1.97227
   Y10       -1.92145   0.03312   0.00000  -0.00091  -0.00086  -1.92231
   Z10        0.30416  -0.01862   0.00000  -0.01610  -0.01240   0.29176
   X11       -2.96962  -0.00140   0.00000  -0.01487  -0.01408  -2.98370
   Y11        0.67664  -0.01498   0.00000  -0.00757  -0.00604   0.67060
   Z11        3.81900   0.00509   0.00000  -0.00112   0.00021   3.81921
   X12       -2.26118   0.00811   0.00000   0.00336   0.00223  -2.25895
   Y12        1.92989   0.01080   0.00000  -0.01022  -0.00759   1.92230
[...]
 Linear search not attempted -- option 19 set.
 Maximum step size (   0.300) exceeded in Quadratic search.
    -- Step size scaled by   0.296
 B after Tr=    -0.001328   -0.001109    0.002956
         Rot=    1.000000   -0.000139   -0.000391   -0.000257 Ang=  -0.06 deg.
 Variable       Old X    -DE/DX   Delta X   Delta X   Delta X     New X
                                 (Linear)    (Quad)   (Total)
    X1       -0.85961   0.00001   0.00000  -0.01630  -0.01588  -0.87549
    Y1       -0.40985  -0.00084   0.00000  -0.01450  -0.01660  -0.42645
    Z1        1.97375   0.00050   0.00000  -0.02546  -0.02194   1.95181
    X2        2.21929   0.00126   0.00000  -0.00735  -0.01027   2.20902
    Y2        1.50272  -0.00075   0.00000  -0.00075  -0.00043   1.50229
    Z2       -1.03354   0.00014   0.00000  -0.01693  -0.01528  -1.04882
    X3       -0.12374   0.00103   0.00000  -0.00577  -0.00764  -0.13139
    Y3        2.05446  -0.00058   0.00000  -0.00862  -0.00997   2.04449
    Z3        0.65314  -0.00118   0.00000  -0.00571  -0.00209   0.65105
    X4        2.90041  -0.00250   0.00000  -0.00771  -0.00949   2.89092
    Y4       -1.32567  -0.00386   0.00000   0.00236   0.00314  -1.32253
    Z4       -1.42511  -0.00040   0.00000  -0.01840  -0.01807  -1.44317
    X5        3.93369   0.00039   0.00000  -0.01333  -0.01646   3.91723
    Y5       -1.43886  -0.00027   0.00000  -0.00174   0.00007  -1.43879
    Z5       -3.23155  -0.00006   0.00000  -0.02072  -0.02122  -3.25278
    X6        3.84404   0.00027   0.00000  -0.00050  -0.00305   3.84099
    Y6        2.28059  -0.00047   0.00000  -0.00182  -0.00094   2.27965
    Z6       -0.02323  -0.00025   0.00000  -0.03066  -0.03008  -0.05331
    X7        0.82466  -0.00053   0.00000  -0.03520  -0.03367   0.79099
    Y7       -1.25800  -0.00007   0.00000  -0.01651  -0.01800  -1.27600
    Z7        2.82568   0.00065   0.00000  -0.00565  -0.00367   2.82202
    X8       -1.72165  -0.00016   0.00000  -0.00795  -0.01107  -1.73272
    Y8        2.55943   0.00063   0.00000   0.00757   0.00573   2.56517
    Z8       -0.59257  -0.00005   0.00000  -0.00772  -0.00270  -0.59527
    X9        0.71154   0.00117   0.00000  -0.00380  -0.00466   0.70687
    Y9       -3.30780   0.00037   0.00000  -0.00075  -0.00106  -3.30886
    Z9       -1.57387  -0.00155   0.00000  -0.00572  -0.00423  -1.57810
   X10       -1.71947   0.00054   0.00000  -0.00159  -0.00198  -1.72145
   Y10       -1.98046  -0.00110   0.00000  -0.01462  -0.01658  -1.99704
   Z10       -0.09170  -0.00004   0.00000  -0.03381  -0.03006  -0.12176
   X11       -2.85279  -0.00186   0.00000  -0.02541  -0.02350  -2.87628
   Y11       -0.24603   0.00062   0.00000   0.00167  -0.00202  -0.24805
   Z11        4.02502  -0.00003   0.00000  -0.04147  -0.03634   3.98868
   X12       -2.34993  -0.00025   0.00000  -0.04644  -0.04441  -2.39435
   Y12        1.31557  -0.00061   0.00000   0.05507   0.05129   1.36687
   Z12        5.28921  -0.00018   0.00000  -0.09144  -0.08624   5.20297
   X13       -4.73551   0.00222   0.00000  -0.03745  -0.03635  -4.77186
   Y13        0.11258   0.00021   0.00000  -0.06255  -0.06699   0.04559
   Z13        3.20485   0.00110   0.00000  -0.06860  -0.06190   3.14295
   X14       -2.82549  -0.00379   0.00000   0.01874   0.02298  -2.80251
   Y14       -2.62818   0.00332   0.00000   0.03805   0.03400  -2.59418
   Z14        5.36586   0.00494   0.00000   0.05313   0.05756   5.42341
   X15       -3.80478   0.00284   0.00000   0.02213   0.02743  -3.77735
   Y15       -2.43821  -0.00018   0.00000   0.08956   0.08458  -2.35363
   Z15        6.91695  -0.00636   0.00000   0.02242   0.02768   6.94463
   X16        4.46445   0.00618   0.00000   0.01752   0.01769   4.48214
   Y16       -2.01068  -0.00256   0.00000   0.03040   0.03143  -1.97925
   Z16        0.62531  -0.00005   0.00000  -0.01658  -0.01767   0.60764
   X17        4.27609  -0.00453   0.00000   0.02421   0.02540   4.30149
   Y17       -3.86114   0.00430   0.00000   0.03587   0.03678  -3.82436
   Z17        0.75329   0.00000   0.00000  -0.04815  -0.04961   0.70367
   X18        2.14457  -0.00035   0.00000  -0.02647  -0.03193   2.11264
   Y18        2.89577  -0.00221   0.00000   0.00142   0.00234   2.89811
   Z18       -3.36453  -0.00045   0.00000  -0.01510  -0.01300  -3.37753
   X19        0.56369   0.00111   0.00000  -0.02999  -0.03592   0.52777
   Y19        2.52344   0.00104   0.00000  -0.00435  -0.00401   2.51943
   Z19       -4.22358   0.00126   0.00000  -0.00820  -0.00496  -4.22854
   X20        0.34731  -0.00338   0.00000  -0.02499  -0.02640   0.32091
   Y20        3.95763  -0.00231   0.00000  -0.02803  -0.02966   3.92797
   Z20        2.44326   0.00629   0.00000   0.03715   0.04094   2.48420
   X21        0.98135   0.00377   0.00000   0.04613   0.04324   1.02459
   Y21        5.45048   0.00368   0.00000  -0.01808  -0.01910   5.43139
   Z21        1.57153  -0.00387   0.00000   0.01315   0.01681   1.58834
   X22       -2.92940   0.00326   0.00000   0.02189   0.02482  -2.90458
   Y22       -6.06693  -0.00001   0.00000   0.00569   0.00268  -6.06425
   Z22        1.40949   0.00653   0.00000   0.04669   0.05024   1.45972
   X23       -1.04394  -0.00248   0.00000  -0.00317  -0.00064  -1.04458
   Y23       -6.38509   0.00009   0.00000   0.00555   0.00370  -6.38139
   Z23        0.70355   0.00168   0.00000   0.03307   0.03507   0.73862
   X24       -2.74176  -0.00066   0.00000  -0.00409  -0.00284  -2.74460
   Y24       -3.95862  -0.00060   0.00000  -0.02677  -0.02948  -3.98811
   Z24        0.69151   0.00024   0.00000  -0.00836  -0.00437   0.68715
   X25       -2.82547   0.00065   0.00000   0.05475   0.05892  -2.76654
   Y25       -5.76845  -0.00059   0.00000   0.05536   0.05192  -5.71653
   Z25        3.25579  -0.00901   0.00000   0.01532   0.01886   3.27465
   X26        2.78567  -0.00596   0.00000   0.02040   0.01456   2.80024
   Y26        7.53485   0.00005   0.00000  -0.04235  -0.04179   7.49306
   Z26       -0.89769   0.00392   0.00000   0.06209   0.06493  -0.83276
   X27        4.13250   0.00194   0.00000   0.04431   0.03787   4.17037
   Y27        8.76944  -0.00326   0.00000  -0.04917  -0.04791   8.72153
   Z27       -0.89349  -0.00144   0.00000   0.08542   0.08753  -0.80596
   X28        3.15800  -0.00063   0.00000   0.03186   0.02565   3.18365
   Y28        6.24556   0.00153   0.00000   0.00071   0.00184   6.24740
   Z28       -2.16026  -0.00217   0.00000   0.02393   0.02613  -2.13413
   X29        1.26416   0.00051   0.00000   0.01438   0.01547   1.27963
   Y29       -5.45905   0.00374   0.00000   0.00703   0.00671  -5.45234
   Z29       -0.49432  -0.00204   0.00000   0.00098   0.00143  -0.49289
   X30       -0.18406  -0.00007   0.00000   0.00442   0.00213  -0.18193
   Y30       -3.38215   0.00072   0.00000  -0.01143  -0.01167  -3.39382
   Z30       -3.46000   0.00190   0.00000  -0.00591  -0.00375  -3.46376
         Item               Value     Threshold  Converged?
 Maximum Force            0.009015     0.000450     NO 
 RMS     Force            0.002534     0.000300     NO 
 Maximum Displacement     0.087528     0.001800     NO 
 RMS     Displacement     0.031479     0.001200     NO 
 Predicted change in Energy=-1.090119D-03
 GradGradGradGradGradGradGradGradGradGradGradGradGradGradGradGradGradGrad

                          Input orientation:                          
 ---------------------------------------------------------------------
 Center     Atomic      Atomic             Coordinates (Angstroms)
 Number     Number       Type             X           Y           Z
 ---------------------------------------------------------------------
      1          6           0       -0.463289   -0.225668    1.032853
      2          6           0        1.168962    0.794977   -0.555013
      3          6           0       -0.069526    1.081896    0.344523
      4          6           0        1.529809   -0.699851   -0.763694
      5          1           0        2.072909   -0.761376   -1.721295
      6          1           0        2.032567    1.206337   -0.028211
      7          1           0        0.418573   -0.675228    1.493347
      8          1           0       -0.916915    1.357429   -0.315003
      9          6           0        0.374062   -1.750975   -0.835092
     10          8           0       -0.910954   -1.056786   -0.064433
     11          6           0       -1.522064   -0.131262    2.110719
     12          1           0       -1.267033    0.723315    2.753294
     13          1           0       -2.525160    0.024124    1.663178
     14          8           0       -1.483025   -1.372781    2.869947
     15          1           0       -1.998889   -1.245487    3.674941
     16          8           0        2.371846   -1.047375    0.321551
     17          1           0        2.276251   -2.023765    0.372368
     18          8           0        1.117960    1.533613   -1.787311
     19          1           0        0.279286    1.333223   -2.237649
     20          8           0        0.169819    2.078594    1.314585
     21          1           0        0.542189    2.874165    0.840514
     22          8           0       -1.537040   -3.209065    0.772453
     23          1           0       -0.552769   -3.376886    0.390862
     24          1           0       -1.452377   -2.110415    0.363623
     25          1           0       -1.463991   -3.025055    1.732868
     26          8           0        1.481821    3.965155   -0.440676
     27          1           0        2.206863    4.615236   -0.426496
     28          1           0        1.684716    3.305980   -1.129333
     29          8           0        0.677152   -2.885252   -0.260824
     30          1           0       -0.096275   -1.795931   -1.832941
 ---------------------------------------------------------------------
                    Distance matrix (angstroms):
                    1          2          3          4          5
     1  C    0.000000
     2  C    2.495452   0.000000
     3  C    1.529239   1.557351   0.000000
     4  C    2.724862   1.551860   2.638303   0.000000
     5  H    3.782145   2.144661   3.500755   1.102607   0.000000
     6  H    3.066886   1.092040   2.138507   2.104104   2.596162
     7  H    1.091714   2.630659   2.155348   2.515888   3.616376
     8  H    2.128071   2.173669   1.108585   3.228031   3.925053
     9  C    2.552830   2.681824   3.100552   1.563877   2.156558
    10  O    1.447480   2.827675   2.334354   2.563922   3.425770
    11  C    1.513840   3.899445   2.588642   4.230777   5.291995
    12  H    2.122849   4.109027   2.713813   4.713484   5.777670
    13  H    2.170488   4.377342   2.981254   4.780860   5.763151
    14  O    2.393876   4.843817   3.794890   4.767951   5.839348
    15  H    3.221603   5.664917   4.497870   5.696570   6.777408
    16  O    3.036304   2.368450   3.239540   1.416882   2.084317
    17  H    3.342825   3.167244   3.892118   1.897515   2.453243
    18  O    3.680862   1.437617   2.481711   2.491139   2.486617
    19  H    3.698344   1.978003   2.617718   2.805306   2.805540
    20  O    2.406205   2.478176   1.411280   3.726738   4.572062
    21  H    3.264498   2.581350   1.957659   4.040108   4.703524
    22  O    3.181417   5.011683   4.555115   4.249879   5.024111
    23  H    3.217194   4.611234   4.485132   3.582827   4.265710
    24  H    2.231241   4.019529   3.479008   3.486255   4.312126
    25  H    3.054177   5.172958   4.554019   4.538969   5.437384
    26  O    4.849509   3.187630   3.366957   4.676423   4.932492
    27  H    5.717846   3.960825   4.273278   5.368636   5.531944
    28  H    4.664923   2.626972   3.193143   4.025465   4.128499
    29  O    3.169795   3.724582   4.081941   2.399142   2.931205
    30  H    3.288343   3.153843   3.608871   2.233569   2.405853
                    6          7          8          9         10
     6  H    0.000000
     7  H    2.908677   0.000000
     8  H    2.967241   3.030735   0.000000
     9  C    3.485310   2.565316   3.405773   0.000000
    10  O    3.713132   2.083244   2.427191   1.651387   0.000000
    11  C    4.358852   2.107870   2.909731   3.859607   2.441584
    12  H    4.342516   2.526787   3.152638   4.657447   3.351885
    13  H    5.003129   3.030429   2.877039   4.218746   2.599743
    14  O    5.235509   2.449016   4.233017   4.161624   3.006277
    15  H    5.998117   3.305853   4.885232   5.121212   3.898990
    16  O    2.305788   2.308003   4.123618   2.413300   3.305426
    17  H    3.263955   2.554627   4.701198   2.269515   3.359185
    18  O    2.009489   4.016322   2.517826   3.499803   3.714158
    19  H    2.823421   4.239530   2.264520   3.389458   3.442628
    20  O    2.456372   2.770807   2.087252   4.396411   3.591708
    21  H    2.399492   3.611048   2.400977   4.922179   4.287532
    22  O    5.734015   3.280921   4.734975   2.891806   2.392628
    23  H    5.278779   3.075376   4.800478   2.237312   2.391329
    24  H    4.826926   2.614669   3.573961   2.214045   1.259565
    25  H    5.764720   3.020448   4.868187   3.405311   2.722173
    26  O    2.843331   5.138492   3.545414   5.835824   5.575556
    27  H    3.436510   5.905319   4.514833   6.637375   6.482569
    28  H    2.396241   4.932706   3.350890   5.232321   5.187026
    29  O    4.316522   2.833406   4.532586   1.306994   2.429802
    30  H    4.099101   3.547567   3.594616   1.104056   2.082704
                   11         12         13         14         15
    11  C    0.000000
    12  H    1.099202   0.000000
    13  H    1.109342   1.805576   0.000000
    14  O    1.455789   2.110421   2.119830   0.000000
    15  H    1.978800   2.293736   2.436403   0.964539   0.000000
    16  O    4.382113   4.721245   5.189291   4.632520   5.512513
    17  H    4.585916   5.076428   5.377136   4.560026   5.457978
    18  O    4.993613   5.192482   5.239919   6.074726   6.875634
    19  H    4.929289   5.260476   4.979469   6.042825   6.840946
    20  O    2.894782   2.443606   3.406652   4.130743   4.617801
    21  H    3.860978   3.399731   4.267100   5.124124   5.609152
    22  O    3.356197   4.411377   3.496182   2.788250   3.534598
    23  H    3.798884   4.785698   4.132310   3.320794   4.173644
    24  H    2.640880   3.711456   2.719552   2.612796   3.465776
    25  H    2.918935   3.889774   3.229308   2.005822   2.687867
    26  O    5.684503   5.316688   6.001152   6.945797   7.496962
    27  H    6.547641   6.109507   6.916436   7.767764   8.298084
    28  H    5.709291   5.518856   6.024264   6.922400   7.574024
    29  O    4.247968   5.087880   4.735088   4.093368   5.033912
    30  H    4.511812   5.361979   4.629787   4.921309   5.853177
                   16         17         18         19         20
    16  O    0.000000
    17  H    0.982374   0.000000
    18  O    3.561043   4.319814   0.000000
    19  H    4.073764   4.697811   0.972797   0.000000
    20  O    3.950535   4.706823   3.289032   3.631243   0.000000
    21  H    4.358376   5.216882   3.005671   3.452349   0.998166
    22  O    4.489499   4.013252   6.007863   5.743878   5.582707
    23  H    3.739625   3.136022   5.625724   5.457702   5.580113
    24  H    3.969446   3.729646   4.950968   4.650152   4.591693
    25  H    4.540559   4.104017   6.311861   6.148058   5.375085
    26  O    5.147678   6.095845   2.803252   3.406211   2.891609
    27  H    5.714189   6.687251   3.540328   4.215143   3.689914
    28  H    4.639926   5.568770   1.973685   2.663713   3.126359
    29  O    2.566893   1.923593   4.695833   4.675646   5.232502
    30  H    3.360623   3.247180   3.544335   3.177489   4.998966
                   21         22         23         24         25
    21  H    0.000000
    22  O    6.429115   0.000000
    23  H    6.362135   1.068909   0.000000
    24  H    5.389968   1.175306   1.553701   0.000000
    25  H    6.294590   0.980609   1.659847   1.646674   0.000000
    26  O    1.927334   7.877477   7.663980   6.794775   7.890827
    27  H    2.721724   8.756368   8.494566   7.697318   8.747118
    28  H    2.317785   7.512810   7.209579   6.434874   7.628143
    29  O    5.865326   2.464785   1.476179   2.350575   2.928967
    30  H    5.418929   3.295577   2.766424   2.600539   4.012030
                   26         27         28         29         30
    26  O    0.000000
    27  H    0.973905   0.000000
    28  H    0.974642   1.575045   0.000000
    29  O    6.899850   7.656682   6.332523   0.000000
    30  H    6.133425   6.955975   5.449448   2.063095   0.000000
 Stoichiometry    C6H16O8
 Framework group  C1[X(C6H16O8)]
 Deg. of freedom    84
 Full point group                 C1      NOp   1
 Largest Abelian subgroup         C1      NOp   1
 Largest concise Abelian subgroup C1      NOp   1
                         Standard orientation:                         
 ---------------------------------------------------------------------
 Center     Atomic      Atomic             Coordinates (Angstroms)
 Number     Number       Type             X           Y           Z
 ---------------------------------------------------------------------
      1          6           0       -0.502121    0.842965    0.009088
      2          6           0        1.481286   -0.671219    0.034061
      3          6           0        0.992518    0.767919   -0.305542
      4          6           0        0.373072   -1.718301    0.323457
      5          1           0        0.804296   -2.705499    0.088449
      6          1           0        2.028215   -0.595052    0.976196
      7          1           0       -0.682804    0.458183    1.014641
      8          1           0        1.091077    0.915089   -1.399885
      9          6           0       -0.977811   -1.621190   -0.458460
     10          8           0       -1.091460   -0.052927   -0.963154
     11          6           0       -1.140132    2.214152   -0.057991
     12          1           0       -0.475760    2.915937    0.465795
     13          1           0       -1.267982    2.536558   -1.111722
     14          8           0       -2.428251    2.128905    0.614914
     15          1           0       -2.747747    3.027256    0.760595
     16          8           0        0.087989   -1.604303    1.706673
     17          1           0       -0.818546   -1.976112    1.777466
     18          8           0        2.459433   -1.140681   -0.909113
     19          1           0        2.085110   -1.078884   -1.804879
     20          8           0        1.681781    1.770010    0.410308
     21          1           0        2.658766    1.612786    0.279477
     22          8           0       -3.458607   -0.144807   -0.627236
     23          1           0       -3.112521   -1.031511   -0.140877
     24          1           0       -2.347207    0.044986   -0.959067
     25          1           0       -3.542925    0.560273    0.049037
     26          8           0        4.345957    0.726264   -0.007025
     27          1           0        5.193980    0.639948    0.464036
     28          1           0        4.044512   -0.169107   -0.246542
     29          8           0       -2.016240   -1.929294    0.272957
     30          1           0       -0.916153   -2.066150   -1.466997
 ---------------------------------------------------------------------
 Rotational constants (GHZ):      0.9051086      0.4609925      0.3531443
 Standard basis: 6-31G(d) (6D, 7F)
 There are   242 symmetry adapted cartesian basis functions of A   symmetry.
 There are   242 symmetry adapted basis functions of A   symmetry.
   242 basis functions,   456 primitive gaussians,   242 cartesian basis functions
    58 alpha electrons       58 beta electrons
       nuclear repulsion energy      1113.8227647501 Hartrees.
 NAtoms=   30 NActive=   30 NUniq=   30 SFac= 1.00D+00 NAtFMM=   60 NAOKFM=F Big=F
 Integral buffers will be    131072 words long.
 Raffenetti 2 integral format.
 Two-electron integral symmetry is turned on.
