 Entering Gaussian System, Link 0=g09
 Initial command:
 /global/software/gaussian/g09.e01/l1.exe "/scratch/10451536.yak.local/Gau-1528.inp" -scrdir="/scratch/10451536.yak.local/"
 Entering Link 1 = /global/software/gaussian/g09.e01/l1.exe PID=      1529.
  
 Copyright (c) 1988,1990,1992,1993,1995,1998,2003,2009,2015,
            Gaussian, Inc.  All Rights Reserved.
  
 This is part of the Gaussian(R) 09 program.  It is based on
 the Gaussian(R) 03 system (copyright 2003, Gaussian, Inc.),
 the Gaussian(R) 98 system (copyright 1998, Gaussian, Inc.),
 the Gaussian(R) 94 system (copyright 1995, Gaussian, Inc.),
 the Gaussian 92(TM) system (copyright 1992, Gaussian, Inc.),
 the Gaussian 90(TM) system (copyright 1990, Gaussian, Inc.),
 the Gaussian 88(TM) system (copyright 1988, Gaussian, Inc.),
 the Gaussian 86(TM) system (copyright 1986, Carnegie Mellon
 University), and the Gaussian 82(TM) system (copyright 1983,
 Carnegie Mellon University). Gaussian is a federally registered
 trademark of Gaussian, Inc.
  
 This software contains proprietary and confidential information,
 including trade secrets, belonging to Gaussian, Inc.
  
 This software is provided under written license and may be
 used, copied, transmitted, or stored only in accord with that
 written license.
  
 The following legend is applicable only to US Government
 contracts under FAR:
  
                    RESTRICTED RIGHTS LEGEND
  
 Use, reproduction and disclosure by the US Government is
 subject to restrictions as set forth in subparagraphs (a)
 and (c) of the Commercial Computer Software - Restricted
 Rights clause in FAR 52.227-19.
  
 Gaussian, Inc.
 340 Quinnipiac St., Bldg. 40, Wallingford CT 06492
  
  
 ---------------------------------------------------------------
 Warning -- This program may not be used in any manner that
 competes with the business of Gaussian, Inc. or will provide
 assistance to any competitor of Gaussian, Inc.  The licensee
 of this program is prohibited from giving any competitor of
 Gaussian, Inc. access to this program.  By using this program,
 the user acknowledges that Gaussian, Inc. is engaged in the
 business of creating and licensing software in the field of
 computational chemistry and represents and warrants to the
 licensee that it is not a competitor of Gaussian, Inc. and that
 it will not use this program in any manner prohibited above.
 ---------------------------------------------------------------
  

 Cite this work as:
 Gaussian 09, Revision E.01,
 M. J. Frisch, G. W. Trucks, H. B. Schlegel, G. E. Scuseria, 
 M. A. Robb, J. R. Cheeseman, G. Scalmani, V. Barone, B. Mennucci, 
 G. A. Petersson, H. Nakatsuji, M. Caricato, X. Li, H. P. Hratchian, 
 A. F. Izmaylov, J. Bloino, G. Zheng, J. L. Sonnenberg, M. Hada, 
 M. Ehara, K. Toyota, R. Fukuda, J. Hasegawa, M. Ishida, T. Nakajima, 
 Y. Honda, O. Kitao, H. Nakai, T. Vreven, J. A. Montgomery, Jr., 
 J. E. Peralta, F. Ogliaro, M. Bearpark, J. J. Heyd, E. Brothers, 
 K. N. Kudin, V. N. Staroverov, T. Keith, R. Kobayashi, J. Normand, 
 K. Raghavachari, A. Rendell, J. C. Burant, S. S. Iyengar, J. Tomasi, 
 M. Cossi, N. Rega, J. M. Millam, M. Klene, J. E. Knox, J. B. Cross, 
 V. Bakken, C. Adamo, J. Jaramillo, R. Gomperts, R. E. Stratmann, 
 O. Yazyev, A. J. Austin, R. Cammi, C. Pomelli, J. W. Ochterski, 
 R. L. Martin, K. Morokuma, V. G. Zakrzewski, G. A. Voth, 
 P. Salvador, J. J. Dannenberg, S. Dapprich, A. D. Daniels, 
 O. Farkas, J. B. Foresman, J. V. Ortiz, J. Cioslowski, 
 and D. J. Fox, Gaussian, Inc., Wallingford CT, 2013.
 
 ******************************************
 Gaussian 09:  ES64L-G09RevE.01 30-Nov-2015
                11-Jan-2017 
 ******************************************
 %NPROCS=4
 Will use up to    4 processors via shared memory.
 ----------------------------------------------------------------------
 # opt=(calcfc,ts,noeigentest,maxcycle=1000,cartesian) b3lyp 6-31g(d) f
 req
 ----------------------------------------------------------------------
 1/5=1,6=1000,10=4,11=1,14=-1,18=10,26=3,38=1/1,3;
 2/12=2,17=6,18=5,29=2,40=1/2;
 3/5=1,6=6,7=1,11=2,16=1,25=1,30=1,71=2,74=-5,140=1/1,2,3;
 4//1;
 5/5=2,38=5/2;
 8/6=4,10=90,11=11/1;
 11/6=1,8=1,9=11,15=111,16=1/1,2,10;
 10/6=1,13=1/2;
 6/7=2,8=2,9=2,10=2,28=1/1;
 7/7=1,10=1,18=20,25=1/1,2,3,16;
 1/5=1,6=1000,10=4,11=1,14=-1,18=10,26=3/3(2);
 2/29=1/2;
 99/12=1/99;
 2/29=1/2;
 3/5=1,6=6,7=1,11=2,16=1,25=1,30=1,71=1,74=-5/1,2,3;
 4/5=5,16=3,69=1/1;
 5/5=2,38=5/2;
 7/7=1/1,2,3,16;
 1/5=1,6=1000,11=1,14=-1,18=10,26=3/3(-5);
 2/29=1/2;
 6/7=2,8=2,9=2,10=2,19=2,28=1/1;
 99/9=1,12=1/99;
 -------------------------
 boat6_Alpha_B3LYP_6-31G_d
 -------------------------
 Symbolic Z-matrix:
 Charge =  0 Multiplicity = 1
 C                    -0.46059  -0.0233    1.05039 
 C                     1.29061   0.77391  -0.58771 
 C                     0.21908   1.19207   0.43193 
 C                     1.31215  -0.75863  -0.85138 
 H                     1.8839   -0.93004  -1.73942 
 H                     2.26084   1.14587  -0.33239 
 H                     0.15199  -0.54358   1.75676 
 H                    -0.45898   1.88352  -0.02308 
 C                     0.10856  -1.37787  -1.13075 
 H                     0.33296  -2.42398  -1.11645 
 O                    -1.13229  -0.89363   0.05002 
 C                    -1.63796   0.48894   1.90069 
 H                    -1.26915   1.14171   2.66409 
 H                    -2.32361   1.02231   1.27595 
 O                    -2.30778  -0.62062   2.50494 
 H                    -2.90348  -0.30245   3.18722 
 O                    -0.36085  -1.05782  -2.27775 
 O                     1.96951  -1.47297   0.19862 
 H                     2.81951  -1.79152  -0.11383 
 O                     0.95744   1.38439  -1.83719 
 H                     0.6069    0.72009  -2.43504 
 O                     0.8581    1.9193    1.4844 
 H                     0.70066   2.85889   1.36616 
 O                    -2.17287   0.51855  -1.49105 
 H                    -1.90942   0.63264  -2.65822 
 H                    -2.00218   1.42682  -1.23121 
 H                    -1.86202  -0.17513  -0.57548 
 O                    -1.34157   0.5636   -3.71311 
 H                    -0.81894  -0.343    -3.1258 
 H                    -0.7124    1.28062  -3.82092 
 

 GradGradGradGradGradGradGradGradGradGradGradGradGradGradGradGradGradGrad
 Berny optimization.
 Initialization pass.
 No Z-matrix variables, so optimization will use Cartesian coordinates.
 Trust Radius=3.00D-01 FncErr=1.00D-07 GrdErr=1.00D-06
 Number of steps in this run=    180 maximum allowed number of steps=    180.
 Search for a saddle point of order  1.
 GradGradGradGradGradGradGradGradGradGradGradGradGradGradGradGradGradGrad

 ---------------------------------------------------------------------------------------------------
                            Z-MATRIX (ANGSTROMS AND DEGREES)
   CD    Cent   Atom    N1       Length/X        N2       Alpha/Y        N3        Beta/Z          J
 ---------------------------------------------------------------------------------------------------
      1      1  C        0  -0.460586         -0.023297          1.050390
      2      2  C        0   1.290608          0.773912         -0.587710
      3      3  C        0   0.219084          1.192073          0.431930
      4      4  C        0   1.312146         -0.758632         -0.851380
      5      5  H        0   1.883896         -0.930043         -1.739423
      6      6  H        0   2.260843          1.145874         -0.332388
      7      7  H        0   0.151992         -0.543576          1.756759
      8      8  H        0  -0.458976          1.883524         -0.023075
      9      9  C        0   0.108561         -1.377868         -1.130748
     10     10  H        0   0.332961         -2.423976         -1.116453
     11     11  O        0  -1.132287         -0.893629          0.050018
     12     12  C        0  -1.637957          0.488940          1.900690
     13     13  H        0  -1.269150          1.141705          2.664089
     14     14  H        0  -2.323612          1.022308          1.275954
     15     15  O        0  -2.307780         -0.620619          2.504939
     16     16  H        0  -2.903477         -0.302447          3.187223
     17     17  O        0  -0.360855         -1.057825         -2.277753
     18     18  O        0   1.969510         -1.472970          0.198617
     19     19  H        0   2.819514         -1.791519         -0.113825
     20     20  O        0   0.957436          1.384394         -1.837193
     21     21  H        0   0.606895          0.720093         -2.435043
     22     22  O        0   0.858104          1.919303          1.484399
     23     23  H        0   0.700664          2.858894          1.366161
     24     24  O        0  -2.172875          0.518553         -1.491055
     25     25  H        0  -1.909418          0.632643         -2.658223
     26     26  H        0  -2.002184          1.426818         -1.231212
     27     27  H        0  -1.862022         -0.175133         -0.575483
     28     28  O        0  -1.341569          0.563604         -3.713107
     29     29  H        0  -0.818937         -0.342996         -3.125798
     30     30  H        0  -0.712395          1.280624         -3.820924
 ---------------------------------------------------------------------------------------------------
                         Z-Matrix orientation:                         
 ---------------------------------------------------------------------
 Center     Atomic      Atomic             Coordinates (Angstroms)
 Number     Number       Type             X           Y           Z
 ---------------------------------------------------------------------
      1          6           0       -0.460586   -0.023297    1.050390
      2          6           0        1.290608    0.773912   -0.587710
      3          6           0        0.219084    1.192073    0.431930
      4          6           0        1.312146   -0.758632   -0.851380
      5          1           0        1.883896   -0.930043   -1.739423
      6          1           0        2.260843    1.145874   -0.332388
      7          1           0        0.151992   -0.543576    1.756759
      8          1           0       -0.458976    1.883524   -0.023075
      9          6           0        0.108561   -1.377868   -1.130748
     10          1           0        0.332961   -2.423976   -1.116453
     11          8           0       -1.132287   -0.893629    0.050018
     12          6           0       -1.637957    0.488940    1.900690
     13          1           0       -1.269150    1.141705    2.664089
     14          1           0       -2.323612    1.022308    1.275954
     15          8           0       -2.307780   -0.620619    2.504939
     16          1           0       -2.903477   -0.302447    3.187223
     17          8           0       -0.360855   -1.057825   -2.277753
     18          8           0        1.969510   -1.472970    0.198617
     19          1           0        2.819514   -1.791519   -0.113825
     20          8           0        0.957436    1.384394   -1.837193
     21          1           0        0.606895    0.720093   -2.435043
     22          8           0        0.858104    1.919303    1.484399
     23          1           0        0.700664    2.858894    1.366161
     24          8           0       -2.172875    0.518553   -1.491055
     25          1           0       -1.909418    0.632643   -2.658223
     26          1           0       -2.002184    1.426818   -1.231212
     27          1           0       -1.862022   -0.175133   -0.575483
     28          8           0       -1.341569    0.563604   -3.713107
     29          1           0       -0.818937   -0.342996   -3.125798
     30          1           0       -0.712395    1.280624   -3.820924
 ---------------------------------------------------------------------
                    Distance matrix (angstroms):
                    1          2          3          4          5
     1  C    0.000000
     2  C    2.526973   0.000000
     3  C    1.523669   1.537104   0.000000
     4  C    2.701856   1.555210   2.578162   0.000000
     5  H    3.755242   2.140536   3.462621   1.070000   0.000000
     6  H    3.268824   1.070000   2.180618   2.190096   2.535994
     7  H    1.070000   2.920404   2.184526   2.862621   3.920732
     8  H    2.188218   2.147346   1.070000   3.286936   4.043644
     9  C    2.629858   2.514415   3.009780   1.382070   1.929468
    10  H    3.329892   3.379814   3.935259   1.949984   2.241724
    11  O    1.486407   3.009620   2.514401   2.608830   3.507247
    12  C    1.540000   3.853549   2.469869   4.222965   5.259980
    13  H    2.148263   4.154736   2.683265   4.757404   5.798686
    14  H    2.148263   4.074006   2.684492   4.573405   5.532385
    15  O    2.425826   4.945462   3.737414   4.938399   5.973316
    16  H    3.257560   5.744477   4.424434   5.855758   6.898163
    17  O    3.486650   2.989788   3.569419   2.218781   2.311932
    18  O    2.955069   2.475419   3.197011   1.430000   2.014473
    19  H    3.903980   3.023831   3.995235   1.970533   2.063999
    20  O    3.511484   1.430000   2.393966   2.385416   2.494896
    21  H    3.720268   1.970533   2.931331   2.278595   2.199447
    22  O    2.387677   2.406785   1.430000   3.582367   4.423126
    23  H    3.123338   2.917670   1.970533   4.286945   5.039914
    24  O    3.111989   3.588447   3.142128   3.766398   4.314800
    25  H    4.035243   3.814073   3.793749   3.947000   4.204213
    26  H    3.112084   3.418020   2.784812   3.988138   4.573258
    27  H    2.151869   3.292402   2.686100   3.239125   3.994564
    28  O    4.879702   4.091539   4.473471   4.120679   4.065714
    29  H    4.203709   3.484186   4.011403   3.144399   3.093859
    30  H    5.049091   3.836985   4.354568   4.132254   3.995049
                    6          7          8          9         10
     6  H    0.000000
     7  H    3.415557   0.000000
     8  H    2.834998   3.071142   0.000000
     9  C    3.411593   3.005932   3.490805   0.000000
    10  H    4.132228   3.438604   4.514110   1.070000   0.000000
    11  O    3.977327   2.164457   2.858543   1.780000   2.418588
    12  C    4.540797   2.071406   2.652497   3.965465   4.633869
    13  H    4.630307   2.383918   2.903021   4.758900   5.438137
    14  H    4.859964   2.968465   2.430234   4.179536   4.965668
    15  O    5.660674   2.572195   4.009946   4.430615   4.831158
    16  H    6.415255   3.382346   4.589125   5.373433   5.787663
    17  O    3.938785   4.099360   3.707389   1.280000   1.922594
    18  O    2.687970   2.568064   4.148825   2.288970   2.304802
    19  H    2.998026   3.488857   4.925716   2.924808   2.754670
    20  O    2.005043   4.157199   2.355075   2.974853   3.925954
    21  H    2.708873   4.401705   2.882229   2.520112   3.420364
    22  O    2.422103   2.576538   2.002113   4.274593   5.089624
    23  H    2.872919   3.468489   2.055745   4.953312   5.848700
    24  O    4.625353   4.132967   2.637340   2.988508   3.883041
    25  H    4.802498   5.012482   3.257682   3.232272   4.092461
    26  H    4.365800   4.177427   2.012378   3.511638   4.504962
    27  H    4.336146   3.103443   2.551815   2.374466   3.188713
    28  O    4.974502   5.777197   4.017150   3.541295   4.297941
    29  H    4.416437   4.982198   3.835864   2.431345   3.113650
    30  H    4.585650   5.931730   3.853747   3.870219   4.704359
                   11         12         13         14         15
    11  O    0.000000
    12  C    2.364780   0.000000
    13  H    3.315824   1.070000   0.000000
    14  H    2.567681   1.070000   1.747303   0.000000
    15  O    2.735499   1.430000   2.051796   2.051796   0.000000
    16  H    3.650845   1.970533   2.242826   2.396700   0.960000
    17  O    2.457760   4.634961   5.484956   4.561601   5.182259
    18  O    3.158934   4.445218   4.837768   5.081138   4.933643
    19  H    4.055833   5.397019   5.747851   6.025018   5.875208
    20  O    3.621864   4.637853   5.027736   4.537407   5.791013
    21  H    3.435751   4.887881   5.449629   4.738217   5.890354
    22  O    3.732518   2.906812   2.553730   3.312305   4.185155
    23  H    4.378741   3.372174   2.917794   3.539411   4.738625
    24  O    2.334948   3.433795   4.297704   2.816527   4.157388
    25  H    3.204373   4.569249   5.384803   3.975065   5.328002
    26  H    2.789757   3.289542   3.973915   2.559848   4.271324
    27  H    1.200000   2.573448   3.546885   2.252720   3.144227
    28  O    4.040846   5.622112   6.403755   5.105443   6.403128
    29  H    3.238393   5.160280   5.994149   4.848043   5.830860
    30  H    4.459582   5.849812   6.510352   5.351720   6.795331
                   16         17         18         19         20
    16  H    0.000000
    17  O    6.074659   0.000000
    18  O    5.835057   3.425690   0.000000
    19  H    6.772509   3.916074   0.960000   0.000000
    20  O    6.557198   2.810057   3.651486   4.064942   0.000000
    21  H    6.706577   2.030338   3.688145   4.073319   0.960000
    22  O    4.688846   4.950044   3.794203   4.491286   3.365853
    23  H    5.128370   5.453955   4.662422   5.320360   3.535754
    24  O    4.805632   2.527306   4.896989   5.670726   3.266242
    25  H    6.002648   2.323895   5.257493   5.891801   3.075398
    26  H    4.829622   3.156369   5.121283   5.903814   3.021319
    27  H    3.906251   2.435235   4.118768   4.974194   3.460257
    28  O    7.127703   2.377199   5.514749   5.984650   3.078664
    29  H    6.648397   1.200000   4.483750   4.940498   2.792826
    30  H    7.511396   2.823703   5.561619   5.971183   2.595052
                   21         22         23         24         25
    21  H    0.000000
    22  O    4.106487   0.000000
    23  H    4.362616   0.960000   0.000000
    24  O    2.942593   4.472388   4.679541   0.000000
    25  H    2.527705   5.145482   5.288137   1.201960   0.000000
    26  H    2.959048   3.974711   4.012801   0.960000   1.635751
    27  H    3.217910   4.003605   4.420708   1.190000   2.234402
    28  O    2.335476   5.804356   5.936163   2.372892   1.200000
    29  H    1.907956   5.402256   5.721799   2.290808   1.536115
    30  H    1.993837   5.569635   5.602993   2.853427   1.790144
                   26         27         28         29         30
    26  H    0.000000
    27  H    1.736627   0.000000
    28  O    2.709494   3.265163   0.000000
    29  H    2.849872   2.760491   1.200000   0.000000
    30  H    2.896816   3.738149   0.960000   1.769376   0.000000
 Stoichiometry    C6H16O8
 Framework group  C1[X(C6H16O8)]
 Deg. of freedom    84
 Full point group                 C1      NOp   1
 Largest Abelian subgroup         C1      NOp   1
 Largest concise Abelian subgroup C1      NOp   1
                         Standard orientation:                         
 ---------------------------------------------------------------------
 Center     Atomic      Atomic             Coordinates (Angstroms)
 Number     Number       Type             X           Y           Z
 ---------------------------------------------------------------------
      1          6           0        1.428136    0.054310   -0.163773
      2          6           0       -0.468703    1.447462    0.756405
      3          6           0        0.743894    0.566600    1.097552
      4          6           0       -0.790806    1.473824   -0.764855
      5          1           0       -1.773837    1.879120   -0.884385
      6          1           0       -0.379629    2.434461    1.159886
      7          1           0        1.990945    0.803515   -0.680337
      8          1           0        0.446571   -0.206932    1.774417
      9          6           0       -0.870677    0.261778   -1.424158
     10          1           0       -0.937717    0.521339   -2.460032
     11          8           0        0.533536   -0.758279   -1.029102
     12          6           0        2.497181   -0.964801    0.272295
     13          1           0        3.205528   -0.485569    0.915319
     14          1           0        2.028359   -1.771330    0.796335
     15          8           0        3.169752   -1.473705   -0.882506
     16          1           0        3.960606   -1.945281   -0.610908
     17          8           0       -1.900180   -0.420384   -1.087738
     18          8           0        0.094043    2.336650   -1.484211
     19          1           0       -0.379583    3.125745   -1.757353
     20          8           0       -1.612438    0.870292    1.391734
     21          1           0       -2.161875    0.439688    0.732720
     22          8           0        1.690099    1.361597    1.816978
     23          1           0        1.638738    1.152527    2.752527
     24          8           0       -0.737363   -2.111777    0.386821
     25          1           0       -1.927684   -2.070392    0.548480
     26          1           0       -0.477998   -1.928209    1.292709
     27          1           0        0.079106   -1.614710   -0.321982
     28          8           0       -3.069999   -1.703014    0.536288
     29          1           0       -2.622750   -1.050491   -0.366033
     30          1           0       -3.262523   -1.129562    1.281732
 ---------------------------------------------------------------------
 Rotational constants (GHZ):      0.7659870      0.5495020      0.4739701
 Standard basis: 6-31G(d) (6D, 7F)
 There are   242 symmetry adapted cartesian basis functions of A   symmetry.
 There are   242 symmetry adapted basis functions of A   symmetry.
   242 basis functions,   456 primitive gaussians,   242 cartesian basis functions
    58 alpha electrons       58 beta electrons
       nuclear repulsion energy      1152.6539222504 Hartrees.
 NAtoms=   30 NActive=   30 NUniq=   30 SFac= 1.00D+00 NAtFMM=   60 NAOKFM=F Big=F
 Integral buffers will be    131072 words long.
 Raffenetti 2 integral format.
 Two-electron integral symmetry is turned on.
 One-electron integrals computed using PRISM.
 NBasis=   242 RedAO= T EigKep=  1.30D-03  NBF=   242
 NBsUse=   242 1.00D-06 EigRej= -1.00D+00 NBFU=   242
 ExpMin= 1.61D-01 ExpMax= 5.48D+03 ExpMxC= 8.25D+02 IAcc=1 IRadAn=         1 AccDes= 0.00D+00
 Harris functional with IExCor=  402 and IRadAn=       1 diagonalized for initial guess.
 HarFok:  IExCor=  402 AccDes= 0.00D+00 IRadAn=         1 IDoV= 1 UseB2=F ITyADJ=14
 ICtDFT=  3500011 ScaDFX=  1.000000  1.000000  1.000000  1.000000
 FoFCou: FMM=F IPFlag=           0 FMFlag=      100000 FMFlg1=           0
         NFxFlg=           0 DoJE=T BraDBF=F KetDBF=T FulRan=T
         wScrn=  0.000000 ICntrl=     500 IOpCl=  0 I1Cent=   200000004 NGrid=           0
         NMat0=    1 NMatS0=      1 NMatT0=    0 NMatD0=    1 NMtDS0=    0 NMtDT0=    0
 Petite list used in FoFCou.
 Requested convergence on RMS density matrix=1.00D-08 within 128 cycles.
 Requested convergence on MAX density matrix=1.00D-06.
 Requested convergence on             energy=1.00D-06.
 No special actions if energy rises.
 Integral accuracy reduced to 1.0D-05 until final iterations.
 Initial convergence to 1.0D-05 achieved.  Increase integral accuracy.
 SCF Done:  E(RB3LYP) =  -839.843261188     A.U. after   14 cycles
            NFock= 14  Conv=0.79D-08     -V/T= 2.0075
 DoSCS=F DFT=T ScalE2(SS,OS)=  1.000000  1.000000
 Range of M.O.s used for correlation:     1   242
 NBasis=   242 NAE=    58 NBE=    58 NFC=     0 NFV=     0
 NROrb=    242 NOA=    58 NOB=    58 NVA=   184 NVB=   184
 Symmetrizing basis deriv contribution to polar:
 IMax=3 JMax=2 DiffMx= 0.00D+00
 G2DrvN: will do    31 centers at a time, making    1 passes.
 Calling FoFCou, ICntrl=  3107 FMM=F I1Cent=   0 AccDes= 0.00D+00.
 End of G2Drv F.D. properties file   721 does not exist.
 End of G2Drv F.D. properties file   722 does not exist.
 End of G2Drv F.D. properties file   788 does not exist.
          IDoAtm=111111111111111111111111111111
          Differentiating once with respect to nuclear coordinates.
          There are    93 degrees of freedom in the 1st order CPHF.  IDoFFX=6 NUNeed=     0.
     87 vectors produced by pass  0 Test12= 1.15D-14 1.08D-09 XBig12= 1.34D-01 6.73D-02.
 AX will form    87 AO Fock derivatives at one time.
     87 vectors produced by pass  1 Test12= 1.15D-14 1.08D-09 XBig12= 9.32D-03 1.90D-02.
     87 vectors produced by pass  2 Test12= 1.15D-14 1.08D-09 XBig12= 1.02D-04 1.10D-03.
     87 vectors produced by pass  3 Test12= 1.15D-14 1.08D-09 XBig12= 2.62D-07 6.02D-05.
     87 vectors produced by pass  4 Test12= 1.15D-14 1.08D-09 XBig12= 3.39D-10 2.04D-06.
     72 vectors produced by pass  5 Test12= 1.15D-14 1.08D-09 XBig12= 2.77D-13 4.86D-08.
      2 vectors produced by pass  6 Test12= 1.15D-14 1.08D-09 XBig12= 2.52D-16 1.51D-09.
 InvSVY:  IOpt=1 It=  1 EMax= 5.00D-16
 Solved reduced A of dimension   509 with    93 vectors.
 End of Minotr F.D. properties file   721 does not exist.
 End of Minotr F.D. properties file   722 does not exist.
 End of Minotr F.D. properties file   788 does not exist.

 **********************************************************************

            Population analysis using the SCF density.

 **********************************************************************

 Orbital symmetries:
       Occupied  (A) (A) (A) (A) (A) (A) (A) (A) (A) (A) (A) (A)
                 (A) (A) (A) (A) (A) (A) (A) (A) (A) (A) (A) (A)
                 (A) (A) (A) (A) (A) (A) (A) (A) (A) (A) (A) (A)
                 (A) (A) (A) (A) (A) (A) (A) (A) (A) (A) (A) (A)
                 (A) (A) (A) (A) (A) (A) (A) (A) (A) (A)
       Virtual   (A) (A) (A) (A) (A) (A) (A) (A) (A) (A) (A) (A)
                 (A) (A) (A) (A) (A) (A) (A) (A) (A) (A) (A) (A)
                 (A) (A) (A) (A) (A) (A) (A) (A) (A) (A) (A) (A)
                 (A) (A) (A) (A) (A) (A) (A) (A) (A) (A) (A) (A)
                 (A) (A) (A) (A) (A) (A) (A) (A) (A) (A) (A) (A)
                 (A) (A) (A) (A) (A) (A) (A) (A) (A) (A) (A) (A)
                 (A) (A) (A) (A) (A) (A) (A) (A) (A) (A) (A) (A)
                 (A) (A) (A) (A) (A) (A) (A) (A) (A) (A) (A) (A)
                 (A) (A) (A) (A) (A) (A) (A) (A) (A) (A) (A) (A)
                 (A) (A) (A) (A) (A) (A) (A) (A) (A) (A) (A) (A)
                 (A) (A) (A) (A) (A) (A) (A) (A) (A) (A) (A) (A)
                 (A) (A) (A) (A) (A) (A) (A) (A) (A) (A) (A) (A)
                 (A) (A) (A) (A) (A) (A) (A) (A) (A) (A) (A) (A)
                 (A) (A) (A) (A) (A) (A) (A) (A) (A) (A) (A) (A)
                 (A) (A) (A) (A) (A) (A) (A) (A) (A) (A) (A) (A)
                 (A) (A) (A) (A)
 The electronic state is 1-A.
 Alpha  occ. eigenvalues --  -19.17053 -19.15804 -19.15463 -19.15170 -19.14314
 Alpha  occ. eigenvalues --  -19.13793 -19.13643 -19.10801 -10.28076 -10.24948
 Alpha  occ. eigenvalues --  -10.24351 -10.24189 -10.23920 -10.22959  -1.06222
 Alpha  occ. eigenvalues --   -1.03811  -1.03412  -1.02297  -1.01593  -1.00759
 Alpha  occ. eigenvalues --   -1.00029  -0.96781  -0.79160  -0.76971  -0.71415
 Alpha  occ. eigenvalues --   -0.65199  -0.62388  -0.59282  -0.57132  -0.55272
 Alpha  occ. eigenvalues --   -0.54300  -0.53135  -0.51939  -0.50959  -0.50039
 Alpha  occ. eigenvalues --   -0.47932  -0.47228  -0.45343  -0.43741  -0.43279
 Alpha  occ. eigenvalues --   -0.42058  -0.41506  -0.40242  -0.38279  -0.36360
 Alpha  occ. eigenvalues --   -0.35494  -0.35222  -0.34571  -0.33699  -0.32832
 Alpha  occ. eigenvalues --   -0.30459  -0.29883  -0.29427  -0.28184  -0.26652
 Alpha  occ. eigenvalues --   -0.26151  -0.25685  -0.24316
 Alpha virt. eigenvalues --    0.01348   0.03935   0.05093   0.06262   0.07355
 Alpha virt. eigenvalues --    0.08899   0.11101   0.13299   0.13538   0.15542
 Alpha virt. eigenvalues --    0.15820   0.17417   0.17725   0.18957   0.19575
 Alpha virt. eigenvalues --    0.20069   0.21430   0.21994   0.23333   0.24708
 Alpha virt. eigenvalues --    0.25109   0.27558   0.28542   0.30643   0.32557
 Alpha virt. eigenvalues --    0.34245   0.35887   0.38231   0.51301   0.53197
 Alpha virt. eigenvalues --    0.54361   0.55475   0.56867   0.57624   0.60908
 Alpha virt. eigenvalues --    0.61852   0.63751   0.64823   0.65323   0.66785
 Alpha virt. eigenvalues --    0.68364   0.69524   0.70320   0.72171   0.73256
 Alpha virt. eigenvalues --    0.75695   0.77329   0.77894   0.80500   0.81337
 Alpha virt. eigenvalues --    0.82335   0.83323   0.84110   0.84345   0.85748
 Alpha virt. eigenvalues --    0.87476   0.88124   0.89382   0.90621   0.91666
 Alpha virt. eigenvalues --    0.92963   0.93023   0.93769   0.95291   0.98557
 Alpha virt. eigenvalues --    0.98913   0.99427   1.00064   1.01138   1.02361
 Alpha virt. eigenvalues --    1.04491   1.05451   1.06062   1.07453   1.10705
 Alpha virt. eigenvalues --    1.12584   1.14178   1.15024   1.17160   1.18834
 Alpha virt. eigenvalues --    1.21220   1.22917   1.25274   1.26292   1.27057
 Alpha virt. eigenvalues --    1.29034   1.30040   1.35949   1.36715   1.37882
 Alpha virt. eigenvalues --    1.39691   1.40892   1.43559   1.49098   1.51153
 Alpha virt. eigenvalues --    1.53458   1.55445   1.56295   1.57980   1.60229
 Alpha virt. eigenvalues --    1.62855   1.66134   1.66994   1.69636   1.71017
 Alpha virt. eigenvalues --    1.72088   1.73799   1.74135   1.76081   1.77060
 Alpha virt. eigenvalues --    1.77251   1.78458   1.79718   1.80701   1.81928
 Alpha virt. eigenvalues --    1.84415   1.85173   1.86996   1.87779   1.88965
 Alpha virt. eigenvalues --    1.90479   1.92731   1.93094   1.94697   1.96244
 Alpha virt. eigenvalues --    1.98153   2.01321   2.02394   2.04707   2.05715
 Alpha virt. eigenvalues --    2.07633   2.10035   2.11052   2.13092   2.17366
 Alpha virt. eigenvalues --    2.18966   2.22363   2.25332   2.27627   2.31527
 Alpha virt. eigenvalues --    2.34102   2.35195   2.37365   2.40098   2.42238
 Alpha virt. eigenvalues --    2.44478   2.45762   2.47921   2.50310   2.51268
 Alpha virt. eigenvalues --    2.51756   2.52883   2.60589   2.62739   2.63498
 Alpha virt. eigenvalues --    2.64792   2.66194   2.68956   2.72634   2.75911
 Alpha virt. eigenvalues --    2.77867   2.80479   2.85120   2.87409   2.91091
 Alpha virt. eigenvalues --    2.93463   2.96261   3.04473   3.07037   3.17789
 Alpha virt. eigenvalues --    3.69918   3.77573   3.80783   3.83184   3.91412
 Alpha virt. eigenvalues --    3.95910   4.09924   4.12891   4.28847   4.36212
 Alpha virt. eigenvalues --    4.46694   4.56649   4.71631   4.82658
          Condensed to atoms (all electrons):
               1          2          3          4          5          6
     1  C    5.022275  -0.050578   0.269790   0.001078  -0.000102   0.004038
     2  C   -0.050578   4.951670   0.309316   0.295085  -0.043586   0.364561
     3  C    0.269790   0.309316   5.073987  -0.021956   0.006547  -0.056117
     4  C    0.001078   0.295085  -0.021956   5.190309   0.375667  -0.025946
     5  H   -0.000102  -0.043586   0.006547   0.375667   0.604428  -0.006821
     6  H    0.004038   0.364561  -0.056117  -0.025946  -0.006821   0.582724
     7  H    0.358742  -0.005749  -0.037025  -0.001420   0.000119   0.000230
     8  H   -0.039493  -0.056566   0.351245   0.004224  -0.000280   0.004177
     9  C   -0.010804  -0.034115  -0.023615   0.248560  -0.060722   0.005544
    10  H    0.000653   0.008775  -0.000026  -0.098369  -0.003941  -0.000256
    11  O    0.160216  -0.005682  -0.025196  -0.020080   0.003252  -0.000048
    12  C    0.345424   0.004376  -0.038630   0.000223   0.000029  -0.000219
    13  H   -0.037443   0.000232   0.000627  -0.000016  -0.000000   0.000002
    14  H   -0.044574  -0.000127  -0.004871   0.000005   0.000000  -0.000004
    15  O   -0.047306  -0.000041   0.002376  -0.000000  -0.000000   0.000001
    16  H    0.005934   0.000004  -0.000228   0.000000   0.000000  -0.000000
    17  O    0.001324   0.007092   0.000220  -0.063508  -0.002229  -0.000123
    18  O   -0.003182  -0.045054   0.001472   0.171621  -0.027199   0.002066
    19  H    0.000262   0.002468  -0.000329  -0.012081  -0.013198   0.000893
    20  O    0.004190   0.207685  -0.055034  -0.014327   0.002506  -0.038586
    21  H   -0.000759  -0.027342   0.005010  -0.021494   0.002489   0.002691
    22  O   -0.038613  -0.041750   0.159047   0.002472  -0.000090   0.005694
    23  H    0.004299   0.002835  -0.014716  -0.000166   0.000004   0.000593
    24  O    0.007184  -0.001333   0.003634  -0.001223   0.000033  -0.000021
    25  H    0.000000   0.000146  -0.000298  -0.000027  -0.000016   0.000010
    26  H   -0.000265  -0.000309  -0.002043   0.000001  -0.000016   0.000042
    27  H   -0.011896   0.000004  -0.001686   0.002026  -0.000185   0.000023
    28  O    0.000037   0.000385  -0.000105  -0.000687  -0.000116  -0.000006
    29  H   -0.000071  -0.000204  -0.000006   0.003109   0.000286   0.000012
    30  H   -0.000004   0.000022  -0.000033  -0.000122  -0.000014   0.000014
               7          8          9         10         11         12
     1  C    0.358742  -0.039493  -0.010804   0.000653   0.160216   0.345424
     2  C   -0.005749  -0.056566  -0.034115   0.008775  -0.005682   0.004376
     3  C   -0.037025   0.351245  -0.023615  -0.000026  -0.025196  -0.038630
     4  C   -0.001420   0.004224   0.248560  -0.098369  -0.020080   0.000223
     5  H    0.000119  -0.000280  -0.060722  -0.003941   0.003252   0.000029
     6  H    0.000230   0.004177   0.005544  -0.000256  -0.000048  -0.000219
     7  H    0.529069   0.005475  -0.002121   0.000536  -0.026359  -0.041958
     8  H    0.005475   0.643098   0.000902   0.000026  -0.000932  -0.011811
     9  C   -0.002121   0.000902   4.761970   0.369160   0.113590   0.002207
    10  H    0.000536   0.000026   0.369160   0.640130  -0.017981  -0.000110
    11  O   -0.026359  -0.000932   0.113590  -0.017981   8.477901  -0.043981
    12  C   -0.041958  -0.011811   0.002207  -0.000110  -0.043981   4.908613
    13  H   -0.004247   0.000297  -0.000046   0.000002   0.004005   0.355362
    14  H    0.007327   0.006971  -0.000087  -0.000001  -0.006662   0.347031
    15  O    0.005540   0.000024  -0.000033   0.000003   0.001938   0.248218
    16  H   -0.000192  -0.000011   0.000004  -0.000000   0.000092  -0.021350
    17  O    0.000007  -0.000063   0.327451  -0.052761  -0.047091  -0.000142
    18  O    0.006707  -0.000101  -0.064144   0.012249   0.001345   0.000170
    19  H   -0.000049   0.000009   0.004877   0.000316  -0.000091  -0.000007
    20  O   -0.000007   0.004424   0.002564  -0.000338  -0.000429  -0.000094
    21  H    0.000019  -0.000692  -0.001421   0.001079   0.000916   0.000025
    22  O    0.001662  -0.027983   0.000263   0.000004   0.001036  -0.002180
    23  H   -0.000260  -0.011060  -0.000015  -0.000000  -0.000072   0.000311
    24  O   -0.000182   0.004037   0.006631  -0.000027  -0.113621  -0.000937
    25  H    0.000005  -0.000174  -0.000503   0.000083   0.001906  -0.000025
    26  H    0.000109   0.010700   0.000226   0.000009   0.005910  -0.000932
    27  H    0.001602   0.000752  -0.010888   0.000142   0.134286  -0.003456
    28  O   -0.000000  -0.000090   0.004416  -0.000153  -0.000255  -0.000001
    29  H   -0.000001  -0.000010  -0.013921  -0.000188   0.001605   0.000009
    30  H    0.000000   0.000101   0.000030   0.000006   0.000014   0.000000
              13         14         15         16         17         18
     1  C   -0.037443  -0.044574  -0.047306   0.005934   0.001324  -0.003182
     2  C    0.000232  -0.000127  -0.000041   0.000004   0.007092  -0.045054
     3  C    0.000627  -0.004871   0.002376  -0.000228   0.000220   0.001472
     4  C   -0.000016   0.000005  -0.000000   0.000000  -0.063508   0.171621
     5  H   -0.000000   0.000000  -0.000000   0.000000  -0.002229  -0.027199
     6  H    0.000002  -0.000004   0.000001  -0.000000  -0.000123   0.002066
     7  H   -0.004247   0.007327   0.005540  -0.000192   0.000007   0.006707
     8  H    0.000297   0.006971   0.000024  -0.000011  -0.000063  -0.000101
     9  C   -0.000046  -0.000087  -0.000033   0.000004   0.327451  -0.064144
    10  H    0.000002  -0.000001   0.000003  -0.000000  -0.052761   0.012249
    11  O    0.004005  -0.006662   0.001938   0.000092  -0.047091   0.001345
    12  C    0.355362   0.347031   0.248218  -0.021350  -0.000142   0.000170
    13  H    0.614568  -0.050604  -0.033737  -0.006236   0.000002  -0.000000
    14  H   -0.050604   0.668027  -0.044271  -0.001221   0.000002  -0.000004
    15  O   -0.033737  -0.044271   8.256189   0.233713  -0.000000  -0.000000
    16  H   -0.006236  -0.001221   0.233713   0.395880   0.000000   0.000000
    17  O    0.000002   0.000002  -0.000000   0.000000   8.430777   0.003251
    18  O   -0.000000  -0.000004  -0.000000   0.000000   0.003251   8.338410
    19  H    0.000000   0.000000   0.000000  -0.000000  -0.000241   0.234126
    20  O   -0.000004  -0.000024   0.000000  -0.000000  -0.016930   0.001695
    21  H    0.000000   0.000002  -0.000000   0.000000   0.045658   0.000484
    22  O    0.012732   0.000284   0.000051   0.000007  -0.000000  -0.000079
    23  H   -0.000242  -0.000082  -0.000001  -0.000002   0.000000   0.000001
    24  O    0.000038   0.002479  -0.000016   0.000002  -0.016900   0.000002
    25  H    0.000000   0.000031  -0.000000  -0.000000   0.011882  -0.000000
    26  H   -0.000002   0.002432  -0.000018  -0.000001   0.001664  -0.000001
    27  H    0.000186   0.004413   0.000852  -0.000031   0.004552  -0.000020
    28  O    0.000000   0.000006   0.000000   0.000000  -0.092589  -0.000000
    29  H   -0.000000  -0.000002  -0.000000   0.000000   0.102381  -0.000033
    30  H   -0.000000  -0.000001  -0.000000  -0.000000   0.003180  -0.000001
              19         20         21         22         23         24
     1  C    0.000262   0.004190  -0.000759  -0.038613   0.004299   0.007184
     2  C    0.002468   0.207685  -0.027342  -0.041750   0.002835  -0.001333
     3  C   -0.000329  -0.055034   0.005010   0.159047  -0.014716   0.003634
     4  C   -0.012081  -0.014327  -0.021494   0.002472  -0.000166  -0.001223
     5  H   -0.013198   0.002506   0.002489  -0.000090   0.000004   0.000033
     6  H    0.000893  -0.038586   0.002691   0.005694   0.000593  -0.000021
     7  H   -0.000049  -0.000007   0.000019   0.001662  -0.000260  -0.000182
     8  H    0.000009   0.004424  -0.000692  -0.027983  -0.011060   0.004037
     9  C    0.004877   0.002564  -0.001421   0.000263  -0.000015   0.006631
    10  H    0.000316  -0.000338   0.001079   0.000004  -0.000000  -0.000027
    11  O   -0.000091  -0.000429   0.000916   0.001036  -0.000072  -0.113621
    12  C   -0.000007  -0.000094   0.000025  -0.002180   0.000311  -0.000937
    13  H    0.000000  -0.000004   0.000000   0.012732  -0.000242   0.000038
    14  H    0.000000  -0.000024   0.000002   0.000284  -0.000082   0.002479
    15  O    0.000000   0.000000  -0.000000   0.000051  -0.000001  -0.000016
    16  H   -0.000000  -0.000000   0.000000   0.000007  -0.000002   0.000002
    17  O   -0.000241  -0.016930   0.045658  -0.000000   0.000000  -0.016900
    18  O    0.234126   0.001695   0.000484  -0.000079   0.000001   0.000002
    19  H    0.379708  -0.000091  -0.000086   0.000011  -0.000000  -0.000000
    20  O   -0.000091   8.395611   0.190652   0.002019  -0.000099  -0.000542
    21  H   -0.000086   0.190652   0.398398  -0.000115   0.000009   0.001512
    22  O    0.000011   0.002019  -0.000115   8.331557   0.233791   0.000062
    23  H   -0.000000  -0.000099   0.000009   0.233791   0.383046   0.000002
    24  O   -0.000000  -0.000542   0.001512   0.000062   0.000002   8.613170
    25  H    0.000000   0.001809  -0.002686  -0.000000   0.000000   0.124266
    26  H    0.000000   0.002272  -0.000204  -0.000095  -0.000033   0.207254
    27  H    0.000002   0.000186  -0.000342  -0.000176   0.000008   0.119543
    28  O   -0.000000  -0.004656   0.019666  -0.000000  -0.000000  -0.106656
    29  H    0.000003   0.000650   0.000561   0.000000  -0.000000   0.008933
    30  H    0.000000   0.005426   0.003739  -0.000000   0.000000   0.005670
              25         26         27         28         29         30
     1  C    0.000000  -0.000265  -0.011896   0.000037  -0.000071  -0.000004
     2  C    0.000146  -0.000309   0.000004   0.000385  -0.000204   0.000022
     3  C   -0.000298  -0.002043  -0.001686  -0.000105  -0.000006  -0.000033
     4  C   -0.000027   0.000001   0.002026  -0.000687   0.003109  -0.000122
     5  H   -0.000016  -0.000016  -0.000185  -0.000116   0.000286  -0.000014
     6  H    0.000010   0.000042   0.000023  -0.000006   0.000012   0.000014
     7  H    0.000005   0.000109   0.001602  -0.000000  -0.000001   0.000000
     8  H   -0.000174   0.010700   0.000752  -0.000090  -0.000010   0.000101
     9  C   -0.000503   0.000226  -0.010888   0.004416  -0.013921   0.000030
    10  H    0.000083   0.000009   0.000142  -0.000153  -0.000188   0.000006
    11  O    0.001906   0.005910   0.134286  -0.000255   0.001605   0.000014
    12  C   -0.000025  -0.000932  -0.003456  -0.000001   0.000009   0.000000
    13  H    0.000000  -0.000002   0.000186   0.000000  -0.000000  -0.000000
    14  H    0.000031   0.002432   0.004413   0.000006  -0.000002  -0.000001
    15  O   -0.000000  -0.000018   0.000852   0.000000  -0.000000  -0.000000
    16  H   -0.000000  -0.000001  -0.000031   0.000000   0.000000  -0.000000
    17  O    0.011882   0.001664   0.004552  -0.092589   0.102381   0.003180
    18  O   -0.000000  -0.000001  -0.000020  -0.000000  -0.000033  -0.000001
    19  H    0.000000   0.000000   0.000002  -0.000000   0.000003   0.000000
    20  O    0.001809   0.002272   0.000186  -0.004656   0.000650   0.005426
    21  H   -0.002686  -0.000204  -0.000342   0.019666   0.000561   0.003739
    22  O   -0.000000  -0.000095  -0.000176  -0.000000   0.000000  -0.000000
    23  H    0.000000  -0.000033   0.000008  -0.000000  -0.000000   0.000000
    24  O    0.124266   0.207254   0.119543  -0.106656   0.008933   0.005670
    25  H    0.298110  -0.007114   0.000351   0.143103  -0.028465  -0.006408
    26  H   -0.007114   0.397722  -0.009279   0.007191  -0.000680  -0.000182
    27  H    0.000351  -0.009279   0.270295   0.001572  -0.000815  -0.000042
    28  O    0.143103   0.007191   0.001572   8.469364   0.155962   0.234746
    29  H   -0.028465  -0.000680  -0.000815   0.155962   0.296700  -0.014118
    30  H   -0.006408  -0.000182  -0.000042   0.234746  -0.014118   0.360488
 Mulliken charges:
               1
     1  C    0.099642
     2  C    0.157783
     3  C    0.098644
     4  C   -0.012957
     5  H    0.163157
     6  H    0.154832
     7  H    0.202418
     8  H    0.112804
     9  C    0.374041
    10  H    0.140978
    11  O   -0.599529
    12  C   -0.046167
    13  H    0.144526
    14  H    0.113527
    15  O   -0.623478
    16  H    0.393635
    17  O   -0.646865
    18  O   -0.633780
    19  H    0.403496
    20  O   -0.690525
    21  H    0.382232
    22  O   -0.639610
    23  H    0.401850
    24  O   -0.862993
    25  H    0.464013
    26  H    0.385645
    27  H    0.498022
    28  O   -0.831133
    29  H    0.488303
    30  H    0.407489
 Sum of Mulliken charges =  -0.00000
 Mulliken charges with hydrogens summed into heavy atoms:
               1
     1  C    0.302061
     2  C    0.312615
     3  C    0.211448
     4  C    0.150200
     9  C    0.515020
    11  O   -0.599529
    12  C    0.211885
    15  O   -0.229844
    17  O   -0.646865
    18  O   -0.230284
    20  O   -0.308293
    22  O   -0.237759
    24  O    0.020674
    28  O    0.528672
 APT charges:
               1
     1  C   -0.425564
     2  C   -0.337836
     3  C   -0.077163
     4  C   -0.392633
     5  H    0.509394
     6  H    0.558941
     7  H    0.518038
     8  H    0.308334
     9  C   -0.300672
    10  H    0.547817
    11  O   -0.460750
    12  C   -0.568543
    13  H    0.499257
    14  H    0.293639
    15  O   -1.128562
    16  H    0.984862
    17  O   -0.390540
    18  O   -1.061810
    19  H    0.897655
    20  O   -0.626014
    21  H    0.416010
    22  O   -0.986619
    23  H    0.770460
    24  O   -0.833105
    25  H    0.370158
    26  H    0.464017
    27  H    0.397139
    28  O   -0.833882
    29  H    0.322878
    30  H    0.565094
 Sum of APT charges =  -0.00000
 APT charges with hydrogens summed into heavy atoms:
               1
     1  C    0.092474
     2  C    0.221105
     3  C    0.231172
     4  C    0.116761
     9  C    0.247145
    11  O   -0.460750
    12  C    0.224354
    15  O   -0.143699
    17  O   -0.390540
    18  O   -0.164155
    20  O   -0.210003
    22  O   -0.216160
    24  O    0.028051
    28  O    0.424247
 Electronic spatial extent (au):  <R**2>=           2787.9534
 Charge=             -0.0000 electrons
 Dipole moment (field-independent basis, Debye):
    X=              0.9683    Y=              2.2613    Z=              3.5688  Tot=              4.3345
 Quadrupole moment (field-independent basis, Debye-Ang):
   XX=            -81.1693   YY=            -83.2711   ZZ=            -78.8177
   XY=            -13.1504   XZ=              5.9123   YZ=             -9.8274
 Traceless Quadrupole moment (field-independent basis, Debye-Ang):
   XX=             -0.0833   YY=             -2.1850   ZZ=              2.2683
   XY=            -13.1504   XZ=              5.9123   YZ=             -9.8274
 Octapole moment (field-independent basis, Debye-Ang**2):
  XXX=             41.3715  YYY=             29.2832  ZZZ=             25.5274  XYY=              5.3822
  XXY=            -10.4228  XXZ=             16.5273  XZZ=             -3.8762  YZZ=              3.8757
  YYZ=            -10.9152  XYZ=              7.3563
 Hexadecapole moment (field-independent basis, Debye-Ang**3):
 XXXX=          -1423.7811 YYYY=           -925.8481 ZZZZ=           -576.6949 XXXY=           -164.1606
 XXXZ=            -33.4131 YYYX=            -90.4490 YYYZ=            -56.0541 ZZZX=             43.8810
 ZZZY=            -13.2244 XXYY=           -427.8810 XXZZ=           -373.0770 YYZZ=           -244.5613
 XXYZ=            -26.5700 YYXZ=             17.6340 ZZXY=             18.3712
 N-N= 1.152653922250D+03 E-N=-4.278455310031D+03  KE= 8.336104209030D+02
  Exact polarizability:   0.000   0.000   0.000   0.000   0.000   0.000
 Approx polarizability: 148.719   2.996 123.535  -2.619  -4.883 129.321
 Calling FoFJK, ICntrl=    100147 FMM=F ISym2X=0 I1Cent= 0 IOpClX= 0 NMat=1 NMatS=1 NMatT=0.
 ***** Axes restored to original set *****
 -------------------------------------------------------------------
 Center     Atomic                   Forces (Hartrees/Bohr)
 Number     Number              X              Y              Z
 -------------------------------------------------------------------
      1        6          -0.066147976    0.012731563    0.005198592
      2        6          -0.028495434   -0.015320696   -0.032330925
      3        6           0.036774671   -0.005813192    0.014950656
      4        6           0.095818910    0.049869485    0.054742031
      5        1           0.010089126    0.003362143   -0.016879918
      6        1           0.012891451    0.001365579    0.012455362
      7        1           0.016708380   -0.016155401   -0.004109181
      8        1          -0.014039364    0.000766810   -0.013535202
      9        6          -0.080002178   -0.019880397   -0.037701464
     10        1          -0.021523343   -0.028239876    0.026233161
     11        8           0.059077679   -0.008437484    0.021693271
     12        6          -0.001827734   -0.025071901    0.011375292
     13        1           0.009198848    0.014431101    0.009981936
     14        1          -0.012600236    0.013355878   -0.012770280
     15        8           0.010343992   -0.006961871   -0.009478089
     16        1          -0.003853449    0.006124909    0.004705890
     17        8          -0.012060018   -0.014132316   -0.038384263
     18        8          -0.002860479    0.002798745    0.017626439
     19        1           0.006102299    0.000365298   -0.002090579
     20        8           0.007195692    0.021378260   -0.008447058
     21        1          -0.002717540   -0.009618195    0.001754559
     22        8           0.003284438   -0.008197230    0.016025888
     23        1          -0.001386526    0.005962635   -0.002712616
     24        8          -0.030949399    0.026064865    0.001880228
     25        1           0.002048010   -0.004722048    0.001247091
     26        1          -0.004282812    0.009282446    0.008386645
     27        1           0.015736374   -0.007625717   -0.024037748
     28        8          -0.008008575   -0.023013151   -0.000088945
     29        1           0.000485664    0.017043216   -0.005701175
     30        1           0.004999528    0.008286541    0.000010402
 -------------------------------------------------------------------
 Cartesian Forces:  Max     0.095818910 RMS     0.023033751

 GradGradGradGradGradGradGradGradGradGradGradGradGradGradGradGradGradGrad
 Berny optimization.
 Search for a saddle point.
 Step number   1 out of a maximum of  180
 All quantities printed in internal units (Hartrees-Bohrs-Radians)
 Swapping is turned off.
 Second derivative matrix not updated -- analytic derivatives used.
 ITU=  0
     Eigenvalues ---   -0.13761  -0.02734  -0.01291  -0.01002  -0.00933
     Eigenvalues ---   -0.00897  -0.00571  -0.00270  -0.00201  -0.00081
     Eigenvalues ---    0.00018   0.00191   0.00302   0.00447   0.00740
     Eigenvalues ---    0.00968   0.01219   0.01492   0.01690   0.01979
     Eigenvalues ---    0.02065   0.02562   0.02997   0.03033   0.03190
     Eigenvalues ---    0.03333   0.03715   0.04158   0.04252   0.04963
     Eigenvalues ---    0.05230   0.05419   0.05727   0.05886   0.06192
     Eigenvalues ---    0.06360   0.06723   0.06748   0.08016   0.08781
     Eigenvalues ---    0.09136   0.09459   0.10405   0.10964   0.12445
     Eigenvalues ---    0.12904   0.13158   0.13901   0.15358   0.16603
     Eigenvalues ---    0.17251   0.17939   0.19282   0.19719   0.22472
     Eigenvalues ---    0.25096   0.25379   0.27210   0.29581   0.31246
     Eigenvalues ---    0.36235   0.40951   0.45199   0.45371   0.54180
     Eigenvalues ---    0.57332   0.60185   0.62453   0.67599   0.71268
     Eigenvalues ---    0.81034   0.87208   0.90385   0.96281   0.98671
     Eigenvalues ---    1.02619   1.05379   1.08175   1.10255   1.12828
     Eigenvalues ---    1.13613   1.13750   1.21642   1.37269
 Eigenvectors required to have negative eigenvalues:
                          Z25       Z29       Y29       Z27       Y27
   1                    0.44374  -0.39842   0.31089   0.28572  -0.27301
                          X11       Z9        Z24       X27       X25
   1                   -0.24835  -0.19463  -0.19340   0.19315  -0.19193
 RFO step:  Lambda0=1.173466962D-05 Lambda=-8.93031690D-02.
 Linear search not attempted -- option 19 set.
 Maximum step size (   0.300) exceeded in Quadratic search.
    -- Step size scaled by   0.269
 B after Tr=    -0.000593    0.004031    0.001344
         Rot=    0.999999   -0.000249    0.000320   -0.001077 Ang=  -0.13 deg.
 Variable       Old X    -DE/DX   Delta X   Delta X   Delta X     New X
                                 (Linear)    (Quad)   (Total)
    X1       -0.87038  -0.06615   0.00000  -0.01565  -0.01742  -0.88780
    Y1       -0.04402   0.01273   0.00000  -0.00198  -0.00084  -0.04487
    Z1        1.98495   0.00520   0.00000  -0.00139  -0.00064   1.98431
    X2        2.43890  -0.02850   0.00000   0.00133  -0.00169   2.43721
    Y2        1.46248  -0.01532   0.00000  -0.00401   0.00583   1.46831
    Z2       -1.11061  -0.03233   0.00000  -0.01207  -0.00843  -1.11904
    X3        0.41401   0.03677   0.00000   0.01951   0.01354   0.42755
    Y3        2.25269  -0.00581   0.00000  -0.00393   0.00062   2.25331
    Z3        0.81623   0.01495   0.00000   0.01326   0.01600   0.83223
    X4        2.47960   0.09582   0.00000   0.03741   0.04091   2.52051
    Y4       -1.43361   0.04987   0.00000  -0.00448   0.00576  -1.42784
    Z4       -1.60888   0.05474   0.00000   0.02983   0.03207  -1.57680
    X5        3.56005   0.01009   0.00000   0.03016   0.03546   3.59551
    Y5       -1.75753   0.00336   0.00000  -0.01205   0.00135  -1.75618
    Z5       -3.28703  -0.01688   0.00000   0.01519   0.01795  -3.26908
    X6        4.27237   0.01289   0.00000   0.00601   0.00113   4.27350
    Y6        2.16539   0.00137   0.00000   0.00353   0.01708   2.18246
    Z6       -0.62812   0.01246   0.00000   0.00303   0.00819  -0.61993
    X7        0.28722   0.01671   0.00000   0.01145   0.01099   0.29822
    Y7       -1.02721  -0.01616   0.00000  -0.01650  -0.01347  -1.04068
    Z7        3.31979  -0.00411   0.00000  -0.01994  -0.01893   3.30087
    X8       -0.86734  -0.01404   0.00000   0.00296  -0.00525  -0.87259
    Y8        3.55935   0.00077   0.00000  -0.01092  -0.00874   3.55061
    Z8       -0.04361  -0.01354   0.00000  -0.00429  -0.00174  -0.04534
    X9        0.20515  -0.08000   0.00000  -0.01947  -0.01312   0.19203
    Y9       -2.60379  -0.01988   0.00000   0.01313   0.01863  -2.58517
    Z9       -2.13680  -0.03770   0.00000   0.00666   0.00684  -2.12997
   X10        0.62921  -0.02152   0.00000  -0.07566  -0.06504   0.56417
   Y10       -4.58065  -0.02824   0.00000  -0.01155  -0.00528  -4.58593
   Z10       -2.10979   0.02623   0.00000   0.03486   0.03428  -2.07551
   X11       -2.13971   0.05908   0.00000   0.07478   0.07779  -2.06192
   Y11       -1.68871  -0.00844   0.00000  -0.00211  -0.00256  -1.69127
   Z11        0.09452   0.02169   0.00000  -0.03440  -0.03522   0.05930
   X12       -3.09529  -0.00183   0.00000  -0.00908  -0.01393  -3.10922
   Y12        0.92396  -0.02507   0.00000  -0.00975  -0.01420   0.90976
   Z12        3.59178   0.01138   0.00000  -0.00357  -0.00377   3.58802
   X13       -2.39835   0.00920   0.00000   0.01896   0.01053  -2.38781
   Y13        2.15751   0.01443   0.00000  -0.01196  -0.01557   2.14194
   Z13        5.03440   0.00998   0.00000   0.00163   0.00251   5.03691
   X14       -4.39099  -0.01260   0.00000   0.00290  -0.00345  -4.39444
   Y14        1.93188   0.01336   0.00000   0.03137   0.02475   1.95663
   Z14        2.41120  -0.01277   0.00000  -0.00379  -0.00429   2.40691
   X15       -4.36107   0.01034   0.00000  -0.02617  -0.02724  -4.38831
   Y15       -1.17280  -0.00696   0.00000  -0.00053  -0.00829  -1.18109
   Z15        4.73365  -0.00948   0.00000  -0.02464  -0.02669   4.70696
   X16       -5.48678  -0.00385   0.00000   0.03459   0.03135  -5.45543
   Y16       -0.57154   0.00612   0.00000   0.00799  -0.00273  -0.57428
   Z16        6.02298   0.00471   0.00000   0.02982   0.02739   6.05037
   X17       -0.68192  -0.01206   0.00000   0.06377   0.07013  -0.61179
   Y17       -1.99900  -0.01413   0.00000   0.05956   0.06443  -1.93457
   Z17       -4.30433  -0.03838   0.00000  -0.02990  -0.02992  -4.33424
   X18        3.72183  -0.00286   0.00000   0.01942   0.02449   3.74632
   Y18       -2.78351   0.00280   0.00000   0.02314   0.03502  -2.74849
   Z18        0.37533   0.01763   0.00000   0.05056   0.05293   0.42826
   X19        5.32811   0.00610   0.00000  -0.02187  -0.01493   5.31318
   Y19       -3.38548   0.00037   0.00000  -0.05894  -0.04337  -3.42885
   Z19       -0.21510  -0.00209   0.00000   0.01282   0.01585  -0.19924
   X20        1.80929   0.00720   0.00000  -0.02332  -0.02732   1.78197
   Y20        2.61613   0.02138   0.00000  -0.00315   0.00646   2.62258
   Z20       -3.47179  -0.00845   0.00000  -0.00937  -0.00558  -3.47738
   X21        1.14687  -0.00272   0.00000   0.05305   0.05260   1.19946
   Y21        1.36078  -0.00962   0.00000  -0.06067  -0.05176   1.30902
   Z21       -4.60157   0.00175   0.00000  -0.00096   0.00180  -4.59976
   X22        1.62158   0.00328   0.00000  -0.00450  -0.01470   1.60688
   Y22        3.62696  -0.00820   0.00000  -0.00970  -0.00361   3.62335
   Z22        2.80511   0.01603   0.00000   0.02782   0.03199   2.83710
   X23        1.32406  -0.00139   0.00000   0.04473   0.03087   1.35493
   Y23        5.40253   0.00596   0.00000  -0.00378   0.00191   5.40444
   Z23        2.58167  -0.00271   0.00000  -0.02277  -0.01787   2.56380
   X24       -4.10614  -0.03095   0.00000  -0.08329  -0.08424  -4.19038
   Y24        0.97992   0.02606   0.00000   0.02527   0.02167   1.00159
   Z24       -2.81768   0.00188   0.00000   0.01638   0.01554  -2.80214
   X25       -3.60828   0.00205   0.00000  -0.03191  -0.03182  -3.64009
   Y25        1.19552  -0.00472   0.00000  -0.02583  -0.02715   1.16838
   Z25       -5.02331   0.00125   0.00000   0.01981   0.01941  -5.00391
   X26       -3.78358  -0.00428   0.00000   0.04188   0.03696  -3.74662
   Y26        2.69630   0.00928   0.00000   0.00262  -0.00026   2.69603
   Z26       -2.32665   0.00839   0.00000   0.02158   0.02187  -2.30478
   X27       -3.51871   0.01574   0.00000   0.00765   0.00850  -3.51021
   Y27       -0.33095  -0.00763   0.00000   0.01798   0.01503  -0.31592
   Z27       -1.08751  -0.02404   0.00000  -0.09444  -0.09550  -1.18301
   X28       -2.53520  -0.00801   0.00000  -0.04789  -0.04622  -2.58141
   Y28        1.06506  -0.02301   0.00000  -0.03005  -0.02809   1.03697
   Z28       -7.01676  -0.00009   0.00000  -0.00259  -0.00238  -7.01914
   X29       -1.54757   0.00049   0.00000  -0.05849  -0.05393  -1.60150
   Y29       -0.64817   0.01704   0.00000   0.03516   0.03871  -0.60945
   Z29       -5.90690  -0.00570   0.00000  -0.07994  -0.07992  -5.98683
   X30       -1.34623   0.00500   0.00000  -0.02383  -0.02496  -1.37119
   Y30        2.42003   0.00829   0.00000  -0.03597  -0.03131   2.38871
   Z30       -7.22050   0.00001   0.00000   0.02458   0.02623  -7.19427
         Item               Value     Threshold  Converged?
 Maximum Force            0.095819     0.000450     NO 
 RMS     Force            0.023034     0.000300     NO 
 Maximum Displacement     0.095503     0.001800     NO 
 RMS     Displacement     0.031132     0.001200     NO 
 Predicted change in Energy=-2.334465D-02
 GradGradGradGradGradGradGradGradGradGradGradGradGradGradGradGradGradGrad

                          Input orientation:                          
 ---------------------------------------------------------------------
 Center     Atomic      Atomic             Coordinates (Angstroms)
 Number     Number       Type             X           Y           Z
 ---------------------------------------------------------------------
      1          6           0       -0.469802   -0.023744    1.050053
      2          6           0        1.289714    0.776999   -0.592173
      3          6           0        0.226250    1.192400    0.440395
      4          6           0        1.333797   -0.755582   -0.834407
      5          1           0        1.902661   -0.929331   -1.729922
      6          1           0        2.261441    1.154911   -0.328053
      7          1           0        0.157809   -0.550704    1.746745
      8          1           0       -0.461753    1.878900   -0.023994
      9          6           0        0.101616   -1.368011   -1.127131
     10          1           0        0.298544   -2.426771   -1.098314
     11          8           0       -1.091120   -0.894981    0.031382
     12          6           0       -1.645329    0.481426    1.898698
     13          1           0       -1.263576    1.133465    2.665419
     14          1           0       -2.325438    1.035403    1.273684
     15          8           0       -2.322195   -0.625007    2.490814
     16          1           0       -2.886888   -0.303894    3.201717
     17          8           0       -0.323744   -1.023730   -2.293583
     18          8           0        1.982468   -1.454438    0.226628
     19          1           0        2.811612   -1.814472   -0.105436
     20          8           0        0.942978    1.387811   -1.840148
     21          1           0        0.634728    0.692703   -2.434090
     22          8           0        0.850322    1.917393    1.501330
     23          1           0        0.717000    2.859908    1.356706
     24          8           0       -2.217455    0.530019   -1.482829
     25          1           0       -1.926255    0.618278   -2.647954
     26          1           0       -1.982626    1.426679   -1.219639
     27          1           0       -1.857524   -0.167177   -0.626021
     28          8           0       -1.366025    0.548740   -3.714367
     29          1           0       -0.847476   -0.322510   -3.168092
     30          1           0       -0.725601    1.264053   -3.807041
 ---------------------------------------------------------------------
                    Distance matrix (angstroms):
                    1          2          3          4          5
     1  C    0.000000
     2  C    2.536531   0.000000
     3  C    1.528129   1.539386   0.000000
     4  C    2.709196   1.552233   2.578064   0.000000
     5  H    3.765226   2.140499   3.467329   1.075054   0.000000
     6  H    3.278428   1.075560   2.175757   2.183324   2.537326
     7  H    1.075621   2.917968   2.179368   2.843812   3.908334
     8  H    2.184879   2.145844   1.077166   3.289569   4.048061
     9  C    2.621774   2.509746   3.004725   1.406778   1.949246
    10  H    3.313665   3.391568   3.933351   1.983498   2.283516
    11  O    1.477424   2.975350   2.501983   2.578613   3.473629
    12  C    1.535337   3.860865   2.476881   4.227913   5.267385
    13  H    2.139770   4.154306   2.678393   4.750119   5.796482
    14  H    2.148299   4.076459   2.688890   4.587121   5.546048
    15  O    2.422534   4.951395   3.741893   4.943726   5.979685
    16  H    3.248145   5.745079   4.422152   5.857346   6.903044
    17  O    3.493023   2.956462   3.562073   2.224531   2.298587
    18  O    2.956103   2.475814   3.183669   1.426523   2.027361
    19  H    3.912740   3.044471   4.002912   1.958720   2.061218
    20  O    3.513075   1.432047   2.398491   2.399664   2.510435
    21  H    3.724585   1.956724   2.946050   2.268306   2.175890
    22  O    2.390479   2.424112   1.428518   3.582487   4.433085
    23  H    3.133366   2.909406   1.964954   4.272375   5.029055
    24  O    3.126730   3.626913   3.179502   3.832050   4.377911
    25  H    4.026004   3.820194   3.807991   3.975473   4.230659
    26  H    3.089315   3.394703   2.773037   3.988650   4.572376
    27  H    2.180727   3.285988   2.706992   3.251795   3.992300
    28  O    4.881665   4.105258   4.495741   4.157459   4.099636
    29  H    4.245545   3.523047   4.058204   3.223599   3.162249
    30  H    5.031423   3.825453   4.353375   4.142053   4.004137
                    6          7          8          9         10
     6  H    0.000000
     7  H    3.411623   0.000000
     8  H    2.834148   3.069584   0.000000
     9  C    3.415919   2.988362   3.475158   0.000000
    10  H    4.156285   3.410835   4.502334   1.077304   0.000000
    11  O    3.946000   2.149609   2.844923   1.728736   2.356642
    12  C    4.546961   2.083192   2.655283   3.953210   4.606336
    13  H    4.624616   2.387618   2.903710   4.743897   5.411209
    14  H    4.859969   2.984298   2.422556   4.175033   4.949577
    15  O    5.667789   2.590286   4.006876   4.417741   4.795464
    16  H    6.410357   3.383495   4.588145   5.366789   5.757070
    17  O    3.910622   4.096327   3.687186   1.288438   1.945362
    18  O    2.682200   2.541038   4.141035   2.318995   2.352977
    19  H    3.028114   3.474241   4.935842   2.930404   2.770600
    20  O    2.019658   4.152123   2.347947   2.968306   3.939117
    21  H    2.700966   4.387811   2.901361   2.497778   3.410049
    22  O    2.432956   2.575132   2.012371   4.273552   5.092580
    23  H    2.851443   3.478088   2.063533   4.942008   5.843903
    24  O    4.667387   4.152106   2.651446   3.017802   3.901373
    25  H    4.817335   5.002321   3.258696   3.220328   4.077186
    26  H    4.345215   4.158237   1.986738   3.487537   4.479680
    27  H    4.336193   3.136666   2.548929   2.351880   3.158711
    28  O    4.999307   5.775343   4.025654   3.538601   4.297463
    29  H    4.462505   5.021782   3.857504   2.481808   3.166269
    30  H    4.586686   5.909170   3.841757   3.846293   4.691296
                   11         12         13         14         15
    11  O    0.000000
    12  C    2.385060   0.000000
    13  H    3.329036   1.076453   0.000000
    14  H    2.606384   1.077070   1.753309   0.000000
    15  O    2.763555   1.425813   2.059948   2.058732   0.000000
    16  H    3.691231   1.963684   2.233553   2.413763   0.963003
    17  O    2.451716   4.646214   5.488942   4.579543   5.200312
    18  O    3.130185   4.438953   4.814742   5.084653   4.934027
    19  H    4.011920   5.399261   5.742396   6.034322   5.874633
    20  O    3.584874   4.636792   5.023316   4.527989   5.785328
    21  H    3.402624   4.900648   5.459196   4.756849   5.893593
    22  O    3.720134   2.906575   2.537363   3.303813   4.184226
    23  H    4.373211   3.395810   2.935305   3.548540   4.761044
    24  O    2.364761   3.429929   4.299069   2.804539   4.139432
    25  H    3.188455   4.557377   5.379265   3.963911   5.301836
    26  H    2.783872   3.275866   3.961904   2.547014   4.253491
    27  H    1.244690   2.615324   3.588596   2.296524   3.184367
    28  O    4.023747   5.620413   6.407345   5.102742   6.387192
    29  H    3.259406   5.191844   6.026844   4.874185   5.855726
    30  H    4.419110   5.832140   6.496092   5.331560   6.766139
                   16         17         18         19         20
    16  H    0.000000
    17  O    6.106243   0.000000
    18  O    5.821128   3.443194   0.000000
    19  H    6.759586   3.904320   0.963000   0.000000
    20  O    6.553636   2.761470   3.664762   4.093364   0.000000
    21  H    6.719919   1.970927   3.675056   4.055536   0.964862
    22  O    4.668209   4.942672   3.778342   4.511670   3.384452
    23  H    5.138260   5.430507   4.635954   5.326826   3.526757
    24  O    4.805052   2.580233   4.949714   5.717111   3.294210
    25  H    5.999323   2.321597   5.276125   5.901699   3.078511
    26  H    4.833318   3.147976   5.110235   5.893320   2.990937
    27  H    3.966089   2.422174   4.138791   4.978495   3.425624
    28  O    7.132477   2.361702   5.545860   6.005148   3.090021
    29  H    6.688350   1.237243   4.562233   4.999474   2.809690
    30  H    7.500154   2.772363   5.567254   5.974200   2.582274
                   21         22         23         24         25
    21  H    0.000000
    22  O    4.127211   0.000000
    23  H    4.367342   0.962821   0.000000
    24  O    3.011032   4.499030   4.701315   0.000000
    25  H    2.570975   5.158841   5.296131   1.204202   0.000000
    26  H    2.977273   3.958544   3.997460   0.963541   1.642185
    27  H    3.196846   4.025355   4.441016   1.161789   2.170225
    28  O    2.379674   5.830000   5.949477   2.388524   1.206620
    29  H    1.940708   5.450063   5.748840   2.333187   1.522955
    30  H    2.015424   5.575768   5.593938   2.857690   1.789435
                   26         27         28         29         30
    26  H    0.000000
    27  H    1.705406   0.000000
    28  O    2.715629   3.208113   0.000000
    29  H    2.853891   2.739790   1.151688   0.000000
    30  H    2.881182   3.667227   0.964575   1.714727   0.000000
 Stoichiometry    C6H16O8
 Framework group  C1[X(C6H16O8)]
 Deg. of freedom    84
 Full point group                 C1      NOp   1
 Largest Abelian subgroup         C1      NOp   1
 Largest concise Abelian subgroup C1      NOp   1
                         Standard orientation:                         
 ---------------------------------------------------------------------
 Center     Atomic      Atomic             Coordinates (Angstroms)
 Number     Number       Type             X           Y           Z
 ---------------------------------------------------------------------
      1          6           0        1.428678    0.035837   -0.166409
      2          6           0       -0.463101    1.444114    0.767355
      3          6           0        0.753518    0.561456    1.099712
      4          6           0       -0.766831    1.510592   -0.753419
      5          1           0       -1.753501    1.920474   -0.872671
      6          1           0       -0.357898    2.430021    1.184190
      7          1           0        1.985314    0.797890   -0.682540
      8          1           0        0.441986   -0.226082    1.765308
      9          6           0       -0.863730    0.273534   -1.416234
     10          1           0       -0.909466    0.517605   -2.464529
     11          8           0        0.501469   -0.716649   -1.036368
     12          6           0        2.487168   -0.993147    0.255552
     13          1           0        3.199842   -0.511098    0.902449
     14          1           0        2.011212   -1.795421    0.793978
     15          8           0        3.145861   -1.507669   -0.899583
     16          1           0        3.955686   -1.952136   -0.627540
     17          8           0       -1.924674   -0.364167   -1.058731
     18          8           0        0.138206    2.364625   -1.450920
     19          1           0       -0.346260    3.137311   -1.760141
     20          8           0       -1.607902    0.858036    1.397199
     21          1           0       -2.164951    0.480432    0.705773
     22          8           0        1.716333    1.330323    1.822549
     23          1           0        1.632675    1.133477    2.761313
     24          8           0       -0.739141   -2.151066    0.376228
     25          1           0       -1.932987   -2.072791    0.513003
     26          1           0       -0.487218   -1.912318    1.275085
     27          1           0        0.015184   -1.616921   -0.327644
     28          8           0       -3.082406   -1.705838    0.502426
     29          1           0       -2.667790   -1.062698   -0.358300
     30          1           0       -3.258010   -1.122815    1.250525
 ---------------------------------------------------------------------
 Rotational constants (GHZ):      0.7625774      0.5509106      0.4716230
 Standard basis: 6-31G(d) (6D, 7F)
 There are   242 symmetry adapted cartesian basis functions of A   symmetry.
 There are   242 symmetry adapted basis functions of A   symmetry.
   242 basis functions,   456 primitive gaussians,   242 cartesian basis functions
    58 alpha electrons       58 beta electrons
       nuclear repulsion energy      1151.5429378339 Hartrees.
 NAtoms=   30 NActive=   30 NUniq=   30 SFac= 1.00D+00 NAtFMM=   60 NAOKFM=F Big=F
 Integral buffers will be    131072 words long.
 Raffenetti 2 integral format.
 Two-electron integral symmetry is turned on.
 One-electron integrals computed using PRISM.
 NBasis=   242 RedAO= T EigKep=  1.35D-03  NBF=   242
 NBsUse=   242 1.00D-06 EigRej= -1.00D+00 NBFU=   242
 Initial guess from the checkpoint file:  "/scratch/10451536.yak.local/Gau-1529.chk"
 B after Tr=    -0.000000    0.000000    0.000000
         Rot=    0.999973   -0.005717   -0.000543    0.004548 Ang=  -0.84 deg.
 ExpMin= 1.61D-01 ExpMax= 5.48D+03 ExpMxC= 8.25D+02 IAcc=1 IRadAn=         1 AccDes= 0.00D+00
 Harris functional with IExCor=  402 and IRadAn=       1 diagonalized for initial guess.
 HarFok:  IExCor=  402 AccDes= 0.00D+00 IRadAn=         1 IDoV= 1 UseB2=F ITyADJ=14
 ICtDFT=  3500011 ScaDFX=  1.000000  1.000000  1.000000  1.000000
 FoFCou: FMM=F IPFlag=           0 FMFlag=      100000 FMFlg1=           0
         NFxFlg=           0 DoJE=T BraDBF=F KetDBF=T FulRan=T
         wScrn=  0.000000 ICntrl=     500 IOpCl=  0 I1Cent=   200000004 NGrid=           0
         NMat0=    1 NMatS0=      1 NMatT0=    0 NMatD0=    1 NMtDS0=    0 NMtDT0=    0
 Petite list used in FoFCou.
 Requested convergence on RMS density matrix=1.00D-08 within 128 cycles.
 Requested convergence on MAX density matrix=1.00D-06.
 Requested convergence on             energy=1.00D-06.
 No special actions if energy rises.
 Integral accuracy reduced to 1.0D-05 until final iterations.
 Initial convergence to 1.0D-05 achieved.  Increase integral accuracy.
 SCF Done:  E(RB3LYP) =  -839.866421201     A.U. after   12 cycles
            NFock= 12  Conv=0.59D-08     -V/T= 2.0077
 Calling FoFJK, ICntrl=      2127 FMM=F ISym2X=0 I1Cent= 0 IOpClX= 0 NMat=1 NMatS=1 NMatT=0.
 ***** Axes restored to original set *****
 -------------------------------------------------------------------
 Center     Atomic                   Forces (Hartrees/Bohr)
 Number     Number              X              Y              Z
 -------------------------------------------------------------------
      1        6          -0.049647113    0.009493687    0.004028577
      2        6          -0.021074091   -0.011032688   -0.024781059
      3        6           0.028229758   -0.004403094    0.012133367
      4        6           0.073675737    0.038057140    0.041533012
      5        1           0.009293335    0.002756159   -0.012636040
      6        1           0.009837886    0.001166347    0.010250715
      7        1           0.013151686   -0.012994831   -0.004565242
      8        1          -0.010389044   -0.000301050   -0.010563231
      9        6          -0.060219251   -0.014866744   -0.028931963
     10        1          -0.020777493   -0.021551930    0.023279229
     11        8           0.048462530   -0.006156273    0.014295658
     12        6          -0.002261459   -0.019382720    0.008400214
     13        1           0.007332914    0.010876137    0.007194884
     14        1          -0.010134441    0.010541208   -0.009734730
     15        8           0.006971261   -0.005710709   -0.006437996
     16        1          -0.002203852    0.004190803    0.002841993
     17        8          -0.007640636   -0.011377060   -0.029966305
     18        8           0.000519407    0.002804451    0.014580468
     19        1           0.003503882    0.000280549    0.000048855
     20        8           0.005486313    0.015720381   -0.007536077
     21        1          -0.001661230   -0.008066547    0.002648991
     22        8           0.002192739   -0.005521603    0.013417498
     23        1           0.000007967    0.003561128   -0.002037420
     24        8          -0.026602684    0.023340054    0.002692957
     25        1           0.000302685   -0.004366200    0.002831451
     26        1          -0.003794511    0.006122648    0.007394591
     27        1           0.012825817   -0.005101338   -0.023281815
     28        8          -0.007352397   -0.016935453   -0.000529008
     29        1          -0.000429315    0.013703492   -0.006909638
     30        1           0.002393599    0.005154054    0.000338068
 -------------------------------------------------------------------
 Cartesian Forces:  Max     0.073675737 RMS     0.017919823

 GradGradGradGradGradGradGradGradGradGradGradGradGradGradGradGradGradGrad
 Berny optimization.
 Search for a saddle point.
 Step number   2 out of a maximum of  180
 All quantities printed in internal units (Hartrees-Bohrs-Radians)
 Swapping is turned off.
 Update second derivatives using D2CorN and points    1    2
 ITU=  0  0
     Eigenvalues ---   -0.13755  -0.02501  -0.01160  -0.00986  -0.00916
     Eigenvalues ---   -0.00892  -0.00567  -0.00265  -0.00200  -0.00078
     Eigenvalues ---    0.00023   0.00194   0.00302   0.00449   0.00761
     Eigenvalues ---    0.00969   0.01219   0.01494   0.01695   0.01980
     Eigenvalues ---    0.02066   0.02561   0.03000   0.03057   0.03190
     Eigenvalues ---    0.03338   0.03713   0.04165   0.04272   0.04964
     Eigenvalues ---    0.05232   0.05433   0.05732   0.05881   0.06193
     Eigenvalues ---    0.06360   0.06725   0.06757   0.08011   0.08780
     Eigenvalues ---    0.09141   0.09459   0.10412   0.10964   0.12463
     Eigenvalues ---    0.12916   0.13161   0.13907   0.15363   0.16616
     Eigenvalues ---    0.17258   0.17936   0.19306   0.19724   0.22472
     Eigenvalues ---    0.25109   0.25384   0.27203   0.29576   0.31266
     Eigenvalues ---    0.36264   0.40938   0.45213   0.45366   0.54197
     Eigenvalues ---    0.57333   0.60182   0.62453   0.67617   0.71280
     Eigenvalues ---    0.81022   0.87190   0.90379   0.96243   0.98668
     Eigenvalues ---    1.02505   1.05405   1.08112   1.10200   1.12879
     Eigenvalues ---    1.13591   1.13744   1.21663   1.37230
 Eigenvectors required to have negative eigenvalues:
                          Z25       Z29       Y29       Z27       Y27
   1                    0.44368  -0.39697   0.31052   0.28726  -0.27322
                          X11       Z9        Z24       X27       X25
   1                   -0.24917  -0.19508  -0.19307   0.19296  -0.19158
 RFO step:  Lambda0=1.387917223D-05 Lambda=-6.84220703D-02.
 Linear search not attempted -- option 19 set.
 Maximum step size (   0.300) exceeded in Quadratic search.
    -- Step size scaled by   0.267
 B after Tr=     0.003199    0.004690    0.001971
         Rot=    0.999999   -0.000189   -0.000121   -0.001091 Ang=  -0.13 deg.
 Variable       Old X    -DE/DX   Delta X   Delta X   Delta X     New X
                                 (Linear)    (Quad)   (Total)
    X1       -0.88780  -0.04965   0.00000  -0.01278  -0.00899  -0.89679
    Y1       -0.04487   0.00949   0.00000  -0.00274  -0.00076  -0.04563
    Z1        1.98431   0.00403   0.00000  -0.00549  -0.00332   1.98099
    X2        2.43721  -0.02107   0.00000   0.00241   0.00214   2.43934
    Y2        1.46831  -0.01103   0.00000  -0.00453   0.00590   1.47422
    Z2       -1.11904  -0.02478   0.00000  -0.00945  -0.00751  -1.12656
    X3        0.42755   0.02823   0.00000   0.01590   0.01440   0.44195
    Y3        2.25331  -0.00440   0.00000  -0.00356   0.00177   2.25508
    Z3        0.83223   0.01213   0.00000   0.01026   0.01298   0.84520
    X4        2.52051   0.07368   0.00000   0.03374   0.03969   2.56020
    Y4       -1.42784   0.03806   0.00000  -0.00790   0.00295  -1.42490
    Z4       -1.57680   0.04153   0.00000   0.02919   0.03001  -1.54679
    X5        3.59551   0.00929   0.00000   0.03530   0.04157   3.63707
    Y5       -1.75618   0.00276   0.00000  -0.01317   0.00067  -1.75551
    Z5       -3.26908  -0.01264   0.00000   0.02223   0.02266  -3.24642
    X6        4.27350   0.00984   0.00000   0.00408   0.00235   4.27585
    Y6        2.18246   0.00117   0.00000   0.00210   0.01634   2.19881
    Z6       -0.61993   0.01025   0.00000   0.00679   0.00856  -0.61137
    X7        0.29822   0.01315   0.00000   0.00825   0.01455   0.31276
    Y7       -1.04068  -0.01299   0.00000  -0.01631  -0.01218  -1.05286
    Z7        3.30087  -0.00457   0.00000  -0.02210  -0.02061   3.28026
    X8       -0.87259  -0.01039   0.00000   0.00442  -0.00012  -0.87270
    Y8        3.55061  -0.00030   0.00000  -0.00732  -0.00451   3.54610
    Z8       -0.04534  -0.01056   0.00000  -0.00303   0.00049  -0.04485
    X9        0.19203  -0.06022   0.00000  -0.01410  -0.00581   0.18622
    Y9       -2.58517  -0.01487   0.00000   0.01349   0.01937  -2.56579
    Z9       -2.12997  -0.02893   0.00000   0.00609   0.00705  -2.12292
   X10        0.56417  -0.02078   0.00000  -0.08052  -0.06780   0.49637
   Y10       -4.58593  -0.02155   0.00000  -0.00957  -0.00304  -4.58897
   Z10       -2.07551   0.02328   0.00000   0.02823   0.02835  -2.04717
   X11       -2.06192   0.04846   0.00000   0.06392   0.07082  -1.99110
   Y11       -1.69127  -0.00616   0.00000  -0.00008   0.00025  -1.69102
   Z11        0.05930   0.01430   0.00000  -0.04008  -0.03826   0.02104
   X12       -3.10922  -0.00226   0.00000  -0.00853  -0.00642  -3.11564
   Y12        0.90976  -0.01938   0.00000  -0.01137  -0.01483   0.89493
[...]
    Y5       -1.80605   0.00004   0.00000  -0.01207  -0.01303  -1.81907
    Z5       -3.14231   0.00053   0.00000   0.00726   0.00927  -3.13304
    X6        4.36129   0.00055   0.00000   0.01805   0.01707   4.37837
    Y6        2.18154  -0.00005   0.00000   0.00346   0.00129   2.18283
    Z6       -0.48172   0.00038   0.00000  -0.02117  -0.01694  -0.49866
    X7        0.34489   0.00021   0.00000  -0.00438  -0.00664   0.33825
    Y7       -1.20530  -0.00067   0.00000  -0.01861  -0.02330  -1.22860
    Z7        3.06978  -0.00206   0.00000  -0.02889  -0.02855   3.04124
    X8       -0.82029   0.00010   0.00000   0.02568   0.02426  -0.79602
    Y8        3.46142   0.00012   0.00000   0.00468   0.00135   3.46276
    Z8       -0.15456  -0.00080   0.00000  -0.00314  -0.00111  -0.15567
    X9        0.20146  -0.00595   0.00000  -0.00340  -0.00256   0.19890
    Y9       -2.56386  -0.00960   0.00000  -0.00901  -0.01118  -2.57504
    Z9       -2.15338  -0.00394   0.00000   0.01027   0.00988  -2.14350
   X10        0.16365  -0.00271   0.00000  -0.02341  -0.02242   0.14123
   Y10       -4.61116   0.00186   0.00000   0.00076  -0.00164  -4.61280
   Z10       -1.75693   0.00229   0.00000   0.05969   0.05826  -1.69868
   X11       -1.82379   0.00079   0.00000  -0.01241  -0.01283  -1.83662
   Y11       -1.54837   0.00456   0.00000   0.04110   0.03760  -1.51076
   Z11       -0.20563  -0.00083   0.00000  -0.02249  -0.02347  -0.22910
   X12       -3.12225  -0.00078   0.00000   0.00858   0.00565  -3.11660
   Y12        0.80919  -0.00173   0.00000  -0.00518  -0.01079   0.79840
   Z12        3.55281  -0.00044   0.00000  -0.00166  -0.00221   3.55060
   X13       -2.34853   0.00092   0.00000   0.01360   0.00966  -2.33887
   Y13        2.16191   0.00071   0.00000  -0.02858  -0.03472   2.12719
   Z13        4.92044   0.00043   0.00000   0.01737   0.01790   4.93834
   X14       -4.51447  -0.00085   0.00000   0.01370   0.01120  -4.50327
   Y14        1.82580   0.00081   0.00000   0.02108   0.01578   1.84158
   Z14        2.38402  -0.00133   0.00000   0.01071   0.00991   2.39393
   X15       -4.24974   0.00579   0.00000   0.00827   0.00510  -4.24464
   Y15       -1.29248  -0.00426   0.00000  -0.02147  -0.02788  -1.32036
   Z15        4.76827  -0.00500   0.00000  -0.02971  -0.03192   4.73635
   X16       -5.51699  -0.00377   0.00000   0.00061  -0.00331  -5.52030
   Y16       -0.66275   0.00216   0.00000  -0.02525  -0.03247  -0.69521
   Z16        5.91201   0.00346   0.00000  -0.02429  -0.02689   5.88511
   X17       -0.40965   0.00251   0.00000   0.01894   0.02095  -0.38870
   Y17       -1.95230  -0.00153   0.00000  -0.03470  -0.03582  -1.98812
   Z17       -4.49479  -0.00123   0.00000  -0.00704  -0.00747  -4.50226
   X18        3.80965   0.00403   0.00000   0.01237   0.01167   3.82132
   Y18       -2.67150   0.00055   0.00000   0.00322   0.00036  -2.67115
   Z18        0.69329   0.00030   0.00000   0.00898   0.01052   0.70380
   X19        5.50543  -0.00364   0.00000   0.05368   0.05329   5.55872
   Y19       -3.20798   0.00180   0.00000   0.09642   0.09410  -3.11389
   Z19        0.23686   0.00360   0.00000   0.04583   0.04810   0.28495
   X20        2.01145  -0.00258   0.00000  -0.03088  -0.03025   1.98120
   Y20        2.52982  -0.00240   0.00000  -0.01179  -0.01292   2.51690
   Z20       -3.56059  -0.00179   0.00000   0.00624   0.00932  -3.55127
   X21        1.20672   0.00148   0.00000   0.01372   0.01512   1.22185
   Y21        1.11702   0.00098   0.00000  -0.02247  -0.02329   1.09373
   Z21       -4.47760   0.00153   0.00000  -0.00327  -0.00131  -4.47890
   X22        1.61158  -0.00158   0.00000  -0.02105  -0.02418   1.58739
   Y22        3.60290  -0.01153   0.00000  -0.02395  -0.02835   3.57455
   Z22        2.89578   0.00668   0.00000   0.04581   0.04920   2.94498
   X23        1.66189   0.00221   0.00000   0.08702   0.08382   1.74572
   Y23        5.35548   0.00957   0.00000  -0.01006  -0.01418   5.34130
   Z23        2.44692  -0.00365   0.00000  -0.01603  -0.01169   2.43524
   X24       -4.62093  -0.00062   0.00000   0.00105   0.00149  -4.61944
   Y24        1.24474  -0.00250   0.00000   0.03747   0.03468   1.27942
   Z24       -2.76758   0.00161   0.00000  -0.00266  -0.00380  -2.77138
   X25       -3.89089  -0.00307   0.00000  -0.00154   0.00002  -3.89087
   Y25        1.24408   0.00239   0.00000   0.05435   0.05272   1.29681
   Z25       -4.83643   0.00038   0.00000  -0.00257  -0.00330  -4.83973
   X26       -4.14019  -0.00210   0.00000  -0.14582  -0.14609  -4.28629
   Y26        2.87683   0.00283   0.00000   0.06178   0.05871   2.93554
   Z26       -2.08909   0.00184   0.00000   0.02481   0.02467  -2.06442
   X27       -3.49721  -0.00087   0.00000  -0.01148  -0.01138  -3.50859
   Y27       -0.13346   0.00271   0.00000   0.06851   0.06540  -0.06805
   Z27       -1.66151  -0.00258   0.00000  -0.01889  -0.02008  -1.68159
   X28       -2.84099  -0.00279   0.00000  -0.02148  -0.01868  -2.85967
   Y28        1.00967  -0.00310   0.00000  -0.02785  -0.02823   0.98144
   Z28       -6.97944  -0.00074   0.00000   0.00052   0.00020  -6.97924
   X29       -1.78870  -0.00144   0.00000  -0.02341  -0.02074  -1.80945
   Y29       -0.50935   0.00219   0.00000  -0.00271  -0.00327  -0.51262
   Z29       -6.21061  -0.00164   0.00000  -0.00298  -0.00346  -6.21406
   X30       -1.62021  -0.00059   0.00000  -0.00899  -0.00629  -1.62651
   Y30        2.36536   0.00085   0.00000  -0.04847  -0.04847   2.31689
   Z30       -7.18990  -0.00074   0.00000  -0.07864  -0.07763  -7.26753
         Item               Value     Threshold  Converged?
 Maximum Force            0.011532     0.000450     NO 
 RMS     Force            0.003227     0.000300     NO 
 Maximum Displacement     0.146093     0.001800     NO 
 RMS     Displacement     0.031514     0.001200     NO 
 Predicted change in Energy=-3.357876D-03
 GradGradGradGradGradGradGradGradGradGradGradGradGradGradGradGradGradGrad

                          Input orientation:                          
 ---------------------------------------------------------------------
 Center     Atomic      Atomic             Coordinates (Angstroms)
 Number     Number       Type             X           Y           Z
 ---------------------------------------------------------------------
      1          6           0       -0.484865   -0.027345    1.001389
      2          6           0        1.353726    0.760462   -0.603742
      3          6           0        0.287302    1.181020    0.452984
      4          6           0        1.462337   -0.773316   -0.771701
      5          1           0        2.077208   -0.962612   -1.657933
      6          1           0        2.316932    1.155104   -0.263878
      7          1           0        0.178993   -0.650146    1.609353
      8          1           0       -0.421237    1.832415   -0.082378
      9          6           0        0.105253   -1.362652   -1.134290
     10          1           0        0.074734   -2.440989   -0.898900
     11          8           0       -0.971896   -0.799461   -0.121235
     12          6           0       -1.649232    0.422495    1.878896
     13          1           0       -1.237675    1.125659    2.613255
     14          1           0       -2.383029    0.974523    1.266813
     15          8           0       -2.246167   -0.698703    2.506369
     16          1           0       -2.921218   -0.367891    3.114268
     17          8           0       -0.205691   -1.052069   -2.382493
     18          8           0        2.022156   -1.413510    0.372437
     19          1           0        2.941548   -1.647798    0.150791
     20          8           0        1.048404    1.331888   -1.879252
     21          1           0        0.646574    0.578776   -2.370134
     22          8           0        0.840013    1.891571    1.558417
     23          1           0        0.923794    2.826492    1.288671
     24          8           0       -2.444503    0.677041   -1.466551
     25          1           0       -2.058959    0.686240   -2.561073
     26          1           0       -2.268205    1.553420   -1.092441
     27          1           0       -1.856664   -0.036013   -0.889859
     28          8           0       -1.513271    0.519357   -3.693256
     29          1           0       -0.957517   -0.271268   -3.288341
     30          1           0       -0.860710    1.226043   -3.845809
 ---------------------------------------------------------------------
                    Distance matrix (angstroms):
                    1          2          3          4          5
     1  C    0.000000
     2  C    2.564664   0.000000
     3  C    1.535297   1.559101   0.000000
     4  C    2.737137   1.546764   2.588433   0.000000
     5  H    3.809323   2.145631   3.500699   1.095129   0.000000
     6  H    3.293805   1.094996   2.152664   2.169566   2.546680
     7  H    1.094628   2.875343   2.168431   2.707685   3.791572
     8  H    2.153441   2.138083   1.101343   3.288290   4.066544
     9  C    2.586970   2.519479   3.003805   1.523307   2.079144
    10  H    3.122488   3.460090   3.871915   2.173191   2.602236
    11  O    1.446945   2.841600   2.416116   2.519778   3.418347
    12  C    1.525819   3.910942   2.521656   4.258813   5.321094
    13  H    2.119965   4.147022   2.644880   4.728012   5.795893
    14  H    2.162687   4.184272   2.799219   4.690130   5.674535
    15  O    2.412026   4.976061   3.764069   4.950183   6.008547
    16  H    3.242845   5.776843   4.447039   5.872025   6.936272
    17  O    3.546641   2.980102   3.642754   2.335524   2.396793
    18  O    2.932949   2.475051   3.122145   1.425586   2.080563
    19  H    3.884546   2.981646   3.890829   1.950327   2.118501
    20  O    3.535042   1.430621   2.457918   2.414517   2.524312
    21  H    3.607590   1.911339   2.908912   2.246912   2.220320
    22  O    2.397461   2.493640   1.425607   3.594212   4.474587
    23  H    3.195503   2.834528   1.952197   4.182556   4.936614
    24  O    3.229097   3.895888   3.376591   4.224897   4.813622
    25  H    3.959560   3.934854   3.851530   4.210901   4.543375
    26  H    3.172262   3.739786   3.009591   4.408347   5.053001
    27  H    2.336392   3.320066   2.807310   3.401962   4.113864
    28  O    4.836962   4.221718   4.568497   4.365860   4.385238
    29  H    4.322578   3.689632   4.201931   3.527212   3.513651
    30  H    5.020714   3.953668   4.449671   4.340982   4.267127
                    6          7          8          9         10
     6  H    0.000000
     7  H    3.367300   0.000000
     8  H    2.826529   3.063551   0.000000
     9  C    3.462402   2.835609   3.404727   0.000000
    10  H    4.285159   3.083718   4.378890   1.104152   0.000000
    11  O    3.828454   2.083693   2.689147   1.582313   2.096380
    12  C    4.567128   2.136731   2.709695   3.917175   4.346003
    13  H    4.573182   2.483597   2.903879   4.694597   5.174807
    14  H    4.946237   3.053005   2.530795   4.173635   4.732508
    15  O    5.650906   2.586194   4.054447   4.384565   4.474148
    16  H    6.416354   3.457708   4.616254   5.310304   5.420238
    17  O    3.965320   4.030429   3.695570   1.323313   2.051532
    18  O    2.662624   2.347325   4.088161   2.438715   2.542531
    19  H    2.901440   3.279393   4.845057   3.126869   3.154304
    20  O    2.061516   4.105448   2.374685   2.950431   4.017925
    21  H    2.749284   4.191086   2.818804   2.364208   3.407420
    22  O    2.458543   2.626761   2.070377   4.287250   5.039359
    23  H    2.672973   3.569955   2.162654   4.908124   5.766518
    24  O    4.934190   4.255038   2.710060   3.282073   4.048566
    25  H    4.964409   4.918009   3.184302   3.304161   4.134613
    26  H    4.676394   4.259598   2.123525   3.760124   4.634881
    27  H    4.385147   3.281329   2.490683   2.380932   3.084524
    28  O    5.180276   5.687632   3.994384   3.565092   4.369649
    29  H    4.680163   5.042084   3.871857   2.638282   3.388607
    30  H    4.788806   5.861728   3.837217   3.871273   4.796504
                   11         12         13         14         15
    11  O    0.000000
    12  C    2.439772   0.000000
    13  H    3.354723   1.096861   0.000000
    14  H    2.658006   1.103557   1.774143   0.000000
    15  O    2.922024   1.416735   2.087290   2.086844   0.000000
    16  H    3.801919   1.941340   2.305650   2.346234   0.966784
    17  O    2.400869   4.734722   5.546620   4.708005   5.309368
    18  O    3.095984   4.372576   4.700547   5.090016   4.825267
    19  H    4.013567   5.324258   5.587638   6.039304   5.775978
    20  O    3.422702   4.714649   5.044929   4.669065   5.849032
    21  H    3.094597   4.832122   5.355711   4.750000   5.812073
    22  O    3.653205   2.908133   2.452772   3.363631   4.139160
    23  H    4.327704   3.570439   3.052753   3.790164   4.894736
    24  O    2.481634   3.448081   4.278143   2.750192   4.209051
    25  H    3.056440   4.466628   5.257496   3.852381   5.256623
    26  H    2.856521   3.238976   3.870033   2.431951   4.245466
    27  H    1.398732   2.814118   3.742251   2.439155   3.482131
    28  O    3.845998   5.574652   6.341580   5.056278   6.360516
    29  H    3.210881   5.259288   6.071139   4.932900   5.951637
    30  H    4.241165   5.834355   6.470833   5.340376   6.780435
                   16         17         18         19         20
    16  H    0.000000
    17  O    6.169001   0.000000
    18  O    5.748730   3.561402   0.000000
    19  H    6.692711   4.083814   0.974320   0.000000
    20  O    6.601696   2.740302   3.681780   4.072296   0.000000
    21  H    6.610899   1.840154   3.658296   4.071806   0.984687
    22  O    4.655395   5.028846   3.705074   4.350286   3.489161
    23  H    5.321748   5.458610   4.474763   5.038390   3.505012
    24  O    4.722611   2.973391   5.263395   6.085246   3.577645
    25  H    5.836453   2.547197   5.447011   6.148741   3.246143
    26  H    4.670575   3.564656   5.418094   6.239788   3.415852
    27  H    4.156495   2.446639   4.305361   5.167557   3.359981
    28  O    7.007990   2.428424   5.724079   6.270461   3.242375
    29  H    6.697676   1.412605   4.856384   5.378213   2.929055
    30  H    7.431621   2.785702   5.750805   6.220043   2.742857
                   21         22         23         24         25
    21  H    0.000000
    22  O    4.146609   0.000000
    23  H    4.303014   0.976657   0.000000
    24  O    3.221937   4.627479   4.853536   0.000000
    25  H    2.714391   5.179485   5.319589   1.160477   0.000000
    26  H    3.328419   4.099076   4.180822   0.969061   1.718332
    27  H    2.972437   4.120887   4.546524   1.089300   1.831810
    28  O    2.533597   5.916164   6.006809   2.418734   1.267858
    29  H    2.034401   5.603575   5.838192   2.535613   1.630618
    30  H    2.206462   5.704476   5.666460   2.910441   1.837861
                   26         27         28         29         30
    26  H    0.000000
    27  H    1.654298   0.000000
    28  O    2.898871   2.878435   0.000000
    29  H    3.141555   2.572261   1.047811   0.000000
    30  H    3.109542   3.364870   0.973917   1.600651   0.000000
 Stoichiometry    C6H16O8
 Framework group  C1[X(C6H16O8)]
 Deg. of freedom    84
 Full point group                 C1      NOp   1
 Largest Abelian subgroup         C1      NOp   1
 Largest concise Abelian subgroup C1      NOp   1
                         Standard orientation:                         
 ---------------------------------------------------------------------
 Center     Atomic      Atomic             Coordinates (Angstroms)
 Number     Number       Type             X           Y           Z
 ---------------------------------------------------------------------
      1          6           0        1.386024   -0.089415   -0.160757
      2          6           0       -0.386353    1.490531    0.808752
      3          6           0        0.788975    0.514076    1.118487
      4          6           0       -0.604019    1.708714   -0.706997
      5          1           0       -1.555593    2.237058   -0.828107
      6          1           0       -0.141757    2.448443    1.279490
      7          1           0        1.903249    0.686729   -0.733721
      8          1           0        0.349428   -0.300815    1.714899
      9          6           0       -0.833940    0.374560   -1.405305
     10          1           0       -0.624192    0.460616   -2.485930
     11          8           0        0.302768   -0.629266   -0.953706
     12          6           0        2.394470   -1.184875    0.172600
     13          1           0        3.098159   -0.756299    0.896651
     14          1           0        1.878845   -2.024793    0.669094
     15          8           0        3.053542   -1.613510   -1.005973
     16          1           0        3.738535   -2.243689   -0.744572
     17          8           0       -2.033295   -0.095564   -1.102501
     18          8           0        0.456825    2.441706   -1.314969
     19          1           0        0.132001    3.347885   -1.465398
     20          8           0       -1.606804    1.001077    1.372320
     21          1           0       -2.070813    0.612870    0.595404
     22          8           0        1.846535    1.122283    1.856056
     23          1           0        1.593275    1.097291    2.798974
     24          8           0       -0.838867   -2.358575    0.411822
     25          1           0       -1.967819   -2.096759    0.472028
     26          1           0       -0.463600   -2.216840    1.293959
     27          1           0       -0.346873   -1.653549   -0.257099
     28          8           0       -3.155859   -1.665629    0.371267
     29          1           0       -2.833134   -1.004584   -0.374907
     30          1           0       -3.359428   -1.095299    1.134023
 ---------------------------------------------------------------------
 Rotational constants (GHZ):      0.7280575      0.5532156      0.4551006
 Standard basis: 6-31G(d) (6D, 7F)
 There are   242 symmetry adapted cartesian basis functions of A   symmetry.
 There are   242 symmetry adapted basis functions of A   symmetry.
   242 basis functions,   456 primitive gaussians,   242 cartesian basis functions
    58 alpha electrons       58 beta electrons
       nuclear repulsion energy      1138.6024069590 Hartrees.
 NAtoms=   30 NActive=   30 NUniq=   30 SFac= 1.00D+00 NAtFMM=   60 NAOKFM=F Big=F
 Integral buffers will be    131072 words long.
 Raffenetti 2 integral format.
 Two-electron integral symmetry is turned on.
 One-electron integrals computed using PRISM.
 NBasis=   242 RedAO= T EigKep=  1.46D-03  NBF=   242
 NBsUse=   242 1.00D-06 EigRej= -1.00D+00 NBFU=   242
 Initial guess from the checkpoint file:  "/scratch/10451536.yak.local/Gau-1529.chk"
 B after Tr=     0.000000    0.000000   -0.000000
         Rot=    0.999979   -0.002647   -0.001670    0.005602 Ang=  -0.74 deg.
 ExpMin= 1.61D-01 ExpMax= 5.48D+03 ExpMxC= 8.25D+02 IAcc=1 IRadAn=         1 AccDes= 0.00D+00
 Harris functional with IExCor=  402 and IRadAn=       1 diagonalized for initial guess.
 HarFok:  IExCor=  402 AccDes= 0.00D+00 IRadAn=         1 IDoV= 1 UseB2=F ITyADJ=14
 ICtDFT=  3500011 ScaDFX=  1.000000  1.000000  1.000000  1.000000
 FoFCou: FMM=F IPFlag=           0 FMFlag=      100000 FMFlg1=           0
         NFxFlg=           0 DoJE=T BraDBF=F KetDBF=T FulRan=T
         wScrn=  0.000000 ICntrl=     500 IOpCl=  0 I1Cent=   200000004 NGrid=           0
         NMat0=    1 NMatS0=      1 NMatT0=    0 NMatD0=    1 NMtDS0=    0 NMtDT0=    0
 Petite list used in FoFCou.
 Requested convergence on RMS density matrix=1.00D-08 within 128 cycles.
 Requested convergence on MAX density matrix=1.00D-06.
 Requested convergence on             energy=1.00D-06.
 No special actions if energy rises.
 Integral accuracy reduced to 1.0D-05 until final iterations.
