 Entering Gaussian System, Link 0=g09
 Initial command:
 /usr/local/gaussian/g09.D01/g09/l1.exe "/nqs/iawad/Gau-31243.inp" -scrdir="/nqs/iawad/"
 Entering Link 1 = /usr/local/gaussian/g09.D01/g09/l1.exe PID=     31244.
  
 Copyright (c) 1988,1990,1992,1993,1995,1998,2003,2009,2013,
            Gaussian, Inc.  All Rights Reserved.
  
 This is part of the Gaussian(R) 09 program.  It is based on
 the Gaussian(R) 03 system (copyright 2003, Gaussian, Inc.),
 the Gaussian(R) 98 system (copyright 1998, Gaussian, Inc.),
 the Gaussian(R) 94 system (copyright 1995, Gaussian, Inc.),
 the Gaussian 92(TM) system (copyright 1992, Gaussian, Inc.),
 the Gaussian 90(TM) system (copyright 1990, Gaussian, Inc.),
 the Gaussian 88(TM) system (copyright 1988, Gaussian, Inc.),
 the Gaussian 86(TM) system (copyright 1986, Carnegie Mellon
 University), and the Gaussian 82(TM) system (copyright 1983,
 Carnegie Mellon University). Gaussian is a federally registered
 trademark of Gaussian, Inc.
  
 This software contains proprietary and confidential information,
 including trade secrets, belonging to Gaussian, Inc.
  
 This software is provided under written license and may be
 used, copied, transmitted, or stored only in accord with that
 written license.
  
 The following legend is applicable only to US Government
 contracts under FAR:
  
                    RESTRICTED RIGHTS LEGEND
  
 Use, reproduction and disclosure by the US Government is
 subject to restrictions as set forth in subparagraphs (a)
 and (c) of the Commercial Computer Software - Restricted
 Rights clause in FAR 52.227-19.
  
 Gaussian, Inc.
 340 Quinnipiac St., Bldg. 40, Wallingford CT 06492
  
  
 ---------------------------------------------------------------
 Warning -- This program may not be used in any manner that
 competes with the business of Gaussian, Inc. or will provide
 assistance to any competitor of Gaussian, Inc.  The licensee
 of this program is prohibited from giving any competitor of
 Gaussian, Inc. access to this program.  By using this program,
 the user acknowledges that Gaussian, Inc. is engaged in the
 business of creating and licensing software in the field of
 computational chemistry and represents and warrants to the
 licensee that it is not a competitor of Gaussian, Inc. and that
 it will not use this program in any manner prohibited above.
 ---------------------------------------------------------------
  

 Cite this work as:
 Gaussian 09, Revision D.01,
 M. J. Frisch, G. W. Trucks, H. B. Schlegel, G. E. Scuseria, 
 M. A. Robb, J. R. Cheeseman, G. Scalmani, V. Barone, B. Mennucci, 
 G. A. Petersson, H. Nakatsuji, M. Caricato, X. Li, H. P. Hratchian, 
 A. F. Izmaylov, J. Bloino, G. Zheng, J. L. Sonnenberg, M. Hada, 
 M. Ehara, K. Toyota, R. Fukuda, J. Hasegawa, M. Ishida, T. Nakajima, 
 Y. Honda, O. Kitao, H. Nakai, T. Vreven, J. A. Montgomery, Jr., 
 J. E. Peralta, F. Ogliaro, M. Bearpark, J. J. Heyd, E. Brothers, 
 K. N. Kudin, V. N. Staroverov, T. Keith, R. Kobayashi, J. Normand, 
 K. Raghavachari, A. Rendell, J. C. Burant, S. S. Iyengar, J. Tomasi, 
 M. Cossi, N. Rega, J. M. Millam, M. Klene, J. E. Knox, J. B. Cross, 
 V. Bakken, C. Adamo, J. Jaramillo, R. Gomperts, R. E. Stratmann, 
 O. Yazyev, A. J. Austin, R. Cammi, C. Pomelli, J. W. Ochterski, 
 R. L. Martin, K. Morokuma, V. G. Zakrzewski, G. A. Voth, 
 P. Salvador, J. J. Dannenberg, S. Dapprich, A. D. Daniels, 
 O. Farkas, J. B. Foresman, J. V. Ortiz, J. Cioslowski, 
 and D. J. Fox, Gaussian, Inc., Wallingford CT, 2013.
 
 ******************************************
 Gaussian 09:  AM64L-G09RevD.01 24-Apr-2013
                 4-Jun-2016 
 ******************************************
 %NPROCS=4
 Will use up to    4 processors via shared memory.
 %rwf=/nqs/iawad//glo_2w_ALPHA_B3LYP_6-31+G_d_p.rwf
 %nosave
 %chk=/home/iawad/scratch/MAIN/PRO_Halides/direct/TsF/glo_2w_ALPHA/glo_2w_ALPHA_B
 3LYP_6-31+G_d_p.chk
 --------------------------------------------------------------------
 # opt=(TS, CalcFC, NoEigenTest, MaxCycle=500) Freq B3LYP/6-31+G(d,p)
 --------------------------------------------------------------------
 1/5=1,6=500,10=4,11=1,14=-1,18=20,26=3,38=1/1,3;
 2/9=110,12=2,17=6,18=5,40=1/2;
 3/5=1,6=6,7=111,11=2,16=1,25=1,30=1,71=2,74=-5,140=1/1,2,3;
 4//1;
 5/5=2,38=5/2;
 8/6=4,10=90,11=11/1;
 11/6=1,8=1,9=11,15=111,16=1/1,2,10;
 10/6=1,13=1/2;
 6/7=2,8=2,9=2,10=2,28=1/1;
 7/10=1,18=20,25=1/1,2,3,16;
 1/5=1,6=500,10=4,11=1,14=-1,18=20,26=3/3(2);
 2/9=110/2;
 99//99;
 2/9=110/2;
 3/5=1,6=6,7=111,11=2,16=1,25=1,30=1,71=1,74=-5/1,2,3;
 4/5=5,16=3,69=1/1;
 5/5=2,38=5/2;
 7//1,2,3,16;
 1/5=1,6=500,11=1,14=-1,18=20,26=3/3(-5);
 2/9=110/2;
 6/7=2,8=2,9=2,10=2,19=2,28=1/1;
 99/9=1/99;
 -----------------------------
 glo_2w_ALPHA_B3LYP_6-31+G_d_p
 -----------------------------
 Symbolic Z-matrix:
 Charge =  0 Multiplicity = 1
 C
 O                    1    B1
 H                    2    B2       1    A1
 H                    1    B3       2    A2       3    D1       0
 O                    1    B4       2    A3       3    D2       0
 H                    5    B5       1    A4       2    D3       0
 O                    5    B6       1    A5       2    D4       0
 H                    7    B7       5    A6       1    D5       0
 C                    1    B8       2    A7       7    D6       0
 C                    9    B9       1    A8       2    D7       0
 C                    10   B10      9    A9       1    D8       0
 C                    2    B11      1    A10      9    D9       0
 H                    9    B12      1    A11      2    D10      0
 H                    11   B13      10   A12      9    D11      0
 H                    12   B14      2    A13      1    D12      0
 H                    10   B15      9    A14      1    D13      0
 O                    9    B16      1    A15      2    D14      0
 O                    10   B17      9    A16      1    D15      0
 O                    11   B18      10   A17      9    D16      0
 H                    18   B19      10   A18      9    D17      0
 H                    17   B20      9    A19      1    D18      0
 H                    19   B21      11   A20      10   D19      0
 C                    12   B22      2    A21      1    D20      0
 O                    23   B23      12   A22      2    D21      0
 H                    23   B24      12   A23      2    D22      0
 H                    23   B25      12   A24      2    D23      0
 H                    24   B26      23   A25      12   D24      0
 H                    1    B27      9    A26      17   D25      0
 O                    1    B28      9    A27      17   D26      0
 H                    5    B29      1    A28      29   D27      0
       Variables:
  B1                    1.70313                  
  B2                    2.74038                  
  B3                    3.53444                  
  B4                    3.1464                   
  B5                    1.36734                  
  B6                    2.45658                  
  B7                    1.10345                  
  B8                    1.53494                  
  B9                    1.52809                  
  B10                   1.53246                  
  B11                   1.42462                  
  B12                   1.10094                  
  B13                   1.09549                  
  B14                   1.10487                  
  B15                   1.10267                  
  B16                   1.41731                  
  B17                   1.42575                  
  B18                   1.43437                  
  B19                   0.97147                  
  B20                   0.97203                  
  B21                   0.97289                  
  B22                   1.52819                  
  B23                   1.44426                  
  B24                   1.09329                  
  B25                   1.09578                  
  B26                   0.9705                   
  B27                   1.10504                  
  B28                   1.28661                  
  B29                   1.08187                  
  A1                  118.4678                   
  A2                   97.17377                  
  A3                   86.91121                  
  A4                   76.56469                  
  A5                   71.07309                  
  A6                   94.18316                  
  A7                   98.11961                  
  A8                  109.61756                  
  A9                  113.25824                  
  A10                 109.17344                  
  A11                 108.45868                  
  A12                 108.89419                  
  A13                 109.21271                  
  A14                 107.0147                   
  A15                 108.45029                  
  A16                 107.01578                  
  A17                 109.79667                  
  A18                 106.5451                   
  A19                 105.59409                  
  A20                 107.05105                  
  A21                 110.51452                  
  A22                 112.98571                  
  A23                 110.07587                  
  A24                 109.48008                  
  A25                 107.64205                  
  A26                 112.13555                  
  A27                 117.44259                  
  A28                  27.26487                  
  D1                    6.31599                  
  D2                   -5.07335                  
  D3                   23.13348                  
  D4                   21.71803                  
  D5                  -10.05494                  
  D6                  172.61363                  
  D7                   63.93121                  
  D8                  -60.02073                  
  D9                  -73.70947                  
  D10                 -54.79883                  
  D11                 -69.58837                  
  D12                 -47.34866                  
  D13                  59.37411                  
  D14                -175.08158                  
  D15                 177.71302                  
  D16                 175.89842                  
  D17                 174.05423                  
  D18                -167.66791                  
  D19                 -59.94442                  
  D20                -166.8185                   
  D21                  74.8454                   
  D22                 -42.9371                   
  D23                -162.26147                  
  D24                  72.55055                  
  D25                 -75.71769                  
  D26                  66.36579                  
  D27                  -9.63767                  
 
 Add virtual bond connecting atoms H8         and O2         Dist= 2.58D+00.
 Add virtual bond connecting atoms H6         and O5         Dist= 2.58D+00.
 Add virtual bond connecting atoms O29        and H30        Dist= 2.67D+00.

 GradGradGradGradGradGradGradGradGradGradGradGradGradGradGradGradGradGrad
 Berny optimization.
 Initialization pass.
                           ----------------------------
                           !    Initial Parameters    !
                           ! (Angstroms and Degrees)  !
 --------------------------                            --------------------------
 ! Name  Definition              Value          Derivative Info.                !
 --------------------------------------------------------------------------------
 ! R1    R(1,9)                  1.5349         calculate D2E/DX2 analytically  !
 ! R2    R(1,28)                 1.105          calculate D2E/DX2 analytically  !
 ! R3    R(1,29)                 1.2866         calculate D2E/DX2 analytically  !
 ! R4    R(2,8)                  1.3663         calculate D2E/DX2 analytically  !
 ! R5    R(2,12)                 1.4246         calculate D2E/DX2 analytically  !
 ! R6    R(3,7)                  0.9879         calculate D2E/DX2 analytically  !
 ! R7    R(4,5)                  0.9697         calculate D2E/DX2 analytically  !
 ! R8    R(5,6)                  1.3673         calculate D2E/DX2 analytically  !
 ! R9    R(5,30)                 1.0819         calculate D2E/DX2 analytically  !
 ! R10   R(6,7)                  1.1042         calculate D2E/DX2 analytically  !
 ! R11   R(7,8)                  1.1035         calculate D2E/DX2 analytically  !
 ! R12   R(9,10)                 1.5281         calculate D2E/DX2 analytically  !
 ! R13   R(9,13)                 1.1009         calculate D2E/DX2 analytically  !
 ! R14   R(9,17)                 1.4173         calculate D2E/DX2 analytically  !
 ! R15   R(10,11)                1.5325         calculate D2E/DX2 analytically  !
 ! R16   R(10,16)                1.1027         calculate D2E/DX2 analytically  !
 ! R17   R(10,18)                1.4257         calculate D2E/DX2 analytically  !
 ! R18   R(11,12)                1.5379         calculate D2E/DX2 analytically  !
 ! R19   R(11,14)                1.0955         calculate D2E/DX2 analytically  !
 ! R20   R(11,19)                1.4344         calculate D2E/DX2 analytically  !
 ! R21   R(12,15)                1.1049         calculate D2E/DX2 analytically  !
 ! R22   R(12,23)                1.5282         calculate D2E/DX2 analytically  !
 ! R23   R(17,21)                0.972          calculate D2E/DX2 analytically  !
 ! R24   R(18,20)                0.9715         calculate D2E/DX2 analytically  !
 ! R25   R(19,22)                0.9729         calculate D2E/DX2 analytically  !
 ! R26   R(23,24)                1.4443         calculate D2E/DX2 analytically  !
 ! R27   R(23,25)                1.0933         calculate D2E/DX2 analytically  !
 ! R28   R(23,26)                1.0958         calculate D2E/DX2 analytically  !
 ! R29   R(24,27)                0.9705         calculate D2E/DX2 analytically  !
 ! R30   R(29,30)                1.4114         calculate D2E/DX2 analytically  !
 ! A1    A(9,1,28)             112.1356         calculate D2E/DX2 analytically  !
 ! A2    A(9,1,29)             117.4426         calculate D2E/DX2 analytically  !
 ! A3    A(28,1,29)            118.3515         calculate D2E/DX2 analytically  !
 ! A4    A(8,2,12)             110.8612         calculate D2E/DX2 analytically  !
 ! A5    A(4,5,6)              111.5552         calculate D2E/DX2 analytically  !
 ! A6    A(4,5,30)             106.9452         calculate D2E/DX2 analytically  !
 ! A7    A(6,5,30)             101.2637         calculate D2E/DX2 analytically  !
 ! A8    A(3,7,6)              108.8633         calculate D2E/DX2 analytically  !
 ! A9    A(3,7,8)               98.9929         calculate D2E/DX2 analytically  !
 ! A10   A(6,7,8)              101.1771         calculate D2E/DX2 analytically  !
 ! A11   A(1,9,10)             109.6176         calculate D2E/DX2 analytically  !
 ! A12   A(1,9,13)             108.4587         calculate D2E/DX2 analytically  !
 ! A13   A(1,9,17)             108.4503         calculate D2E/DX2 analytically  !
 ! A14   A(10,9,13)            108.8557         calculate D2E/DX2 analytically  !
 ! A15   A(10,9,17)            110.7186         calculate D2E/DX2 analytically  !
 ! A16   A(13,9,17)            110.7036         calculate D2E/DX2 analytically  !
 ! A17   A(9,10,11)            113.2582         calculate D2E/DX2 analytically  !
 ! A18   A(9,10,16)            107.0147         calculate D2E/DX2 analytically  !
 ! A19   A(9,10,18)            107.0158         calculate D2E/DX2 analytically  !
 ! A20   A(11,10,16)           108.4002         calculate D2E/DX2 analytically  !
 ! A21   A(11,10,18)           110.6982         calculate D2E/DX2 analytically  !
 ! A22   A(16,10,18)           110.39           calculate D2E/DX2 analytically  !
 ! A23   A(10,11,12)           110.822          calculate D2E/DX2 analytically  !
 ! A24   A(10,11,14)           108.8942         calculate D2E/DX2 analytically  !
 ! A25   A(10,11,19)           109.7967         calculate D2E/DX2 analytically  !
 ! A26   A(12,11,14)           109.2836         calculate D2E/DX2 analytically  !
 ! A27   A(12,11,19)           112.7775         calculate D2E/DX2 analytically  !
 ! A28   A(14,11,19)           105.0508         calculate D2E/DX2 analytically  !
 ! A29   A(2,12,11)            107.2798         calculate D2E/DX2 analytically  !
 ! A30   A(2,12,15)            109.2127         calculate D2E/DX2 analytically  !
 ! A31   A(2,12,23)            110.5145         calculate D2E/DX2 analytically  !
 ! A32   A(11,12,15)           108.0948         calculate D2E/DX2 analytically  !
 ! A33   A(11,12,23)           113.0071         calculate D2E/DX2 analytically  !
 ! A34   A(15,12,23)           108.6496         calculate D2E/DX2 analytically  !
 ! A35   A(9,17,21)            105.5941         calculate D2E/DX2 analytically  !
 ! A36   A(10,18,20)           106.5451         calculate D2E/DX2 analytically  !
 ! A37   A(11,19,22)           107.051          calculate D2E/DX2 analytically  !
 ! A38   A(12,23,24)           112.9857         calculate D2E/DX2 analytically  !
 ! A39   A(12,23,25)           110.0759         calculate D2E/DX2 analytically  !
 ! A40   A(12,23,26)           109.4801         calculate D2E/DX2 analytically  !
 ! A41   A(24,23,25)           105.6042         calculate D2E/DX2 analytically  !
 ! A42   A(24,23,26)           109.9446         calculate D2E/DX2 analytically  !
 ! A43   A(25,23,26)           108.6141         calculate D2E/DX2 analytically  !
 ! A44   A(23,24,27)           107.6421         calculate D2E/DX2 analytically  !
 ! A45   A(1,29,30)            112.1823         calculate D2E/DX2 analytically  !
 ! A46   L(5,6,7,1,-1)         167.6818         calculate D2E/DX2 analytically  !
 ! A47   L(2,8,7,24,-1)        173.795          calculate D2E/DX2 analytically  !
 ! A48   L(5,30,29,8,-1)       169.5487         calculate D2E/DX2 analytically  !
 ! A49   L(5,6,7,1,-2)         182.9801         calculate D2E/DX2 analytically  !
 ! A50   L(2,8,7,24,-2)        188.7693         calculate D2E/DX2 analytically  !
 ! A51   L(5,30,29,8,-2)       177.5923         calculate D2E/DX2 analytically  !
 ! D1    D(28,1,9,10)          163.2951         calculate D2E/DX2 analytically  !
 ! D2    D(28,1,9,13)           44.5651         calculate D2E/DX2 analytically  !
 ! D3    D(28,1,9,17)          -75.7177         calculate D2E/DX2 analytically  !
 ! D4    D(29,1,9,10)          -54.6214         calculate D2E/DX2 analytically  !
 ! D5    D(29,1,9,13)         -173.3515         calculate D2E/DX2 analytically  !
 ! D6    D(29,1,9,17)           66.3658         calculate D2E/DX2 analytically  !
 ! D7    D(9,1,29,30)         -179.3991         calculate D2E/DX2 analytically  !
 ! D8    D(28,1,29,30)         -39.7001         calculate D2E/DX2 analytically  !
 ! D9    D(12,2,7,3)            22.1751         calculate D2E/DX2 analytically  !
 ! D10   D(12,2,7,6)           -87.7912         calculate D2E/DX2 analytically  !
 ! D11   D(8,2,12,11)         -176.0356         calculate D2E/DX2 analytically  !
 ! D12   D(8,2,12,15)           67.037          calculate D2E/DX2 analytically  !
 ! D13   D(8,2,12,23)          -52.4329         calculate D2E/DX2 analytically  !
 ! D14   D(4,5,7,3)            149.5393         calculate D2E/DX2 analytically  !
 ! D15   D(4,5,7,8)           -109.3269         calculate D2E/DX2 analytically  !
 ! D16   D(30,5,7,3)           -99.1237         calculate D2E/DX2 analytically  !
 ! D17   D(30,5,7,8)             2.0101         calculate D2E/DX2 analytically  !
 ! D18   D(4,5,29,1)            81.1577         calculate D2E/DX2 analytically  !
 ! D19   D(6,5,29,1)           -34.2975         calculate D2E/DX2 analytically  !
 ! D20   D(1,9,10,11)          -60.0207         calculate D2E/DX2 analytically  !
 ! D21   D(1,9,10,16)           59.3741         calculate D2E/DX2 analytically  !
 ! D22   D(1,9,10,18)          177.713          calculate D2E/DX2 analytically  !
 ! D23   D(13,9,10,11)          58.4635         calculate D2E/DX2 analytically  !
 ! D24   D(13,9,10,16)         177.8584         calculate D2E/DX2 analytically  !
 ! D25   D(13,9,10,18)         -63.8027         calculate D2E/DX2 analytically  !
 ! D26   D(17,9,10,11)        -179.6266         calculate D2E/DX2 analytically  !
 ! D27   D(17,9,10,16)         -60.2317         calculate D2E/DX2 analytically  !
 ! D28   D(17,9,10,18)          58.1072         calculate D2E/DX2 analytically  !
 ! D29   D(1,9,17,21)         -167.6679         calculate D2E/DX2 analytically  !
 ! D30   D(10,9,17,21)         -47.3633         calculate D2E/DX2 analytically  !
 ! D31   D(13,9,17,21)          73.4563         calculate D2E/DX2 analytically  !
 ! D32   D(9,10,11,12)          50.6505         calculate D2E/DX2 analytically  !
 ! D33   D(9,10,11,14)         -69.5884         calculate D2E/DX2 analytically  !
 ! D34   D(9,10,11,19)         175.8984         calculate D2E/DX2 analytically  !
 ! D35   D(16,10,11,12)        -67.9461         calculate D2E/DX2 analytically  !
 ! D36   D(16,10,11,14)        171.815          calculate D2E/DX2 analytically  !
 ! D37   D(16,10,11,19)         57.3018         calculate D2E/DX2 analytically  !
 ! D38   D(18,10,11,12)        170.8419         calculate D2E/DX2 analytically  !
 ! D39   D(18,10,11,14)         50.6031         calculate D2E/DX2 analytically  !
 ! D40   D(18,10,11,19)        -63.9101         calculate D2E/DX2 analytically  !
 ! D41   D(9,10,18,20)         174.0542         calculate D2E/DX2 analytically  !
 ! D42   D(11,10,18,20)         50.2005         calculate D2E/DX2 analytically  !
 ! D43   D(16,10,18,20)        -69.8279         calculate D2E/DX2 analytically  !
 ! D44   D(10,11,12,2)         -56.2989         calculate D2E/DX2 analytically  !
 ! D45   D(10,11,12,15)         61.36           calculate D2E/DX2 analytically  !
 ! D46   D(10,11,12,23)       -178.3594         calculate D2E/DX2 analytically  !
 ! D47   D(14,11,12,2)          63.7077         calculate D2E/DX2 analytically  !
 ! D48   D(14,11,12,15)       -178.6335         calculate D2E/DX2 analytically  !
 ! D49   D(14,11,12,23)        -58.3529         calculate D2E/DX2 analytically  !
 ! D50   D(19,11,12,2)        -179.8504         calculate D2E/DX2 analytically  !
 ! D51   D(19,11,12,15)        -62.1915         calculate D2E/DX2 analytically  !
 ! D52   D(19,11,12,23)         58.0891         calculate D2E/DX2 analytically  !
 ! D53   D(10,11,19,22)        -59.9444         calculate D2E/DX2 analytically  !
 ! D54   D(12,11,19,22)         64.1732         calculate D2E/DX2 analytically  !
 ! D55   D(14,11,19,22)       -176.8922         calculate D2E/DX2 analytically  !
 ! D56   D(2,12,23,24)          74.8454         calculate D2E/DX2 analytically  !
 ! D57   D(2,12,23,25)         -42.9371         calculate D2E/DX2 analytically  !
 ! D58   D(2,12,23,26)        -162.2615         calculate D2E/DX2 analytically  !
 ! D59   D(11,12,23,24)       -164.9268         calculate D2E/DX2 analytically  !
 ! D60   D(11,12,23,25)         77.2907         calculate D2E/DX2 analytically  !
 ! D61   D(11,12,23,26)        -42.0337         calculate D2E/DX2 analytically  !
 ! D62   D(15,12,23,24)        -44.9639         calculate D2E/DX2 analytically  !
 ! D63   D(15,12,23,25)       -162.7464         calculate D2E/DX2 analytically  !
 ! D64   D(15,12,23,26)         77.9293         calculate D2E/DX2 analytically  !
 ! D65   D(12,23,24,27)         72.5506         calculate D2E/DX2 analytically  !
 ! D66   D(25,23,24,27)       -167.078          calculate D2E/DX2 analytically  !
 ! D67   D(26,23,24,27)        -50.0839         calculate D2E/DX2 analytically  !
 --------------------------------------------------------------------------------
 Trust Radius=3.00D-01 FncErr=1.00D-07 GrdErr=1.00D-06
 Number of steps in this run=    180 maximum allowed number of steps=    180.
 Search for a saddle point of order  1.
 GradGradGradGradGradGradGradGradGradGradGradGradGradGradGradGradGradGrad

                          Input orientation:                          
 ---------------------------------------------------------------------
 Center     Atomic      Atomic             Coordinates (Angstroms)
 Number     Number       Type             X           Y           Z
 ---------------------------------------------------------------------
      1          6           0        0.000000    0.000000    0.000000
      2          8           0        0.000000    0.000000    1.703127
      3          1           0        2.409026    0.000000    3.009369
      4          1           0        3.485492   -0.385786   -0.441378
      5          8           0        3.129515    0.277835    0.169539
      6          1           0        2.794086   -0.276490    1.373625
      7          8           0        2.297141   -0.659327    2.282279
      8          1           0        1.236767   -0.471973    2.041212
      9          6           0       -1.502353    0.227966   -0.216795
     10          6           0       -1.898860    1.595890    0.336942
     11          6           0       -1.623304    1.744489    1.837081
     12          6           0       -0.179414    1.333580    2.171014
     13          1           0       -2.055613   -0.551180    0.329921
     14          1           0       -2.318858    1.104283    2.390647
     15          1           0        0.504352    2.006340    1.622742
     16          1           0       -1.300493    2.348368   -0.203068
     17          8           0       -1.771626    0.152236   -1.606226
     18          8           0       -3.286214    1.772117    0.059545
     19          8           0       -1.931799    3.080664    2.257653
     20          1           0       -3.553014    2.597718    0.496517
     21          1           0       -2.674753    0.494390   -1.716393
     22          1           0       -1.362329    3.679856    1.744638
     23          6           0        0.137635    1.424819    3.663168
     24          8           0        1.553935    1.380714    3.942542
     25          1           0       -0.293055    0.569917    4.191305
     26          1           0       -0.295811    2.343856    4.073314
     27          1           0        1.934877    2.229365    3.665862
     28          1           0        0.279281   -1.063897   -0.106064
     29          8           0        0.807037    0.891984   -0.456538
     30          1           0        2.157616    0.565488   -0.208747
 ---------------------------------------------------------------------
                    Distance matrix (angstroms):
                    1          2          3          4          5
     1  C    0.000000
     2  O    1.703127   0.000000
     3  H    3.854829   2.740378   0.000000
     4  H    3.534445   4.110522   3.635281   0.000000
     5  O    3.146395   3.496134   2.942947   0.969707   0.000000
     6  H    3.125734   2.827001   1.703049   1.945308   1.367338
     7  O    3.304598   2.459062   0.987872   2.984177   2.456582
     8  H    2.432878   1.366255   1.591942   3.350738   2.765478
     9  C    1.534938   2.448497   5.075332   5.030480   4.648220
    10  C    2.503211   2.831783   5.314754   5.789998   5.200948
    11  C    3.008857   2.386692   4.547217   5.985753   5.246052
    12  C    2.554197   1.424620   3.030065   4.817919   4.008680
    13  H    2.153647   2.532793   5.236053   5.596973   5.253432
    14  H    3.508809   2.658802   4.894399   6.628058   5.941474
    15  H    2.629271   2.070322   3.094498   4.343968   3.462804
    16  H    2.692090   3.292369   5.440139   5.517069   4.904174
    17  O    2.396204   3.756814   6.229345   5.411435   5.214432
    18  O    3.734052   4.079334   6.654143   7.124849   6.588366
    19  O    4.280109   3.678292   5.375716   6.974818   6.150851
    20  H    4.429286   4.563766   6.971979   7.702046   7.081312
    21  H    3.216322   4.369421   6.958595   6.352085   6.106813
    22  H    4.294304   3.924157   5.418856   6.693989   5.850757
    23  C    3.932920   2.427100   2.759851   5.597655   4.740503
    24  O    4.456985   3.055497   1.873062   5.105897   4.234896
    25  H    4.240014   2.569380   3.003834   6.054134   5.289036
    26  H    4.708827   3.346483   3.733870   6.490889   5.589344
    27  H    4.706629   3.544876   2.371891   5.110072   4.178505
    28  H    1.105045   2.117321   3.920920   3.294246   3.162283
    29  O    1.286612   2.472064   3.921035   2.967667   2.482550
    30  H    2.240236   2.937745   3.277080   1.649937   1.081865
                    6          7          8          9         10
     6  H    0.000000
     7  O    1.104161   0.000000
     8  H    1.705617   1.103452   0.000000
     9  C    4.609046   4.633446   3.618189   0.000000
    10  C    5.157932   5.145558   4.124652   1.528089   0.000000
    11  C    4.879803   4.620218   3.624138   2.555949   1.532458
    12  C    3.474170   3.180783   2.298356   2.945196   2.527671
    13  H    4.968336   4.771778   3.711409   1.100938   2.152796
    14  H    5.392872   4.942622   3.905018   2.869384   2.153086
    15  H    3.242878   3.279461   2.617936   3.251673   2.756298
    16  H    5.112868   5.307179   4.407812   2.130033   1.102668
    17  O    5.468916   5.686296   4.769053   1.417308   2.424093
    18  O    6.549325   6.482771   5.424049   2.375484   1.425748
    19  O    5.863956   5.645535   4.765279   3.800684   2.427915
    20  H    7.022541   6.929762   5.895006   3.213992   1.940451
    21  H    6.328560   6.483839   5.509395   1.922055   2.455910
    22  H    5.750314   5.701692   4.907234   3.972704   2.571457
    23  C    3.897845   3.303632   2.727023   4.379056   3.903890
    24  O    3.299035   2.733239   2.673593   5.288649   4.996843
    25  H    4.264524   3.444493   2.837039   4.583740   4.299691
    26  H    4.868470   4.353196   3.795673   4.933333   4.133969
    27  H    3.503127   3.223364   3.228634   5.558343   5.116692
    28  H    3.022207   3.152716   2.424448   2.203496   3.466269
    29  O    2.943331   3.482542   2.878160   2.414888   2.906368
    30  H    1.902084   2.779362   2.643218   3.675509   4.220724
                   11         12         13         14         15
    11  C    0.000000
    12  C    1.537912   0.000000
    13  H    2.780021   3.234512   0.000000
    14  H    1.095488   2.162877   2.656398   0.000000
    15  H    2.154397   1.104873   3.842619   3.061683   0.000000
    16  H    2.151995   2.814760   3.043298   3.051585   2.589987
    17  O    3.796528   4.265940   2.079449   4.144979   4.363944
    18  O    2.434270   3.781907   2.642951   2.610712   4.106926
    19  O    1.434369   2.476017   4.113608   2.018312   2.737172
    20  H    2.499779   3.972803   3.490777   2.709469   4.252098
    21  H    3.910942   4.694985   2.379905   4.167303   4.852064
    22  H    1.955071   2.661972   4.514835   2.822384   2.509982
    23  C    2.556891   1.528192   4.452578   2.785034   2.153134
    24  O    3.828856   2.478917   5.460044   4.181305   2.621927
    25  H    2.948143   2.162792   4.390189   2.762570   3.049046
    26  H    2.668748   2.157071   5.048874   2.908716   2.599900
    27  H    4.029913   2.739932   5.897792   4.581075   2.504093
    28  H    3.909306   3.338170   2.429958   4.205342   3.530692
    29  O    3.448770   2.841148   3.300910   4.233528   2.378406
    30  H    4.457669   3.422709   4.391858   5.204419   2.857217
                   16         17         18         19         20
    16  H    0.000000
    17  O    2.648361   0.000000
    18  O    2.084255   2.773587   0.000000
    19  O    2.643852   4.850866   2.894550   0.000000
    20  H    2.371802   3.684461   0.971465   2.441962   0.000000
    21  H    2.759706   0.972031   2.271657   4.799358   3.176838
    22  H    2.360136   4.882614   3.190666   0.972889   2.743708
    23  C    4.227167   5.747283   4.982917   2.999975   5.002427
    24  O    5.125445   6.584628   6.217548   4.228359   6.279898
    25  H    4.846476   5.997665   5.241729   3.567679   5.328299
    26  H    4.392818   6.264056   5.037831   2.552639   4.844306
    27  H    5.044839   6.771081   6.361949   4.202254   6.348022
    28  H    3.761469   2.817034   4.558855   5.258652   5.334512
    29  O    2.574294   2.918649   4.218493   4.433777   4.777855
    30  H    3.890658   4.190783   5.582403   5.397458   6.102349
                   21         22         23         24         25
    21  H    0.000000
    22  H    4.883481   0.000000
    23  C    6.141246   3.319012   0.000000
    24  O    7.119755   4.315255   1.444264   0.000000
    25  H    6.370171   4.098932   1.093288   2.032399   0.000000
    26  H    6.526913   2.888787   1.095776   2.089570   1.777861
    27  H    7.295717   4.082474   1.969106   0.970504   2.827285
    28  H    3.707793   5.350063   4.518948   4.898171   4.632958
    29  O    3.724000   4.162159   4.207612   4.488721   4.787105
    30  H    5.062592   5.089698   4.450899   4.273432   5.036493
                   26         27         28         29         30
    26  H    0.000000
    27  H    2.270484   0.000000
    28  H    5.423165   5.273898   0.000000
    29  O    4.883009   4.478258   2.055925   0.000000
    30  H    5.245755   4.222641   2.488690   1.411405   0.000000
 Stoichiometry    C6H16O8
 Framework group  C1[X(C6H16O8)]
 Deg. of freedom    84
 Full point group                 C1      NOp   1
 Largest Abelian subgroup         C1      NOp   1
 Largest concise Abelian subgroup C1      NOp   1
                         Standard orientation:                         
 ---------------------------------------------------------------------
 Center     Atomic      Atomic             Coordinates (Angstroms)
 Number     Number       Type             X           Y           Z
 ---------------------------------------------------------------------
      1          6           0        0.122634   -1.472280   -0.316127
      2          8           0       -0.598003   -0.049491   -0.913619
      3          1           0       -3.273076    0.345794   -0.469314
      4          1           0       -2.842997   -3.028329    0.813493
      5          8           0       -2.647425   -2.104820    1.035340
      6          1           0       -2.978708   -1.261231    0.011513
      7          8           0       -3.006394   -0.537596   -0.822008
      8          1           0       -1.930544   -0.345043   -0.973922
      9          6           0        1.586196   -1.112776   -0.607293
     10          6           0        1.990728    0.104007    0.223881
     11          6           0        1.144663    1.347099   -0.071627
     12          6           0       -0.355674    1.016797   -0.000466
     13          1           0        1.677394   -0.860550   -1.675061
     14          1           0        1.387730    1.711125   -1.075867
     15          1           0       -0.583706    0.675823    1.025440
     16          1           0        1.851309   -0.168118    1.283309
     17          8           0        2.395303   -2.231125   -0.285731
     18          8           0        3.367667    0.355469   -0.047343
     19          8           0        1.521282    2.412365    0.811991
     20          1           0        3.592556    1.183644    0.407954
     21          1           0        3.309992   -1.902260   -0.291800
     22          1           0        1.363458    2.099463    1.719568
     23          6           0       -1.247056    2.214411   -0.326855
     24          8           0       -2.622370    2.018019    0.067911
     25          1           0       -1.272015    2.380283   -1.407199
     26          1           0       -0.844226    3.112009    0.155607
     27          1           0       -2.661304    2.073662    1.036036
     28          1           0       -0.303699   -2.139049   -1.087349
     29          8           0       -0.206419   -1.669723    0.911925
     30          1           0       -1.570234   -2.005559    1.050792
 ---------------------------------------------------------------------
 Rotational constants (GHZ):      0.7915423      0.5228453      0.3552958
 Standard basis: 6-31+G(d,p) (6D, 7F)
 There are   346 symmetry adapted cartesian basis functions of A   symmetry.
 There are   346 symmetry adapted basis functions of A   symmetry.
   346 basis functions,   560 primitive gaussians,   346 cartesian basis functions
    58 alpha electrons       58 beta electrons
       nuclear repulsion energy      1115.1155048753 Hartrees.
 NAtoms=   30 NActive=   30 NUniq=   30 SFac= 1.00D+00 NAtFMM=   60 NAOKFM=F Big=F
 Integral buffers will be    131072 words long.
 Raffenetti 2 integral format.
 Two-electron integral symmetry is turned on.
 One-electron integrals computed using PRISM.
 NBasis=   346 RedAO= T EigKep=  1.25D-05  NBF=   346
 NBsUse=   346 1.00D-06 EigRej= -1.00D+00 NBFU=   346
 ExpMin= 4.38D-02 ExpMax= 5.48D+03 ExpMxC= 8.25D+02 IAcc=2 IRadAn=         4 AccDes= 0.00D+00
 Harris functional with IExCor=  402 and IRadAn=       4 diagonalized for initial guess.
 HarFok:  IExCor=  402 AccDes= 0.00D+00 IRadAn=         4 IDoV= 1 UseB2=F ITyADJ=14
 ICtDFT=  3500011 ScaDFX=  1.000000  1.000000  1.000000  1.000000
 FoFCou: FMM=F IPFlag=           0 FMFlag=      100000 FMFlg1=           0
         NFxFlg=           0 DoJE=T BraDBF=F KetDBF=T FulRan=T
         wScrn=  0.000000 ICntrl=     500 IOpCl=  0 I1Cent=   200000004 NGrid=           0
         NMat0=    1 NMatS0=      1 NMatT0=    0 NMatD0=    1 NMtDS0=    0 NMtDT0=    0
 Petite list used in FoFCou.
 Requested convergence on RMS density matrix=1.00D-08 within 128 cycles.
 Requested convergence on MAX density matrix=1.00D-06.
 Requested convergence on             energy=1.00D-06.
 No special actions if energy rises.
 SCF Done:  E(RB3LYP) =  -840.086666515     A.U. after   14 cycles
            NFock= 14  Conv=0.33D-08     -V/T= 2.0090
 DoSCS=F DFT=T ScalE2(SS,OS)=  1.000000  1.000000
 Range of M.O.s used for correlation:     1   346
 NBasis=   346 NAE=    58 NBE=    58 NFC=     0 NFV=     0
 NROrb=    346 NOA=    58 NOB=    58 NVA=   288 NVB=   288

 **** Warning!!: The largest alpha MO coefficient is  0.56601734D+02

 Symmetrizing basis deriv contribution to polar:
 IMax=3 JMax=2 DiffMx= 0.00D+00
 G2DrvN: will do    16 centers at a time, making    2 passes.
 Calling FoFCou, ICntrl=  3107 FMM=F I1Cent=   0 AccDes= 0.00D+00.
 Calling FoFCou, ICntrl=  3107 FMM=F I1Cent=   0 AccDes= 0.00D+00.
 End of G2Drv F.D. properties file   721 does not exist.
 End of G2Drv F.D. properties file   722 does not exist.
 End of G2Drv F.D. properties file   788 does not exist.
          IDoAtm=111111111111111111111111111111
          Differentiating once with respect to nuclear coordinates.
 PrRfSu:  requested number of processors reduced to:   3 ShMem   1 Linda.
 CalDSu:  requested number of processors reduced to:   3 ShMem   1 Linda.
          There are    93 degrees of freedom in the 1st order CPHF.  IDoFFX=6 NUNeed=     0.
     88 vectors produced by pass  0 Test12= 1.80D-14 1.08D-09 XBig12= 1.73D-01 6.82D-02.
 AX will form    88 AO Fock derivatives at one time.
 PrRfSu:  requested number of processors reduced to:   3 ShMem   1 Linda.
     87 vectors produced by pass  1 Test12= 1.80D-14 1.08D-09 XBig12= 2.15D-02 2.99D-02.
 PrRfSu:  requested number of processors reduced to:   3 ShMem   1 Linda.
     87 vectors produced by pass  2 Test12= 1.80D-14 1.08D-09 XBig12= 2.76D-04 1.61D-03.
 PrRfSu:  requested number of processors reduced to:   3 ShMem   1 Linda.
     87 vectors produced by pass  3 Test12= 1.80D-14 1.08D-09 XBig12= 9.05D-07 1.13D-04.
 PrRfSu:  requested number of processors reduced to:   3 ShMem   1 Linda.
     87 vectors produced by pass  4 Test12= 1.80D-14 1.08D-09 XBig12= 1.38D-09 3.87D-06.
 PrRfSu:  requested number of processors reduced to:   3 ShMem   1 Linda.
     79 vectors produced by pass  5 Test12= 1.80D-14 1.08D-09 XBig12= 1.77D-12 1.23D-07.
     39 vectors produced by pass  6 Test12= 1.80D-14 1.08D-09 XBig12= 5.08D-14 2.91D-08.
 InvSVY:  IOpt=1 It=  1 EMax= 3.33D-16
 Solved reduced A of dimension   554 with    93 vectors.
 End of Minotr F.D. properties file   721 does not exist.
 End of Minotr F.D. properties file   722 does not exist.
 End of Minotr F.D. properties file   788 does not exist.

 **********************************************************************

            Population analysis using the SCF density.

 **********************************************************************

 Orbital symmetries:
       Occupied  (A) (A) (A) (A) (A) (A) (A) (A) (A) (A) (A) (A)
                 (A) (A) (A) (A) (A) (A) (A) (A) (A) (A) (A) (A)
                 (A) (A) (A) (A) (A) (A) (A) (A) (A) (A) (A) (A)
                 (A) (A) (A) (A) (A) (A) (A) (A) (A) (A) (A) (A)
                 (A) (A) (A) (A) (A) (A) (A) (A) (A) (A)
       Virtual   (A) (A) (A) (A) (A) (A) (A) (A) (A) (A) (A) (A)
                 (A) (A) (A) (A) (A) (A) (A) (A) (A) (A) (A) (A)
                 (A) (A) (A) (A) (A) (A) (A) (A) (A) (A) (A) (A)
                 (A) (A) (A) (A) (A) (A) (A) (A) (A) (A) (A) (A)
                 (A) (A) (A) (A) (A) (A) (A) (A) (A) (A) (A) (A)
                 (A) (A) (A) (A) (A) (A) (A) (A) (A) (A) (A) (A)
                 (A) (A) (A) (A) (A) (A) (A) (A) (A) (A) (A) (A)
                 (A) (A) (A) (A) (A) (A) (A) (A) (A) (A) (A) (A)
                 (A) (A) (A) (A) (A) (A) (A) (A) (A) (A) (A) (A)
                 (A) (A) (A) (A) (A) (A) (A) (A) (A) (A) (A) (A)
                 (A) (A) (A) (A) (A) (A) (A) (A) (A) (A) (A) (A)
                 (A) (A) (A) (A) (A) (A) (A) (A) (A) (A) (A) (A)
                 (A) (A) (A) (A) (A) (A) (A) (A) (A) (A) (A) (A)
                 (A) (A) (A) (A) (A) (A) (A) (A) (A) (A) (A) (A)
                 (A) (A) (A) (A) (A) (A) (A) (A) (A) (A) (A) (A)
                 (A) (A) (A) (A) (A) (A) (A) (A) (A) (A) (A) (A)
                 (A) (A) (A) (A) (A) (A) (A) (A) (A) (A) (A) (A)
                 (A) (A) (A) (A) (A) (A) (A) (A) (A) (A) (A) (A)
                 (A) (A) (A) (A) (A) (A) (A) (A) (A) (A) (A) (A)
                 (A) (A) (A) (A) (A) (A) (A) (A) (A) (A) (A) (A)
                 (A) (A) (A) (A) (A) (A) (A) (A) (A) (A) (A) (A)
                 (A) (A) (A) (A) (A) (A) (A) (A) (A) (A) (A) (A)
                 (A) (A) (A) (A) (A) (A) (A) (A) (A) (A) (A) (A)
                 (A) (A) (A) (A) (A) (A) (A) (A) (A) (A) (A) (A)
 The electronic state is 1-A.
 Alpha  occ. eigenvalues --  -19.20724 -19.20664 -19.19088 -19.17361 -19.17331
 Alpha  occ. eigenvalues --  -19.17130 -19.15329 -19.11349 -10.28447 -10.26538
 Alpha  occ. eigenvalues --  -10.26150 -10.26085 -10.24937 -10.24092  -1.08399
 Alpha  occ. eigenvalues --   -1.06595  -1.06332  -1.04446  -1.03764  -1.02018
 Alpha  occ. eigenvalues --   -1.01736  -0.98376  -0.79390  -0.76994  -0.70548
 Alpha  occ. eigenvalues --   -0.65069  -0.63457  -0.58476  -0.57765  -0.56243
 Alpha  occ. eigenvalues --   -0.55046  -0.54499  -0.53214  -0.52503  -0.50974
 Alpha  occ. eigenvalues --   -0.49155  -0.48509  -0.46661  -0.45914  -0.44919
 Alpha  occ. eigenvalues --   -0.43468  -0.42796  -0.41566  -0.40661  -0.39195
 Alpha  occ. eigenvalues --   -0.38809  -0.37677  -0.36742  -0.36063  -0.35250
 Alpha  occ. eigenvalues --   -0.33740  -0.33401  -0.32196  -0.30183  -0.28314
 Alpha  occ. eigenvalues --   -0.27427  -0.27062  -0.25072
 Alpha virt. eigenvalues --   -0.02427  -0.01223   0.00737   0.01181   0.01772
 Alpha virt. eigenvalues --    0.03407   0.04127   0.04526   0.04581   0.05452
 Alpha virt. eigenvalues --    0.07035   0.07588   0.07915   0.08051   0.09116
 Alpha virt. eigenvalues --    0.09807   0.10633   0.11485   0.12127   0.12245
 Alpha virt. eigenvalues --    0.12717   0.13231   0.13677   0.14419   0.15097
 Alpha virt. eigenvalues --    0.16245   0.16524   0.17040   0.17284   0.17905
 Alpha virt. eigenvalues --    0.18376   0.18695   0.19042   0.19540   0.19840
 Alpha virt. eigenvalues --    0.20711   0.20843   0.21579   0.22084   0.22503
 Alpha virt. eigenvalues --    0.22725   0.23442   0.23915   0.24497   0.24808
 Alpha virt. eigenvalues --    0.25282   0.26120   0.26282   0.26716   0.26856
 Alpha virt. eigenvalues --    0.27679   0.28026   0.28878   0.29103   0.29397
 Alpha virt. eigenvalues --    0.30065   0.30088   0.30647   0.31367   0.31496
 Alpha virt. eigenvalues --    0.31866   0.32360   0.32655   0.32795   0.33797
 Alpha virt. eigenvalues --    0.34354   0.35851   0.36207   0.36733   0.37654
 Alpha virt. eigenvalues --    0.38386   0.39074   0.40033   0.40960   0.41596
 Alpha virt. eigenvalues --    0.41863   0.42633   0.43766   0.44603   0.45032
 Alpha virt. eigenvalues --    0.46414   0.47174   0.49358   0.50073   0.61184
 Alpha virt. eigenvalues --    0.64439   0.67405   0.68768   0.70788   0.71937
 Alpha virt. eigenvalues --    0.74585   0.76275   0.77961   0.79198   0.81199
 Alpha virt. eigenvalues --    0.83215   0.84980   0.86998   0.88357   0.89479
 Alpha virt. eigenvalues --    0.92107   0.93282   0.95591   0.97959   1.00056
 Alpha virt. eigenvalues --    1.00680   1.00951   1.02380   1.03565   1.04011
 Alpha virt. eigenvalues --    1.05520   1.06093   1.06763   1.07550   1.08117
 Alpha virt. eigenvalues --    1.09775   1.11298   1.12715   1.14320   1.15075
 Alpha virt. eigenvalues --    1.17068   1.18612   1.19354   1.21658   1.22890
 Alpha virt. eigenvalues --    1.23379   1.24571   1.25554   1.25995   1.27380
 Alpha virt. eigenvalues --    1.29294   1.29759   1.31582   1.31878   1.33186
 Alpha virt. eigenvalues --    1.33576   1.33769   1.35104   1.36036   1.37425
 Alpha virt. eigenvalues --    1.39353   1.39457   1.40592   1.42167   1.43666
 Alpha virt. eigenvalues --    1.45516   1.46640   1.49209   1.49663   1.51670
 Alpha virt. eigenvalues --    1.52455   1.53977   1.54767   1.54808   1.56794
 Alpha virt. eigenvalues --    1.57360   1.59454   1.60575   1.61778   1.62026
 Alpha virt. eigenvalues --    1.62366   1.64539   1.66114   1.66411   1.68260
 Alpha virt. eigenvalues --    1.69921   1.71340   1.71582   1.72246   1.74552
 Alpha virt. eigenvalues --    1.75281   1.76912   1.77573   1.79033   1.81116
 Alpha virt. eigenvalues --    1.84223   1.85258   1.85968   1.87373   1.90038
 Alpha virt. eigenvalues --    1.90746   1.91830   1.94000   1.97136   1.99157
 Alpha virt. eigenvalues --    2.00364   2.01442   2.03436   2.04539   2.06068
 Alpha virt. eigenvalues --    2.06463   2.08571   2.10251   2.12947   2.15265
 Alpha virt. eigenvalues --    2.16322   2.17704   2.20238   2.21738   2.23610
 Alpha virt. eigenvalues --    2.25805   2.27489   2.29642   2.31525   2.32192
 Alpha virt. eigenvalues --    2.32983   2.34821   2.36009   2.36678   2.36963
 Alpha virt. eigenvalues --    2.40129   2.40646   2.41692   2.44042   2.46420
 Alpha virt. eigenvalues --    2.48879   2.50709   2.52195   2.52889   2.54445
 Alpha virt. eigenvalues --    2.54640   2.57266   2.61252   2.62155   2.63824
 Alpha virt. eigenvalues --    2.64093   2.64605   2.65845   2.66619   2.67487
 Alpha virt. eigenvalues --    2.69589   2.72393   2.72943   2.75434   2.78422
 Alpha virt. eigenvalues --    2.79822   2.80911   2.82372   2.82885   2.86194
 Alpha virt. eigenvalues --    2.88370   2.90993   2.91988   2.93625   2.94206
 Alpha virt. eigenvalues --    2.96973   2.98871   3.00041   3.01183   3.01574
 Alpha virt. eigenvalues --    3.04994   3.06035   3.09410   3.10534   3.11103
 Alpha virt. eigenvalues --    3.16015   3.20928   3.26173   3.30749   3.32605
 Alpha virt. eigenvalues --    3.34523   3.38370   3.42302   3.45051   3.48777
 Alpha virt. eigenvalues --    3.50199   3.51341   3.53811   3.55496   3.57391
 Alpha virt. eigenvalues --    3.59746   3.72747   3.73396   3.80795   4.28198
 Alpha virt. eigenvalues --    4.32170   4.39130   4.42069   4.44280   4.45959
 Alpha virt. eigenvalues --    4.50262   4.53004   4.58708   4.62275   4.64983
 Alpha virt. eigenvalues --    4.78584   4.83355   4.95392
          Condensed to atoms (all electrons):
               1          2          3          4          5          6
     1  C    6.406619   0.073586  -0.003555  -0.004554  -0.003829   0.000905
     2  O    0.073586   8.788173   0.005778  -0.000901   0.008676  -0.000154
     3  H   -0.003555   0.005778   0.289224  -0.000087   0.011578  -0.012457
     4  H   -0.004554  -0.000901  -0.000087   0.356312   0.259375  -0.009960
     5  O   -0.003829   0.008676   0.011578   0.259375   8.674983   0.095600
     6  H    0.000905  -0.000154  -0.012457  -0.009960   0.095600   0.222093
     7  O   -0.023111  -0.018981   0.243189   0.008035  -0.160437   0.166110
     8  H    0.026996   0.095342  -0.008393  -0.000067   0.008793  -0.004663
     9  C   -0.657152  -0.094776   0.001778   0.002860  -0.021196  -0.004079
    10  C   -0.450583  -0.042634  -0.000984   0.000194  -0.004296  -0.000848
    11  C    0.394129  -0.032431  -0.000302  -0.000129  -0.027948   0.004662
    12  C   -0.335888  -0.001496  -0.051081   0.002257  -0.006405   0.010565
    13  H   -0.030744   0.003569   0.000001   0.000000   0.000087  -0.000001
    14  H    0.019574   0.007057  -0.000003   0.000000   0.000007   0.000000
    15  H   -0.017011  -0.082096  -0.000260   0.000022   0.001338   0.000097
    16  H    0.050830   0.002916   0.000000   0.000000  -0.000014  -0.000001
    17  O   -0.177211   0.009740  -0.000004  -0.000004  -0.000341   0.000006
    18  O    0.083511   0.002180   0.000000   0.000000   0.000033   0.000001
    19  O   -0.004262   0.006651   0.000035   0.000001  -0.000082  -0.000002
    20  H   -0.009704  -0.000264   0.000000   0.000000   0.000000   0.000000
    21  H    0.057076  -0.000520   0.000000   0.000000  -0.000011   0.000000
    22  H   -0.004248   0.000188   0.000000   0.000000   0.000016   0.000000
    23  C   -0.233184   0.056202   0.044548   0.000644   0.029725  -0.010469
    24  O    0.016342  -0.029082   0.032580  -0.000034  -0.000949  -0.000118
    25  H   -0.001794  -0.008227  -0.000996   0.000000  -0.000025  -0.000007
    26  H   -0.004640   0.005784   0.000333   0.000000  -0.000016   0.000002
    27  H    0.001535  -0.001717  -0.003770   0.000001   0.000227  -0.000044
    28  H    0.248425  -0.052469   0.000090   0.000047   0.005707  -0.000706
    29  O    0.378530  -0.078645   0.000364   0.002186  -0.084802   0.002632
    30  H    0.013043  -0.000234  -0.000448  -0.010374   0.123238  -0.004162
               7          8          9         10         11         12
     1  C   -0.023111   0.026996  -0.657152  -0.450583   0.394129  -0.335888
     2  O   -0.018981   0.095342  -0.094776  -0.042634  -0.032431  -0.001496
     3  H    0.243189  -0.008393   0.001778  -0.000984  -0.000302  -0.051081
     4  H    0.008035  -0.000067   0.002860   0.000194  -0.000129   0.002257
     5  O   -0.160437   0.008793  -0.021196  -0.004296  -0.027948  -0.006405
     6  H    0.166110  -0.004663  -0.004079  -0.000848   0.004662   0.010565
     7  O    8.539703   0.099600   0.007189  -0.003963  -0.064246   0.047420
     8  H    0.099600   0.254930  -0.011977   0.003048   0.012963  -0.020025
     9  C    0.007189  -0.011977   7.042982   0.084458  -1.041307   0.218925
    10  C   -0.003963   0.003048   0.084458   7.566117  -1.172586   0.118597
    11  C   -0.064246   0.012963  -1.041307  -1.172586   9.333303  -1.830389
    12  C    0.047420  -0.020025   0.218925   0.118597  -1.830389   9.148775
    13  H    0.000036  -0.000191   0.268762  -0.016328   0.059581  -0.010277
    14  H    0.000213  -0.000106   0.001779  -0.114798   0.487788  -0.030043
    15  H    0.000397  -0.000495  -0.002817   0.009254  -0.072561   0.526626
    16  H    0.000117  -0.000031  -0.170999   0.324636   0.088718  -0.015838
    17  O    0.000158  -0.000161   0.302286  -0.043851   0.016386   0.004750
    18  O    0.000044   0.000024  -0.099328   0.075136   0.031349  -0.016116
    19  O    0.000497  -0.000235   0.011399   0.037070   0.083873   0.013631
    20  H    0.000000   0.000000   0.014989   0.098693  -0.125555   0.025577
    21  H   -0.000004   0.000002  -0.019392  -0.082361   0.035910  -0.005710
    22  H    0.000012  -0.000005   0.014611  -0.048805   0.063430  -0.019361
    23  C    0.005263  -0.006247   0.168987  -0.392699  -0.148599  -1.758427
    24  O   -0.045799   0.010371  -0.016227   0.014107   0.039572  -0.032453
    25  H    0.002314  -0.000419   0.000770   0.000962   0.007365  -0.060345
    26  H   -0.001024   0.000063   0.002521  -0.012131   0.027852  -0.107528
    27  H    0.002184  -0.000032  -0.000421   0.002659  -0.000939   0.000069
    28  H    0.003737  -0.002730   0.038307   0.008038  -0.022849   0.052882
    29  O   -0.008744  -0.001872  -0.178345  -0.017494  -0.009089   0.064172
    30  H    0.008450   0.000248  -0.001673   0.003324   0.002963  -0.001878
              13         14         15         16         17         18
     1  C   -0.030744   0.019574  -0.017011   0.050830  -0.177211   0.083511
     2  O    0.003569   0.007057  -0.082096   0.002916   0.009740   0.002180
     3  H    0.000001  -0.000003  -0.000260   0.000000  -0.000004   0.000000
     4  H    0.000000   0.000000   0.000022   0.000000  -0.000004   0.000000
     5  O    0.000087   0.000007   0.001338  -0.000014  -0.000341   0.000033
     6  H   -0.000001   0.000000   0.000097  -0.000001   0.000006   0.000001
     7  O    0.000036   0.000213   0.000397   0.000117   0.000158   0.000044
     8  H   -0.000191  -0.000106  -0.000495  -0.000031  -0.000161   0.000024
     9  C    0.268762   0.001779  -0.002817  -0.170999   0.302286  -0.099328
    10  C   -0.016328  -0.114798   0.009254   0.324636  -0.043851   0.075136
    11  C    0.059581   0.487788  -0.072561   0.088718   0.016386   0.031349
    12  C   -0.010277  -0.030043   0.526626  -0.015838   0.004750  -0.016116
    13  H    0.631428   0.002080  -0.000016   0.005532  -0.053905   0.000568
    14  H    0.002080   0.560928   0.004736   0.004707  -0.000177   0.000662
    15  H   -0.000016   0.004736   0.606044   0.002469  -0.000334  -0.000620
    16  H    0.005532   0.004707   0.002469   0.600653   0.003821  -0.048075
    17  O   -0.053905  -0.000177  -0.000334   0.003821   8.220587  -0.018954
    18  O    0.000568   0.000662  -0.000620  -0.048075  -0.018954   8.321593
    19  O   -0.001006  -0.071925  -0.010224  -0.016711  -0.000511  -0.020427
    20  H   -0.000098  -0.000958   0.000009  -0.005611   0.001736   0.217174
    21  H   -0.003313   0.000011   0.000002  -0.000227   0.230328   0.024255
    22  H    0.000002   0.008443   0.004892   0.005866  -0.000145  -0.002914
    23  C    0.012781  -0.038956  -0.121677   0.016375  -0.003729   0.003073
    24  O   -0.000033  -0.000055  -0.003302  -0.000061  -0.000023   0.000020
    25  H   -0.000007   0.002120   0.004457   0.000001  -0.000002  -0.000023
    26  H   -0.000002  -0.000520  -0.001796  -0.000022  -0.000006  -0.000004
    27  H    0.000000   0.000008   0.003523   0.000002   0.000001   0.000000
    28  H   -0.003476  -0.000027   0.000434  -0.000025   0.003539  -0.000740
    29  O    0.005537   0.000088   0.004682  -0.000993   0.012496  -0.001773
    30  H   -0.000071   0.000001   0.000175  -0.000070  -0.000532   0.000029
              19         20         21         22         23         24
     1  C   -0.004262  -0.009704   0.057076  -0.004248  -0.233184   0.016342
     2  O    0.006651  -0.000264  -0.000520   0.000188   0.056202  -0.029082
     3  H    0.000035   0.000000   0.000000   0.000000   0.044548   0.032580
     4  H    0.000001   0.000000   0.000000   0.000000   0.000644  -0.000034
     5  O   -0.000082   0.000000  -0.000011   0.000016   0.029725  -0.000949
     6  H   -0.000002   0.000000   0.000000   0.000000  -0.010469  -0.000118
     7  O    0.000497   0.000000  -0.000004   0.000012   0.005263  -0.045799
     8  H   -0.000235   0.000000   0.000002  -0.000005  -0.006247   0.010371
     9  C    0.011399   0.014989  -0.019392   0.014611   0.168987  -0.016227
    10  C    0.037070   0.098693  -0.082361  -0.048805  -0.392699   0.014107
    11  C    0.083873  -0.125555   0.035910   0.063430  -0.148599   0.039572
    12  C    0.013631   0.025577  -0.005710  -0.019361  -1.758427  -0.032453
    13  H   -0.001006  -0.000098  -0.003313   0.000002   0.012781  -0.000033
    14  H   -0.071925  -0.000958   0.000011   0.008443  -0.038956  -0.000055
    15  H   -0.010224   0.000009   0.000002   0.004892  -0.121677  -0.003302
    16  H   -0.016711  -0.005611  -0.000227   0.005866   0.016375  -0.000061
    17  O   -0.000511   0.001736   0.230328  -0.000145  -0.003729  -0.000023
    18  O   -0.020427   0.217174   0.024255  -0.002914   0.003073   0.000020
    19  O    8.281561   0.021415  -0.000014   0.218639  -0.028469  -0.002575
    20  H    0.021415   0.397440  -0.000759  -0.000801  -0.003067   0.000005
    21  H   -0.000014  -0.000759   0.402334   0.000000   0.000720   0.000001
    22  H    0.218639  -0.000801   0.000000   0.422046  -0.006514  -0.000150
    23  C   -0.028469  -0.003067   0.000720  -0.006514   7.555023   0.081794
    24  O   -0.002575   0.000005   0.000001  -0.000150   0.081794   8.371159
    25  H   -0.000840   0.000000   0.000000   0.000065   0.433756  -0.055810
    26  H    0.004682   0.000000   0.000000  -0.000731   0.442327  -0.032071
    27  H   -0.000805   0.000000   0.000000   0.000047  -0.011500   0.250364
    28  H   -0.000034   0.000006  -0.000294   0.000000   0.017543  -0.000045
    29  O   -0.000755   0.000350  -0.001370  -0.000308   0.037190  -0.003709
    30  H    0.000000   0.000000   0.000003   0.000000  -0.010663   0.000001
              25         26         27         28         29         30
     1  C   -0.001794  -0.004640   0.001535   0.248425   0.378530   0.013043
     2  O   -0.008227   0.005784  -0.001717  -0.052469  -0.078645  -0.000234
     3  H   -0.000996   0.000333  -0.003770   0.000090   0.000364  -0.000448
     4  H    0.000000   0.000000   0.000001   0.000047   0.002186  -0.010374
     5  O   -0.000025  -0.000016   0.000227   0.005707  -0.084802   0.123238
     6  H   -0.000007   0.000002  -0.000044  -0.000706   0.002632  -0.004162
     7  O    0.002314  -0.001024   0.002184   0.003737  -0.008744   0.008450
     8  H   -0.000419   0.000063  -0.000032  -0.002730  -0.001872   0.000248
     9  C    0.000770   0.002521  -0.000421   0.038307  -0.178345  -0.001673
    10  C    0.000962  -0.012131   0.002659   0.008038  -0.017494   0.003324
    11  C    0.007365   0.027852  -0.000939  -0.022849  -0.009089   0.002963
    12  C   -0.060345  -0.107528   0.000069   0.052882   0.064172  -0.001878
    13  H   -0.000007  -0.000002   0.000000  -0.003476   0.005537  -0.000071
    14  H    0.002120  -0.000520   0.000008  -0.000027   0.000088   0.000001
    15  H    0.004457  -0.001796   0.003523   0.000434   0.004682   0.000175
    16  H    0.000001  -0.000022   0.000002  -0.000025  -0.000993  -0.000070
    17  O   -0.000002  -0.000006   0.000001   0.003539   0.012496  -0.000532
    18  O   -0.000023  -0.000004   0.000000  -0.000740  -0.001773   0.000029
    19  O   -0.000840   0.004682  -0.000805  -0.000034  -0.000755   0.000000
    20  H    0.000000   0.000000   0.000000   0.000006   0.000350   0.000000
    21  H    0.000000   0.000000   0.000000  -0.000294  -0.001370   0.000003
    22  H    0.000065  -0.000731   0.000047   0.000000  -0.000308   0.000000
    23  C    0.433756   0.442327  -0.011500   0.017543   0.037190  -0.010663
    24  O   -0.055810  -0.032071   0.250364  -0.000045  -0.003709   0.000001
    25  H    0.534263  -0.030131   0.006427  -0.000007  -0.000150   0.000003
    26  H   -0.030131   0.549610  -0.009798   0.000004   0.000289  -0.000001
    27  H    0.006427  -0.009798   0.392715   0.000001   0.000111  -0.000001
    28  H   -0.000007   0.000004   0.000001   0.670548  -0.060958  -0.006606
    29  O   -0.000150   0.000289   0.000111  -0.060958   8.405673   0.118480
    30  H    0.000003  -0.000001  -0.000001  -0.006606   0.118480   0.258013
 Mulliken charges:
               1
     1  C    0.190371
     2  O   -0.621215
     3  H    0.452843
     4  H    0.394177
     5  O   -0.909031
     6  H    0.544998
     7  O   -0.808358
     8  H    0.545269
     9  C    0.137085
    10  C    0.058066
    11  C   -0.140912
    12  C    0.069013
    13  H    0.129506
    14  H    0.157373
    15  H    0.144055
    16  H    0.152034
    17  O   -0.505944
    18  O   -0.550678
    19  O   -0.520576
    20  H    0.369422
    21  H    0.363334
    22  H    0.345726
    23  C   -0.131750
    24  O   -0.593822
    25  H    0.166279
    26  H    0.166953
    27  H    0.369154
    28  H    0.101659
    29  O   -0.583775
    30  H    0.508744
 Sum of Mulliken charges =   0.00000
 Mulliken charges with hydrogens summed into heavy atoms:
               1
     1  C    0.292029
     2  O   -0.621215
     5  O   -0.006111
     7  O    0.734752
     9  C    0.266591
    10  C    0.210101
    11  C    0.016461
    12  C    0.213068
    17  O   -0.142610
    18  O   -0.181256
    19  O   -0.174850
    23  C    0.201482
    24  O   -0.224668
    29  O   -0.583775
 APT charges:
               1
     1  C   -0.334914
     2  O   -0.437203
     3  H    0.486232
     4  H    0.889067
     5  O   -1.072943
     6  H    0.450499
     7  O   -0.512066
     8  H    0.259703
     9  C   -0.121597
    10  C   -0.067528
    11  C   -0.576311
    12  C    0.389453
    13  H    0.374936
    14  H    0.455369
    15  H    0.260903
    16  H    0.319940
    17  O   -0.956552
    18  O   -0.944517
    19  O   -0.705789
    20  H    0.732847
    21  H    0.806735
    22  H    0.494629
    23  C   -1.069219
    24  O   -0.709155
    25  H    0.447568
    26  H    0.517176
    27  H    0.557923
    28  H    0.435836
    29  O   -0.633729
    30  H    0.262708
 Sum of APT charges =   0.00000
 APT charges with hydrogens summed into heavy atoms:
               1
     1  C    0.100922
     2  O   -0.437203
     5  O    0.078832
     7  O    0.684368
     9  C    0.253338
    10  C    0.252412
    11  C   -0.120942
    12  C    0.650356
    17  O   -0.149817
    18  O   -0.211671
    19  O   -0.211160
    23  C   -0.104475
    24  O   -0.151232
    29  O   -0.633729
 Electronic spatial extent (au):  <R**2>=           3157.8264
 Charge=              0.0000 electrons
 Dipole moment (field-independent basis, Debye):
    X=             -2.0111    Y=              2.9016    Z=              0.9218  Tot=              3.6488
 Quadrupole moment (field-independent basis, Debye-Ang):
   XX=            -86.0806   YY=            -87.4599   ZZ=            -85.8247
   XY=              5.2519   XZ=             -0.6036   YZ=              7.1513
 Traceless Quadrupole moment (field-independent basis, Debye-Ang):
   XX=              0.3745   YY=             -1.0049   ZZ=              0.6303
   XY=              5.2519   XZ=             -0.6036   YZ=              7.1513
 Octapole moment (field-independent basis, Debye-Ang**2):
  XXX=             -4.5306  YYY=            -24.1200  ZZZ=              9.9185  XYY=            -40.7632
  XXY=             -6.9282  XXZ=             20.5871  XZZ=              5.9224  YZZ=             19.6636
  YYZ=              1.4066  XYZ=             -3.7820
 Hexadecapole moment (field-independent basis, Debye-Ang**3):
 XXXX=          -2066.4119 YYYY=          -1397.0153 ZZZZ=           -309.2057 XXXY=             43.3405
 XXXZ=             -2.0865 YYYX=            118.0431 YYYZ=             -7.3933 ZZZX=             11.8640
 ZZZY=             29.7640 XXYY=           -546.7416 XXZZ=           -417.5672 YYZZ=           -269.9409
 XXYZ=             33.6761 YYXZ=            -20.0911 ZZXY=            -13.4948
 N-N= 1.115115504875D+03 E-N=-4.201003327895D+03  KE= 8.326005769326D+02
  Exact polarizability:   0.000   0.000   0.000   0.000   0.000   0.000
 Approx polarizability: 157.643   1.322 159.220  -0.653  -4.009 158.296
 Calling FoFJK, ICntrl=    100147 FMM=F ISym2X=0 I1Cent= 0 IOpClX= 0 NMat=1 NMatS=1 NMatT=0.
 ***** Axes restored to original set *****
 -------------------------------------------------------------------
 Center     Atomic                   Forces (Hartrees/Bohr)
 Number     Number              X              Y              Z
 -------------------------------------------------------------------
      1        6          -0.004178861   -0.004260650    0.000367516
      2        8           0.003970386   -0.000990818   -0.000552164
      3        1           0.000733199   -0.003911341   -0.001366258
      4        1           0.001384831    0.003713722    0.001409543
      5        8          -0.001949762   -0.006354834   -0.001888261
      6        1          -0.000636033   -0.000683677    0.001148524
      7        8          -0.000401163    0.005594472   -0.000688646
      8        1          -0.000147118    0.000279984   -0.000289672
      9        6           0.001402347   -0.000286062    0.003213502
     10        6           0.003374408   -0.000448907   -0.000402298
     11        6          -0.001819417   -0.003047918    0.001244786
     12        6          -0.001033737    0.002437073    0.001276966
     13        1           0.000208453    0.000042086   -0.001289988
     14        1          -0.000142411   -0.000033504    0.000286790
     15        1           0.000227409   -0.000208208    0.000056463
     16        1          -0.001190002    0.000212698   -0.000167202
     17        8          -0.005076491    0.001147617    0.000191108
     18        8          -0.001087750    0.004981341    0.002488005
     19        8           0.004416648    0.002322090   -0.003536817
     20        1          -0.001929778   -0.002896780   -0.002602529
     21        1           0.002720110   -0.001843909   -0.002416511
     22        1          -0.002877807    0.000079414    0.002859777
     23        6          -0.003126340   -0.000711742    0.000986322
     24        8           0.001460660    0.004712356   -0.002596278
     25        1          -0.000033569    0.000102132    0.000073844
     26        1           0.000558986   -0.000597525    0.000042274
     27        1           0.000271734   -0.002735062    0.002455248
     28        1          -0.000050564    0.000805348   -0.000460344
     29        8           0.006881074    0.000680787    0.000230997
     30        1          -0.001929441    0.001899816   -0.000074695
 -------------------------------------------------------------------
 Cartesian Forces:  Max     0.006881074 RMS     0.002314107
 FormGI is forming the generalized inverse of G from B-inverse, IUseBI=4.

 GradGradGradGradGradGradGradGradGradGradGradGradGradGradGradGradGradGrad
 Berny optimization.
 Internal  Forces:  Max     0.006614233 RMS     0.001596475
 Search for a saddle point.
 Step number   1 out of a maximum of  180
 All quantities printed in internal units (Hartrees-Bohrs-Radians)
 Swapping is turned off.
 Second derivative matrix not updated -- analytic derivatives used.
 ITU=  0
     Eigenvalues ---   -0.02576   0.00286   0.00307   0.00325   0.00367
     Eigenvalues ---    0.00498   0.00640   0.00861   0.00989   0.01026
     Eigenvalues ---    0.01490   0.01768   0.02211   0.02257   0.02684
     Eigenvalues ---    0.03300   0.03556   0.03818   0.04242   0.04375
     Eigenvalues ---    0.04646   0.04944   0.05033   0.05272   0.05563
     Eigenvalues ---    0.05588   0.05796   0.05905   0.06172   0.06381
     Eigenvalues ---    0.06654   0.06686   0.06938   0.06952   0.07178
     Eigenvalues ---    0.07516   0.08026   0.08729   0.10111   0.10232
     Eigenvalues ---    0.11188   0.12875   0.13249   0.14887   0.15227
     Eigenvalues ---    0.15891   0.16365   0.17202   0.17383   0.18038
     Eigenvalues ---    0.19928   0.20631   0.21565   0.23181   0.23991
     Eigenvalues ---    0.24335   0.25543   0.26052   0.26614   0.27797
     Eigenvalues ---    0.28548   0.28940   0.30924   0.31270   0.31564
     Eigenvalues ---    0.31972   0.32577   0.33117   0.33686   0.35493
     Eigenvalues ---    0.35686   0.36499   0.37841   0.38246   0.44196
     Eigenvalues ---    0.47290   0.50100   0.50688   0.50864   0.51146
     Eigenvalues ---    0.52197   0.55411   0.66916   0.82289
 Eigenvectors required to have negative eigenvalues:
                          R4        R8        R30       R11       R10
   1                    0.46905  -0.45803  -0.44592  -0.27704   0.26916
                          R9        D7        D2        D3        D1
   1                    0.22682   0.13322   0.13151   0.12449   0.10633
 RFO step:  Lambda0=4.904814073D-05 Lambda=-3.07038492D-03.
 Linear search not attempted -- option 19 set.
 Iteration  1 RMS(Cart)=  0.04899066 RMS(Int)=  0.00168385
 Iteration  2 RMS(Cart)=  0.00176664 RMS(Int)=  0.00046449
 Iteration  3 RMS(Cart)=  0.00000352 RMS(Int)=  0.00046448
 Iteration  4 RMS(Cart)=  0.00000000 RMS(Int)=  0.00046448
 Variable       Old X    -DE/DX   Delta X   Delta X   Delta X     New X
                                 (Linear)    (Quad)   (Total)
    R1        2.90061   0.00068   0.00000  -0.00089  -0.00115   2.89946
    R2        2.08823  -0.00074   0.00000  -0.00380  -0.00380   2.08443
    R3        2.43134   0.00475   0.00000   0.00708   0.00680   2.43814
    R4        2.58185  -0.00072   0.00000  -0.11501  -0.11478   2.46707
    R5        2.69214   0.00308   0.00000   0.01271   0.01272   2.70486
    R6        1.86681  -0.00354   0.00000  -0.02263  -0.02263   1.84418
    R7        1.83248  -0.00292   0.00000  -0.00873  -0.00873   1.82375
    R8        2.58389  -0.00101   0.00000   0.00207   0.00225   2.58615
    R9        2.04443  -0.00020   0.00000   0.01936   0.01915   2.06358
   R10        2.08656  -0.00241   0.00000  -0.01985  -0.01958   2.06698
   R11        2.08522  -0.00068   0.00000   0.04896   0.04920   2.13442
   R12        2.88767   0.00195   0.00000   0.00127   0.00121   2.88888
   R13        2.08047  -0.00077   0.00000  -0.00254  -0.00254   2.07793
   R14        2.67832   0.00266   0.00000   0.00394   0.00394   2.68226
   R15        2.89593   0.00144   0.00000   0.00271   0.00266   2.89858
   R16        2.08374  -0.00042   0.00000  -0.00270  -0.00270   2.08104
   R17        2.69427   0.00321   0.00000   0.00621   0.00621   2.70048
   R18        2.90623   0.00121   0.00000   0.00100   0.00124   2.90747
   R19        2.07017   0.00025   0.00000   0.00032   0.00032   2.07049
   R20        2.71056   0.00171   0.00000   0.00113   0.00113   2.71169
   R21        2.08791  -0.00001   0.00000  -0.00239  -0.00239   2.08552
   R22        2.88786   0.00079   0.00000   0.00185   0.00186   2.88973
   R23        1.83687  -0.00290   0.00000  -0.00693  -0.00693   1.82994
   R24        1.83580  -0.00310   0.00000  -0.00759  -0.00759   1.82821
   R25        1.83849  -0.00314   0.00000  -0.00737  -0.00737   1.83112
   R26        2.72926   0.00162   0.00000  -0.00267  -0.00267   2.72659
   R27        2.06602  -0.00003   0.00000   0.00008   0.00008   2.06610
   R28        2.07072  -0.00071   0.00000  -0.00200  -0.00200   2.06872
   R29        1.83399  -0.00299   0.00000  -0.00787  -0.00787   1.82612
   R30        2.66717  -0.00246   0.00000  -0.07106  -0.07131   2.59586
    A1        1.95713  -0.00107   0.00000  -0.00323  -0.00319   1.95394
    A2        2.04976   0.00280   0.00000   0.00995   0.00982   2.05958
    A3        2.06562  -0.00127   0.00000  -0.00616  -0.00611   2.05951
    A4        1.93489   0.00661   0.00000   0.01036   0.01002   1.94491
    A5        1.94701   0.00294   0.00000   0.09023   0.08852   2.03553
    A6        1.86655   0.00015   0.00000   0.04343   0.04067   1.90721
    A7        1.76738   0.00018   0.00000   0.00291   0.00202   1.76941
    A8        1.90002   0.00249   0.00000   0.03489   0.03330   1.93333
    A9        1.72775   0.00004   0.00000   0.03412   0.03308   1.76084
   A10        1.76587   0.00074   0.00000   0.01909   0.02046   1.78634
   A11        1.91319   0.00219   0.00000   0.01140   0.01145   1.92464
   A12        1.89296  -0.00095   0.00000  -0.00297  -0.00310   1.88986
   A13        1.89281  -0.00077   0.00000  -0.00894  -0.00901   1.88380
   A14        1.89989  -0.00019   0.00000   0.00113   0.00113   1.90102
   A15        1.93240   0.00018   0.00000   0.00896   0.00898   1.94138
   A16        1.93214  -0.00045   0.00000  -0.00961  -0.00964   1.92250
   A17        1.97673   0.00013   0.00000  -0.00875  -0.00886   1.96787
   A18        1.86776   0.00091   0.00000   0.01049   0.01068   1.87844
   A19        1.86778  -0.00122   0.00000  -0.00687  -0.00701   1.86076
   A20        1.89194  -0.00023   0.00000   0.00839   0.00839   1.90033
   A21        1.93205   0.00082   0.00000   0.00244   0.00245   1.93450
   A22        1.92667  -0.00044   0.00000  -0.00580  -0.00581   1.92086
   A23        1.93421   0.00138   0.00000   0.00750   0.00794   1.94215
   A24        1.90056  -0.00067   0.00000  -0.00068  -0.00097   1.89959
   A25        1.91631   0.00017   0.00000   0.00393   0.00396   1.92027
   A26        1.90736   0.00042   0.00000   0.00339   0.00339   1.91074
   A27        1.96834  -0.00177   0.00000  -0.01315  -0.01347   1.95487
   A28        1.83348   0.00042   0.00000  -0.00118  -0.00110   1.83238
   A29        1.87238   0.00056   0.00000   0.00754   0.00795   1.88033
   A30        1.90612  -0.00064   0.00000  -0.00444  -0.00467   1.90145
   A31        1.92884   0.00091   0.00000  -0.01433  -0.01433   1.91451
   A32        1.88661   0.00014   0.00000   0.00601   0.00610   1.89271
   A33        1.97235  -0.00153   0.00000  -0.00169  -0.00212   1.97022
   A34        1.89629   0.00054   0.00000   0.00706   0.00715   1.90345
   A35        1.84296   0.00520   0.00000   0.02592   0.02592   1.86889
   A36        1.85956   0.00557   0.00000   0.03067   0.03067   1.89024
   A37        1.86839   0.00472   0.00000   0.02620   0.02620   1.89459
   A38        1.97197   0.00034   0.00000  -0.00393  -0.00391   1.96807
   A39        1.92119  -0.00038   0.00000  -0.00631  -0.00633   1.91486
   A40        1.91079   0.00062   0.00000   0.00465   0.00465   1.91544
   A41        1.84314   0.00033   0.00000   0.00117   0.00112   1.84426
   A42        1.91890  -0.00085   0.00000   0.00455   0.00455   1.92344
   A43        1.89567  -0.00010   0.00000  -0.00024  -0.00024   1.89544
   A44        1.87871   0.00334   0.00000   0.02040   0.02040   1.89911
   A45        1.95795   0.00208   0.00000   0.00569   0.00550   1.96345
   A46        2.92660  -0.00072   0.00000  -0.02480  -0.02376   2.90284
   A47        3.03329   0.00151   0.00000   0.06937   0.06856   3.10186
   A48        2.95918   0.00041   0.00000  -0.00810  -0.00782   2.95136
   A49        3.19360  -0.00024   0.00000   0.01757   0.01748   3.21108
   A50        3.29465  -0.00063   0.00000  -0.03278  -0.03410   3.26054
   A51        3.09957   0.00228   0.00000  -0.00426  -0.00407   3.09550
    D1        2.85004  -0.00002   0.00000  -0.00025  -0.00025   2.84979
    D2        0.77781  -0.00049   0.00000  -0.00644  -0.00640   0.77141
    D3       -1.32152   0.00105   0.00000   0.01206   0.01205  -1.30948
    D4       -0.95332   0.00002   0.00000  -0.00218  -0.00222  -0.95554
    D5       -3.02555  -0.00045   0.00000  -0.00836  -0.00837  -3.03392
    D6        1.15830   0.00109   0.00000   0.01013   0.01008   1.16838
    D7       -3.13110  -0.00003   0.00000   0.03255   0.03262  -3.09848
    D8       -0.69290   0.00023   0.00000   0.03216   0.03216  -0.66073
    D9        0.38703   0.00006   0.00000   0.01643   0.01782   0.40485
   D10       -1.53225  -0.00280   0.00000  -0.03711  -0.03803  -1.57027
   D11       -3.07240  -0.00003   0.00000  -0.02486  -0.02435  -3.09675
   D12        1.17002  -0.00017   0.00000  -0.03376  -0.03346   1.13655
   D13       -0.91513  -0.00099   0.00000  -0.03091  -0.03070  -0.94583
   D14        2.60995  -0.00220   0.00000  -0.15828  -0.15959   2.45037
   D15       -1.90811  -0.00157   0.00000  -0.11437  -0.11501  -2.02313
   D16       -1.73004  -0.00130   0.00000  -0.08407  -0.08337  -1.81340
   D17        0.03508  -0.00066   0.00000  -0.04015  -0.03879  -0.00371
   D18        1.41647   0.00077   0.00000   0.10560   0.10639   1.52286
   D19       -0.59860  -0.00245   0.00000  -0.01083  -0.01185  -0.61045
   D20       -1.04756   0.00043   0.00000  -0.00921  -0.00913  -1.05669
   D21        1.03627   0.00084   0.00000   0.00298   0.00309   1.03937
   D22        3.10168   0.00017   0.00000  -0.00192  -0.00184   3.09984
   D23        1.02038   0.00045   0.00000  -0.00550  -0.00549   1.01489
   D24        3.10421   0.00086   0.00000   0.00669   0.00673   3.11094
   D25       -1.11357   0.00019   0.00000   0.00179   0.00179  -1.11177
   D26       -3.13508  -0.00013   0.00000  -0.01101  -0.01103   3.13708
   D27       -1.05124   0.00028   0.00000   0.00118   0.00119  -1.05005
   D28        1.01416  -0.00038   0.00000  -0.00372  -0.00375   1.01042
   D29       -2.92636  -0.00165   0.00000  -0.03792  -0.03790  -2.96426
   D30       -0.82665   0.00067   0.00000  -0.02412  -0.02409  -0.85074
   D31        1.28205   0.00025   0.00000  -0.02313  -0.02317   1.25888
   D32        0.88402   0.00185   0.00000   0.00742   0.00773   0.89174
   D33       -1.21455   0.00091   0.00000  -0.00096  -0.00079  -1.21534
   D34        3.07001   0.00069   0.00000  -0.00130  -0.00108   3.06892
   D35       -1.18588   0.00078   0.00000  -0.00594  -0.00578  -1.19167
   D36        2.99874  -0.00017   0.00000  -0.01433  -0.01430   2.98444
   D37        1.00011  -0.00039   0.00000  -0.01467  -0.01459   0.98552
   D38        2.98175   0.00096   0.00000  -0.00569  -0.00556   2.97619
   D39        0.88319   0.00001   0.00000  -0.01407  -0.01408   0.86911
   D40       -1.11544  -0.00021   0.00000  -0.01441  -0.01437  -1.12981
   D41        3.03782   0.00003   0.00000   0.01289   0.01278   3.05060
   D42        0.87616   0.00017   0.00000   0.02673   0.02679   0.90295
   D43       -1.21873   0.00020   0.00000   0.01845   0.01850  -1.20023
   D44       -0.98260   0.00058   0.00000   0.01324   0.01335  -0.96925
   D45        1.07093   0.00020   0.00000   0.01517   0.01536   1.08630
   D46       -3.11296   0.00002   0.00000   0.02707   0.02720  -3.08576
   D47        1.11191   0.00088   0.00000   0.01924   0.01936   1.13127
   D48       -3.11774   0.00050   0.00000   0.02118   0.02136  -3.09638
   D49       -1.01845   0.00032   0.00000   0.03308   0.03320  -0.98525
   D50       -3.13898   0.00061   0.00000   0.01208   0.01212  -3.12686
   D51       -1.08545   0.00023   0.00000   0.01401   0.01413  -1.07132
   D52        1.01385   0.00004   0.00000   0.02591   0.02597   1.03982
   D53       -1.04623  -0.00038   0.00000   0.00000  -0.00020  -1.04643
   D54        1.12003   0.00028   0.00000   0.00326   0.00339   1.12342
   D55       -3.08735   0.00010   0.00000  -0.00046  -0.00039  -3.08774
   D56        1.30630   0.00049   0.00000  -0.01374  -0.01393   1.29237
   D57       -0.74939   0.00012   0.00000  -0.00847  -0.00867  -0.75806
   D58       -2.83200   0.00009   0.00000  -0.00719  -0.00737  -2.83936
   D59       -2.87852   0.00081   0.00000  -0.01539  -0.01528  -2.89380
   D60        1.34898   0.00044   0.00000  -0.01012  -0.01002   1.33896
   D61       -0.73363   0.00041   0.00000  -0.00884  -0.00872  -0.74234
   D62       -0.78477   0.00039   0.00000  -0.00407  -0.00402  -0.78878
   D63       -2.84046   0.00001   0.00000   0.00120   0.00125  -2.83921
   D64        1.36012  -0.00002   0.00000   0.00248   0.00254   1.36267
   D65        1.26625   0.00084   0.00000   0.09262   0.09263   1.35888
   D66       -2.91606   0.00078   0.00000   0.08339   0.08339  -2.83267
   D67       -0.87413   0.00042   0.00000   0.08601   0.08601  -0.78812
         Item               Value     Threshold  Converged?
 Maximum Force            0.006614     0.000450     NO 
 RMS     Force            0.001596     0.000300     NO 
 Maximum Displacement     0.289797     0.001800     NO 
 RMS     Displacement     0.049239     0.001200     NO 
 Predicted change in Energy=-1.729219D-03
[...]
 7177,0.00002837,0.00002824,0.00117185,0.00068016,-0.00135765,0.0000129
 5,0.00003559,-0.00007204,-0.00009814,0.00012279,-0.00004304,-0.0000432
 0,0.00013393,0.00015460,0.00039515,0.00104870,0.00117941,-0.00006814,-
 0.00002799,-0.00007281,0.00000782,-0.00005059,-0.00001938,-0.00017005,
 0.00005014,-0.00025367,-0.01711664,-0.09456689,0.00013037,0.16043907,0
 .53332412,0.00020255,0.00055990,0.00065528,0.00028711,0.00024231,0.002
 70611,-0.00210576,0.00097233,-0.00570133,-0.00020875,0.00000618,-0.000
 02901,0.00065416,0.00018507,-0.00102679,-0.00112746,-0.00030152,0.0019
 6277,0.00319357,-0.00681816,-0.00265321,0.00215688,0.00099695,0.000296
 74,0.00016543,0.00046268,0.00059136,-0.00129731,0.00064839,0.00204695,
 0.00155855,-0.00479353,-0.00834204,-0.04205870,0.00594414,-0.00729816,
 -0.00000375,-0.00005362,-0.00002936,-0.00048361,0.00002151,-0.00014743
 ,0.00002691,-0.00077983,0.00470426,0.00006438,0.00002221,-0.00015344,-
 0.00020545,-0.00024885,-0.00055373,-0.00163250,0.00021414,-0.00157956,
 0.00023280,0.00149074,0.00116032,0.00024372,-0.00025241,0.00007470,0.0
 0007486,0.00010727,0.00013554,0.00008081,-0.00028781,0.00000489,-0.023
 32499,0.00983287,-0.06255737,0.04420401,-0.04156915,0.07271789,0.00002
 492,0.00014341,0.00029414,-0.00007382,-0.00008638,-0.00005339,-0.00010
 980,-0.00067188,-0.00006922,-0.00000613,-0.00000142,0.00000174,0.00015
 240,0.00002649,0.00001384,-0.00005460,-0.00007436,0.00006645,0.0002984
 6,0.00043621,0.00004067,-0.00050600,-0.00011898,0.00019658,0.00004306,
 -0.00000771,-0.00003265,0.00016115,-0.00013101,-0.00010413,0.00129560,
 0.00054109,0.00066520,0.00443395,0.00373186,-0.00155021,-0.00000271,-0
 .00001150,-0.00000676,-0.00014676,-0.00017209,0.00009895,-0.00005191,-
 0.00062616,-0.00116566,-0.00004679,-0.00003310,0.00003920,-0.00004060,
 0.00000742,-0.00001961,-0.00001334,-0.00001125,0.00007653,-0.00061623,
 0.00007262,-0.00020341,0.00001612,0.00002368,0.00000172,0.00000377,-0.
 00000456,-0.00000381,0.00006478,-0.00007200,0.00012159,-0.08790198,-0.
 07789180,0.04859051,-0.02943201,-0.03049226,0.00836179,0.11226461,-0.0
 0004785,0.00016211,-0.00004150,0.00047531,0.00187588,-0.00057066,0.000
 08307,-0.00012896,-0.00014657,0.00001246,-0.00000302,-0.00000407,-0.00
 002035,-0.00001888,0.00009595,0.00008417,0.00002677,-0.00013737,-0.000
 09008,0.00006292,0.00012826,0.00012496,-0.00003759,0.00005213,-0.00005
 215,-0.00003086,0.00000737,0.00012883,0.00011232,-0.00004627,-0.000316
 75,-0.00050249,0.00018530,-0.00001468,0.00038912,-0.00183487,-0.000004
 64,0.00001742,0.00000490,0.00045391,0.00006545,0.00020085,0.00043283,0
 .00066219,-0.00063052,-0.00003610,-0.00000952,-0.00008235,0.00004808,0
 .00000018,0.00004047,0.00009580,0.00001424,0.00003246,0.00091088,0.000
 15646,0.00057838,-0.00004522,-0.00002732,-0.00000489,-0.00000765,-0.00
 000376,0.00000468,-0.00016611,0.00011192,-0.00027878,-0.08801625,-0.22
 144160,0.09633896,-0.00069226,0.00505076,-0.00287186,0.09586523,0.2298
 0913,0.00068961,0.00079543,-0.00213144,-0.00023386,0.00080014,0.005415
 78,0.00018372,0.00000698,-0.00007352,0.00000580,-0.00000436,0.00000257
 ,0.00001362,-0.00012309,0.00017473,0.00010708,0.00014831,-0.00033315,-
 0.00019236,-0.00009314,0.00028638,0.00041743,-0.00000867,-0.00047553,-
 0.00005867,0.00022159,0.00012587,-0.00025716,-0.00005532,0.00017362,0.
 00198266,-0.00012068,0.00040991,0.01351026,0.02747791,-0.01921217,-0.0
 0005244,-0.00006760,-0.00001372,-0.00085939,-0.00017409,0.00020145,-0.
 00180718,-0.00073568,-0.00511170,0.00001632,-0.00006832,0.00020807,0.0
 0008511,-0.00009390,0.00007035,-0.00024548,-0.00009123,-0.00018011,-0.
 00002928,-0.00003872,0.00019582,0.00003537,-0.00001649,-0.00001687,-0.
 00000196,0.00003286,0.00002703,0.00014791,-0.00020789,-0.00003206,0.05
 264807,0.09613902,-0.10443699,-0.00679837,-0.00791298,0.00500177,-0.05
 036212,-0.10384876,0.11205000,-0.00013910,-0.00059233,0.00131413,0.000
 72603,-0.00111765,-0.00347837,0.00035966,-0.00137623,-0.00115905,0.000
 00184,-0.00001548,0.00000792,0.00019880,-0.00016478,0.00037202,0.00019
 947,0.00018369,-0.00053395,0.00058972,0.00057277,0.00117280,-0.0015098
 7,0.00030801,-0.00027469,0.00013341,-0.00008849,-0.00002998,0.00000449
 ,0.00001796,0.00012486,0.00024757,-0.00056198,-0.00059897,0.00352607,-
 0.00293021,0.00168034,0.00000291,0.00001475,0.00000656,-0.00003769,-0.
 00006686,0.00010841,0.00006634,0.00024409,-0.00034114,-0.00000219,-0.0
 0000836,0.00000687,-0.00009309,0.00005350,-0.00001912,-0.00007285,0.00
 004151,0.00000554,-0.00095355,0.00029309,-0.00075529,-0.00001243,-0.00
 000841,-0.00004796,-0.00000407,-0.00001285,-0.00001946,0.00010059,0.00
 011251,0.00011171,-0.08055942,0.07274039,0.03710724,-0.03220434,0.0294
 4122,0.00769131,0.00738448,-0.01077234,-0.00592402,0.10025356,0.000014
 78,-0.00004943,0.00156577,0.00044955,0.00058627,-0.00187900,-0.0001677
 2,-0.00002297,-0.00005348,-0.00001718,0.00000155,0.00000668,0.00015205
 ,0.00000578,-0.00006718,-0.00008220,-0.00002897,0.00016884,0.00024132,
 0.00004324,0.00000435,-0.00038510,0.00008764,0.00020528,0.00016193,-0.
 00010160,-0.00003508,-0.00013906,-0.00009712,0.00018605,0.00075876,-0.
 00076119,-0.00104182,-0.00099481,-0.00087834,0.00059977,-0.00000051,0.
 00000597,-0.00000098,-0.00012936,-0.00008820,-0.00006487,-0.00007116,0
 .00025922,-0.00060208,0.00003558,0.00002320,0.00002705,-0.00012411,0.0
 0006085,-0.00005554,-0.00018184,0.00008981,-0.00002728,0.00104905,-0.0
 0008700,0.00179233,-0.00001420,-0.00001853,-0.00006386,0.00001782,-0.0
 0001222,-0.00001714,0.00005414,-0.00000753,0.00022578,0.07880554,-0.24
 429099,-0.08614045,0.00053670,0.00519709,0.00148088,0.00848420,-0.0182
 1628,-0.01034799,-0.08908056,0.25589323,-0.00045573,-0.00207385,0.0032
 2744,-0.00067331,-0.00132374,-0.00964073,0.00010932,-0.00035938,-0.000
 45470,-0.00001641,-0.00001534,0.00001427,0.00031895,-0.00006914,0.0001
 6265,-0.00000153,0.00005635,-0.00019182,0.00062176,0.00001975,0.000599
 76,-0.00136068,0.00063622,-0.00040670,0.00050455,-0.00030129,-0.000131
 84,0.00012096,-0.00011787,-0.00009578,0.00018933,-0.00225699,-0.000319
 99,0.00972972,-0.02799433,-0.00764210,-0.00001462,0.00003237,-0.000002
 44,-0.00024775,0.00013392,0.00003732,0.00059090,0.00113078,0.00049740,
 0.00002396,0.00001002,0.00001371,-0.00031196,0.00022745,-0.00001714,-0
 .00005652,0.00021569,0.00023266,0.00103177,0.00113755,0.00154229,-0.00
 014347,-0.00003265,-0.00015542,-0.00000285,-0.00006040,-0.00008710,-0.
 00034308,0.00034081,-0.00070383,0.03805975,-0.08605727,-0.09261616,-0.
 00682481,0.00864360,0.00503312,-0.00592615,0.01261498,0.00713501,-0.03
 611767,0.09395959,0.09431636,0.00025792,0.00022053,-0.00084547,-0.0001
 0996,0.00085245,0.00095968,0.00217551,0.00021812,-0.00145491,0.0000306
 8,0.00000760,0.00002399,-0.00056605,-0.00022526,0.00010603,0.00048342,
 0.00053490,-0.00040807,-0.00131147,0.00053852,0.00167308,0.00050192,-0
 .00034482,-0.00030433,-0.00005572,-0.00006660,-0.00002950,0.00000508,0
 .00009379,-0.00015156,-0.00007267,-0.00008290,-0.00017834,-0.00035425,
 -0.00084326,0.00004655,-0.00001730,0.00000746,0.00000748,0.00020384,0.
 00001005,0.00002622,0.00036509,0.00018449,-0.00088991,0.00000545,0.000
 00259,-0.00003036,0.00006276,0.00005273,0.00015417,0.00014305,0.000006
 83,0.00018180,0.00039596,0.00022020,0.00044641,-0.00006301,0.00001153,
 -0.00006613,-0.00001430,-0.00002246,-0.00002586,-0.00018964,0.00010526
 ,-0.00024668,-0.01994817,-0.03910738,0.00463847,-0.11202432,-0.1450940
 3,0.00334674,-0.00708073,0.00145316,-0.00231989,0.00174558,0.00054102,
 0.00104465,0.13537534,-0.00005332,0.00001288,-0.00030165,-0.00011615,-
 0.00002387,0.00032804,-0.00123905,-0.00154034,0.00070854,0.00004028,0.
 00002374,-0.00001026,-0.00001548,0.00004925,0.00012420,-0.00000776,-0.
 00036556,-0.00024431,0.00060890,0.00049571,-0.00061568,-0.00013237,-0.
 00017948,0.00027232,-0.00006458,-0.00002830,-0.00008551,0.00006017,-0.
 00007009,-0.00019784,0.00003845,0.00062580,0.00054953,0.00150959,-0.00
 020578,-0.00089420,0.00000213,-0.00000568,0.00000368,0.00000957,-0.000
 08633,0.00002925,-0.00033669,-0.00010834,-0.00022104,-0.00000930,-0.00
 000576,0.00003374,0.00006013,0.00000356,0.00009545,0.00019807,-0.00005
 529,0.00016599,-0.00013779,-0.00035904,-0.00013830,-0.00001802,0.00004
 543,-0.00000843,-0.00001084,-0.00000007,-0.00001425,0.00009048,0.00009
 201,0.00016483,0.00890880,0.00289125,0.00224625,-0.19373005,-0.4468430
 0,0.03505957,0.00113610,0.00198726,-0.00034469,0.00222541,0.00202300,0
 .00027350,0.18098336,0.44164612,-0.00038085,-0.00040470,-0.00003566,0.
 00033740,0.00077631,-0.00041296,-0.00078089,-0.00115209,0.00097013,0.0
 0009578,0.00001036,-0.00000035,-0.00003189,0.00030430,0.00015460,0.000
 06267,-0.00063110,-0.00010392,0.00059059,0.00023847,-0.00115676,-0.000
 19902,-0.00020739,0.00046662,-0.00008494,-0.00002614,-0.00012587,-0.00
 023131,0.00004244,-0.00008057,-0.00003697,0.00081763,-0.00068841,-0.00
 266859,-0.00283466,0.00140433,0.00001914,0.00000504,0.00000707,0.00028
 879,-0.00004085,0.00005127,0.00019754,0.00077446,-0.00119565,-0.000000
 98,0.00003380,-0.00003750,0.00011013,0.00002499,0.00012611,0.00022969,
 -0.00005096,0.00005982,0.00011484,-0.00022507,-0.00015677,-0.00004752,
 0.00002691,0.00000073,-0.00002715,-0.00000682,-0.00001961,-0.00019198,
 0.00011731,-0.00003501,-0.00360179,-0.00728864,-0.00144982,0.01053312,
 0.04540582,-0.00685611,0.00126393,0.00040327,0.00028563,0.00030215,0.0
 0068606,0.00085219,-0.00611959,-0.03708877,0.00800651,-0.08181186,0.06
 687686,0.01055723,0.00268181,-0.00361641,-0.00547351,0.00003263,-0.000
 04358,-0.00002177,-0.00032247,-0.00006456,0.00001324,0.00051210,0.0007
 0471,0.00056525,0.00009322,0.00001134,-0.00062486,-0.00055202,0.000053
 66,0.00022365,0.00090040,-0.00046429,-0.00000574,-0.00793859,0.0305500
 4,0.00631590,-0.00420827,-0.00287979,-0.00233707,-0.00042525,-0.000324
 17,-0.00091918,-0.00021132,0.00122067,-0.00074020,0.00076347,-0.000400
 36,0.00032190,-0.00000321,0.00002978,0.00008191,-0.00007798,-0.0001929
 6,0.00022345,0.00010746,0.00024927,-0.00003430,0.00123283,-0.00117431,
 0.00000798,-0.00130339,0.00244459,0.00078780,0.00034903,0.00017066,0.0
 0054712,-0.00061757,0.00006908,-0.00023733,0.00004197,-0.00017516,0.00
 002915,-0.00013449,-0.00003046,-0.00012294,0.00021310,-0.00035817,-0.0
 0015110,0.00003900,-0.00001120,0.00005208,-0.00001849,-0.00000698,0.00
 003656,-0.00008272,-0.00007123,-0.00017911,0.00001075,0.00000728,0.000
 01807,0.07946759,0.06932981,-0.26456025,-0.01754410,0.00135120,-0.0006
 9362,-0.00708817,0.00015881,-0.00014482,-0.00011516,-0.00043293,-0.000
 23608,0.00001318,-0.00311158,0.00213566,-0.00175129,-0.00077701,-0.000
 72775,0.00044467,-0.00055441,0.00097508,-0.00000111,0.00114875,-0.0014
 1404,-0.00064633,0.00077244,-0.00476040,-0.00239436,0.00016812,0.00160
 811,0.00011594,0.00000208,0.00018346,0.00022707,-0.00025384,0.00171037
 ,-0.00020911,0.00077487,0.00061161,-0.00001549,0.00004212,-0.00004469,
 -0.00004431,-0.00002051,0.00014585,0.00051110,-0.00025429,0.00029265,-
 0.00002471,0.00027844,0.00061838,0.00094331,0.00042321,-0.00029338,-0.
 00006023,-0.00003343,-0.00008159,-0.00009879,-0.00001454,0.00000197,0.
 00013274,0.00005448,0.00002803,0.00019841,-0.00002646,0.00005253,0.000
 04762,0.00027965,-0.00020536,0.00013178,-0.00024023,0.00008658,-0.0000
 7027,-0.00002019,-0.00002027,-0.00001704,-0.00005311,-0.00002945,-0.00
 006370,0.00001639,0.00001429,0.00005416,-0.06194918,0.29818035,-0.0000
 5420,-0.01770406,-0.04101655,0.00670194,-0.02616964,-0.02049140,0.0001
 6279,-0.00014975,-0.00013181,0.00004781,0.00006900,0.00001042,0.000548
 95,-0.00027986,0.00048511,0.00004052,0.00000756,-0.00047197,-0.0013439
 7,0.00062389,0.00022212,0.00198355,-0.00179198,0.00016236,-0.00230188,
 0.00621315,0.00624369,-0.00078527,-0.00107067,-0.00066274,-0.00073990,
 0.00005658,-0.00047803,-0.00035499,0.00376765,-0.00525484,-0.00005782,
 -0.00035362,0.00002992,-0.00001481,0.00001154,0.00005004,-0.00021447,-
 0.00036138,-0.00008803,0.00011145,-0.00002593,0.00007054,0.00154748,-0
 .00047331,0.00092633,-0.00045969,0.00072174,0.00042231,0.00041182,-0.0
 0021324,0.00035462,-0.00017491,0.00007507,-0.00016431,0.00013930,-0.00
 015357,0.00023765,-0.00006772,0.00001994,-0.00013596,0.00091606,-0.002
 12518,-0.00017418,-0.00042981,0.00011194,0.00002140,0.00000145,0.00001
 264,0.00017395,-0.00025802,-0.00009567,-0.00070078,0.00007958,0.000036
 87,-0.00002186,-0.01002566,0.01653957,0.05373406,-0.24030828,-0.142696
 54,0.04141226,0.01163582,-0.00186109,0.04263560,-0.00073162,0.00092136
 ,0.00104301,-0.00484984,0.00016575,-0.00572907,-0.08599705,0.03248556,
 -0.03127929,-0.00971697,-0.00788202,0.02276918,0.01695203,0.00122065,-
 0.01115054,-0.01977976,0.00494908,-0.00151659,-0.03125159,-0.03469513,
 0.02564160,0.00256308,-0.00402049,-0.00058467,0.00020654,-0.00096687,-
 0.00205778,0.00039803,-0.01092212,0.00060257,-0.00938149,0.00122010,-0
 .00139170,0.00049346,-0.00009511,0.00008009,-0.00024606,0.00289599,0.0
 0057099,-0.00110624,0.00013214,0.00052328,0.00040741,0.00130141,-0.002
 18720,-0.00267286,0.00185216,0.00025418,-0.00018325,0.00228103,0.00144
 367,0.00018878,-0.00000307,-0.00029097,0.00077490,-0.00068070,0.000210
 92,-0.00040972,-0.00051041,-0.00029442,-0.00279113,0.00225936,-0.00068
 732,0.00319660,-0.00039821,-0.00008225,0.00017887,0.00016916,-0.000643
 03,0.00064248,0.00035852,0.00091027,-0.00057564,0.00003749,0.00039829,
 0.00963717,-0.01349510,0.00610125,0.32283756,-0.14578916,-0.27409509,0
 .06287658,-0.00229351,0.00959189,0.03320077,-0.00010343,-0.00042374,-0
 .00018200,-0.00072108,0.00065920,0.00027139,0.00961049,0.01088370,0.00
 017471,-0.00138832,-0.00180859,0.00289210,0.00504695,0.00042373,-0.000
 79938,-0.00741477,0.00079809,-0.00124205,-0.01157957,0.00688742,0.0070
 2534,-0.00294932,-0.00505942,0.00049096,0.00043863,0.00049199,0.000214
 28,-0.00019526,-0.01210946,0.00009686,0.00180930,0.00116934,-0.0002296
 0,0.00057914,-0.00009624,-0.00030967,0.00170272,0.00391381,0.00072195,
 0.00040944,0.00299558,-0.00088343,0.00144101,0.00228925,-0.00087356,0.
 00125381,0.00263634,-0.00067262,-0.00063617,0.00113289,-0.00020721,-0.
 00056144,0.00025551,0.00016948,0.00023657,-0.00039718,-0.00009866,-0.0
 0021328,0.00011913,0.00043638,-0.00021800,0.00429657,0.00048155,0.0003
 3783,0.00022699,-0.00028293,-0.00008635,-0.00006734,-0.00132957,0.0004
 6185,0.00036722,0.00116451,-0.00016305,-0.00003946,0.00036702,-0.02918
 138,-0.03145589,0.02246986,0.16994735,0.31310993,0.08055130,0.08982656
 ,-0.10377191,0.02019669,0.02074452,-0.04604576,0.00051114,-0.00014819,
 0.00032732,-0.00365861,0.00052412,-0.00176362,-0.00744676,0.00200196,0
 .01556160,0.00322625,0.00082628,-0.00436680,-0.00660011,0.00127848,0.0
 0122213,0.00871505,-0.00343682,0.00228833,0.00598061,-0.00064125,0.000
 17771,-0.00024162,0.00127431,-0.00079362,-0.00205067,0.00058436,-0.000
 81353,-0.00103268,0.00860568,0.00196897,-0.00100125,0.00023927,0.00071
 089,0.00010592,0.00003315,0.00029621,0.00043353,-0.00048326,-0.0010872
 1,0.00032058,-0.00080368,-0.00022136,-0.00064825,-0.00084024,0.0035020
 8,0.00022044,-0.00012865,0.00129167,0.00138607,-0.00120853,0.00073083,
 -0.00010269,0.00005645,-0.00030810,-0.00011888,-0.00003213,0.00071788,
 -0.00033792,0.00030479,-0.00045666,0.00136675,-0.00006247,0.00011014,-
 0.00085065,-0.00026671,-0.00054706,-0.00029761,-0.00015450,0.00008936,
 -0.00034134,-0.00041498,-0.00044290,0.00023562,0.00017792,0.00020317,0
 .00127796,0.00863635,0.00791004,-0.09577140,-0.13087761,0.15104329,-0.
 02771935,-0.03390637,0.03539910,-0.00574528,0.00235479,-0.02093897,0.0
 0075466,-0.00164405,-0.00131591,-0.00171990,-0.00084408,0.00114534,-0.
 10393988,0.01823369,-0.00975653,0.01917550,0.00927278,-0.03268853,-0.0
 2047948,-0.00201369,0.01671324,0.01918344,-0.00612843,0.00488212,0.003
 19014,0.00265661,-0.00546823,-0.00185871,0.00180744,0.00102713,-0.0003
 2234,0.00128386,0.00137704,-0.00108847,0.00413046,-0.00024771,0.002610
 93,0.00017073,0.00011381,0.00004444,-0.00002837,-0.00015546,0.00007540
 ,-0.00019173,0.00120679,-0.00039620,0.00076664,-0.00018743,0.00116067,
 0.00008021,0.00111575,0.00258387,-0.00134152,-0.00058379,0.00014864,-0
 .00164051,-0.00123500,-0.00011963,0.00008381,0.00021902,-0.00031559,0.
 00021418,-0.00038290,0.00011803,0.00055291,0.00038347,0.00360723,-0.00
 060186,0.00135669,-0.00359830,0.00070837,-0.00006710,-0.00022026,-0.00
 004844,-0.00009432,-0.00051170,-0.00020190,-0.00058024,0.00062089,-0.0
 0004482,-0.00015867,0.00162512,0.00643640,-0.00151081,0.03988877,0.010
 21898,-0.00402748,0.07324735,-0.01026916,0.01203420,-0.01107250,0.0022
 9383,-0.00157757,0.00613055,-0.00031893,0.00097440,0.00037187,0.012385
 85,-0.00525483,0.00509548,0.01353931,-0.03560362,-0.00798612,0.0013308
 7,-0.00352691,0.01231918,0.00450025,-0.00010928,-0.00465773,-0.0061992
 6,0.00223913,-0.00008553,-0.00130518,-0.00234310,0.00327726,0.00058816
 ,-0.00065170,-0.00013155,-0.00000846,-0.00041445,-0.00017349,0.0006399
 9,-0.00010159,-0.00006180,-0.00125147,0.00012484,-0.00008435,-0.000083
 21,0.00001396,-0.00000711,0.00011719,-0.00025699,-0.00046349,0.0000620
 1,0.00001022,0.00002719,0.00006651,-0.00007175,-0.00031713,-0.00052345
 ,0.00033754,0.00004041,-0.00003073,0.00027710,0.00023765,0.00003718,0.
 00001362,-0.00004943,0.00009848,-0.00003600,0.00008639,0.00004693,-0.0
 0011082,-0.00007575,-0.00095065,0.00008926,-0.00040538,0.00091172,-0.0
 0036401,0.00008282,0.00004470,0.00000375,0.00007800,0.00013889,0.00004
 574,0.00012887,-0.00011124,0.00000609,-0.00013117,-0.00144374,-0.00197
 732,0.00023084,-0.00397029,-0.03669615,0.00438481,-0.01033610,0.072926
 26,0.00545926,-0.00841794,0.00672123,-0.00164191,0.00041698,-0.0035105
 9,-0.00003523,-0.00032132,-0.00065100,0.02508141,-0.00784984,0.0111836
 5,-0.04893833,0.00923364,-0.07657365,-0.00945494,0.00465361,-0.0079527
 8,-0.00069124,-0.00044687,0.00202012,0.00467260,-0.00007828,-0.0009538
 2,0.00076660,0.00220531,0.00033442,-0.00050070,0.00030500,0.00042718,0
 .00006847,-0.00002171,0.00050340,0.00031758,0.00045303,-0.00069013,0.0
 0074056,0.00008981,0.00000291,-0.00005647,0.00002295,-0.00005204,0.000
 31406,-0.00033240,0.00004797,-0.00005350,0.00016694,-0.00009250,0.0005
 4968,-0.00019533,0.00018309,0.00033437,-0.00016817,-0.00030846,-0.0001
 8810,-0.00012469,-0.00037279,-0.00001356,0.00001347,0.00009409,-0.0000
 2694,0.00006156,0.00004628,0.00009712,0.00005133,0.00014677,0.00077225
 ,-0.00009471,0.00014376,-0.00086301,0.00023695,0.00036151,-0.00003954,
 -0.00004763,-0.00001003,-0.00011283,-0.00000101,-0.00005475,0.00010013
 ,-0.00010473,-0.00021136,-0.00018648,0.00214828,-0.00126209,0.00906908
 ,0.00493457,-0.02753306,0.01445961,-0.00678878,0.09801269\\0.00000053,
 0.00000068,-0.00000249,-0.00000243,-0.00000023,-0.00000343,-0.00000112
 ,-0.00000483,-0.00000109,-0.00000397,-0.00000446,0.00000052,0.00000304
 ,0.00000016,0.00000108,-0.00000200,-0.00000550,-0.00000178,-0.00000374
 ,-0.00000456,-0.00000044,-0.00000363,-0.00000216,-0.00000186,-0.000001
 10,0.00000424,-0.00000022,0.00000141,0.00000432,0.00000052,0.00000147,
 0.00000228,0.00000045,-0.00000043,-0.00000183,0.00000140,-0.00000191,0
 .00000425,-0.00000238,0.00000026,0.00000181,-0.00000039,0.00000208,-0.
 00000188,0.00000166,0.00000301,0.00000358,0.00000138,-0.00000064,0.000
 00610,-0.00000148,0.00000189,0.00000758,-0.00000063,0.00000267,0.00000
 155,0.00000241,0.00000259,0.00000649,0.00000173,0.00000008,0.00000837,
 -0.00000156,0.00000440,0.00000140,0.00000353,0.00000076,-0.00000335,0.
 00000143,0.00000040,-0.00000853,-0.00000167,-0.00000180,-0.00000337,-0
 .00000033,0.00000121,-0.00000327,0.00000135,0.00000129,-0.00000696,0.0
 0000321,-0.00000257,0.00000150,-0.00000207,-0.00000035,0.00000157,0.00
 000194,-0.00000144,-0.00000494,-0.00000080\\\@


 Change starts when someone sees the next step.
                            -- William Drayton
 Job cpu time:       0 days  3 hours 20 minutes 41.2 seconds.
 File lengths (MBytes):  RWF=    367 Int=      0 D2E=      0 Chk=     10 Scr=      1
 Normal termination of Gaussian 09 at Sun Jun  5 00:43:11 2016.
