 Entering Gaussian System, Link 0=g09
 Initial command:
 /usr/local/gaussian/g09.D01/g09/l1.exe "/nqs/iawad/Gau-30284.inp" -scrdir="/nqs/iawad/"
 Entering Link 1 = /usr/local/gaussian/g09.D01/g09/l1.exe PID=     30285.
  
 Copyright (c) 1988,1990,1992,1993,1995,1998,2003,2009,2013,
            Gaussian, Inc.  All Rights Reserved.
  
 This is part of the Gaussian(R) 09 program.  It is based on
 the Gaussian(R) 03 system (copyright 2003, Gaussian, Inc.),
 the Gaussian(R) 98 system (copyright 1998, Gaussian, Inc.),
 the Gaussian(R) 94 system (copyright 1995, Gaussian, Inc.),
 the Gaussian 92(TM) system (copyright 1992, Gaussian, Inc.),
 the Gaussian 90(TM) system (copyright 1990, Gaussian, Inc.),
 the Gaussian 88(TM) system (copyright 1988, Gaussian, Inc.),
 the Gaussian 86(TM) system (copyright 1986, Carnegie Mellon
 University), and the Gaussian 82(TM) system (copyright 1983,
 Carnegie Mellon University). Gaussian is a federally registered
 trademark of Gaussian, Inc.
  
 This software contains proprietary and confidential information,
 including trade secrets, belonging to Gaussian, Inc.
  
 This software is provided under written license and may be
 used, copied, transmitted, or stored only in accord with that
 written license.
  
 The following legend is applicable only to US Government
 contracts under FAR:
  
                    RESTRICTED RIGHTS LEGEND
  
 Use, reproduction and disclosure by the US Government is
 subject to restrictions as set forth in subparagraphs (a)
 and (c) of the Commercial Computer Software - Restricted
 Rights clause in FAR 52.227-19.
  
 Gaussian, Inc.
 340 Quinnipiac St., Bldg. 40, Wallingford CT 06492
  
  
 ---------------------------------------------------------------
 Warning -- This program may not be used in any manner that
 competes with the business of Gaussian, Inc. or will provide
 assistance to any competitor of Gaussian, Inc.  The licensee
 of this program is prohibited from giving any competitor of
 Gaussian, Inc. access to this program.  By using this program,
 the user acknowledges that Gaussian, Inc. is engaged in the
 business of creating and licensing software in the field of
 computational chemistry and represents and warrants to the
 licensee that it is not a competitor of Gaussian, Inc. and that
 it will not use this program in any manner prohibited above.
 ---------------------------------------------------------------
  

 Cite this work as:
 Gaussian 09, Revision D.01,
 M. J. Frisch, G. W. Trucks, H. B. Schlegel, G. E. Scuseria, 
 M. A. Robb, J. R. Cheeseman, G. Scalmani, V. Barone, B. Mennucci, 
 G. A. Petersson, H. Nakatsuji, M. Caricato, X. Li, H. P. Hratchian, 
 A. F. Izmaylov, J. Bloino, G. Zheng, J. L. Sonnenberg, M. Hada, 
 M. Ehara, K. Toyota, R. Fukuda, J. Hasegawa, M. Ishida, T. Nakajima, 
 Y. Honda, O. Kitao, H. Nakai, T. Vreven, J. A. Montgomery, Jr., 
 J. E. Peralta, F. Ogliaro, M. Bearpark, J. J. Heyd, E. Brothers, 
 K. N. Kudin, V. N. Staroverov, T. Keith, R. Kobayashi, J. Normand, 
 K. Raghavachari, A. Rendell, J. C. Burant, S. S. Iyengar, J. Tomasi, 
 M. Cossi, N. Rega, J. M. Millam, M. Klene, J. E. Knox, J. B. Cross, 
 V. Bakken, C. Adamo, J. Jaramillo, R. Gomperts, R. E. Stratmann, 
 O. Yazyev, A. J. Austin, R. Cammi, C. Pomelli, J. W. Ochterski, 
 R. L. Martin, K. Morokuma, V. G. Zakrzewski, G. A. Voth, 
 P. Salvador, J. J. Dannenberg, S. Dapprich, A. D. Daniels, 
 O. Farkas, J. B. Foresman, J. V. Ortiz, J. Cioslowski, 
 and D. J. Fox, Gaussian, Inc., Wallingford CT, 2013.
 
 ******************************************
 Gaussian 09:  AM64L-G09RevD.01 24-Apr-2013
                 4-Jun-2016 
 ******************************************
 %NPROCS=4
 Will use up to    4 processors via shared memory.
 %rwf=/nqs/iawad//glo_1w_Beta_B3LYP_6-31G_d_p.rwf
 %nosave
 %chk=/home/iawad/scratch/MAIN/PRO_Halides/direct/TsF/glo_1w_Beta/glo_1w_Beta_B3L
 YP_6-31G_d_p.chk
 -------------------------------------------------------------------
 # opt=(TS, CalcFC, NoEigenTest, MaxCycle=500) Freq B3LYP/6-31G(d,p)
 -------------------------------------------------------------------
 1/5=1,6=500,10=4,11=1,14=-1,18=20,26=3,38=1/1,3;
 2/9=110,12=2,17=6,18=5,40=1/2;
 3/5=1,6=6,7=101,11=2,16=1,25=1,30=1,71=2,74=-5,140=1/1,2,3;
 4//1;
 5/5=2,38=5/2;
 8/6=4,10=90,11=11/1;
 11/6=1,8=1,9=11,15=111,16=1/1,2,10;
 10/6=1,13=1/2;
 6/7=2,8=2,9=2,10=2,28=1/1;
 7/10=1,18=20,25=1/1,2,3,16;
 1/5=1,6=500,10=4,11=1,14=-1,18=20,26=3/3(2);
 2/9=110/2;
 99//99;
 2/9=110/2;
 3/5=1,6=6,7=101,11=2,16=1,25=1,30=1,71=1,74=-5/1,2,3;
 4/5=5,16=3,69=1/1;
 5/5=2,38=5/2;
 7//1,2,3,16;
 1/5=1,6=500,11=1,14=-1,18=20,26=3/3(-5);
 2/9=110/2;
 6/7=2,8=2,9=2,10=2,19=2,28=1/1;
 99/9=1/99;
 ---------------------------
 glo_1w_Beta_B3LYP_6-31G_d_p
 ---------------------------
 Symbolic Z-matrix:
 Charge =  0 Multiplicity = 1
 C
 O                    1    B1
 H                    2    B2       1    A1
 O                    1    B3       2    A2       3    D1       0
 H                    4    B4       1    A3       2    D2       0
 O                    2    B5       1    A4       4    D3       0
 H                    6    B6       2    A5       1    D4       0
 C                    1    B7       4    A6       6    D5       0
 C                    8    B8       1    A7       4    D6       0
 C                    9    B9       8    A8       1    D7       0
 C                    2    B10      1    A9       4    D8       0
 C                    11   B11      2    A10      1    D9       0
 O                    12   B12      11   A11      2    D10      0
 O                    8    B13      1    A12      4    D11      0
 O                    9    B14      8    A13      1    D12      0
 O                    10   B15      9    A14      8    D13      0
 H                    1    B16      4    A15      6    D14      0
 H                    8    B17      1    A16      4    D15      0
 H                    14   B18      8    A17      1    D16      0
 H                    15   B19      9    A18      8    D17      0
 H                    16   B20      10   A19      9    D18      0
 H                    10   B21      9    A20      8    D19      0
 H                    11   B22      2    A21      1    D20      0
 H                    12   B23      11   A22      2    D21      0
 H                    12   B24      11   A23      2    D22      0
 H                    13   B25      12   A24      11   D23      0
 O                    15   B26      9    A25      8    D24      0
 H                    27   B27      15   A26      9    D25      0
 H                    9    B28      8    A27      1    D26      0
 H                    27   B29      15   A28      9    D27      0
       Variables:
  B1                    1.84834                  
  B2                    2.94634                  
  B3                    1.27553                  
  B4                    1.28062                  
  B5                    2.38271                  
  B6                    1.20102                  
  B7                    1.52822                  
  B8                    1.53671                  
  B9                    1.53204                  
  B10                   1.41426                  
  B11                   1.53245                  
  B12                   1.43504                  
  B13                   1.41418                  
  B14                   1.41924                  
  B15                   1.43123                  
  B16                   1.09783                  
  B17                   1.10446                  
  B18                   0.9771                   
  B19                   0.98772                  
  B20                   0.97807                  
  B21                   1.10339                  
  B22                   1.10042                  
  B23                   1.09718                  
  B24                   1.10073                  
  B25                   0.96877                  
  B26                   2.7449                   
  B27                   0.96963                  
  B28                   1.1028                   
  B29                   0.98265                  
  A1                   82.5035                   
  A2                  102.75472                  
  A3                  106.49439                  
  A4                   83.28722                  
  A5                   12.64436                  
  A6                  120.03171                  
  A7                  114.45668                  
  A8                  112.64593                  
  A9                  120.19955                  
  A10                 107.4918                   
  A11                 108.34716                  
  A12                 105.75304                  
  A13                 104.95839                  
  A14                 108.5514                   
  A15                 116.92822                  
  A16                 108.26352                  
  A17                 103.75453                  
  A18                 108.11246                  
  A19                 106.91539                  
  A20                 108.35585                  
  A21                 108.52892                  
  A22                 108.88639                  
  A23                 109.44375                  
  A24                 108.91315                  
  A25                 100.27439                  
  A26                 105.53377                  
  A27                 108.61252                  
  A28                  79.30295                  
  D1                  -51.56295                  
  D2                   42.04453                  
  D3                  -34.27659                  
  D4                 -152.84553                  
  D5                  -74.00577                  
  D6                  162.99715                  
  D7                  -68.08745                  
  D8                 -171.5718                   
  D9                  173.40655                  
  D10                 175.39052                  
  D11                 -76.92112                  
  D12                 169.47969                  
  D13                -179.10486                  
  D14                 140.83048                  
  D15                  41.55735                  
  D16                -159.16789                  
  D17                -158.21467                  
  D18                -162.55877                  
  D19                 -60.19665                  
  D20                 -70.06586                  
  D21                  54.52405                  
  D22                 -63.76175                  
  D23                 172.60507                  
  D24                -166.13255                  
  D25                -141.10459                  
  D26                  51.62784                  
  D27                 -39.16431                  
 
 Add virtual bond connecting atoms O6         and H5         Dist= 2.21D+00.
 Add virtual bond connecting atoms H7         and O6         Dist= 2.27D+00.
 Add virtual bond connecting atoms H5         and O4         Dist= 2.42D+00.
 Add virtual bond connecting atoms H7         and O2         Dist= 2.34D+00.
 Add virtual bond connecting atoms O27        and H20        Dist= 3.37D+00.
 Add virtual bond connecting atoms H30        and O16        Dist= 3.46D+00.

 GradGradGradGradGradGradGradGradGradGradGradGradGradGradGradGradGradGrad
 Berny optimization.
 Initialization pass.
                           ----------------------------
                           !    Initial Parameters    !
                           ! (Angstroms and Degrees)  !
 --------------------------                            --------------------------
 ! Name  Definition              Value          Derivative Info.                !
 --------------------------------------------------------------------------------
 ! R1    R(1,4)                  1.2755         calculate D2E/DX2 analytically  !
 ! R2    R(1,8)                  1.5282         calculate D2E/DX2 analytically  !
 ! R3    R(1,17)                 1.0978         calculate D2E/DX2 analytically  !
 ! R4    R(2,7)                  1.239          calculate D2E/DX2 analytically  !
 ! R5    R(2,11)                 1.4143         calculate D2E/DX2 analytically  !
 ! R6    R(3,6)                  0.9713         calculate D2E/DX2 analytically  !
 ! R7    R(4,5)                  1.2806         calculate D2E/DX2 analytically  !
 ! R8    R(5,6)                  1.1709         calculate D2E/DX2 analytically  !
 ! R9    R(6,7)                  1.201          calculate D2E/DX2 analytically  !
 ! R10   R(8,9)                  1.5367         calculate D2E/DX2 analytically  !
 ! R11   R(8,14)                 1.4142         calculate D2E/DX2 analytically  !
 ! R12   R(8,18)                 1.1045         calculate D2E/DX2 analytically  !
 ! R13   R(9,10)                 1.532          calculate D2E/DX2 analytically  !
 ! R14   R(9,15)                 1.4192         calculate D2E/DX2 analytically  !
 ! R15   R(9,29)                 1.1028         calculate D2E/DX2 analytically  !
 ! R16   R(10,11)                1.5408         calculate D2E/DX2 analytically  !
 ! R17   R(10,16)                1.4312         calculate D2E/DX2 analytically  !
 ! R18   R(10,22)                1.1034         calculate D2E/DX2 analytically  !
 ! R19   R(11,12)                1.5325         calculate D2E/DX2 analytically  !
 ! R20   R(11,23)                1.1004         calculate D2E/DX2 analytically  !
 ! R21   R(12,13)                1.435          calculate D2E/DX2 analytically  !
 ! R22   R(12,24)                1.0972         calculate D2E/DX2 analytically  !
 ! R23   R(12,25)                1.1007         calculate D2E/DX2 analytically  !
 ! R24   R(13,26)                0.9688         calculate D2E/DX2 analytically  !
 ! R25   R(14,19)                0.9771         calculate D2E/DX2 analytically  !
 ! R26   R(15,20)                0.9877         calculate D2E/DX2 analytically  !
 ! R27   R(16,21)                0.9781         calculate D2E/DX2 analytically  !
 ! R28   R(16,30)                1.8307         calculate D2E/DX2 analytically  !
 ! R29   R(20,27)                1.7851         calculate D2E/DX2 analytically  !
 ! R30   R(27,28)                0.9696         calculate D2E/DX2 analytically  !
 ! R31   R(27,30)                0.9826         calculate D2E/DX2 analytically  !
 ! A1    A(4,1,8)              120.0317         calculate D2E/DX2 analytically  !
 ! A2    A(4,1,17)             116.9282         calculate D2E/DX2 analytically  !
 ! A3    A(8,1,17)             114.01           calculate D2E/DX2 analytically  !
 ! A4    A(7,2,11)             122.466          calculate D2E/DX2 analytically  !
 ! A5    A(1,4,5)              106.4944         calculate D2E/DX2 analytically  !
 ! A6    A(4,5,6)              154.1482         calculate D2E/DX2 analytically  !
 ! A7    A(3,6,5)              108.2186         calculate D2E/DX2 analytically  !
 ! A8    A(3,6,7)              110.8661         calculate D2E/DX2 analytically  !
 ! A9    A(5,6,7)               88.0613         calculate D2E/DX2 analytically  !
 ! A10   A(2,7,6)              155.1052         calculate D2E/DX2 analytically  !
 ! A11   A(1,8,9)              114.4567         calculate D2E/DX2 analytically  !
 ! A12   A(1,8,14)             105.753          calculate D2E/DX2 analytically  !
 ! A13   A(1,8,18)             108.2635         calculate D2E/DX2 analytically  !
 ! A14   A(9,8,14)             109.0702         calculate D2E/DX2 analytically  !
 ! A15   A(9,8,18)             108.7318         calculate D2E/DX2 analytically  !
 ! A16   A(14,8,18)            110.5313         calculate D2E/DX2 analytically  !
 ! A17   A(8,9,10)             112.6459         calculate D2E/DX2 analytically  !
 ! A18   A(8,9,15)             104.9584         calculate D2E/DX2 analytically  !
 ! A19   A(8,9,29)             108.6125         calculate D2E/DX2 analytically  !
 ! A20   A(10,9,15)            112.2597         calculate D2E/DX2 analytically  !
 ! A21   A(10,9,29)            108.0988         calculate D2E/DX2 analytically  !
 ! A22   A(15,9,29)            110.2042         calculate D2E/DX2 analytically  !
 ! A23   A(9,10,11)            110.2467         calculate D2E/DX2 analytically  !
 ! A24   A(9,10,16)            108.5514         calculate D2E/DX2 analytically  !
 ! A25   A(9,10,22)            108.3558         calculate D2E/DX2 analytically  !
 ! A26   A(11,10,16)           110.3657         calculate D2E/DX2 analytically  !
 ! A27   A(11,10,22)           109.7236         calculate D2E/DX2 analytically  !
 ! A28   A(16,10,22)           109.5591         calculate D2E/DX2 analytically  !
 ! A29   A(2,11,10)            111.9507         calculate D2E/DX2 analytically  !
 ! A30   A(2,11,12)            107.4918         calculate D2E/DX2 analytically  !
 ! A31   A(2,11,23)            108.5289         calculate D2E/DX2 analytically  !
 ! A32   A(10,11,12)           113.395          calculate D2E/DX2 analytically  !
 ! A33   A(10,11,23)           107.3554         calculate D2E/DX2 analytically  !
 ! A34   A(12,11,23)           107.9616         calculate D2E/DX2 analytically  !
 ! A35   A(11,12,13)           108.3472         calculate D2E/DX2 analytically  !
 ! A36   A(11,12,24)           108.8864         calculate D2E/DX2 analytically  !
 ! A37   A(11,12,25)           109.4437         calculate D2E/DX2 analytically  !
 ! A38   A(13,12,24)           111.0298         calculate D2E/DX2 analytically  !
 ! A39   A(13,12,25)           110.7416         calculate D2E/DX2 analytically  !
 ! A40   A(24,12,25)           108.363          calculate D2E/DX2 analytically  !
 ! A41   A(12,13,26)           108.9131         calculate D2E/DX2 analytically  !
 ! A42   A(8,14,19)            103.7545         calculate D2E/DX2 analytically  !
 ! A43   A(9,15,20)            108.1125         calculate D2E/DX2 analytically  !
 ! A44   A(10,16,21)           106.9154         calculate D2E/DX2 analytically  !
 ! A45   A(10,16,30)           123.9229         calculate D2E/DX2 analytically  !
 ! A46   A(21,16,30)           128.6925         calculate D2E/DX2 analytically  !
 ! A47   A(15,20,27)           162.9929         calculate D2E/DX2 analytically  !
 ! A48   A(20,27,28)           104.6487         calculate D2E/DX2 analytically  !
 ! A49   A(20,27,30)            85.3275         calculate D2E/DX2 analytically  !
 ! A50   A(28,27,30)           104.2161         calculate D2E/DX2 analytically  !
 ! A51   A(16,30,27)           154.6808         calculate D2E/DX2 analytically  !
 ! D1    D(8,1,4,5)            -66.1373         calculate D2E/DX2 analytically  !
 ! D2    D(17,1,4,5)           148.6989         calculate D2E/DX2 analytically  !
 ! D3    D(4,1,8,9)            162.9971         calculate D2E/DX2 analytically  !
 ! D4    D(4,1,8,14)           -76.9211         calculate D2E/DX2 analytically  !
 ! D5    D(4,1,8,18)            41.5573         calculate D2E/DX2 analytically  !
 ! D6    D(17,1,8,9)           -50.8885         calculate D2E/DX2 analytically  !
 ! D7    D(17,1,8,14)           69.1932         calculate D2E/DX2 analytically  !
 ! D8    D(17,1,8,18)         -172.3283         calculate D2E/DX2 analytically  !
 ! D9    D(11,2,7,6)           157.1632         calculate D2E/DX2 analytically  !
 ! D10   D(7,2,11,10)          -69.8387         calculate D2E/DX2 analytically  !
 ! D11   D(7,2,11,12)           55.3218         calculate D2E/DX2 analytically  !
 ! D12   D(7,2,11,23)          171.8494         calculate D2E/DX2 analytically  !
 ! D13   D(1,4,5,6)            -39.5038         calculate D2E/DX2 analytically  !
 ! D14   D(4,5,6,3)            121.9335         calculate D2E/DX2 analytically  !
 ! D15   D(4,5,6,7)             10.584          calculate D2E/DX2 analytically  !
 ! D16   D(3,6,7,2)           -118.4804         calculate D2E/DX2 analytically  !
 ! D17   D(5,6,7,2)             -9.7039         calculate D2E/DX2 analytically  !
 ! D18   D(1,8,9,10)           -68.0875         calculate D2E/DX2 analytically  !
 ! D19   D(1,8,9,15)           169.4797         calculate D2E/DX2 analytically  !
 ! D20   D(1,8,9,29)            51.6278         calculate D2E/DX2 analytically  !
 ! D21   D(14,8,9,10)          173.6964         calculate D2E/DX2 analytically  !
 ! D22   D(14,8,9,15)           51.2635         calculate D2E/DX2 analytically  !
 ! D23   D(14,8,9,29)          -66.5883         calculate D2E/DX2 analytically  !
 ! D24   D(18,8,9,10)           53.0948         calculate D2E/DX2 analytically  !
 ! D25   D(18,8,9,15)          -69.3381         calculate D2E/DX2 analytically  !
 ! D26   D(18,8,9,29)          172.8101         calculate D2E/DX2 analytically  !
 ! D27   D(1,8,14,19)         -159.1679         calculate D2E/DX2 analytically  !
 ! D28   D(9,8,14,19)          -35.6184         calculate D2E/DX2 analytically  !
 ! D29   D(18,8,14,19)          83.8735         calculate D2E/DX2 analytically  !
 ! D30   D(8,9,10,11)           59.8946         calculate D2E/DX2 analytically  !
 ! D31   D(8,9,10,16)         -179.1049         calculate D2E/DX2 analytically  !
 ! D32   D(8,9,10,22)          -60.1966         calculate D2E/DX2 analytically  !
 ! D33   D(15,9,10,11)         178.1216         calculate D2E/DX2 analytically  !
 ! D34   D(15,9,10,16)         -60.8779         calculate D2E/DX2 analytically  !
 ! D35   D(15,9,10,22)          58.0303         calculate D2E/DX2 analytically  !
 ! D36   D(29,9,10,11)         -60.1175         calculate D2E/DX2 analytically  !
 ! D37   D(29,9,10,16)          60.883          calculate D2E/DX2 analytically  !
 ! D38   D(29,9,10,22)         179.7912         calculate D2E/DX2 analytically  !
 ! D39   D(8,9,15,20)         -158.2147         calculate D2E/DX2 analytically  !
 ! D40   D(10,9,15,20)          79.1025         calculate D2E/DX2 analytically  !
 ! D41   D(29,9,15,20)         -41.4489         calculate D2E/DX2 analytically  !
 ! D42   D(9,10,11,2)          -51.203          calculate D2E/DX2 analytically  !
 ! D43   D(9,10,11,12)        -173.0365         calculate D2E/DX2 analytically  !
 ! D44   D(9,10,11,23)          67.8042         calculate D2E/DX2 analytically  !
 ! D45   D(16,10,11,2)        -171.1133         calculate D2E/DX2 analytically  !
 ! D46   D(16,10,11,12)         67.0532         calculate D2E/DX2 analytically  !
 ! D47   D(16,10,11,23)        -52.1061         calculate D2E/DX2 analytically  !
 ! D48   D(22,10,11,2)          68.0599         calculate D2E/DX2 analytically  !
 ! D49   D(22,10,11,12)        -53.7736         calculate D2E/DX2 analytically  !
 ! D50   D(22,10,11,23)       -172.9329         calculate D2E/DX2 analytically  !
 ! D51   D(9,10,16,21)        -162.5588         calculate D2E/DX2 analytically  !
 ! D52   D(9,10,16,30)          10.178          calculate D2E/DX2 analytically  !
 ! D53   D(11,10,16,21)        -41.6317         calculate D2E/DX2 analytically  !
 ! D54   D(11,10,16,30)        131.1051         calculate D2E/DX2 analytically  !
 ! D55   D(22,10,16,21)         79.2934         calculate D2E/DX2 analytically  !
 ! D56   D(22,10,16,30)       -107.9698         calculate D2E/DX2 analytically  !
 ! D57   D(2,11,12,13)         175.3905         calculate D2E/DX2 analytically  !
 ! D58   D(2,11,12,24)          54.5241         calculate D2E/DX2 analytically  !
 ! D59   D(2,11,12,25)         -63.7618         calculate D2E/DX2 analytically  !
 ! D60   D(10,11,12,13)        -60.3196         calculate D2E/DX2 analytically  !
 ! D61   D(10,11,12,24)        178.8139         calculate D2E/DX2 analytically  !
 ! D62   D(10,11,12,25)         60.5281         calculate D2E/DX2 analytically  !
 ! D63   D(23,11,12,13)         58.4913         calculate D2E/DX2 analytically  !
 ! D64   D(23,11,12,24)        -62.3752         calculate D2E/DX2 analytically  !
 ! D65   D(23,11,12,25)        179.339          calculate D2E/DX2 analytically  !
 ! D66   D(11,12,13,26)        172.6051         calculate D2E/DX2 analytically  !
 ! D67   D(24,12,13,26)        -67.866          calculate D2E/DX2 analytically  !
 ! D68   D(25,12,13,26)         52.5652         calculate D2E/DX2 analytically  !
 ! D69   D(9,15,20,27)         -45.4445         calculate D2E/DX2 analytically  !
 ! D70   D(10,16,30,27)         21.2641         calculate D2E/DX2 analytically  !
 ! D71   D(21,16,30,27)       -167.6511         calculate D2E/DX2 analytically  !
 ! D72   D(15,20,27,28)        -99.2221         calculate D2E/DX2 analytically  !
 ! D73   D(15,20,27,30)          4.2702         calculate D2E/DX2 analytically  !
 ! D74   D(20,27,30,16)         -5.2004         calculate D2E/DX2 analytically  !
 ! D75   D(28,27,30,16)         98.7478         calculate D2E/DX2 analytically  !
 --------------------------------------------------------------------------------
 Trust Radius=3.00D-01 FncErr=1.00D-07 GrdErr=1.00D-06
 Number of steps in this run=    180 maximum allowed number of steps=    180.
 Search for a saddle point of order  1.
 GradGradGradGradGradGradGradGradGradGradGradGradGradGradGradGradGradGrad

                          Input orientation:                          
 ---------------------------------------------------------------------
 Center     Atomic      Atomic             Coordinates (Angstroms)
 Number     Number       Type             X           Y           Z
 ---------------------------------------------------------------------
      1          6           0        0.000000    0.000000    0.000000
      2          8           0        0.000000    0.000000    1.848338
      3          1           0        2.921155    0.000000    1.463942
      4          8           0        0.773373    0.974459   -0.281609
      5          1           0        1.763115    0.898712    0.527497
      6          8           0        2.259486    0.703161    1.569818
      7          1           0        1.209955    0.250880    1.939126
      8          6           0        0.464198   -1.437120   -0.233790
      9          6           0       -0.360963   -2.500755    0.507344
     10          6           0       -0.176485   -2.437303    2.026914
     11          6           0       -0.611322   -1.058463    2.559731
     12          6           0       -0.299828   -0.854693    4.046289
     13          8           0       -1.001299   -1.857044    4.796330
     14          8           0        0.353699   -1.654475   -1.626792
     15          8           0        0.067555   -3.740330   -0.034948
     16          8           0       -0.962938   -3.472936    2.624726
     17          1           0       -1.074466    0.154611   -0.163833
     18          1           0        1.517561   -1.517360    0.088417
     19          1           0        0.318446   -2.627556   -1.708013
     20          1           0       -0.641839   -4.408157    0.127387
     21          1           0       -1.058744   -3.246948    3.571499
     22          1           0        0.889991   -2.605152    2.254780
     23          1           0       -1.701348   -0.984569    2.428183
     24          1           0       -0.618800    0.152840    4.341131
     25          1           0        0.785995   -0.935765    4.207603
     26          1           0       -0.719992   -1.810662    5.722198
     27          8           0       -1.912987   -5.394740    0.900383
     28          1           0       -1.467424   -6.220229    1.145788
     29          1           0       -1.428452   -2.336292    0.284668
     30          1           0       -1.781854   -4.809173    1.678532
 ---------------------------------------------------------------------
                    Distance matrix (angstroms):
                    1          2          3          4          5
     1  C    0.000000
     2  O    1.848338   0.000000
     3  H    3.267457   2.946338   0.000000
     4  O    1.275531   2.466647   2.934193   0.000000
     5  H    2.048050   2.379260   1.739445   1.280616   0.000000
     6  O    2.839725   2.382705   0.971314   2.389543   1.170922
     7  H    2.299378   1.239022   1.793584   2.376096   1.648747
     8  C    1.528219   2.572169   3.314250   2.431787   2.779003
     9  C    2.577105   2.860478   4.235700   3.739823   4.008552
    10  C    3.174898   2.450201   3.981552   4.227485   4.139963
    11  C    2.836597   1.414263   3.847010   3.758106   3.687609
    12  C    4.146427   2.377265   4.215892   4.819571   4.439827
    13  O    5.239847   3.625172   5.471660   6.078843   5.784386
    14  O    2.347092   3.865090   4.345314   2.982773   3.625765
    15  O    3.741103   4.188245   4.937587   4.773704   4.971114
    16  O    4.458444   3.686639   5.338059   5.589354   5.562467
    17  H    1.097826   2.286310   4.317238   2.024977   3.013883
    18  H    2.147834   2.775373   2.482846   2.626765   2.467891
    19  H    3.150043   4.433181   4.872314   3.900782   4.418047
    20  H    4.456460   4.775508   5.823500   5.580560   5.840098
    21  H    4.941580   3.825296   5.551942   6.001947   5.866458
    22  H    3.558502   2.782822   3.396743   4.388676   4.002863
    23  H    3.124105   2.049434   4.823553   4.159928   4.377426
    24  H    4.387675   2.572993   4.564302   4.897237   4.557812
    25  H    4.381480   2.656986   3.600311   4.878744   4.226494
    26  H    6.044868   4.336320   5.888054   6.784742   6.363289
    27  O    5.794258   5.801841   7.265655   7.012869   7.297966
    28  H    6.492874   6.429476   7.619193   7.669561   7.842065
    29  H    2.753138   3.153379   5.076222   4.016189   4.550858
    30  H    5.396352   5.131470   6.729969   6.619798   6.817010
                    6          7          8          9         10
     6  O    0.000000
     7  H    1.201025   0.000000
     8  C    3.325187   2.850801   0.000000
     9  C    4.273252   3.476964   1.536714   0.000000
    10  C    4.000676   3.025930   2.553747   1.532041   0.000000
    11  C    3.510667   2.327355   3.017264   2.520947   1.540837
    12  C    3.887147   2.818134   4.386575   3.903510   2.568608
    13  O    5.253356   4.182895   5.256056   4.384038   2.947318
    14  O    4.405541   4.132714   1.414181   2.404469   3.774054
    15  O    5.208113   4.596934   2.345557   1.419244   2.451267
    16  O    5.379278   4.365584   3.788453   2.406411   1.431231
    17  H    3.797590   3.106490   2.214946   2.830289   3.510521
    18  H    2.770508   2.578065   1.104460   2.161347   2.733836
    19  H    5.060187   4.730942   1.900451   2.320665   3.772378
    20  H    6.051766   5.330869   3.190740   1.965055   2.776513
    21  H    5.533601   4.477325   4.480519   3.229976   1.954392
    22  H    3.645494   2.891183   2.781830   2.151584   1.103389
    23  H    4.390151   3.200187   3.461285   2.790175   2.143983
    24  H    4.033306   3.020528   4.962939   4.669686   3.501440
    25  H    3.437320   2.594968   4.481170   4.178112   2.817159
    26  H    5.695511   4.720835   6.084047   5.272554   3.787242
    27  O    7.419034   6.534890   4.753957   3.307326   3.609840
    28  H    7.874198   7.047908   5.339712   3.932728   4.093096
    29  H    4.948815   4.048689   2.158571   1.102799   2.147801
    30  H    6.835940   5.884129   4.480230   2.952863   2.885194
                   11         12         13         14         15
    11  C    0.000000
    12  C    1.532451   0.000000
    13  O    2.406697   1.435037   0.000000
    14  O    4.337450   5.766334   6.567614   0.000000
    15  O    3.792841   5.011823   5.294380   2.639439   0.000000
    16  O    2.440806   3.052171   2.707109   4.807884   2.864836
    17  H    3.017258   4.398169   5.353067   2.729962   4.060959
    18  H    3.293953   4.405314   5.350186   2.077335   2.656940
    19  H    4.641138   6.052876   6.681459   0.977101   2.024935
    20  H    4.139768   5.301120   5.332581   3.413357   0.987718
    21  H    2.452208   2.554264   1.853468   5.617223   3.810307
    22  H    2.176967   2.772956   3.255169   4.032121   2.684750
    23  H    1.100418   2.144619   2.619046   4.595086   4.097591
    24  H    2.154228   1.097177   2.095983   6.310963   5.897281
    25  H    2.164032   1.100730   2.095178   5.894370   5.136241
    26  H    3.252508   1.974609   0.968770   7.428651   6.122791
    27  O    4.821936   5.754219   5.340868   5.051145   2.744898
    28  H    5.419961   6.210086   5.707987   5.643563   3.146458
    29  H    2.734311   4.197466   4.557108   2.700855   2.076419
    30  H    4.026721   4.841548   4.364057   5.043597   2.738385
                   16         17         18         19         20
    16  O    0.000000
    17  H    4.576854   0.000000
    18  H    4.050928   3.094789   0.000000
    19  H    4.596656   3.473492   2.428492   0.000000
    20  H    2.685972   4.592474   3.608495   2.731553   0.000000
    21  H    0.978073   5.052084   4.664835   5.491225   3.658432
    22  H    2.079244   4.162339   2.504050   4.003860   3.181687
    23  H    2.603046   2.899872   4.014941   4.887443   4.258777
    24  H    4.026254   4.527951   5.043727   6.723182   6.209578
    25  H    3.464318   4.874391   4.223877   6.170517   5.544761
    26  H    3.523706   6.215569   6.068950   7.546768   6.168873
    27  O    2.751233   5.712352   5.240423   4.409120   1.785129
    28  H    3.160599   6.519824   5.669670   4.923496   2.236590
    29  H    2.642827   2.555593   3.064010   2.665946   2.221739
    30  H    1.830693   5.341708   4.924494   4.543061   1.966341
                   21         22         23         24         25
    21  H    0.000000
    22  H    2.437873   0.000000
    23  H    2.615047   3.061274   0.000000
    24  H    3.513466   3.773040   2.474869   0.000000
    25  H    3.024773   2.571223   3.058691   1.782229   0.000000
    26  H    2.608290   3.904645   3.534971   2.402691   2.308124
    27  O    3.532365   4.180057   4.672106   6.655021   6.172897
    28  H    3.858950   4.456013   5.395498   7.179582   6.509852
    29  H    3.430632   3.054310   2.548781   4.827650   4.717486
    30  H    2.558664   3.511200   3.898212   5.750104   5.290873
                   26         27         28         29         30
    26  H    0.000000
    27  O    6.125255   0.000000
    28  H    6.398943   0.969630   0.000000
    29  H    5.508623   3.157212   3.978444   0.000000
    30  H    5.144886   0.982649   1.540702   2.860575   0.000000
 Stoichiometry    C6H16O8
 Framework group  C1[X(C6H16O8)]
 Deg. of freedom    84
 Full point group                 C1      NOp   1
 Largest Abelian subgroup         C1      NOp   1
 Largest concise Abelian subgroup C1      NOp   1
                         Standard orientation:                         
 ---------------------------------------------------------------------
 Center     Atomic      Atomic             Coordinates (Angstroms)
 Number     Number       Type             X           Y           Z
 ---------------------------------------------------------------------
      1          6           0        1.867399   -0.740509   -0.838531
      2          8           0        1.342396    1.001125   -0.510756
      3          1           0        2.727073    0.529255    2.046765
      4          8           0        3.116890   -0.710651   -0.583855
      5          1           0        3.254573   -0.010616    0.479617
      6          8           0        3.008321    0.887830    1.188992
      7          1           0        2.059080    1.124726    0.492370
      8          6           0        0.909738   -1.456420    0.113209
      9          6           0       -0.569012   -1.081009   -0.070787
     10          6           0       -0.865917    0.365024    0.339075
     11          6           0       -0.030121    1.342204   -0.509890
     12          6           0       -0.142411    2.799053   -0.047949
     13          8           0       -1.517370    3.198604   -0.143747
     14          8           0        1.071621   -2.837179   -0.146032
     15          8           0       -1.285996   -2.020541    0.715004
     16          8           0       -2.263153    0.613251    0.153232
     17          1           0        1.576758   -0.803101   -1.895334
     18          1           0        1.209665   -1.219058    1.149324
     19          1           0        0.248657   -3.236173    0.197859
     20          1           0       -2.211926   -2.063160    0.373795
     21          1           0       -2.381000    1.584159    0.144443
     22          1           0       -0.608253    0.483847    1.405357
     23          1           0       -0.405627    1.283760   -1.542605
     24          1           0        0.494616    3.424097   -0.686160
     25          1           0        0.216678    2.883314    0.989144
     26          1           0       -1.617931    4.075894    0.254706
     27          8           0       -3.828689   -1.615345   -0.236308
     28          1           0       -4.408497   -1.675510    0.538537
     29          1           0       -0.831482   -1.196031   -1.135703
     30          1           0       -3.492605   -0.692199   -0.215123
 ---------------------------------------------------------------------
 Rotational constants (GHZ):      0.6804608      0.5387017      0.3292209
 Standard basis: 6-31G(d,p) (6D, 7F)
 There are   290 symmetry adapted cartesian basis functions of A   symmetry.
 There are   290 symmetry adapted basis functions of A   symmetry.
   290 basis functions,   504 primitive gaussians,   290 cartesian basis functions
    58 alpha electrons       58 beta electrons
       nuclear repulsion energy      1099.6364182531 Hartrees.
 NAtoms=   30 NActive=   30 NUniq=   30 SFac= 1.00D+00 NAtFMM=   60 NAOKFM=F Big=F
 Integral buffers will be    131072 words long.
 Raffenetti 2 integral format.
 Two-electron integral symmetry is turned on.
 One-electron integrals computed using PRISM.
 NBasis=   290 RedAO= T EigKep=  1.95D-03  NBF=   290
 NBsUse=   290 1.00D-06 EigRej= -1.00D+00 NBFU=   290
 ExpMin= 1.61D-01 ExpMax= 5.48D+03 ExpMxC= 8.25D+02 IAcc=1 IRadAn=         1 AccDes= 0.00D+00
 Harris functional with IExCor=  402 and IRadAn=       1 diagonalized for initial guess.
 HarFok:  IExCor=  402 AccDes= 0.00D+00 IRadAn=         1 IDoV= 1 UseB2=F ITyADJ=14
 ICtDFT=  3500011 ScaDFX=  1.000000  1.000000  1.000000  1.000000
 FoFCou: FMM=F IPFlag=           0 FMFlag=      100000 FMFlg1=           0
         NFxFlg=           0 DoJE=T BraDBF=F KetDBF=T FulRan=T
         wScrn=  0.000000 ICntrl=     500 IOpCl=  0 I1Cent=   200000004 NGrid=           0
         NMat0=    1 NMatS0=      1 NMatT0=    0 NMatD0=    1 NMtDS0=    0 NMtDT0=    0
 Petite list used in FoFCou.
 Requested convergence on RMS density matrix=1.00D-08 within 128 cycles.
 Requested convergence on MAX density matrix=1.00D-06.
 Requested convergence on             energy=1.00D-06.
 No special actions if energy rises.
 Integral accuracy reduced to 1.0D-05 until final iterations.
 Initial convergence to 1.0D-05 achieved.  Increase integral accuracy.
 SCF Done:  E(RB3LYP) =  -840.017836621     A.U. after   14 cycles
            NFock= 14  Conv=0.52D-08     -V/T= 2.0086
 DoSCS=F DFT=T ScalE2(SS,OS)=  1.000000  1.000000
 Range of M.O.s used for correlation:     1   290
 NBasis=   290 NAE=    58 NBE=    58 NFC=     0 NFV=     0
 NROrb=    290 NOA=    58 NOB=    58 NVA=   232 NVB=   232
 Symmetrizing basis deriv contribution to polar:
 IMax=3 JMax=2 DiffMx= 0.00D+00
 G2DrvN: will do    31 centers at a time, making    1 passes.
 Calling FoFCou, ICntrl=  3107 FMM=F I1Cent=   0 AccDes= 0.00D+00.
 End of G2Drv F.D. properties file   721 does not exist.
 End of G2Drv F.D. properties file   722 does not exist.
 End of G2Drv F.D. properties file   788 does not exist.
          IDoAtm=111111111111111111111111111111
          Differentiating once with respect to nuclear coordinates.
          There are    93 degrees of freedom in the 1st order CPHF.  IDoFFX=6 NUNeed=     0.
     87 vectors produced by pass  0 Test12= 1.45D-14 1.08D-09 XBig12= 1.44D-01 7.99D-02.
 AX will form    87 AO Fock derivatives at one time.
     87 vectors produced by pass  1 Test12= 1.45D-14 1.08D-09 XBig12= 4.97D-02 4.87D-02.
     87 vectors produced by pass  2 Test12= 1.45D-14 1.08D-09 XBig12= 4.68D-04 2.68D-03.
     87 vectors produced by pass  3 Test12= 1.45D-14 1.08D-09 XBig12= 1.43D-06 1.23D-04.
     87 vectors produced by pass  4 Test12= 1.45D-14 1.08D-09 XBig12= 1.98D-09 3.41D-06.
     64 vectors produced by pass  5 Test12= 1.45D-14 1.08D-09 XBig12= 1.73D-12 9.88D-08.
      2 vectors produced by pass  6 Test12= 1.45D-14 1.08D-09 XBig12= 1.38D-15 3.27D-09.
 InvSVY:  IOpt=1 It=  1 EMax= 2.78D-16
 Solved reduced A of dimension   501 with    93 vectors.
 End of Minotr F.D. properties file   721 does not exist.
 End of Minotr F.D. properties file   722 does not exist.
 End of Minotr F.D. properties file   788 does not exist.

 **********************************************************************

            Population analysis using the SCF density.

 **********************************************************************

 Orbital symmetries:
       Occupied  (A) (A) (A) (A) (A) (A) (A) (A) (A) (A) (A) (A)
                 (A) (A) (A) (A) (A) (A) (A) (A) (A) (A) (A) (A)
                 (A) (A) (A) (A) (A) (A) (A) (A) (A) (A) (A) (A)
                 (A) (A) (A) (A) (A) (A) (A) (A) (A) (A) (A) (A)
                 (A) (A) (A) (A) (A) (A) (A) (A) (A) (A)
       Virtual   (A) (A) (A) (A) (A) (A) (A) (A) (A) (A) (A) (A)
                 (A) (A) (A) (A) (A) (A) (A) (A) (A) (A) (A) (A)
                 (A) (A) (A) (A) (A) (A) (A) (A) (A) (A) (A) (A)
                 (A) (A) (A) (A) (A) (A) (A) (A) (A) (A) (A) (A)
                 (A) (A) (A) (A) (A) (A) (A) (A) (A) (A) (A) (A)
                 (A) (A) (A) (A) (A) (A) (A) (A) (A) (A) (A) (A)
                 (A) (A) (A) (A) (A) (A) (A) (A) (A) (A) (A) (A)
                 (A) (A) (A) (A) (A) (A) (A) (A) (A) (A) (A) (A)
                 (A) (A) (A) (A) (A) (A) (A) (A) (A) (A) (A) (A)
                 (A) (A) (A) (A) (A) (A) (A) (A) (A) (A) (A) (A)
                 (A) (A) (A) (A) (A) (A) (A) (A) (A) (A) (A) (A)
                 (A) (A) (A) (A) (A) (A) (A) (A) (A) (A) (A) (A)
                 (A) (A) (A) (A) (A) (A) (A) (A) (A) (A) (A) (A)
                 (A) (A) (A) (A) (A) (A) (A) (A) (A) (A) (A) (A)
                 (A) (A) (A) (A) (A) (A) (A) (A) (A) (A) (A) (A)
                 (A) (A) (A) (A) (A) (A) (A) (A) (A) (A) (A) (A)
                 (A) (A) (A) (A) (A) (A) (A) (A) (A) (A) (A) (A)
                 (A) (A) (A) (A) (A) (A) (A) (A) (A) (A) (A) (A)
                 (A) (A) (A) (A) (A) (A) (A) (A) (A) (A) (A) (A)
                 (A) (A) (A) (A)
 The electronic state is 1-A.
 Alpha  occ. eigenvalues --  -19.19093 -19.16754 -19.16344 -19.15721 -19.15281
 Alpha  occ. eigenvalues --  -19.13993 -19.13564 -19.12458 -10.28825 -10.26099
 Alpha  occ. eigenvalues --  -10.25435 -10.24867 -10.24107 -10.23813  -1.06291
 Alpha  occ. eigenvalues --   -1.05436  -1.03947  -1.02561  -1.00930  -1.00353
 Alpha  occ. eigenvalues --   -0.99933  -0.99231  -0.78220  -0.76013  -0.69658
 Alpha  occ. eigenvalues --   -0.63781  -0.61327  -0.59372  -0.56595  -0.55295
 Alpha  occ. eigenvalues --   -0.53411  -0.52555  -0.51138  -0.51081  -0.49376
 Alpha  occ. eigenvalues --   -0.47448  -0.45910  -0.45550  -0.44897  -0.43399
 Alpha  occ. eigenvalues --   -0.42237  -0.40995  -0.40502  -0.39692  -0.38286
 Alpha  occ. eigenvalues --   -0.36810  -0.36501  -0.34894  -0.34410  -0.33052
 Alpha  occ. eigenvalues --   -0.30992  -0.30665  -0.30470  -0.28167  -0.27610
 Alpha  occ. eigenvalues --   -0.27047  -0.26348  -0.24950
 Alpha virt. eigenvalues --    0.00892   0.03744   0.04708   0.07019   0.09322
 Alpha virt. eigenvalues --    0.10822   0.11705   0.12728   0.13275   0.14634
 Alpha virt. eigenvalues --    0.15416   0.16005   0.16825   0.18053   0.18976
 Alpha virt. eigenvalues --    0.19562   0.20803   0.22074   0.22589   0.24597
 Alpha virt. eigenvalues --    0.25300   0.25854   0.26909   0.27672   0.29836
 Alpha virt. eigenvalues --    0.30868   0.32126   0.36209   0.50282   0.51362
 Alpha virt. eigenvalues --    0.53319   0.56023   0.57193   0.57604   0.58459
 Alpha virt. eigenvalues --    0.59953   0.60787   0.62301   0.63229   0.65616
 Alpha virt. eigenvalues --    0.66183   0.66835   0.68427   0.70245   0.73558
 Alpha virt. eigenvalues --    0.74384   0.75160   0.75919   0.76296   0.77886
 Alpha virt. eigenvalues --    0.78953   0.79522   0.80292   0.81155   0.82580
 Alpha virt. eigenvalues --    0.82751   0.83724   0.85807   0.87532   0.87841
 Alpha virt. eigenvalues --    0.88874   0.89745   0.90320   0.91622   0.93075
 Alpha virt. eigenvalues --    0.95367   0.97352   0.98448   0.99407   1.01906
 Alpha virt. eigenvalues --    1.02534   1.03826   1.05225   1.06019   1.07286
 Alpha virt. eigenvalues --    1.07992   1.10046   1.12186   1.12478   1.15229
 Alpha virt. eigenvalues --    1.17641   1.18939   1.19889   1.21000   1.22951
 Alpha virt. eigenvalues --    1.25626   1.28428   1.29373   1.32535   1.34240
 Alpha virt. eigenvalues --    1.36091   1.36611   1.39024   1.41443   1.43640
 Alpha virt. eigenvalues --    1.46007   1.46155   1.46519   1.49669   1.50802
 Alpha virt. eigenvalues --    1.53817   1.54119   1.55778   1.56611   1.58112
 Alpha virt. eigenvalues --    1.59741   1.60264   1.60678   1.62696   1.65557
 Alpha virt. eigenvalues --    1.65661   1.66502   1.67958   1.70320   1.70807
 Alpha virt. eigenvalues --    1.71988   1.74006   1.76490   1.77585   1.79324
 Alpha virt. eigenvalues --    1.80943   1.82712   1.84050   1.86672   1.87258
 Alpha virt. eigenvalues --    1.89635   1.90276   1.92353   1.93591   1.95754
 Alpha virt. eigenvalues --    1.96150   1.97471   1.99521   2.00897   2.02128
 Alpha virt. eigenvalues --    2.05284   2.05547   2.07488   2.08994   2.10734
 Alpha virt. eigenvalues --    2.11830   2.15825   2.18083   2.20488   2.22843
 Alpha virt. eigenvalues --    2.23221   2.25600   2.26680   2.27827   2.28564
 Alpha virt. eigenvalues --    2.30819   2.32227   2.34722   2.36307   2.38421
 Alpha virt. eigenvalues --    2.39059   2.40758   2.42173   2.44561   2.44905
 Alpha virt. eigenvalues --    2.45605   2.47181   2.50594   2.51279   2.52234
 Alpha virt. eigenvalues --    2.54462   2.55580   2.59074   2.61047   2.62454
 Alpha virt. eigenvalues --    2.62776   2.63420   2.65201   2.66783   2.68079
 Alpha virt. eigenvalues --    2.69818   2.70770   2.72704   2.73783   2.74877
 Alpha virt. eigenvalues --    2.77125   2.77306   2.80338   2.80571   2.83071
 Alpha virt. eigenvalues --    2.83909   2.85994   2.87676   2.88297   2.91149
 Alpha virt. eigenvalues --    2.92381   2.93786   2.94669   2.97467   2.98393
 Alpha virt. eigenvalues --    2.99788   3.02870   3.04578   3.06191   3.09538
 Alpha virt. eigenvalues --    3.12345   3.17946   3.21410   3.26898   3.29768
 Alpha virt. eigenvalues --    3.31588   3.33479   3.37929   3.42814   3.44914
 Alpha virt. eigenvalues --    3.45909   3.48829   3.50372   3.52054   3.54934
 Alpha virt. eigenvalues --    3.60393   3.63601   3.66420   3.92373   3.97529
 Alpha virt. eigenvalues --    4.03716   4.07254   4.14635   4.20193   4.30062
 Alpha virt. eigenvalues --    4.36175   4.41658   4.48213   4.51723   4.65604
 Alpha virt. eigenvalues --    4.75418   4.80461
          Condensed to atoms (all electrons):
               1          2          3          4          5          6
     1  C    4.681135   0.076910  -0.000403   0.368719  -0.027906   0.018608
     2  O    0.076910   8.501662   0.003650  -0.041801   0.005647  -0.081184
     3  H   -0.000403   0.003650   0.416941   0.004553  -0.009345   0.272168
     4  O    0.368719  -0.041801   0.004553   8.242384   0.147366  -0.085165
     5  H   -0.027906   0.005647  -0.009345   0.147366   0.326477   0.163578
     6  O    0.018608  -0.081184   0.272168  -0.085165   0.163578   8.215654
     7  H   -0.008170   0.130784  -0.007668   0.011066  -0.018589   0.149466
     8  C    0.278650  -0.027655  -0.000349  -0.046516  -0.004737  -0.003113
     9  C   -0.018679  -0.002900  -0.000128   0.003273   0.000181   0.000091
    10  C   -0.008155  -0.037010   0.000018   0.000077   0.000021  -0.000179
    11  C   -0.003173   0.178474  -0.000176   0.001305  -0.000338   0.004690
    12  C    0.001125  -0.037880  -0.000075  -0.000049   0.000004   0.000019
    13  O   -0.000006   0.001154   0.000000   0.000000   0.000000   0.000000
    14  O   -0.039383   0.000810  -0.000017   0.000320  -0.000090   0.000033
    15  O    0.001827   0.000023  -0.000001  -0.000014  -0.000002   0.000000
    16  O    0.000073   0.001535   0.000000   0.000000   0.000000   0.000000
    17  H    0.367089  -0.017215   0.000080  -0.041016   0.004266  -0.000549
    18  H   -0.047682  -0.000796   0.004533  -0.002921   0.003155   0.005011
    19  H    0.006014  -0.000058  -0.000002  -0.000138  -0.000002   0.000001
    20  H   -0.000083   0.000003   0.000000   0.000001   0.000000   0.000000
    21  H   -0.000005   0.000039   0.000000   0.000000   0.000000   0.000000
    22  H    0.000327   0.003007   0.000390   0.000010  -0.000031  -0.000115
    23  H   -0.001348  -0.034087   0.000021   0.000013   0.000028  -0.000167
    24  H   -0.000051   0.004109  -0.000001   0.000001   0.000002   0.000020
    25  H   -0.000033   0.000848   0.000171   0.000005  -0.000009  -0.000020
    26  H    0.000000  -0.000090   0.000000   0.000000   0.000000   0.000000
    27  O    0.000000   0.000000   0.000000   0.000000   0.000000   0.000000
    28  H    0.000000   0.000000   0.000000   0.000000   0.000000   0.000000
    29  H   -0.004965  -0.000154   0.000004  -0.000008   0.000013  -0.000008
    30  H   -0.000001  -0.000003   0.000000   0.000000   0.000000   0.000000
               7          8          9         10         11         12
     1  C   -0.008170   0.278650  -0.018679  -0.008155  -0.003173   0.001125
     2  O    0.130784  -0.027655  -0.002900  -0.037010   0.178474  -0.037880
     3  H   -0.007668  -0.000349  -0.000128   0.000018  -0.000176  -0.000075
     4  O    0.011066  -0.046516   0.003273   0.000077   0.001305  -0.000049
     5  H   -0.018589  -0.004737   0.000181   0.000021  -0.000338   0.000004
     6  O    0.149466  -0.003113   0.000091  -0.000179   0.004690   0.000019
     7  H    0.340543   0.000307  -0.001149  -0.000713  -0.008909  -0.004869
     8  C    0.000307   5.035444   0.266763  -0.034614  -0.002430  -0.000159
     9  C   -0.001149   0.266763   5.014675   0.289410  -0.024809   0.003975
    10  C   -0.000713  -0.034614   0.289410   5.016768   0.268614  -0.031588
    11  C   -0.008909  -0.002430  -0.024809   0.268614   4.898861   0.347503
    12  C   -0.004869  -0.000159   0.003975  -0.031588   0.347503   4.843245
    13  O    0.000032   0.000003   0.000002   0.006290  -0.042071   0.195417
    14  O   -0.000065   0.224493  -0.027080   0.003252   0.000052   0.000001
    15  O    0.000001  -0.039519   0.199986  -0.042926   0.003388  -0.000053
    16  O    0.000002   0.002257  -0.037056   0.190266  -0.025797  -0.000877
    17  H    0.001689  -0.077922  -0.002360   0.000380  -0.000827  -0.000075
    18  H    0.001292   0.325609  -0.049954  -0.004965   0.000431  -0.000016
    19  H    0.000000  -0.044060  -0.014724   0.001509  -0.000055   0.000001
    20  H    0.000000   0.003956  -0.018759  -0.003106  -0.000067   0.000003
    21  H    0.000006  -0.000122   0.003996  -0.023685  -0.010988  -0.004027
    22  H    0.001792  -0.004878  -0.053861   0.351488  -0.049723  -0.010257
    23  H    0.002544  -0.000246  -0.010654  -0.062965   0.370997  -0.051575
    24  H   -0.000248   0.000002  -0.000106   0.005881  -0.034565   0.375266
    25  H    0.004250  -0.000030  -0.000081  -0.014244  -0.031836   0.362775
    26  H   -0.000010   0.000000   0.000007   0.000012   0.005045  -0.017954
    27  O    0.000000   0.000034   0.002806  -0.000174  -0.000010   0.000000
    28  H    0.000000  -0.000003  -0.000244   0.000142   0.000001   0.000000
    29  H    0.000054  -0.041633   0.353578  -0.052821  -0.004339  -0.000153
    30  H    0.000000   0.000077  -0.001399  -0.003549   0.000333  -0.000020
              13         14         15         16         17         18
     1  C   -0.000006  -0.039383   0.001827   0.000073   0.367089  -0.047682
     2  O    0.001154   0.000810   0.000023   0.001535  -0.017215  -0.000796
     3  H    0.000000  -0.000017  -0.000001   0.000000   0.000080   0.004533
     4  O    0.000000   0.000320  -0.000014   0.000000  -0.041016  -0.002921
     5  H    0.000000  -0.000090  -0.000002   0.000000   0.004266   0.003155
     6  O    0.000000   0.000033   0.000000   0.000000  -0.000549   0.005011
     7  H    0.000032  -0.000065   0.000001   0.000002   0.001689   0.001292
     8  C    0.000003   0.224493  -0.039519   0.002257  -0.077922   0.325609
     9  C    0.000002  -0.027080   0.199986  -0.037056  -0.002360  -0.049954
    10  C    0.006290   0.003252  -0.042926   0.190266   0.000380  -0.004965
    11  C   -0.042071   0.000052   0.003388  -0.025797  -0.000827   0.000431
    12  C    0.195417   0.000001  -0.000053  -0.000877  -0.000075  -0.000016
    13  O    8.147779   0.000000   0.000000  -0.020047   0.000001   0.000000
    14  O    0.000000   8.163525  -0.016186  -0.000010   0.003255  -0.039165
    15  O    0.000000  -0.016186   8.261721   0.000576  -0.000168  -0.001379
    16  O   -0.020047  -0.000010   0.000576   8.212915   0.000000  -0.000065
    17  H    0.000001   0.003255  -0.000168   0.000000   0.641270   0.006466
    18  H    0.000000  -0.039165  -0.001379  -0.000065   0.006466   0.739106
    19  H    0.000000   0.285605   0.041049  -0.000016  -0.000435  -0.000095
    20  H    0.000000   0.000069   0.256592   0.002264   0.000003  -0.000278
    21  H    0.050141   0.000001  -0.000028   0.279722   0.000001   0.000005
    22  H   -0.000058  -0.000048   0.001054  -0.040066   0.000088   0.007659
    23  H    0.003776  -0.000002  -0.000026   0.005697   0.002191   0.000072
    24  H   -0.032895   0.000000   0.000000  -0.000260  -0.000002   0.000002
    25  H   -0.034462   0.000000  -0.000001   0.000175   0.000005  -0.000029
    26  H    0.283321   0.000000   0.000000   0.000763   0.000000   0.000000
    27  O    0.000000  -0.000001  -0.026946  -0.018681   0.000000   0.000000
    28  H    0.000000   0.000000   0.001646   0.001185   0.000000   0.000000
    29  H   -0.000005   0.001090  -0.038922   0.000039   0.006771   0.007875
    30  H    0.000018  -0.000001   0.004550   0.048685   0.000000   0.000000
              19         20         21         22         23         24
     1  C    0.006014  -0.000083  -0.000005   0.000327  -0.001348  -0.000051
     2  O   -0.000058   0.000003   0.000039   0.003007  -0.034087   0.004109
     3  H   -0.000002   0.000000   0.000000   0.000390   0.000021  -0.000001
     4  O   -0.000138   0.000001   0.000000   0.000010   0.000013   0.000001
     5  H   -0.000002   0.000000   0.000000  -0.000031   0.000028   0.000002
     6  O    0.000001   0.000000   0.000000  -0.000115  -0.000167   0.000020
     7  H    0.000000   0.000000   0.000006   0.001792   0.002544  -0.000248
     8  C   -0.044060   0.003956  -0.000122  -0.004878  -0.000246   0.000002
     9  C   -0.014724  -0.018759   0.003996  -0.053861  -0.010654  -0.000106
    10  C    0.001509  -0.003106  -0.023685   0.351488  -0.062965   0.005881
    11  C   -0.000055  -0.000067  -0.010988  -0.049723   0.370997  -0.034565
    12  C    0.000001   0.000003  -0.004027  -0.010257  -0.051575   0.375266
    13  O    0.000000   0.000000   0.050141  -0.000058   0.003776  -0.032895
    14  O    0.285605   0.000069   0.000001  -0.000048  -0.000002   0.000000
    15  O    0.041049   0.256592  -0.000028   0.001054  -0.000026   0.000000
    16  O   -0.000016   0.002264   0.279722  -0.040066   0.005697  -0.000260
    17  H   -0.000435   0.000003   0.000001   0.000088   0.002191  -0.000002
    18  H   -0.000095  -0.000278   0.000005   0.007659   0.000072   0.000002
    19  H    0.401634  -0.000643   0.000001  -0.000022  -0.000003   0.000000
    20  H   -0.000643   0.368495   0.000011  -0.000466  -0.000006   0.000000
    21  H    0.000001   0.000011   0.367168  -0.000514   0.000288   0.000674
    22  H   -0.000022  -0.000466  -0.000514   0.703715   0.007701  -0.000090
    23  H   -0.000003  -0.000006   0.000288   0.007701   0.655279  -0.008632
    24  H    0.000000   0.000000   0.000674  -0.000090  -0.008632   0.623466
    25  H    0.000000   0.000000   0.000376   0.005925   0.007035  -0.051213
    26  H    0.000000   0.000000  -0.001964  -0.000020  -0.000181  -0.002944
    27  O    0.000020   0.080774   0.000446  -0.000074  -0.000009   0.000000
    28  H   -0.000002  -0.004041  -0.000020   0.000009   0.000000   0.000000
    29  H   -0.000230  -0.006160  -0.000086   0.007809   0.006139   0.000007
    30  H   -0.000010  -0.012183  -0.001667   0.000594   0.000073   0.000001
              25         26         27         28         29         30
     1  C   -0.000033   0.000000   0.000000   0.000000  -0.004965  -0.000001
     2  O    0.000848  -0.000090   0.000000   0.000000  -0.000154  -0.000003
     3  H    0.000171   0.000000   0.000000   0.000000   0.000004   0.000000
     4  O    0.000005   0.000000   0.000000   0.000000  -0.000008   0.000000
     5  H   -0.000009   0.000000   0.000000   0.000000   0.000013   0.000000
     6  O   -0.000020   0.000000   0.000000   0.000000  -0.000008   0.000000
     7  H    0.004250  -0.000010   0.000000   0.000000   0.000054   0.000000
     8  C   -0.000030   0.000000   0.000034  -0.000003  -0.041633   0.000077
     9  C   -0.000081   0.000007   0.002806  -0.000244   0.353578  -0.001399
    10  C   -0.014244   0.000012  -0.000174   0.000142  -0.052821  -0.003549
    11  C   -0.031836   0.005045  -0.000010   0.000001  -0.004339   0.000333
    12  C    0.362775  -0.017954   0.000000   0.000000  -0.000153  -0.000020
    13  O   -0.034462   0.283321   0.000000   0.000000  -0.000005   0.000018
    14  O    0.000000   0.000000  -0.000001   0.000000   0.001090  -0.000001
    15  O   -0.000001   0.000000  -0.026946   0.001646  -0.038922   0.004550
    16  O    0.000175   0.000763  -0.018681   0.001185   0.000039   0.048685
    17  H    0.000005   0.000000   0.000000   0.000000   0.006771   0.000000
    18  H   -0.000029   0.000000   0.000000   0.000000   0.007875   0.000000
    19  H    0.000000   0.000000   0.000020  -0.000002  -0.000230  -0.000010
    20  H    0.000000   0.000000   0.080774  -0.004041  -0.006160  -0.012183
    21  H    0.000376  -0.001964   0.000446  -0.000020  -0.000086  -0.001667
    22  H    0.005925  -0.000020  -0.000074   0.000009   0.007809   0.000594
    23  H    0.007035  -0.000181  -0.000009   0.000000   0.006139   0.000073
    24  H   -0.051213  -0.002944   0.000000   0.000000   0.000007   0.000001
    25  H    0.662066  -0.005515   0.000000   0.000000   0.000005  -0.000001
    26  H   -0.005515   0.413186   0.000000   0.000000   0.000000  -0.000002
    27  O    0.000000   0.000000   8.044771   0.282061   0.000878   0.263158
    28  H    0.000000   0.000000   0.282061   0.427448  -0.000031  -0.020952
    29  H    0.000005   0.000000   0.000878  -0.000031   0.673315   0.000473
    30  H   -0.000001  -0.000002   0.263158  -0.020952   0.000473   0.375600
 Mulliken charges:
               1
     1  C    0.359565
     2  O   -0.627821
     3  H    0.315639
     4  O   -0.561465
     5  H    0.410311
     6  O   -0.658837
     7  H    0.406562
     8  C    0.190389
     9  C    0.125201
    10  C    0.186566
    11  C    0.160416
    12  C    0.030293
    13  O   -0.558391
    14  O   -0.560458
    15  O   -0.606243
    16  O   -0.603278
    17  H    0.107014
    18  H    0.046128
    19  H    0.324659
    20  H    0.333623
    21  H    0.340231
    22  H    0.068657
    23  H    0.108046
    24  H    0.121575
    25  H    0.093835
    26  H    0.326347
    27  O   -0.629056
    28  H    0.312799
    29  H    0.091465
    30  H    0.346226
 Sum of Mulliken charges =   0.00000
 Mulliken charges with hydrogens summed into heavy atoms:
               1
     1  C    0.466579
     2  O   -0.627821
     4  O   -0.561465
     6  O    0.473674
     8  C    0.236517
     9  C    0.216666
    10  C    0.255223
    11  C    0.268463
    12  C    0.245703
    13  O   -0.232044
    14  O   -0.235799
    15  O   -0.272620
    16  O   -0.263047
    27  O    0.029969
 APT charges:
               1
     1  C   -0.364269
     2  O   -0.483723
     3  H    0.454879
     4  O   -0.136220
     5  H    0.312052
     6  O   -0.601484
     7  H    0.291131
     8  C   -0.070568
     9  C   -0.170167
    10  C   -0.085561
    11  C   -0.260528
    12  C   -0.493855
    13  O   -1.254262
    14  O   -0.638822
    15  O   -0.819359
    16  O   -0.806187
    17  H    0.362407
    18  H    0.222278
    19  H    0.505525
    20  H    0.565585
    21  H    0.602891
    22  H    0.264831
    23  H    0.338362
    24  H    0.515448
    25  H    0.305377
    26  H    1.072163
    27  O   -0.788612
    28  H    0.887068
    29  H    0.295267
    30  H   -0.021650
 Sum of APT charges =   0.00000
 APT charges with hydrogens summed into heavy atoms:
               1
     1  C   -0.001862
     2  O   -0.483723
     4  O   -0.136220
     6  O    0.456578
     8  C    0.151710
     9  C    0.125100
    10  C    0.179270
    11  C    0.077835
    12  C    0.326971
    13  O   -0.182099
    14  O   -0.133297
    15  O   -0.253774
    16  O   -0.203296
    27  O    0.076806
 Electronic spatial extent (au):  <R**2>=           3330.7191
 Charge=              0.0000 electrons
 Dipole moment (field-independent basis, Debye):
    X=             -3.9651    Y=              5.0678    Z=              3.1568  Tot=              7.1673
 Quadrupole moment (field-independent basis, Debye-Ang):
   XX=            -93.2166   YY=            -76.7430   ZZ=            -79.8223
   XY=             -1.8051   XZ=             -0.4010   YZ=              0.9290
 Traceless Quadrupole moment (field-independent basis, Debye-Ang):
   XX=             -9.9560   YY=              6.5176   ZZ=              3.4384
   XY=             -1.8051   XZ=             -0.4010   YZ=              0.9290
 Octapole moment (field-independent basis, Debye-Ang**2):
  XXX=            -90.1888  YYY=             77.0071  ZZZ=             10.7938  XYY=            -37.1448
  XXY=              6.6021  XXZ=             44.8144  XZZ=              7.4448  YZZ=              0.9971
  YYZ=             17.7792  XYZ=             -0.6288
 Hexadecapole moment (field-independent basis, Debye-Ang**3):
 XXXX=          -1949.6430 YYYY=          -1299.6795 ZZZZ=           -229.4140 XXXY=             14.6650
 XXXZ=            -85.9438 YYYX=            -47.1327 YYYZ=             23.6577 ZZZX=             28.8009
 ZZZY=              7.9451 XXYY=           -617.1079 XXZZ=           -356.8737 YYZZ=           -318.8166
 XXYZ=            -60.3637 YYXZ=            -38.3409 ZZXY=             -1.4427
 N-N= 1.099636418253D+03 E-N=-4.171695245295D+03  KE= 8.328173862447D+02
  Exact polarizability:   0.000   0.000   0.000   0.000   0.000   0.000
 Approx polarizability: 152.166  -6.553 143.899   5.309   4.467 126.416
 Calling FoFJK, ICntrl=    100147 FMM=F ISym2X=0 I1Cent= 0 IOpClX= 0 NMat=1 NMatS=1 NMatT=0.
 ***** Axes restored to original set *****
 -------------------------------------------------------------------
 Center     Atomic                   Forces (Hartrees/Bohr)
 Number     Number              X              Y              Z
 -------------------------------------------------------------------
      1        6           0.000544051    0.000676118   -0.000198982
      2        8           0.002785751   -0.000089340    0.000896014
      3        1          -0.002000067    0.003233483    0.000796977
      4        8           0.002140532   -0.000523234    0.001311962
      5        1          -0.002263013   -0.000302648    0.001461212
      6        8           0.000485667   -0.004447306   -0.002145470
      7        1          -0.000660701    0.001475403   -0.002081924
      8        6           0.000115500   -0.000173536   -0.000553331
      9        6           0.000283346   -0.000381746   -0.000301693
     10        6          -0.000366637   -0.000392632    0.000211210
     11        6          -0.000184179    0.000426805   -0.000200083
     12        6          -0.000298774   -0.000270723    0.000331466
     13        8           0.001189792    0.000307683    0.003364735
     14        8          -0.000279142   -0.003221939   -0.000098845
     15        8          -0.002459743   -0.001837117    0.000834836
     16        8          -0.000348770    0.001004403    0.002983452
     17        1          -0.000347796   -0.000307824    0.000096652
     18        1          -0.000228431    0.000119020    0.000313980
     19        1           0.000161109    0.003408744    0.000259704
     20        1           0.002318394    0.002091285   -0.000354249
     21        1           0.000276220   -0.000681922   -0.003105984
     22        1           0.000019161    0.000259812   -0.000181934
     23        1          -0.000077209   -0.000437760    0.000241211
     24        1           0.000244870   -0.000124607   -0.000310538
     25        1          -0.000196054    0.000204707   -0.000284863
     26        1          -0.001125166   -0.000321181   -0.003410836
     27        8           0.001986785   -0.001310061    0.003207191
     28        1          -0.001654007    0.002886018   -0.000934703
     29        1           0.000092543    0.000221941    0.000237007
     30        1          -0.000154032   -0.001491844   -0.002384175
 -------------------------------------------------------------------
 Cartesian Forces:  Max     0.004447306 RMS     0.001478443
 FormGI is forming the generalized inverse of G from B-inverse, IUseBI=4.

 GradGradGradGradGradGradGradGradGradGradGradGradGradGradGradGradGradGrad
 Berny optimization.
 Internal  Forces:  Max     0.003785845 RMS     0.000833691
 Search for a saddle point.
 Step number   1 out of a maximum of  180
 All quantities printed in internal units (Hartrees-Bohrs-Radians)
 Swapping is turned off.
 Second derivative matrix not updated -- analytic derivatives used.
 ITU=  0
     Eigenvalues ---   -0.07038   0.00035   0.00047   0.00162   0.00257
     Eigenvalues ---    0.00293   0.00318   0.00396   0.00440   0.00544
     Eigenvalues ---    0.00913   0.01038   0.01135   0.01172   0.01340
     Eigenvalues ---    0.01543   0.01767   0.02643   0.02953   0.03057
     Eigenvalues ---    0.03120   0.03331   0.03802   0.04192   0.04343
     Eigenvalues ---    0.04726   0.04972   0.05094   0.05213   0.05308
     Eigenvalues ---    0.05477   0.05819   0.06334   0.06494   0.06730
     Eigenvalues ---    0.07231   0.07451   0.07672   0.08192   0.08308
     Eigenvalues ---    0.08727   0.09353   0.10146   0.11290   0.11993
     Eigenvalues ---    0.12984   0.14642   0.14935   0.16087   0.17307
     Eigenvalues ---    0.18321   0.18732   0.19195   0.20416   0.21275
     Eigenvalues ---    0.22358   0.22949   0.25622   0.26121   0.27302
     Eigenvalues ---    0.28715   0.30598   0.31015   0.31299   0.31495
     Eigenvalues ---    0.31752   0.32440   0.33000   0.33456   0.34771
     Eigenvalues ---    0.35424   0.36517   0.37784   0.39686   0.43207
     Eigenvalues ---    0.46257   0.47270   0.47905   0.48744   0.49401
     Eigenvalues ---    0.51306   0.51747   0.52183   0.62181
 Eigenvectors required to have negative eigenvalues:
                          R7        R4        R9        R8        D5
   1                    0.48095  -0.44722   0.43160  -0.39806  -0.16533
                          D4        D3        D2        R1        D9
   1                   -0.15107  -0.14887  -0.13973  -0.12333  -0.09534
 RFO step:  Lambda0=1.087527971D-06 Lambda=-4.16262388D-04.
 Linear search not attempted -- option 19 set.
 Iteration  1 RMS(Cart)=  0.00735738 RMS(Int)=  0.00010735
 Iteration  2 RMS(Cart)=  0.00010633 RMS(Int)=  0.00001265
 Iteration  3 RMS(Cart)=  0.00000001 RMS(Int)=  0.00001265
 Variable       Old X    -DE/DX   Delta X   Delta X   Delta X     New X
                                 (Linear)    (Quad)   (Total)
    R1        2.41040  -0.00056   0.00000  -0.00109  -0.00110   2.40931
    R2        2.88791  -0.00020   0.00000  -0.00046  -0.00047   2.88745
    R3        2.07459   0.00028   0.00000   0.00078   0.00078   2.07537
    R4        2.34141  -0.00215   0.00000  -0.01979  -0.01979   2.32162
    R5        2.67257   0.00017   0.00000  -0.00109  -0.00108   2.67149
    R6        1.83552  -0.00379   0.00000  -0.00857  -0.00857   1.82695
    R7        2.42001  -0.00248   0.00000  -0.02150  -0.02150   2.39851
    R8        2.21272  -0.00237   0.00000  -0.00695  -0.00694   2.20578
    R9        2.26961  -0.00224   0.00000  -0.00463  -0.00462   2.26499
   R10        2.90397  -0.00013   0.00000  -0.00027  -0.00028   2.90369
   R11        2.67241  -0.00018   0.00000  -0.00079  -0.00079   2.67162
   R12        2.08713  -0.00013   0.00000  -0.00068  -0.00068   2.08644
   R13        2.89514  -0.00040   0.00000  -0.00003  -0.00004   2.89510
   R14        2.68198  -0.00045   0.00000  -0.00173  -0.00173   2.68025
   R15        2.08399  -0.00010   0.00000  -0.00011  -0.00011   2.08388
   R16        2.91176  -0.00040   0.00000  -0.00078  -0.00078   2.91098
   R17        2.70463  -0.00048   0.00000  -0.00143  -0.00143   2.70321
   R18        2.08510  -0.00006   0.00000  -0.00012  -0.00012   2.08499
   R19        2.89591  -0.00037   0.00000  -0.00057  -0.00057   2.89534
   R20        2.07949   0.00002   0.00000   0.00013   0.00013   2.07962
   R21        2.71183  -0.00004   0.00000  -0.00155  -0.00155   2.71028
   R22        2.07336  -0.00027   0.00000  -0.00063  -0.00063   2.07273
   R23        2.08008  -0.00025   0.00000  -0.00069  -0.00069   2.07939
   R24        1.83071  -0.00360   0.00000  -0.00709  -0.00709   1.82362
   R25        1.84645  -0.00342   0.00000  -0.00735  -0.00735   1.83910
   R26        1.86652  -0.00310   0.00000  -0.00774  -0.00775   1.85877
   R27        1.84829  -0.00319   0.00000  -0.00694  -0.00694   1.84135
   R28        3.45951  -0.00011   0.00000  -0.00160  -0.00160   3.45791
   R29        3.37341   0.00004   0.00000   0.00686   0.00685   3.38025
   R30        1.83233  -0.00346   0.00000  -0.00701  -0.00701   1.82532
   R31        1.85694  -0.00280   0.00000  -0.00634  -0.00634   1.85060
    A1        2.09495  -0.00011   0.00000  -0.00071  -0.00072   2.09423
    A2        2.04078   0.00043   0.00000   0.00424   0.00424   2.04502
    A3        1.98985  -0.00031   0.00000  -0.00036  -0.00036   1.98949
    A4        2.13744   0.00088   0.00000   0.00942   0.00944   2.14688
    A5        1.85868  -0.00017   0.00000  -0.00193  -0.00195   1.85672
    A6        2.69039   0.00116   0.00000   0.01496   0.01499   2.70538
    A7        1.88877   0.00078   0.00000   0.01964   0.01959   1.90837
    A8        1.93498   0.00078   0.00000   0.02414   0.02411   1.95909
    A9        1.53696  -0.00079   0.00000  -0.00837  -0.00835   1.52861
   A10        2.70710   0.00093   0.00000   0.00923   0.00925   2.71634
   A11        1.99765  -0.00024   0.00000  -0.00073  -0.00075   1.99689
   A12        1.84574  -0.00008   0.00000  -0.00143  -0.00142   1.84432
   A13        1.88955   0.00003   0.00000  -0.00184  -0.00184   1.88771
   A14        1.90363   0.00026   0.00000   0.00112   0.00113   1.90477
   A15        1.89773  -0.00009   0.00000  -0.00022  -0.00023   1.89750
   A16        1.92914   0.00013   0.00000   0.00328   0.00327   1.93241
   A17        1.96604  -0.00018   0.00000   0.00044   0.00042   1.96647
   A18        1.83187   0.00036   0.00000   0.00078   0.00079   1.83266
   A19        1.89565  -0.00003   0.00000  -0.00027  -0.00027   1.89538
   A20        1.95930  -0.00018   0.00000  -0.00125  -0.00126   1.95804
   A21        1.88668   0.00000   0.00000  -0.00177  -0.00176   1.88492
   A22        1.92343   0.00005   0.00000   0.00225   0.00225   1.92568
   A23        1.92417   0.00005   0.00000   0.00101   0.00101   1.92517
   A24        1.89458  -0.00013   0.00000  -0.00045  -0.00045   1.89413
   A25        1.89117  -0.00002   0.00000  -0.00147  -0.00148   1.88969
   A26        1.92625   0.00007   0.00000  -0.00077  -0.00077   1.92548
   A27        1.91504  -0.00012   0.00000  -0.00105  -0.00105   1.91399
   A28        1.91217   0.00015   0.00000   0.00275   0.00276   1.91492
   A29        1.95391  -0.00011   0.00000  -0.00058  -0.00058   1.95332
   A30        1.87609   0.00007   0.00000   0.00008   0.00008   1.87617
   A31        1.89419   0.00024   0.00000   0.00374   0.00374   1.89792
   A32        1.97912  -0.00005   0.00000  -0.00049  -0.00049   1.97863
   A33        1.87370  -0.00007   0.00000  -0.00183  -0.00184   1.87187
   A34        1.88429  -0.00006   0.00000  -0.00069  -0.00069   1.88360
   A35        1.89101  -0.00007   0.00000   0.00066   0.00066   1.89167
   A36        1.90043  -0.00015   0.00000  -0.00173  -0.00173   1.89869
   A37        1.91015  -0.00022   0.00000  -0.00231  -0.00231   1.90784
   A38        1.93783   0.00023   0.00000   0.00246   0.00246   1.94030
   A39        1.93281   0.00021   0.00000   0.00221   0.00221   1.93501
   A40        1.89129  -0.00001   0.00000  -0.00142  -0.00142   1.88987
   A41        1.90089   0.00031   0.00000   0.00255   0.00255   1.90344
   A42        1.81086   0.00004   0.00000   0.00229   0.00229   1.81315
   A43        1.88692  -0.00006   0.00000   0.00202   0.00203   1.88895
   A44        1.86603   0.00012   0.00000   0.00105   0.00105   1.86708
   A45        2.16286  -0.00029   0.00000  -0.00109  -0.00111   2.16175
   A46        2.24611   0.00018   0.00000   0.00094   0.00094   2.24705
   A47        2.84476   0.00022   0.00000   0.00189   0.00186   2.84663
   A48        1.82646   0.00004   0.00000   0.00865   0.00866   1.83512
   A49        1.48925   0.00011   0.00000  -0.00735  -0.00737   1.48188
   A50        1.81891   0.00005   0.00000   0.00418   0.00422   1.82313
   A51        2.69969   0.00023   0.00000   0.00954   0.00953   2.70922
    D1       -1.15431  -0.00014   0.00000  -0.00608  -0.00606  -1.16038
    D2        2.59529  -0.00005   0.00000  -0.01150  -0.01150   2.58379
    D3        2.84484  -0.00023   0.00000  -0.00218  -0.00219   2.84265
    D4       -1.34253  -0.00010   0.00000  -0.00219  -0.00220  -1.34472
    D5        0.72531   0.00002   0.00000  -0.00005  -0.00005   0.72526
    D6       -0.88817  -0.00007   0.00000   0.00461   0.00460  -0.88357
    D7        1.20765   0.00005   0.00000   0.00459   0.00459   1.21224
    D8       -3.00770   0.00017   0.00000   0.00673   0.00674  -3.00096
    D9        2.74302   0.00006   0.00000   0.00641   0.00640   2.74942
   D10       -1.21891   0.00012   0.00000  -0.00100  -0.00101  -1.21992
   D11        0.96555   0.00003   0.00000  -0.00196  -0.00196   0.96358
   D12        2.99934   0.00012   0.00000  -0.00078  -0.00078   2.99856
   D13       -0.68947   0.00010   0.00000   0.00274   0.00274  -0.68673
   D14        2.12814   0.00040   0.00000   0.02678   0.02680   2.15494
   D15        0.18472  -0.00023   0.00000   0.00230   0.00227   0.18699
   D16       -2.06787  -0.00025   0.00000  -0.02726  -0.02730  -2.09517
   D17       -0.16937   0.00035   0.00000  -0.00717  -0.00715  -0.17652
   D18       -1.18835   0.00004   0.00000  -0.00273  -0.00272  -1.19107
   D19        2.95798   0.00013   0.00000  -0.00197  -0.00194   2.95604
   D20        0.90108  -0.00011   0.00000  -0.00485  -0.00484   0.89623
   D21        3.03157   0.00011   0.00000  -0.00123  -0.00124   3.03034
   D22        0.89472   0.00020   0.00000  -0.00047  -0.00046   0.89426
   D23       -1.16219  -0.00003   0.00000  -0.00335  -0.00336  -1.16554
   D24        0.92668  -0.00015   0.00000  -0.00576  -0.00576   0.92092
   D25       -1.21018  -0.00006   0.00000  -0.00499  -0.00498  -1.21516
   D26        3.01610  -0.00029   0.00000  -0.00787  -0.00788   3.00822
   D27       -2.77800   0.00006   0.00000  -0.00140  -0.00140  -2.77940
   D28       -0.62166  -0.00013   0.00000  -0.00251  -0.00252  -0.62417
   D29        1.46387   0.00000   0.00000  -0.00008  -0.00008   1.46379
   D30        1.04536  -0.00014   0.00000  -0.00022  -0.00022   1.04514
   D31       -3.12597  -0.00011   0.00000  -0.00083  -0.00084  -3.12681
   D32       -1.05063  -0.00002   0.00000   0.00137   0.00137  -1.04926
   D33        3.10881   0.00006   0.00000   0.00022   0.00021   3.10902
   D34       -1.06252   0.00009   0.00000  -0.00039  -0.00040  -1.06292
   D35        1.01282   0.00019   0.00000   0.00181   0.00180   1.01462
   D36       -1.04925   0.00001   0.00000   0.00104   0.00103  -1.04822
   D37        1.06261   0.00004   0.00000   0.00042   0.00042   1.06302
   D38        3.13795   0.00014   0.00000   0.00262   0.00262   3.14057
   D39       -2.76137  -0.00009   0.00000  -0.00224  -0.00227  -2.76364
   D40        1.38060   0.00001   0.00000  -0.00257  -0.00258   1.37802
   D41       -0.72342   0.00010   0.00000  -0.00104  -0.00105  -0.72447
   D42       -0.89366  -0.00006   0.00000   0.00100   0.00101  -0.89265
   D43       -3.02006  -0.00002   0.00000   0.00170   0.00171  -3.01835
   D44        1.18341   0.00012   0.00000   0.00408   0.00408   1.18749
   D45       -2.98649   0.00003   0.00000   0.00141   0.00142  -2.98507
   D46        1.17030   0.00007   0.00000   0.00211   0.00212   1.17242
   D47       -0.90942   0.00021   0.00000   0.00449   0.00449  -0.90493
   D48        1.18787  -0.00012   0.00000  -0.00084  -0.00084   1.18703
   D49       -0.93853  -0.00009   0.00000  -0.00014  -0.00014  -0.93867
   D50       -3.01825   0.00006   0.00000   0.00224   0.00223  -3.01602
   D51       -2.83719   0.00006   0.00000  -0.00090  -0.00091  -2.83810
   D52        0.17764   0.00009   0.00000   0.00617   0.00615   0.18379
   D53       -0.72661   0.00008   0.00000  -0.00042  -0.00043  -0.72704
   D54        2.28822   0.00011   0.00000   0.00665   0.00663   2.29485
   D55        1.38393   0.00007   0.00000  -0.00044  -0.00044   1.38349
   D56       -1.88443   0.00010   0.00000   0.00663   0.00662  -1.87781
   D57        3.06114   0.00017   0.00000   0.00174   0.00174   3.06288
   D58        0.95162   0.00002   0.00000  -0.00061  -0.00061   0.95102
   D59       -1.11285   0.00025   0.00000   0.00345   0.00345  -1.10941
   D60       -1.05278   0.00004   0.00000   0.00072   0.00072  -1.05205
   D61        3.12089  -0.00011   0.00000  -0.00163  -0.00163   3.11927
   D62        1.05642   0.00012   0.00000   0.00243   0.00243   1.05884
   D63        1.02087  -0.00011   0.00000  -0.00233  -0.00233   1.01854
   D64       -1.08865  -0.00026   0.00000  -0.00468  -0.00468  -1.09333
   D65        3.13006  -0.00004   0.00000  -0.00062  -0.00062   3.12943
   D66        3.01253  -0.00005   0.00000  -0.00308  -0.00308   3.00945
   D67       -1.18449  -0.00014   0.00000  -0.00332  -0.00332  -1.18780
   D68        0.91744   0.00014   0.00000  -0.00199  -0.00199   0.91545
   D69       -0.79316  -0.00010   0.00000   0.00999   0.01005  -0.78311
   D70        0.37113   0.00005   0.00000  -0.01719  -0.01721   0.35392
   D71       -2.92606   0.00006   0.00000  -0.00856  -0.00858  -2.93464
   D72       -1.73175  -0.00012   0.00000  -0.01596  -0.01592  -1.74767
   D73        0.07453  -0.00004   0.00000  -0.01366  -0.01363   0.06090
   D74       -0.09076  -0.00001   0.00000   0.01361   0.01361  -0.07715
   D75        1.72347   0.00006   0.00000   0.02067   0.02066   1.74414
         Item               Value     Threshold  Converged?
 Maximum Force            0.003786     0.000450     NO 
 RMS     Force            0.000834     0.000300     NO 
 Maximum Displacement     0.055037     0.001800     NO 
 RMS     Displacement     0.007376     0.001200     NO 
 Predicted change in Energy=-2.090372D-04
 GradGradGradGradGradGradGradGradGradGradGradGradGradGradGradGradGradGrad

                          Input orientation:                          
[...]
 ,0.00006522,0.00013559,-0.00014105,0.00005040,-0.00008537,-0.00025429,
 -0.00008960,-0.00028968,-0.00073764,-0.00000816,0.00000087,-0.00001287
 ,0.00000602,0.00001313,-0.00001328,-0.00003999,-0.00002142,0.00008565,
 0.00001365,0.00003076,0.00006520,0.00019498,0.00084343,0.00146059,0.00
 003646,0.00013731,0.00011136,-0.00028037,0.00037586,0.00010176,-0.0747
 7994,0.28644761,0.00009729,0.00003226,-0.00097890,-0.00081624,0.000438
 54,0.00350501,-0.00002240,-0.00002325,-0.00002684,-0.00014382,0.000029
 55,0.00019425,0.00002181,-0.00006395,-0.00007187,-0.00002160,0.0000359
 8,0.00011505,0.00014688,-0.00005278,-0.00026137,-0.00014737,-0.0003016
 0,0.00039225,0.00058884,-0.00164105,0.00127844,-0.00164631,0.00241461,
 -0.00756360,0.01138170,-0.03097713,-0.01040503,0.02162500,-0.06901247,
 -0.07314069,-0.00052449,0.02648370,0.00463576,0.00008357,0.00031539,-0
 .00015043,0.00003854,-0.00074345,-0.00129909,-0.00038161,0.00008459,0.
 00146848,0.00000116,0.00002104,0.00004889,0.00003774,0.00003933,-0.000
 00917,-0.00008398,-0.00011229,0.00018787,0.00022044,0.00023918,-0.0000
 8881,-0.00001963,-0.00046313,-0.00154270,0.00003084,0.00014258,0.00012
 780,-0.00010677,0.00039742,0.00158453,-0.02614292,0.06739266,0.0769562
 6,-0.00008269,-0.00020317,0.00038211,0.00250210,0.00070601,-0.00021462
 ,0.00011304,0.00004309,-0.00021010,0.00054422,0.00025397,0.00006386,-0
 .00057357,0.00006264,-0.00057194,0.00059744,-0.00015300,0.00081070,-0.
 00085209,0.00020002,-0.00093157,-0.00016730,-0.00000681,-0.00009858,0.
 00047225,-0.00008476,0.00008840,-0.00013970,0.00049261,0.00089196,-0.0
 0873684,0.00068680,-0.00118353,-0.28518048,0.02979894,-0.03846030,-0.0
 1601175,-0.01052024,0.00641137,0.00007784,0.00001893,0.00000966,0.0000
 5336,-0.00001937,-0.00014373,0.00059050,-0.00015437,-0.00059767,0.0000
 1385,-0.00000347,0.00008739,0.00009355,-0.00000672,0.00000272,-0.00002
 585,-0.00002064,0.00001511,-0.00004760,-0.00000870,0.00002827,-0.00050
 783,0.00081326,0.00087125,0.00072717,-0.00080238,-0.00040822,0.0007822
 0,-0.00039970,-0.00122444,-0.00940451,0.00220270,-0.00336216,0.3147412
 4,0.00015319,0.00014320,-0.00018916,0.00029772,0.00013575,0.00032391,-
 0.00000749,0.00004856,0.00008562,-0.00031527,-0.00015085,-0.00007827,0
 .00036046,-0.00005037,0.00037549,-0.00040631,0.00000093,-0.00051440,0.
 00052286,0.00016192,0.00057598,0.00001893,0.00000573,-0.00004415,0.000
 04133,0.00000191,-0.00023260,-0.00210784,0.00013424,0.00054563,-0.0049
 7545,0.00106519,-0.00199405,0.03279652,-0.05795479,0.00338726,-0.03309
 231,-0.00434383,0.00286867,-0.00001642,-0.00001305,0.00005586,0.000050
 49,0.00007836,0.00010787,0.00056957,-0.00001634,-0.00072878,-0.0000456
 7,-0.00002235,0.00003105,0.00000374,0.00001823,0.00000405,0.00000943,0
 .00000011,-0.00002026,-0.00005102,-0.00004528,0.00001905,-0.00046142,0
 .00063033,0.00087629,0.00046133,0.00005261,0.00002287,-0.00068566,0.00
 038580,-0.00050632,0.02865173,-0.00078035,0.00452965,-0.02225251,0.059
 70105,-0.00007815,-0.00000737,-0.00021459,0.00120355,-0.00149374,0.003
 05054,0.00014778,0.00006918,-0.00017098,0.00023668,0.00002508,0.000066
 24,-0.00024609,0.00003411,-0.00030841,0.00062889,-0.00005288,0.0002002
 9,-0.00062216,0.00048830,-0.00048899,-0.00006049,-0.00000154,0.0000690
 7,-0.00009589,0.00014470,-0.00017422,-0.00126782,0.00204632,0.00193418
 ,-0.03436207,0.00290377,-0.00700074,-0.04017363,0.00154484,-0.05842206
 ,0.02516393,0.00746177,-0.00012447,0.00004173,0.00001273,0.00003392,0.
 00015043,-0.00010621,0.00002627,0.00019149,-0.00043853,0.00046533,0.00
 011638,-0.00001483,0.00014644,0.00007443,0.00000017,-0.00002109,-0.000
 01539,-0.00000518,0.00000600,0.00000223,0.00004683,-0.00003098,0.00000
 312,-0.00040183,-0.00094475,0.00100013,-0.00055435,-0.00004889,-0.0007
 3517,-0.00066402,-0.00641947,0.00947967,-0.00262549,0.00385687,0.03797
 498,-0.00783115,0.06252903,0.00015480,-0.00003214,-0.00060556,0.000247
 40,-0.00028807,0.00188159,-0.00000932,-0.00002283,0.00009567,-0.000364
 82,-0.00015710,0.00010679,0.00028237,-0.00005988,0.00028895,-0.0002134
 7,0.00006255,-0.00028016,0.00028457,0.00002495,0.00005451,0.00005613,-
 0.00009426,0.00008291,-0.00003696,0.00006018,0.00009250,0.00007892,-0.
 00029364,0.00000220,-0.00276074,-0.00284867,0.00045410,0.00308097,-0.0
 0198767,0.02574297,-0.06401054,-0.02283350,-0.16544687,-0.00000824,0.0
 0008206,-0.00007426,-0.00002403,0.00001161,-0.00008314,0.00033555,0.00
 012815,0.00014075,-0.00000460,0.00001855,0.00005422,-0.00003196,0.0000
 1128,-0.00000688,-0.00001030,-0.00001358,0.00004832,0.00004120,0.00003
 711,0.00003665,-0.00070917,0.00043770,0.00017275,-0.00011203,0.0000720
 3,0.00002518,0.00033298,0.00003093,0.00010018,0.00011264,-0.00031030,-
 0.00069059,0.00035300,0.00038947,0.00101339,0.06290270,-0.00001157,0.0
 0009597,-0.00075064,-0.00014342,-0.00021895,0.00234341,-0.00000677,0.0
 0001433,-0.00000651,-0.00028453,-0.00023542,0.00019855,0.00017704,-0.0
 0002061,0.00015723,-0.00006888,-0.00001962,-0.00014295,0.00007669,0.00
 008545,0.00009185,0.00000150,-0.00013213,0.00006231,0.00012276,0.00009
 223,0.00004874,-0.00103996,-0.00070965,0.00070418,-0.00291031,-0.00385
 958,0.00023857,0.00891166,-0.00024272,0.03154935,-0.03269177,-0.030430
 95,-0.04124671,0.00003578,0.00010678,-0.00005525,0.00004847,-0.0000409
 2,-0.00011126,0.00081121,-0.00238188,-0.00337890,0.00002416,0.00002217
 ,0.00005403,0.00001194,0.00001103,-0.00000397,-0.00003245,-0.00001091,
 0.00005041,-0.00000121,0.00006391,0.00005367,-0.00085817,0.00480578,0.
 00153620,0.00021971,0.00010735,-0.00005607,0.00010844,-0.00009105,-0.0
 0030357,0.00060031,-0.00035045,0.00074856,-0.00073859,0.00085268,-0.00
 051003,0.02750967,0.03233768,0.00006404,0.00009874,0.00038670,-0.00008
 169,-0.00018647,-0.00137753,0.00004620,0.00002584,-0.00006289,0.000200
 73,0.00005181,-0.00007383,-0.00023431,0.00005214,-0.00025511,0.0000539
 8,-0.00008473,0.00029673,-0.00002995,0.00002440,-0.00029263,-0.0000206
 3,0.00003850,-0.00014751,0.00006624,0.00005155,-0.00025017,-0.00028049
 ,-0.00021679,0.00048653,0.00322852,0.00403713,0.00074279,-0.00890882,-
 0.00402023,-0.01953790,-0.12921491,-0.00557552,-0.47012797,-0.00000702
 ,-0.00004470,0.00010982,-0.00001828,0.00013335,0.00019042,0.00013540,-
 0.00034033,0.00085409,-0.00001095,-0.00001146,-0.00002887,0.00001652,-
 0.00000654,0.00000756,0.00002059,0.00001100,-0.00005425,-0.00005614,-0
 .00007189,0.00000311,-0.00051915,-0.00010252,-0.00200026,0.00014139,-0
 .00003125,-0.00007922,-0.00001088,0.00000040,0.00052252,-0.00091570,-0
 .00082934,0.00122524,-0.00047840,-0.00170456,0.00180754,0.13679476,0.0
 0872809,0.48764892,-0.00058422,0.00116200,0.00065028,-0.00001137,-0.00
 047816,-0.00035491,0.00016176,0.00010766,0.00006439,-0.00033075,-0.001
 09536,-0.00017269,0.00035122,0.00013980,0.00033864,-0.00042960,-0.0002
 4909,-0.00026363,0.00037040,0.00024020,0.00007709,0.00115571,-0.001225
 19,-0.00020127,-0.00421002,0.00554334,0.00296264,0.00051778,-0.0005953
 8,0.00011715,-0.00059124,0.00041561,-0.00005916,0.00000173,-0.00024306
 ,0.00031400,0.00029571,-0.00007406,-0.00065782,-0.00003165,-0.00130191
 ,0.00030009,-0.00793635,-0.01717304,0.00552155,0.00241240,-0.00244956,
 -0.00429235,0.00010334,-0.00011344,-0.00004997,0.00006983,0.00015887,-
 0.00010002,0.00007504,0.00108887,-0.00151905,-0.00243862,0.01015744,-0
 .00570077,-0.00087630,-0.00096522,0.00079024,0.00018366,0.00015895,0.0
 0006098,0.00012403,-0.00009562,-0.00000831,0.00000355,-0.00007336,-0.0
 0016024,0.00003839,0.00004493,0.00000193,-0.00011228,-0.00010550,0.000
 05811,0.14813337,-0.00002889,0.00122123,-0.00021123,-0.00047829,-0.001
 14233,0.00016728,0.00021570,0.00009936,0.00005006,-0.00061692,-0.00109
 289,0.00003604,0.00044197,0.00014237,0.00032868,-0.00077144,-0.0003612
 4,-0.00018688,0.00089852,0.00041269,0.00000666,0.00060933,-0.00012684,
 -0.00041950,-0.00092066,0.00355469,0.00166517,0.00172528,0.00128715,-0
 .00200749,-0.00048748,0.00086730,0.00021387,0.00016210,0.00010917,0.00
 023041,0.00011444,-0.00049405,-0.00100365,-0.00025471,-0.00082479,0.00
 082696,-0.01266781,-0.00871157,0.00552990,-0.00431833,-0.00697742,-0.0
 0936191,0.00002850,-0.00003098,-0.00002525,-0.00008436,-0.00007232,0.0
 0001775,0.00020725,0.00051995,-0.00122633,0.00628161,-0.00466322,-0.00
 514235,-0.00193071,-0.00150357,0.00171288,-0.00062391,-0.00047573,0.00
 012678,-0.00003626,0.00002637,0.00001492,-0.00001313,-0.00013472,-0.00
 013259,-0.00005003,0.00002058,-0.00001601,-0.00009215,-0.00027171,0.00
 007464,-0.15734123,0.59083616,0.00040063,-0.00029600,-0.00164595,-0.00
 044313,-0.00125811,0.00104853,-0.00002180,-0.00001872,-0.00008780,-0.0
 0003661,0.00030435,0.00049330,-0.00015540,-0.00002913,-0.00036014,-0.0
 0016665,-0.00007694,0.00037207,0.00051346,0.00012969,-0.00014033,-0.00
 046010,0.00083008,-0.00004979,0.00220024,-0.00407108,-0.00315423,0.002
 43205,0.00251942,-0.00454240,-0.00054461,0.00044053,0.00086234,0.00029
 182,0.00073709,-0.00034512,-0.00019479,-0.00092480,-0.00033655,0.00006
 271,0.00081697,0.00070766,0.00735216,0.01171667,0.00176294,-0.00532476
 ,-0.01090490,-0.00182073,-0.00002734,0.00007212,0.00007605,0.00008420,
 -0.00006805,0.00010561,-0.00023169,-0.00081402,0.00059505,-0.00344452,
 -0.00779977,-0.00363613,-0.00102107,-0.00062359,0.00156506,-0.00065894
 ,-0.00065162,0.00024760,-0.00004562,0.00006492,-0.00001507,-0.00002896
 ,-0.00013200,0.00007244,-0.00007474,-0.00003597,0.00003136,-0.00003085
 ,-0.00010803,0.00001666,0.12671329,0.10186160,0.38656396,0.00005534,-0
 .00013880,-0.00002365,0.00000110,0.00007153,0.00003315,-0.00001692,-0.
 00002497,-0.00000408,0.00002382,0.00011886,0.00000067,-0.00002205,-0.0
 0002457,-0.00001616,0.00003614,0.00004201,0.00001614,-0.00003030,-0.00
 003349,-0.00001135,-0.00006204,0.00011521,0.00004440,0.00023100,-0.000
 17583,-0.00016843,0.00016328,-0.00007188,-0.00000902,0.00000059,-0.000
 08211,-0.00000317,0.00003699,0.00003529,-0.00006009,-0.00007931,-0.000
 00371,0.00008902,-0.00000750,0.00009099,-0.00004009,-0.00259509,0.0000
 9773,0.00032501,-0.00062594,-0.00012086,-0.00027735,-0.00001283,0.0000
 0946,0.00000255,-0.00001664,-0.00002839,0.00000124,0.00000169,-0.00010
 036,0.00009842,0.00372602,-0.00287929,0.00026387,0.00005238,0.00000243
 ,-0.00017873,-0.00007934,-0.00005438,-0.00002468,-0.00002110,0.0000255
 1,0.00000239,-0.00000713,0.00001079,0.00002254,-0.00001612,-0.00001362
 ,0.00000062,0.00003894,0.00000408,-0.00002013,-0.10809464,0.20537011,-
 0.05577853,0.10633577,0.00004190,-0.00027688,0.00007870,0.00011287,0.0
 0028610,-0.00005835,-0.00004769,-0.00002858,-0.00000659,0.00012648,0.0
 0025524,-0.00002184,-0.00009163,-0.00003505,-0.00005946,0.00017012,0.0
 0008728,0.00002837,-0.00020301,-0.00009534,0.00000126,-0.00021247,0.00
 011500,0.00010318,0.00060774,-0.00061418,-0.00028720,-0.00039110,-0.00
 024446,0.00033743,0.00010225,-0.00019222,-0.00004822,-0.00003820,-0.00
 002150,-0.00003405,-0.00002574,0.00011862,0.00013765,0.00005401,0.0001
 7812,-0.00016900,-0.00017723,0.00182569,-0.00051685,-0.00025009,0.0009
 6797,-0.00058067,-0.00001163,0.00001035,0.00000226,-0.00000140,-0.0000
 1490,0.00000864,-0.00005535,-0.00015255,0.00024436,0.00021152,-0.00412
 616,0.00201945,-0.00009557,-0.00012829,-0.00026494,0.00003255,-0.00000
 393,-0.00004712,-0.00000915,0.00001976,0.00000448,0.00000139,0.0000344
 2,0.00003287,0.00000763,-0.00000797,-0.00000435,0.00002836,0.00002013,
 -0.00002546,0.18033774,-0.38736605,0.07505875,-0.19663227,0.41421965,-
 0.00007033,-0.00003613,0.00017675,0.00008177,0.00012489,-0.00014269,-0
 .00000954,-0.00000251,0.00001477,0.00005163,0.00003389,-0.00006180,-0.
 00000543,-0.00000327,0.00002675,0.00005461,0.00002567,-0.00003987,-0.0
 0009269,-0.00003086,0.00002165,0.00003294,-0.00008760,0.00005819,-0.00
 024778,-0.00001317,0.00012690,-0.00020626,-0.00017406,0.00009170,-0.00
 000421,-0.00005318,-0.00002197,-0.00004394,-0.00008662,0.00007541,0.00
 003761,0.00013198,-0.00008224,0.00003908,-0.00003654,-0.00016939,0.001
 71425,-0.00023567,-0.00043788,-0.00083669,0.00006953,-0.00140709,0.000
 00484,-0.00001029,-0.00000284,0.00000180,0.00002580,-0.00002097,-0.000
 02755,0.00008641,0.00007701,-0.00317249,0.00277043,-0.00010003,-0.0001
 7375,-0.00039616,-0.00003355,-0.00000272,-0.00001788,0.00003745,0.0000
 0813,0.00000375,-0.00000198,0.00000309,0.00002161,-0.00000653,0.000010
 81,0.00000406,-0.00000819,0.00000145,-0.00004892,-0.00001179,-0.073302
 03,0.12367656,-0.07119412,0.05831707,-0.09047866,0.06441270,-0.0014417
 2,0.00187983,-0.00011814,0.00054460,-0.00038580,-0.00029068,0.00017660
 ,0.00013037,0.00011466,0.00106851,-0.00029749,0.00028636,-0.00033470,0
 .00030253,-0.00038884,0.00032290,-0.00029458,0.00002448,-0.00051706,0.
 00004477,0.00020139,-0.01854862,-0.00033330,-0.00565361,-0.27298812,0.
 02595423,-0.05104717,-0.00708318,-0.00101097,-0.00082741,-0.00052141,0
 .00057296,0.00024439,0.00044212,-0.00030006,-0.00006751,0.00002228,-0.
 00002582,0.00003874,0.00307933,0.00040324,0.00003067,-0.00722554,0.013
 00773,0.00250916,0.00195402,0.00037572,0.00036594,0.00092913,-0.001041
 76,0.00007343,-0.00111336,-0.00202136,0.00169761,-0.00067315,0.0006844
 0,-0.00025947,-0.00051676,-0.00151646,0.00166480,0.00011579,0.00013825
 ,0.00004066,0.00047452,-0.00016445,-0.00070267,0.00073460,-0.00049319,
 -0.00034650,0.00000276,-0.00002683,-0.00011404,0.00004764,0.00008046,0
 .00024178,-0.00002252,0.00002279,0.00000967,0.00101021,0.00016376,-0.0
 0039206,-0.00007365,-0.00017860,0.00001359,0.30041401,-0.00183652,0.00
 088314,-0.00030454,0.00055135,-0.00012541,-0.00011674,0.00018002,0.000
 07998,0.00011602,0.00079687,0.00005677,0.00001554,-0.00016839,0.000191
 45,-0.00018898,0.00012910,-0.00023322,-0.00003419,-0.00031885,0.000011
 50,0.00015731,-0.02391234,0.00282007,-0.00598676,0.02213188,-0.0531719
 9,0.00802507,0.00002364,0.00192861,0.00137712,-0.00079549,0.00021524,-
 0.00002961,-0.00017890,0.00019443,0.00003729,0.00001555,-0.00002355,-0
 .00004157,0.00219647,0.00108409,-0.00100508,0.03673975,-0.02069954,-0.
 00202911,0.00040310,0.00035602,-0.00050054,0.00052958,-0.00049521,0.00
 015743,-0.00268256,-0.00292298,0.00251965,-0.00003982,-0.00059460,0.00
 078501,0.00290674,0.00319219,-0.00051936,-0.00001919,0.00005161,-0.000
 02146,-0.00004366,0.00032544,-0.00046310,0.00001553,0.00007985,-0.0001
 2284,0.00000629,0.00001002,0.00007175,0.00004641,-0.00005364,-0.000051
 79,0.00000169,-0.00000816,-0.00000677,-0.00114402,0.00022147,0.0003507
 8,0.00018754,0.00012494,-0.00025118,-0.03610011,0.06695565,-0.00009260
 ,-0.00053090,0.00013266,0.00013431,-0.00032456,0.00027705,-0.00000328,
 0.00001674,-0.00012389,-0.00012937,0.00011350,0.00003690,-0.00004982,-
 0.00007912,-0.00013112,0.00003044,0.00001222,0.00016572,0.00001985,0.0
 0010005,-0.00008097,0.01534353,-0.00085022,0.00338365,-0.05175270,0.00
 751599,-0.06476660,-0.03422968,0.00226218,-0.01081511,-0.00152780,0.00
 168316,0.00127703,0.00008583,-0.00004201,-0.00008851,0.00013946,0.0000
 1197,0.00004153,-0.00111142,-0.00020635,0.00178530,0.01650103,-0.00872
 486,0.00368389,0.00123887,-0.00067935,0.00341814,-0.00010299,0.0001378
 9,0.00003354,0.00155917,0.00170447,-0.00120726,0.00037782,-0.00052057,
 0.00019589,0.00037238,0.00139738,0.00032073,-0.00000143,-0.00029592,0.
 00013607,-0.00075722,-0.00006314,-0.00620521,0.00099067,-0.00069135,-0
 .00031639,0.00012860,-0.00003204,-0.00008545,0.00024636,0.00004125,0.0
 0018801,-0.00002971,0.00002995,0.00004381,-0.00017620,-0.00023212,0.00
 012601,0.00000174,0.00002709,0.00000343,0.05284497,-0.00206413,0.06890
 230,0.00010662,-0.00055357,0.00056441,0.00022410,0.00115501,-0.0003064
 8,-0.00008870,-0.00005642,0.00000149,0.00021122,0.00046380,-0.00016527
 ,-0.00013206,-0.00007237,-0.00001828,0.00035399,0.00019534,-0.00002796
 ,-0.00050969,-0.00021445,0.00002060,-0.00036454,-0.00008827,0.00005528
 ,0.00116622,-0.00178713,0.00070590,-0.00333823,-0.00149325,0.00199991,
 0.00096473,-0.00045810,-0.00057323,-0.00016180,-0.00024406,-0.00009822
 ,-0.00020316,0.00062172,0.00089777,0.00006433,0.00027528,-0.00059896,-
 0.00039928,0.00055308,-0.00211376,-0.00359201,-0.00136617,0.00123676,-
 0.00004354,0.00002546,-0.00002233,-0.00005612,-0.00001224,-0.00000171,
 -0.00001954,-0.00017086,0.00045045,-0.00028557,0.00130519,0.00634977,0
 .00198799,0.00203927,-0.00150294,0.00012160,0.00001949,-0.00005065,-0.
 00009165,0.00004213,-0.00000416,0.00001467,0.00012367,0.00008783,-0.00
 000147,-0.00002117,-0.00001627,0.00012884,0.00020692,-0.00002870,-0.02
 936107,-0.03550226,-0.07096843,0.00105756,0.01658658,0.01782274,-0.000
 27925,0.00037835,-0.00005083,0.03252580,-0.00028218,-0.00072361,0.0014
 6380,0.00075236,0.00180318,-0.00090523,-0.00015591,-0.00006148,0.00001
 787,0.00049035,0.00059353,-0.00039825,-0.00022996,-0.00009034,0.000001
 90,0.00074210,0.00034715,-0.00012033,-0.00110235,-0.00043725,0.0000912
 9,-0.00009677,-0.00072055,0.00048883,-0.00137509,0.00195601,0.00196438
 ,-0.00393149,-0.00496863,0.00485010,0.00051879,-0.00122512,-0.00067871
 ,-0.00030454,-0.00062396,-0.00004158,-0.00001740,0.00104880,0.00127905
 ,0.00019202,-0.00022824,-0.00117237,-0.00192459,-0.00489365,-0.0008023
 4,0.00084936,-0.00063113,0.00118271,0.00000533,-0.00003615,-0.00004594
 ,0.00006687,0.00014386,-0.00010914,-0.00002112,0.00034951,0.00013453,0
 .00308972,0.00712917,0.00098697,0.00304884,0.00188306,-0.00298033,0.00
 147423,0.00123952,-0.00044224,0.00011363,-0.00012820,0.00000646,0.0000
 2930,0.00019505,0.00007402,0.00009145,0.00000164,0.00000150,0.00012750
 ,0.00040919,-0.00006901,-0.01483222,-0.18506909,-0.16709024,-0.0057970
 2,-0.02495521,-0.03501188,0.00042974,-0.00045416,0.00028280,0.01804906
 ,0.20814711,-0.00024152,0.00002295,0.00155553,0.00046028,0.00162223,-0
 .00097124,-0.00001896,-0.00000214,0.00006906,0.00013383,-0.00003884,-0
 .00045864,0.00005368,0.00000040,0.00026892,0.00031177,0.00014066,-0.00
 030731,-0.00067890,-0.00021026,0.00012263,-0.00010431,-0.00021587,-0.0
 0012539,0.00068451,0.00373479,0.00238274,-0.00272633,-0.00185215,0.006
 71705,0.00103760,-0.00054829,-0.00109477,-0.00029585,-0.00065439,0.000
 20161,0.00013317,0.00078778,0.00037913,-0.00002989,-0.00059773,-0.0005
 5128,-0.00291177,-0.00467442,0.00090828,0.00352438,0.00313550,-0.00975
 962,-0.00000329,-0.00003603,-0.00007296,-0.00018290,-0.00005852,-0.000
 00530,0.00017484,0.00051118,-0.00044433,0.00684744,0.00312186,-0.00756
 827,0.00009233,-0.00053925,-0.00209720,0.00098005,0.00100034,-0.000490
 32,0.00000133,-0.00005698,0.00002998,0.00002949,0.00014486,-0.00001868
 ,0.00006506,0.00002510,-0.00003328,0.00005818,0.00012769,-0.00004253,-
 0.05095196,-0.21657487,-0.30731828,-0.00260334,0.01451828,0.00862021,-
 0.00019418,0.00012478,-0.00033118,0.04635527,0.19704137,0.31043545\\0.
 00000409,0.00000098,0.00000075,0.00000080,-0.00000035,0.00000133,0.000
 00258,-0.00000440,0.00000383,0.00000453,0.00000005,0.00000202,0.000005
 21,-0.00000245,0.00000387,0.00000330,-0.00000203,0.00000415,0.00000337
 ,-0.00000229,0.00000213,0.00000231,0.00000016,0.00000080,0.00000018,0.
 00000066,-0.00000052,-0.00000145,-0.00000018,-0.00000053,0.00000002,0.
 00000029,-0.00000027,-0.00000129,-0.00000133,0.00000039,-0.00000334,-0
 .00000067,-0.00000129,0.00000316,0.00000159,0.00000046,-0.00000093,0.0
 0000139,-0.00000120,-0.00000326,0.00000056,-0.00000217,0.00000414,0.00
 000233,0.00000036,0.00000170,-0.00000116,0.00000171,0.00000198,0.00000
 109,-0.00000013,-0.00000234,0.00000141,-0.00000204,-0.00000379,0.00000
 035,-0.00000172,-0.00000185,-0.00000170,0.00000046,0.00000019,0.000001
 56,-0.00000108,-0.00000012,-0.00000094,0.00000061,-0.00000145,-0.00000
 270,0.00000131,-0.00000402,-0.00000164,-0.00000037,-0.00000463,0.00000
 254,-0.00000498,-0.00000541,0.00000210,-0.00000374,0.00000046,0.000002
 52,-0.00000159,-0.00000410,0.00000226,-0.00000253\\\@


 THE NUMBERS ARE MEANINGLESS, BUT THE TRENDS ARE IMPORTANT.
     -- LARRY BURGGRAF
 Job cpu time:       0 days  1 hours 21 minutes 15.0 seconds.
 File lengths (MBytes):  RWF=    286 Int=      0 D2E=      0 Chk=      8 Scr=      1
 Normal termination of Gaussian 09 at Sat Jun  4 21:33:26 2016.
