 Entering Gaussian System, Link 0=g09
 Initial command:
 /global/software/gaussian/g09.e01/l1.exe "/scratch/10462979.yak.local/Gau-10683.inp" -scrdir="/scratch/10462979.yak.local/"
 Entering Link 1 = /global/software/gaussian/g09.e01/l1.exe PID=     10684.
  
 Copyright (c) 1988,1990,1992,1993,1995,1998,2003,2009,2015,
            Gaussian, Inc.  All Rights Reserved.
  
 This is part of the Gaussian(R) 09 program.  It is based on
 the Gaussian(R) 03 system (copyright 2003, Gaussian, Inc.),
 the Gaussian(R) 98 system (copyright 1998, Gaussian, Inc.),
 the Gaussian(R) 94 system (copyright 1995, Gaussian, Inc.),
 the Gaussian 92(TM) system (copyright 1992, Gaussian, Inc.),
 the Gaussian 90(TM) system (copyright 1990, Gaussian, Inc.),
 the Gaussian 88(TM) system (copyright 1988, Gaussian, Inc.),
 the Gaussian 86(TM) system (copyright 1986, Carnegie Mellon
 University), and the Gaussian 82(TM) system (copyright 1983,
 Carnegie Mellon University). Gaussian is a federally registered
 trademark of Gaussian, Inc.
  
 This software contains proprietary and confidential information,
 including trade secrets, belonging to Gaussian, Inc.
  
 This software is provided under written license and may be
 used, copied, transmitted, or stored only in accord with that
 written license.
  
 The following legend is applicable only to US Government
 contracts under FAR:
  
                    RESTRICTED RIGHTS LEGEND
  
 Use, reproduction and disclosure by the US Government is
 subject to restrictions as set forth in subparagraphs (a)
 and (c) of the Commercial Computer Software - Restricted
 Rights clause in FAR 52.227-19.
  
 Gaussian, Inc.
 340 Quinnipiac St., Bldg. 40, Wallingford CT 06492
  
  
 ---------------------------------------------------------------
 Warning -- This program may not be used in any manner that
 competes with the business of Gaussian, Inc. or will provide
 assistance to any competitor of Gaussian, Inc.  The licensee
 of this program is prohibited from giving any competitor of
 Gaussian, Inc. access to this program.  By using this program,
 the user acknowledges that Gaussian, Inc. is engaged in the
 business of creating and licensing software in the field of
 computational chemistry and represents and warrants to the
 licensee that it is not a competitor of Gaussian, Inc. and that
 it will not use this program in any manner prohibited above.
 ---------------------------------------------------------------
  

 Cite this work as:
 Gaussian 09, Revision E.01,
 M. J. Frisch, G. W. Trucks, H. B. Schlegel, G. E. Scuseria, 
 M. A. Robb, J. R. Cheeseman, G. Scalmani, V. Barone, B. Mennucci, 
 G. A. Petersson, H. Nakatsuji, M. Caricato, X. Li, H. P. Hratchian, 
 A. F. Izmaylov, J. Bloino, G. Zheng, J. L. Sonnenberg, M. Hada, 
 M. Ehara, K. Toyota, R. Fukuda, J. Hasegawa, M. Ishida, T. Nakajima, 
 Y. Honda, O. Kitao, H. Nakai, T. Vreven, J. A. Montgomery, Jr., 
 J. E. Peralta, F. Ogliaro, M. Bearpark, J. J. Heyd, E. Brothers, 
 K. N. Kudin, V. N. Staroverov, T. Keith, R. Kobayashi, J. Normand, 
 K. Raghavachari, A. Rendell, J. C. Burant, S. S. Iyengar, J. Tomasi, 
 M. Cossi, N. Rega, J. M. Millam, M. Klene, J. E. Knox, J. B. Cross, 
 V. Bakken, C. Adamo, J. Jaramillo, R. Gomperts, R. E. Stratmann, 
 O. Yazyev, A. J. Austin, R. Cammi, C. Pomelli, J. W. Ochterski, 
 R. L. Martin, K. Morokuma, V. G. Zakrzewski, G. A. Voth, 
 P. Salvador, J. J. Dannenberg, S. Dapprich, A. D. Daniels, 
 O. Farkas, J. B. Foresman, J. V. Ortiz, J. Cioslowski, 
 and D. J. Fox, Gaussian, Inc., Wallingford CT, 2013.
 
 ******************************************
 Gaussian 09:  ES64L-G09RevE.01 30-Nov-2015
                15-Jan-2017 
 ******************************************
 %NPROCS=4
 Will use up to    4 processors via shared memory.
 -----------------------------------------
 # opt=(MaxCycle=1000) freq B3LYP/6-31G(d)
 -----------------------------------------
 1/6=1000,14=-1,18=20,19=15,26=3,38=1/1,3;
 2/9=110,12=2,17=6,18=5,40=1/2;
 3/5=1,6=6,7=1,11=2,16=1,25=1,30=1,71=1,74=-5/1,2,3;
 4//1;
 5/5=2,38=5/2;
 6/7=2,8=2,9=2,10=2,28=1/1;
 7//1,2,3,16;
 1/6=1000,14=-1,18=20,19=15,26=3/3(2);
 2/9=110/2;
 99//99;
 2/9=110/2;
 3/5=1,6=6,7=1,11=2,16=1,25=1,30=1,71=1,74=-5/1,2,3;
 4/5=5,16=3,69=1/1;
 5/5=2,38=5/2;
 7//1,2,3,16;
 1/6=1000,14=-1,18=20,19=15,26=3/3(-5);
 2/9=110/2;
 6/7=2,8=2,9=2,10=2,19=2,28=1/1;
 99/9=1/99;
 ---------------------------------------------------
 ./chairs/2/glo_1w_alpha_ircr_chair2_B3LYP_631Gd.out
 ---------------------------------------------------
 Symbolic Z-matrix:
 Charge =  0 Multiplicity = 1
 C                    -1.50042  -0.12191  -0.98848 
 O                    -1.02086   0.80971   0.40217 
 C                    -0.96278  -1.49605  -0.58228 
 C                     0.50317  -1.53469  -0.12111 
 C                     0.80711  -0.56058   1.03486 
 C                     0.36255   0.89163   0.78685 
 H                    -1.05261  -2.12241  -1.49131 
 H                     1.886    -0.55039   1.21826 
 H                     0.38973   1.389     1.76205 
 H                     0.72055  -2.54131   0.25774 
 O                    -1.80093  -2.00103   0.44174 
 O                     1.3577   -1.23829  -1.24451 
 O                     0.19976  -1.071     2.21055 
 H                     1.23329  -1.93728  -1.90677 
 H                    -2.6523   -1.53724   0.26712 
 H                    -0.71174  -1.32373   1.96366 
 C                     1.19928   1.7389   -0.18544 
 O                     2.46464   1.99915   0.37683 
 H                     0.68296   2.69857  -0.32417 
 H                     1.27315   1.26043  -1.17062 
 H                     3.07361   1.28347   0.08748 
 H                    -0.89889   0.4039   -1.74704 
 O                    -2.76697  -0.03721  -1.00663 
 H                    -3.07887   1.49757  -0.69298 
 H                    -1.57775   1.66665   0.30293 
 O                    -2.82772   2.34854  -0.2123 
 H                    -3.47755   2.44035   0.50161 
 O                     3.88802  -0.13446  -0.70677 
 H                     4.26165   0.20245  -1.53502 
 H                     3.09953  -0.65291  -0.9722 
 
 Add virtual bond connecting atoms H24        and O23        Dist= 3.02D+00.
 Add virtual bond connecting atoms O26        and H25        Dist= 2.86D+00.
 Add virtual bond connecting atoms O28        and H21        Dist= 3.44D+00.
 Add virtual bond connecting atoms H30        and O12        Dist= 3.51D+00.

 GradGradGradGradGradGradGradGradGradGradGradGradGradGradGradGradGradGrad
 Berny optimization.
 Initialization pass.
                           ----------------------------
                           !    Initial Parameters    !
                           ! (Angstroms and Degrees)  !
 --------------------------                            --------------------------
 ! Name  Definition              Value          Derivative Info.                !
 --------------------------------------------------------------------------------
 ! R1    R(1,3)                  1.5305         estimate D2E/DX2                !
 ! R2    R(1,22)                 1.1017         estimate D2E/DX2                !
 ! R3    R(1,23)                 1.2695         estimate D2E/DX2                !
 ! R4    R(2,6)                  1.4382         estimate D2E/DX2                !
 ! R5    R(2,25)                 1.0268         estimate D2E/DX2                !
 ! R6    R(3,4)                  1.5373         estimate D2E/DX2                !
 ! R7    R(3,7)                  1.1076         estimate D2E/DX2                !
 ! R8    R(3,11)                 1.4164         estimate D2E/DX2                !
 ! R9    R(4,5)                  1.5419         estimate D2E/DX2                !
 ! R10   R(4,10)                 1.0973         estimate D2E/DX2                !
 ! R11   R(4,12)                 1.4423         estimate D2E/DX2                !
 ! R12   R(5,6)                  1.5388         estimate D2E/DX2                !
 ! R13   R(5,8)                  1.0944         estimate D2E/DX2                !
 ! R14   R(5,13)                 1.4183         estimate D2E/DX2                !
 ! R15   R(6,9)                  1.095          estimate D2E/DX2                !
 ! R16   R(6,17)                 1.5373         estimate D2E/DX2                !
 ! R17   R(11,15)                0.9851         estimate D2E/DX2                !
 ! R18   R(12,14)                0.9709         estimate D2E/DX2                !
 ! R19   R(12,30)                1.8576         estimate D2E/DX2                !
 ! R20   R(13,16)                0.9776         estimate D2E/DX2                !
 ! R21   R(17,18)                1.4089         estimate D2E/DX2                !
 ! R22   R(17,19)                1.0985         estimate D2E/DX2                !
 ! R23   R(17,20)                1.0977         estimate D2E/DX2                !
 ! R24   R(18,21)                0.9832         estimate D2E/DX2                !
 ! R25   R(21,28)                1.8179         estimate D2E/DX2                !
 ! R26   R(23,24)                1.5973         estimate D2E/DX2                !
 ! R27   R(24,26)                1.0091         estimate D2E/DX2                !
 ! R28   R(25,26)                1.5142         estimate D2E/DX2                !
 ! R29   R(26,27)                0.9697         estimate D2E/DX2                !
 ! R30   R(28,29)                0.9691         estimate D2E/DX2                !
 ! R31   R(28,30)                0.9803         estimate D2E/DX2                !
 ! A1    A(3,1,22)             114.8007         estimate D2E/DX2                !
 ! A2    A(3,1,23)             114.4672         estimate D2E/DX2                !
 ! A3    A(22,1,23)            120.2017         estimate D2E/DX2                !
 ! A4    A(6,2,25)             119.9997         estimate D2E/DX2                !
 ! A5    A(1,3,4)              115.9244         estimate D2E/DX2                !
 ! A6    A(1,3,7)              105.1553         estimate D2E/DX2                !
 ! A7    A(1,3,11)             107.7053         estimate D2E/DX2                !
 ! A8    A(4,3,7)              108.0197         estimate D2E/DX2                !
 ! A9    A(4,3,11)             109.7826         estimate D2E/DX2                !
 ! A10   A(7,3,11)             110.1062         estimate D2E/DX2                !
 ! A11   A(3,4,5)              113.3906         estimate D2E/DX2                !
 ! A12   A(3,4,10)             108.3939         estimate D2E/DX2                !
 ! A13   A(3,4,12)             109.0366         estimate D2E/DX2                !
 ! A14   A(5,4,10)             106.3591         estimate D2E/DX2                !
 ! A15   A(5,4,12)             109.7141         estimate D2E/DX2                !
 ! A16   A(10,4,12)            109.8817         estimate D2E/DX2                !
 ! A17   A(4,5,6)              114.7343         estimate D2E/DX2                !
 ! A18   A(4,5,8)              109.0162         estimate D2E/DX2                !
 ! A19   A(4,5,13)             108.04           estimate D2E/DX2                !
 ! A20   A(6,5,8)              107.6387         estimate D2E/DX2                !
 ! A21   A(6,5,13)             110.4568         estimate D2E/DX2                !
 ! A22   A(8,5,13)             106.6534         estimate D2E/DX2                !
 ! A23   A(2,6,5)              105.4997         estimate D2E/DX2                !
 ! A24   A(2,6,9)              106.7346         estimate D2E/DX2                !
 ! A25   A(2,6,17)             112.6912         estimate D2E/DX2                !
 ! A26   A(5,6,9)              106.1367         estimate D2E/DX2                !
 ! A27   A(5,6,17)             117.6973         estimate D2E/DX2                !
 ! A28   A(9,6,17)             107.4219         estimate D2E/DX2                !
 ! A29   A(3,11,15)            102.4396         estimate D2E/DX2                !
 ! A30   A(4,12,14)            107.9044         estimate D2E/DX2                !
 ! A31   A(4,12,30)            120.407          estimate D2E/DX2                !
 ! A32   A(14,12,30)           116.5519         estimate D2E/DX2                !
 ! A33   A(5,13,16)            106.437          estimate D2E/DX2                !
 ! A34   A(6,17,18)            109.7689         estimate D2E/DX2                !
 ! A35   A(6,17,19)            107.7895         estimate D2E/DX2                !
 ! A36   A(6,17,20)            111.3474         estimate D2E/DX2                !
 ! A37   A(18,17,19)           108.1285         estimate D2E/DX2                !
 ! A38   A(18,17,20)           112.2252         estimate D2E/DX2                !
 ! A39   A(19,17,20)           107.4016         estimate D2E/DX2                !
 ! A40   A(17,18,21)           107.7192         estimate D2E/DX2                !
 ! A41   A(1,23,24)            104.84           estimate D2E/DX2                !
 ! A42   A(23,24,26)           148.7878         estimate D2E/DX2                !
 ! A43   A(2,25,26)            148.9171         estimate D2E/DX2                !
 ! A44   A(24,26,25)            89.2996         estimate D2E/DX2                !
 ! A45   A(24,26,27)           105.2922         estimate D2E/DX2                !
 ! A46   A(25,26,27)           110.2006         estimate D2E/DX2                !
 ! A47   A(21,28,29)           105.9606         estimate D2E/DX2                !
 ! A48   A(21,28,30)            99.8154         estimate D2E/DX2                !
 ! A49   A(29,28,30)           105.2225         estimate D2E/DX2                !
 ! A50   A(12,30,28)           163.8544         estimate D2E/DX2                !
 ! A51   L(18,21,28,1,-1)      167.9234         estimate D2E/DX2                !
 ! A52   L(18,21,28,1,-2)      174.683          estimate D2E/DX2                !
 ! D1    D(22,1,3,4)            53.5108         estimate D2E/DX2                !
 ! D2    D(22,1,3,7)           -65.6992         estimate D2E/DX2                !
 ! D3    D(22,1,3,11)          176.8927         estimate D2E/DX2                !
 ! D4    D(23,1,3,4)          -161.4955         estimate D2E/DX2                !
 ! D5    D(23,1,3,7)            79.2945         estimate D2E/DX2                !
 ! D6    D(23,1,3,11)          -38.1136         estimate D2E/DX2                !
 ! D7    D(3,1,23,24)          151.4901         estimate D2E/DX2                !
 ! D8    D(22,1,23,24)         -65.5624         estimate D2E/DX2                !
 ! D9    D(25,2,6,5)           171.91           estimate D2E/DX2                !
 ! D10   D(25,2,6,9)            59.2938         estimate D2E/DX2                !
 ! D11   D(25,2,6,17)          -58.3903         estimate D2E/DX2                !
 ! D12   D(6,2,25,26)          164.6563         estimate D2E/DX2                !
 ! D13   D(1,3,4,5)             55.0766         estimate D2E/DX2                !
 ! D14   D(1,3,4,10)           172.9315         estimate D2E/DX2                !
 ! D15   D(1,3,4,12)           -67.4737         estimate D2E/DX2                !
 ! D16   D(7,3,4,5)            172.7097         estimate D2E/DX2                !
 ! D17   D(7,3,4,10)           -69.4354         estimate D2E/DX2                !
 ! D18   D(7,3,4,12)            50.1595         estimate D2E/DX2                !
 ! D19   D(11,3,4,5)           -67.213          estimate D2E/DX2                !
 ! D20   D(11,3,4,10)           50.6419         estimate D2E/DX2                !
 ! D21   D(11,3,4,12)          170.2368         estimate D2E/DX2                !
 ! D22   D(1,3,11,15)           25.6099         estimate D2E/DX2                !
 ! D23   D(4,3,11,15)          152.6613         estimate D2E/DX2                !
 ! D24   D(7,3,11,15)          -88.5391         estimate D2E/DX2                !
 ! D25   D(3,4,5,6)            -51.9616         estimate D2E/DX2                !
 ! D26   D(3,4,5,8)           -172.7352         estimate D2E/DX2                !
 ! D27   D(3,4,5,13)            71.7309         estimate D2E/DX2                !
 ! D28   D(10,4,5,6)          -170.9922         estimate D2E/DX2                !
 ! D29   D(10,4,5,8)            68.2342         estimate D2E/DX2                !
 ! D30   D(10,4,5,13)          -47.2997         estimate D2E/DX2                !
 ! D31   D(12,4,5,6)            70.2127         estimate D2E/DX2                !
 ! D32   D(12,4,5,8)           -50.5609         estimate D2E/DX2                !
 ! D33   D(12,4,5,13)         -166.0948         estimate D2E/DX2                !
 ! D34   D(3,4,12,14)          -62.9554         estimate D2E/DX2                !
 ! D35   D(3,4,12,30)          159.7982         estimate D2E/DX2                !
 ! D36   D(5,4,12,14)          172.3117         estimate D2E/DX2                !
 ! D37   D(5,4,12,30)           35.0654         estimate D2E/DX2                !
 ! D38   D(10,4,12,14)          55.713          estimate D2E/DX2                !
 ! D39   D(10,4,12,30)         -81.5334         estimate D2E/DX2                !
 ! D40   D(4,5,6,2)             52.0768         estimate D2E/DX2                !
 ! D41   D(4,5,6,9)            165.1121         estimate D2E/DX2                !
 ! D42   D(4,5,6,17)           -74.6292         estimate D2E/DX2                !
 ! D43   D(8,5,6,2)            173.6053         estimate D2E/DX2                !
 ! D44   D(8,5,6,9)            -73.3594         estimate D2E/DX2                !
 ! D45   D(8,5,6,17)            46.8993         estimate D2E/DX2                !
 ! D46   D(13,5,6,2)           -70.3183         estimate D2E/DX2                !
 ! D47   D(13,5,6,9)            42.717          estimate D2E/DX2                !
 ! D48   D(13,5,6,17)          162.9757         estimate D2E/DX2                !
 ! D49   D(4,5,13,16)          -46.8183         estimate D2E/DX2                !
 ! D50   D(6,5,13,16)           79.4205         estimate D2E/DX2                !
 ! D51   D(8,5,13,16)         -163.8902         estimate D2E/DX2                !
 ! D52   D(2,6,17,18)          168.4586         estimate D2E/DX2                !
 ! D53   D(2,6,17,19)           50.9061         estimate D2E/DX2                !
 ! D54   D(2,6,17,20)          -66.6506         estimate D2E/DX2                !
 ! D55   D(5,6,17,18)          -68.4049         estimate D2E/DX2                !
 ! D56   D(5,6,17,19)          174.0426         estimate D2E/DX2                !
 ! D57   D(5,6,17,20)           56.4859         estimate D2E/DX2                !
 ! D58   D(9,6,17,18)           51.1804         estimate D2E/DX2                !
 ! D59   D(9,6,17,19)          -66.372          estimate D2E/DX2                !
 ! D60   D(9,6,17,20)          176.0713         estimate D2E/DX2                !
 ! D61   D(4,12,30,28)         -62.2089         estimate D2E/DX2                !
 ! D62   D(14,12,30,28)        164.0222         estimate D2E/DX2                !
 ! D63   D(6,17,18,21)          91.2222         estimate D2E/DX2                !
 ! D64   D(19,17,18,21)       -151.4369         estimate D2E/DX2                !
 ! D65   D(20,17,18,21)        -33.1608         estimate D2E/DX2                !
 ! D66   D(17,18,28,29)         91.6058         estimate D2E/DX2                !
 ! D67   D(17,18,28,30)        -15.9005         estimate D2E/DX2                !
 ! D68   D(1,23,24,26)         -33.4614         estimate D2E/DX2                !
 ! D69   D(23,24,26,25)          4.4093         estimate D2E/DX2                !
 ! D70   D(23,24,26,27)       -106.3637         estimate D2E/DX2                !
 ! D71   D(2,25,26,24)          -7.0813         estimate D2E/DX2                !
 ! D72   D(2,25,26,27)          98.9731         estimate D2E/DX2                !
 ! D73   D(21,28,30,12)         -0.7594         estimate D2E/DX2                !
 ! D74   D(29,28,30,12)       -110.4102         estimate D2E/DX2                !
 --------------------------------------------------------------------------------
 Trust Radius=3.00D-01 FncErr=1.00D-07 GrdErr=1.00D-06
 Number of steps in this run=    180 maximum allowed number of steps=    180.
 GradGradGradGradGradGradGradGradGradGradGradGradGradGradGradGradGradGrad

                          Input orientation:                          
 ---------------------------------------------------------------------
 Center     Atomic      Atomic             Coordinates (Angstroms)
 Number     Number       Type             X           Y           Z
 ---------------------------------------------------------------------
      1          6           0       -1.500420   -0.121910   -0.988480
      2          8           0       -1.020860    0.809710    0.402170
      3          6           0       -0.962780   -1.496050   -0.582280
      4          6           0        0.503170   -1.534690   -0.121110
      5          6           0        0.807110   -0.560580    1.034860
      6          6           0        0.362550    0.891630    0.786850
      7          1           0       -1.052610   -2.122410   -1.491310
      8          1           0        1.886000   -0.550390    1.218260
      9          1           0        0.389730    1.389000    1.762050
     10          1           0        0.720550   -2.541310    0.257740
     11          8           0       -1.800930   -2.001030    0.441740
     12          8           0        1.357700   -1.238290   -1.244510
     13          8           0        0.199760   -1.071000    2.210550
     14          1           0        1.233290   -1.937280   -1.906770
     15          1           0       -2.652300   -1.537240    0.267120
     16          1           0       -0.711740   -1.323730    1.963660
     17          6           0        1.199280    1.738900   -0.185440
     18          8           0        2.464640    1.999150    0.376830
     19          1           0        0.682960    2.698570   -0.324170
     20          1           0        1.273150    1.260430   -1.170620
     21          1           0        3.073610    1.283470    0.087480
     22          1           0       -0.898890    0.403900   -1.747040
     23          8           0       -2.766970   -0.037210   -1.006630
     24          1           0       -3.078870    1.497570   -0.692980
     25          1           0       -1.577750    1.666650    0.302930
     26          8           0       -2.827720    2.348540   -0.212300
     27          1           0       -3.477550    2.440350    0.501610
     28          8           0        3.888020   -0.134460   -0.706770
     29          1           0        4.261650    0.202450   -1.535020
     30          1           0        3.099530   -0.652910   -0.972200
 ---------------------------------------------------------------------
                    Distance matrix (angstroms):
                    1          2          3          4          5
     1  C    0.000000
     2  O    1.741207   0.000000
     3  C    1.530463   2.507797   0.000000
     4  C    2.600510   2.844767   1.537264   0.000000
     5  C    3.100166   2.370541   2.573472   1.541926   0.000000
     6  C    2.765812   1.438233   3.054838   2.594454   1.538849
     7  H    2.110775   3.490502   1.107579   2.154835   3.504198
     8  H    4.064620   3.311451   3.500252   2.162170   1.094414
     9  H    3.663459   2.043187   3.955841   3.479529   2.122233
    10  H    3.512729   3.779246   2.152162   1.097299   2.129483
    11  O    2.380531   2.917248   1.416375   2.417261   3.037855
    12  O    3.079075   3.544490   2.426853   1.442256   2.440895
    13  O    3.745020   2.880490   3.054843   2.396603   1.418326
    14  H    3.407638   4.237729   2.602245   1.970720   3.275686
    15  H    2.215066   2.861470   1.891469   3.179264   3.675705
    16  H    3.283522   2.661836   2.564084   2.422143   1.937001
    17  C    3.375777   2.477438   3.911123   3.347402   2.632591
    18  O    4.699433   3.682950   4.988339   4.072264   3.119716
    19  H    3.628163   2.645442   4.513305   4.241939   3.533332
    20  H    3.104308   2.817676   3.597737   3.083348   2.897829
    21  H    4.904542   4.133783   4.946388   3.820039   3.071656
    22  H    1.101693   2.190585   2.229475   2.892672   3.402885
    23  O    1.269509   2.398102   2.358684   3.704107   4.149174
    24  H    2.280689   2.430619   3.667677   4.727859   4.724643
    25  H    2.207412   1.026801   3.341326   3.841694   3.344224
    26  O    2.909863   2.451594   4.289028   5.116895   4.819790
    27  H    3.562946   2.950288   4.795220   5.659934   5.258160
    28  O    5.395814   5.120382   5.039810   3.709562   3.564668
    29  H    5.797014   5.659186   5.575597   4.375268   4.372682
    30  H    4.630525   4.583205   4.167168   2.871058   3.048279
                    6          7          8          9         10
     6  C    0.000000
     7  H    4.034492   0.000000
     8  H    2.141597   4.295165   0.000000
     9  H    1.095048   4.999470   2.509136   0.000000
    10  H    3.491876   2.525619   2.498927   4.221342   0.000000
    11  O    3.628668   2.076391   4.037424   4.246706   2.585270
    12  O    3.106977   2.579181   2.611043   4.108409   2.088199
    13  O    2.430090   4.046932   2.024618   2.507756   2.499300
    14  H    4.002063   2.330712   3.480705   5.023542   2.304964
    15  H    3.906258   2.448164   4.740750   4.477906   3.519142
    16  H    2.728883   3.562429   2.811037   2.934755   2.538527
    17  C    1.537313   4.656825   2.771788   2.137877   4.329641
    18  O    2.411120   5.731339   2.746449   2.568340   4.865368
    19  H    2.145241   5.255118   3.792379   2.480579   5.272227
    20  H    2.190181   4.117719   3.059641   3.065537   4.098635
    21  H    2.827102   5.578377   2.460106   3.165207   4.493865
    22  H    2.872231   2.543869   4.178431   3.865834   3.913565
    23  O    3.724676   2.742627   5.183013   4.434458   4.475706
    24  H    3.794790   4.224608   5.700606   4.250899   5.626012
    25  H    2.144667   4.225168   4.213153   2.465177   4.794909
    26  O    3.646740   4.977577   5.715720   3.894966   6.059851
    27  H    4.150453   5.538126   6.182700   4.201178   6.519237
    28  O    3.963925   5.383054   2.808349   4.544671   4.093418
    29  H    4.590101   5.800711   3.713628   5.222101   4.825101
    30  H    3.601516   4.434994   2.506248   4.357584   3.276943
                   11         12         13         14         15
    11  O    0.000000
    12  O    3.660895   0.000000
    13  O    2.827792   3.647773   0.000000
    14  H    3.837454   0.970903   4.332545   0.000000
    15  H    0.985101   4.295870   3.482606   4.470306   0.000000
    16  H    1.990304   3.818669   0.977578   4.374907   2.586428
    17  C    4.835462   3.163919   3.825617   4.059364   5.076669
    18  O    5.848140   3.786169   4.232970   4.714502   6.221026
    19  H    5.370528   4.098923   4.568145   4.929360   5.423621
    20  H    4.763066   2.501242   4.245002   3.281593   5.030230
    21  H    5.888513   3.328336   4.279015   4.211537   6.385509
    22  H    3.374629   2.835758   4.364044   3.170620   3.301411
    23  O    2.624423   4.302567   4.496716   4.519137   1.971212
    24  H    3.893703   5.241399   5.077150   5.645016   3.211515
    25  H    3.677085   4.410228   3.780646   5.076715   3.379475
    26  O    4.516727   5.607900   5.170018   6.142580   3.919171
    27  H    4.747683   6.321469   5.364016   6.867019   4.069060
    28  O    6.096500   2.812494   4.794906   3.426040   6.759589
    29  H    6.746687   3.254697   5.670090   3.726608   7.353702
    30  H    5.275525   1.857631   4.325894   2.450690   5.949916
                   16         17         18         19         20
    16  H    0.000000
    17  C    4.201230   0.000000
    18  O    4.863019   1.408905   0.000000
    19  H    4.833038   1.098544   2.038375   0.000000
    20  H    4.521215   1.097711   2.088051   1.770042   0.000000
    21  H    4.964516   1.948080   0.983242   2.808411   2.196589
    22  H    4.097441   2.936518   4.285905   3.129268   2.404924
    23  O    3.834283   4.422676   5.781909   4.455588   4.246567
    24  H    4.541010   4.314905   5.668031   3.966080   4.384570
    25  H    3.528508   2.820571   4.056715   2.562991   3.234810
    26  O    4.764215   4.072973   5.336499   3.529860   4.349655
    27  H    4.894445   4.778787   5.959853   4.249522   5.172786
    28  O    5.450078   3.318220   2.784330   4.294747   2.999737
    29  H    6.269338   3.682412   3.180023   4.528112   3.191119
    30  H    4.857474   3.154472   3.042432   4.182364   2.652528
                   21         22         23         24         25
    21  H    0.000000
    22  H    4.463167   0.000000
    23  O    6.087171   2.057306   0.000000
    24  H    6.205479   2.656966   1.597250   0.000000
    25  H    4.672087   2.501553   2.456080   1.809361   0.000000
    26  O    6.004160   3.139656   2.515244   1.009098   1.514220
    27  H    6.665401   3.981588   2.986305   1.573158   2.060904
    28  O    1.817862   4.928134   6.662452   7.155506   5.842785
    29  H    2.283101   5.168821   7.052527   7.501307   6.294484
    30  H    2.207524   4.207682   5.898821   6.547912   5.374315
                   26         27         28         29         30
    26  O    0.000000
    27  H    0.969730   0.000000
    28  O    7.177113   7.895660   0.000000
    29  H    7.524258   8.309710   0.969075   0.000000
    30  H    6.687185   7.416088   0.980286   1.548848   0.000000
 Stoichiometry    C6H16O8
 Framework group  C1[X(C6H16O8)]
 Deg. of freedom    84
 Full point group                 C1      NOp   1
 Largest Abelian subgroup         C1      NOp   1
 Largest concise Abelian subgroup C1      NOp   1
                         Standard orientation:                         
 ---------------------------------------------------------------------
 Center     Atomic      Atomic             Coordinates (Angstroms)
 Number     Number       Type             X           Y           Z
 ---------------------------------------------------------------------
      1          6           0       -1.516403   -0.142140   -0.968308
      2          8           0       -1.035035    0.801286    0.413731
      3          6           0       -0.974568   -1.511901   -0.552992
      4          6           0        0.492748   -1.543729   -0.095662
      5          6           0        0.797747   -0.560020    1.051870
      6          6           0        0.349259    0.889239    0.793872
      7          1           0       -1.065542   -2.145484   -1.456887
      8          1           0        1.877120   -0.546028    1.232150
      9          1           0        0.378057    1.394211    1.765111
     10          1           0        0.713430   -2.546900    0.290360
     11          8           0       -1.808724   -2.010778    0.477262
     12          8           0        1.343471   -1.254160   -1.223723
     13          8           0        0.194826   -1.062652    2.233181
     14          1           0        1.218769   -1.958535   -1.880197
     15          1           0       -2.661610   -1.550235    0.301451
     16          1           0       -0.716795   -1.319299    1.990821
     17          6           0        1.181377    1.730793   -0.187300
     18          8           0        2.447721    1.998185    0.369376
     19          1           0        0.662533    2.688216   -0.332005
     20          1           0        1.253559    1.244865   -1.168949
     21          1           0        3.057473    1.281630    0.083865
     22          1           0       -0.918170    0.379101   -1.732606
     23          8           0       -2.783185   -0.060380   -0.983550
     24          1           0       -3.097627    1.476093   -0.680919
     25          1           0       -1.594109    1.656200    0.309425
     26          8           0       -2.847031    2.331315   -0.207553
     27          1           0       -3.495066    2.427221    0.507450
     28          8           0        3.872818   -0.140612   -0.701668
     29          1           0        4.243379    0.190692   -1.533550
     30          1           0        3.084747   -0.662843   -0.960856
 ---------------------------------------------------------------------
 Rotational constants (GHZ):      0.8233912      0.4902524      0.4031823
 Standard basis: 6-31G(d) (6D, 7F)
 There are   242 symmetry adapted cartesian basis functions of A   symmetry.
 There are   242 symmetry adapted basis functions of A   symmetry.
   242 basis functions,   456 primitive gaussians,   242 cartesian basis functions
    58 alpha electrons       58 beta electrons
       nuclear repulsion energy      1125.6466350350 Hartrees.
 NAtoms=   30 NActive=   30 NUniq=   30 SFac= 1.00D+00 NAtFMM=   60 NAOKFM=F Big=F
 Integral buffers will be    131072 words long.
 Raffenetti 2 integral format.
 Two-electron integral symmetry is turned on.
 One-electron integrals computed using PRISM.
 NBasis=   242 RedAO= T EigKep=  1.85D-03  NBF=   242
 NBsUse=   242 1.00D-06 EigRej= -1.00D+00 NBFU=   242
 ExpMin= 1.61D-01 ExpMax= 5.48D+03 ExpMxC= 8.25D+02 IAcc=1 IRadAn=         1 AccDes= 0.00D+00
 Harris functional with IExCor=  402 and IRadAn=       1 diagonalized for initial guess.
 HarFok:  IExCor=  402 AccDes= 0.00D+00 IRadAn=         1 IDoV= 1 UseB2=F ITyADJ=14
 ICtDFT=  3500011 ScaDFX=  1.000000  1.000000  1.000000  1.000000
 FoFCou: FMM=F IPFlag=           0 FMFlag=      100000 FMFlg1=           0
         NFxFlg=           0 DoJE=T BraDBF=F KetDBF=T FulRan=T
         wScrn=  0.000000 ICntrl=     500 IOpCl=  0 I1Cent=   200000004 NGrid=           0
         NMat0=    1 NMatS0=      1 NMatT0=    0 NMatD0=    1 NMtDS0=    0 NMtDT0=    0
 Petite list used in FoFCou.
 Requested convergence on RMS density matrix=1.00D-08 within 128 cycles.
 Requested convergence on MAX density matrix=1.00D-06.
 Requested convergence on             energy=1.00D-06.
 No special actions if energy rises.
 Integral accuracy reduced to 1.0D-05 until final iterations.
 Initial convergence to 1.0D-05 achieved.  Increase integral accuracy.
 SCF Done:  E(RB3LYP) =  -839.969280395     A.U. after   14 cycles
            NFock= 14  Conv=0.71D-08     -V/T= 2.0084

 **********************************************************************

            Population analysis using the SCF density.

 **********************************************************************

 Orbital symmetries:
       Occupied  (A) (A) (A) (A) (A) (A) (A) (A) (A) (A) (A) (A)
                 (A) (A) (A) (A) (A) (A) (A) (A) (A) (A) (A) (A)
                 (A) (A) (A) (A) (A) (A) (A) (A) (A) (A) (A) (A)
                 (A) (A) (A) (A) (A) (A) (A) (A) (A) (A) (A) (A)
                 (A) (A) (A) (A) (A) (A) (A) (A) (A) (A)
       Virtual   (A) (A) (A) (A) (A) (A) (A) (A) (A) (A) (A) (A)
                 (A) (A) (A) (A) (A) (A) (A) (A) (A) (A) (A) (A)
                 (A) (A) (A) (A) (A) (A) (A) (A) (A) (A) (A) (A)
                 (A) (A) (A) (A) (A) (A) (A) (A) (A) (A) (A) (A)
                 (A) (A) (A) (A) (A) (A) (A) (A) (A) (A) (A) (A)
                 (A) (A) (A) (A) (A) (A) (A) (A) (A) (A) (A) (A)
                 (A) (A) (A) (A) (A) (A) (A) (A) (A) (A) (A) (A)
                 (A) (A) (A) (A) (A) (A) (A) (A) (A) (A) (A) (A)
                 (A) (A) (A) (A) (A) (A) (A) (A) (A) (A) (A) (A)
                 (A) (A) (A) (A) (A) (A) (A) (A) (A) (A) (A) (A)
                 (A) (A) (A) (A) (A) (A) (A) (A) (A) (A) (A) (A)
                 (A) (A) (A) (A) (A) (A) (A) (A) (A) (A) (A) (A)
                 (A) (A) (A) (A) (A) (A) (A) (A) (A) (A) (A) (A)
                 (A) (A) (A) (A) (A) (A) (A) (A) (A) (A) (A) (A)
                 (A) (A) (A) (A) (A) (A) (A) (A) (A) (A) (A) (A)
                 (A) (A) (A) (A)
 The electronic state is 1-A.
 Alpha  occ. eigenvalues --  -19.19867 -19.19638 -19.16236 -19.16182 -19.15990
 Alpha  occ. eigenvalues --  -19.13687 -19.12378 -19.11783 -10.29435 -10.26409
 Alpha  occ. eigenvalues --  -10.25513 -10.24697 -10.24673 -10.23040  -1.08375
 Alpha  occ. eigenvalues --   -1.06484  -1.04188  -1.02366  -1.01923  -1.01217
 Alpha  occ. eigenvalues --   -0.99943  -0.99619  -0.78982  -0.75803  -0.69767
 Alpha  occ. eigenvalues --   -0.65485  -0.62941  -0.59276  -0.55624  -0.55007
 Alpha  occ. eigenvalues --   -0.54704  -0.53256  -0.51722  -0.51377  -0.49838
 Alpha  occ. eigenvalues --   -0.48344  -0.47776  -0.46397  -0.45002  -0.42751
 Alpha  occ. eigenvalues --   -0.42346  -0.41550  -0.40351  -0.40058  -0.38725
 Alpha  occ. eigenvalues --   -0.37337  -0.36045  -0.34159  -0.33832  -0.33617
 Alpha  occ. eigenvalues --   -0.32686  -0.32269  -0.30129  -0.28556  -0.28089
 Alpha  occ. eigenvalues --   -0.27058  -0.25516  -0.24930
 Alpha virt. eigenvalues --    0.01993   0.03576   0.06240   0.06823   0.08670
 Alpha virt. eigenvalues --    0.10766   0.11405   0.11848   0.13063   0.14484
 Alpha virt. eigenvalues --    0.15391   0.16057   0.17356   0.17777   0.18383
 Alpha virt. eigenvalues --    0.19785   0.22127   0.22550   0.23587   0.24067
 Alpha virt. eigenvalues --    0.24762   0.25103   0.26043   0.26614   0.28798
 Alpha virt. eigenvalues --    0.30241   0.30846   0.34857   0.50415   0.53237
 Alpha virt. eigenvalues --    0.54256   0.56067   0.56549   0.57012   0.58720
 Alpha virt. eigenvalues --    0.59178   0.61579   0.62852   0.63287   0.65206
 Alpha virt. eigenvalues --    0.67080   0.69665   0.70988   0.73775   0.74613
 Alpha virt. eigenvalues --    0.75171   0.76316   0.77847   0.79756   0.79880
 Alpha virt. eigenvalues --    0.81340   0.82315   0.83640   0.84042   0.85551
 Alpha virt. eigenvalues --    0.86281   0.86977   0.87618   0.88595   0.88848
 Alpha virt. eigenvalues --    0.89774   0.92159   0.93043   0.93839   0.94152
 Alpha virt. eigenvalues --    0.96154   0.98286   1.02045   1.02458   1.04331
 Alpha virt. eigenvalues --    1.05401   1.05937   1.07107   1.09772   1.10403
 Alpha virt. eigenvalues --    1.11502   1.12619   1.12872   1.13797   1.15300
 Alpha virt. eigenvalues --    1.17185   1.19440   1.23244   1.23545   1.24855
 Alpha virt. eigenvalues --    1.27843   1.28764   1.31584   1.35396   1.37143
 Alpha virt. eigenvalues --    1.38541   1.40652   1.42993   1.45833   1.47706
 Alpha virt. eigenvalues --    1.52729   1.53629   1.55715   1.57444   1.58709
 Alpha virt. eigenvalues --    1.60365   1.62155   1.65127   1.66920   1.69043
 Alpha virt. eigenvalues --    1.70236   1.70831   1.71099   1.72343   1.73189
 Alpha virt. eigenvalues --    1.74187   1.74606   1.76530   1.78077   1.79270
 Alpha virt. eigenvalues --    1.80704   1.81647   1.82204   1.84289   1.84428
 Alpha virt. eigenvalues --    1.88281   1.90432   1.92146   1.92552   1.95417
 Alpha virt. eigenvalues --    1.97379   1.99684   2.00889   2.04453   2.07351
 Alpha virt. eigenvalues --    2.07634   2.08975   2.12036   2.14315   2.16101
 Alpha virt. eigenvalues --    2.16919   2.20012   2.20419   2.23094   2.28499
 Alpha virt. eigenvalues --    2.28846   2.32647   2.34197   2.37185   2.37750
 Alpha virt. eigenvalues --    2.41892   2.43089   2.44929   2.47226   2.48257
 Alpha virt. eigenvalues --    2.50229   2.51945   2.53517   2.58511   2.59616
 Alpha virt. eigenvalues --    2.61843   2.62735   2.65030   2.68197   2.73273
 Alpha virt. eigenvalues --    2.75599   2.77357   2.80682   2.86106   2.88308
 Alpha virt. eigenvalues --    2.92093   2.95985   2.98101   3.01535   3.09456
 Alpha virt. eigenvalues --    3.72512   3.74240   3.78713   3.88189   3.91597
 Alpha virt. eigenvalues --    4.00568   4.04694   4.05988   4.29795   4.33070
 Alpha virt. eigenvalues --    4.44229   4.58504   4.70770   4.74205
          Condensed to atoms (all electrons):
               1          2          3          4          5          6
     1  C    4.759217   0.038132   0.270250  -0.020656  -0.016944  -0.000174
     2  O    0.038132   8.587441  -0.020098  -0.000936  -0.042028   0.116955
     3  C    0.270250  -0.020098   5.126570   0.280990  -0.020433  -0.019503
     4  C   -0.020656  -0.000936   0.280990   5.066258   0.308182  -0.024688
     5  C   -0.016944  -0.042028  -0.020433   0.308182   4.897407   0.300626
     6  C   -0.000174   0.116955  -0.019503  -0.024688   0.300626   5.112403
     7  H   -0.046477   0.002524   0.350133  -0.060610   0.005260  -0.000084
     8  H    0.000098   0.003581   0.004822  -0.040667   0.369724  -0.057579
     9  H    0.000855  -0.030668  -0.000114   0.005947  -0.044735   0.368349
    10  H    0.005237  -0.000128  -0.054667   0.373036  -0.051297   0.006401
    11  O   -0.021518  -0.001812   0.215509  -0.043922   0.005337  -0.000930
    12  O    0.002167  -0.000308  -0.037286   0.153920  -0.030462   0.002995
    13  O   -0.000695   0.000691   0.001334  -0.038443   0.262670  -0.045248
    14  H   -0.000984  -0.000009  -0.001613  -0.017823   0.005513  -0.000202
    15  H   -0.012108   0.001402  -0.053784   0.006339   0.000099  -0.000078
    16  H    0.000318   0.004620  -0.003616  -0.013088  -0.027591  -0.005593
    17  C   -0.002400  -0.026252   0.000333  -0.002528  -0.027697   0.285913
    18  O    0.000045   0.001660  -0.000009   0.000001  -0.000220  -0.051507
    19  H    0.000049   0.003805  -0.000004  -0.000151   0.004992  -0.048151
    20  H    0.000399   0.002578  -0.000840   0.001963  -0.010505  -0.042020
    21  H   -0.000005  -0.000049   0.000003  -0.000273   0.001852  -0.002247
    22  H    0.351141  -0.042957  -0.083915  -0.003572   0.001279   0.001815
    23  O    0.378306  -0.053478  -0.054513   0.002789   0.000192   0.001858
    24  H   -0.013118   0.006047   0.002562  -0.000082   0.000011   0.000066
    25  H   -0.006094   0.150074   0.002038  -0.000091   0.003033  -0.005898
    26  O    0.006066  -0.064226  -0.000343   0.000017  -0.000097   0.001226
    27  H   -0.000172   0.003136  -0.000024  -0.000002   0.000008   0.000016
    28  O   -0.000001   0.000000  -0.000010   0.000110   0.000140  -0.000733
    29  H    0.000000  -0.000000  -0.000000   0.000022   0.000080   0.000001
    30  H    0.000004   0.000002   0.000388  -0.001893  -0.000455  -0.000366
               7          8          9         10         11         12
     1  C   -0.046477   0.000098   0.000855   0.005237  -0.021518   0.002167
     2  O    0.002524   0.003581  -0.030668  -0.000128  -0.001812  -0.000308
     3  C    0.350133   0.004822  -0.000114  -0.054667   0.215509  -0.037286
     4  C   -0.060610  -0.040667   0.005947   0.373036  -0.043922   0.153920
     5  C    0.005260   0.369724  -0.044735  -0.051297   0.005337  -0.030462
     6  C   -0.000084  -0.057579   0.368349   0.006401  -0.000930   0.002995
     7  H    0.651828  -0.000137   0.000018  -0.006508  -0.034170  -0.000097
     8  H   -0.000137   0.576681  -0.001079  -0.006524  -0.000103   0.000236
     9  H    0.000018  -0.001079   0.572220  -0.000178   0.000016  -0.000088
    10  H   -0.006508  -0.006524  -0.000178   0.595890   0.003882  -0.029474
    11  O   -0.034170  -0.000103   0.000016   0.003882   8.299224   0.001413
    12  O   -0.000097   0.000236  -0.000088  -0.029474   0.001413   8.313334
    13  O   -0.000246  -0.034569   0.002751   0.006741  -0.015332   0.001312
    14  H    0.008023  -0.000199   0.000011  -0.005713  -0.000021   0.227756
    15  H    0.002262   0.000015  -0.000007  -0.000568   0.215730  -0.000095
    16  H    0.000867   0.005535  -0.000206  -0.001089   0.047985   0.000091
    17  C    0.000011   0.000126  -0.046785  -0.000157   0.000003  -0.004824
    18  O    0.000000   0.009128   0.006356  -0.000002   0.000000  -0.000104
    19  H   -0.000002   0.000126  -0.006767   0.000007   0.000000   0.000160
    20  H    0.000018   0.000593   0.006207   0.000053   0.000000   0.008453
    21  H    0.000000   0.001677  -0.000429  -0.000000  -0.000000   0.000169
    22  H    0.005189   0.000000  -0.000154  -0.000208   0.003141   0.005486
    23  O   -0.002226   0.000001  -0.000090  -0.000069  -0.023386   0.000023
    24  H   -0.000070  -0.000000  -0.000034   0.000002   0.000063   0.000001
    25  H   -0.000093  -0.000043  -0.003250   0.000012   0.000040  -0.000013
    26  O    0.000004   0.000001   0.000138  -0.000000  -0.000010   0.000000
    27  H   -0.000000  -0.000000  -0.000012   0.000000   0.000004   0.000000
    28  O    0.000001   0.003102   0.000003  -0.000002   0.000000  -0.017586
    29  H   -0.000000  -0.000183  -0.000000  -0.000001  -0.000000   0.000638
    30  H   -0.000026   0.000688  -0.000019  -0.000030  -0.000003   0.052117
              13         14         15         16         17         18
     1  C   -0.000695  -0.000984  -0.012108   0.000318  -0.002400   0.000045
     2  O    0.000691  -0.000009   0.001402   0.004620  -0.026252   0.001660
     3  C    0.001334  -0.001613  -0.053784  -0.003616   0.000333  -0.000009
     4  C   -0.038443  -0.017823   0.006339  -0.013088  -0.002528   0.000001
     5  C    0.262670   0.005513   0.000099  -0.027591  -0.027697  -0.000220
     6  C   -0.045248  -0.000202  -0.000078  -0.005593   0.285913  -0.051507
     7  H   -0.000246   0.008023   0.002262   0.000867   0.000011   0.000000
     8  H   -0.034569  -0.000199   0.000015   0.005535   0.000126   0.009128
     9  H    0.002751   0.000011  -0.000007  -0.000206  -0.046785   0.006356
    10  H    0.006741  -0.005713  -0.000568  -0.001089  -0.000157  -0.000002
    11  O   -0.015332  -0.000021   0.215730   0.047985   0.000003   0.000000
    12  O    0.001312   0.227756  -0.000095   0.000091  -0.004824  -0.000104
    13  O    8.278739  -0.000119   0.000405   0.225659   0.003184   0.000003
    14  H   -0.000119   0.375643   0.000001   0.000016   0.000153  -0.000000
    15  H    0.000405   0.000001   0.361930  -0.000461   0.000006  -0.000000
    16  H    0.225659   0.000016  -0.000461   0.345862   0.000058  -0.000003
    17  C    0.003184   0.000153   0.000006   0.000058   4.943889   0.254740
    18  O    0.000003  -0.000000  -0.000000  -0.000003   0.254740   8.305295
    19  H   -0.000068  -0.000009  -0.000000   0.000000   0.365103  -0.035808
    20  H   -0.000015   0.000219  -0.000000  -0.000000   0.348100  -0.029175
    21  H   -0.000000  -0.000011   0.000000   0.000001  -0.025367   0.214632
    22  H   -0.000027   0.000434   0.003034   0.000070   0.001829  -0.000015
    23  O    0.000009  -0.000012   0.061819   0.000019  -0.000033   0.000000
    24  H    0.000001  -0.000000  -0.000859  -0.000007  -0.000017  -0.000000
    25  H   -0.000118  -0.000000  -0.000091  -0.000064  -0.000982   0.000017
    26  O    0.000000  -0.000000   0.000221   0.000003  -0.000153   0.000000
    27  H   -0.000000   0.000000  -0.000021  -0.000001  -0.000002  -0.000000
    28  O    0.000004   0.000844  -0.000000  -0.000000   0.002542  -0.024285
    29  H   -0.000000  -0.000038   0.000000   0.000000   0.000076   0.001593
    30  H    0.000000  -0.002515   0.000000   0.000000   0.000635   0.002273
              19         20         21         22         23         24
     1  C    0.000049   0.000399  -0.000005   0.351141   0.378306  -0.013118
     2  O    0.003805   0.002578  -0.000049  -0.042957  -0.053478   0.006047
     3  C   -0.000004  -0.000840   0.000003  -0.083915  -0.054513   0.002562
     4  C   -0.000151   0.001963  -0.000273  -0.003572   0.002789  -0.000082
     5  C    0.004992  -0.010505   0.001852   0.001279   0.000192   0.000011
     6  C   -0.048151  -0.042020  -0.002247   0.001815   0.001858   0.000066
     7  H   -0.000002   0.000018   0.000000   0.005189  -0.002226  -0.000070
     8  H    0.000126   0.000593   0.001677   0.000000   0.000001  -0.000000
     9  H   -0.006767   0.006207  -0.000429  -0.000154  -0.000090  -0.000034
    10  H    0.000007   0.000053  -0.000000  -0.000208  -0.000069   0.000002
    11  O    0.000000   0.000000  -0.000000   0.003141  -0.023386   0.000063
    12  O    0.000160   0.008453   0.000169   0.005486   0.000023   0.000001
    13  O   -0.000068  -0.000015  -0.000000  -0.000027   0.000009   0.000001
    14  H   -0.000009   0.000219  -0.000011   0.000434  -0.000012  -0.000000
    15  H   -0.000000  -0.000000   0.000000   0.003034   0.061819  -0.000859
    16  H    0.000000  -0.000000   0.000001   0.000070   0.000019  -0.000007
    17  C    0.365103   0.348100  -0.025367   0.001829  -0.000033  -0.000017
    18  O   -0.035808  -0.029175   0.214632  -0.000015   0.000000  -0.000000
    19  H    0.607248  -0.041964   0.005192   0.000062   0.000001   0.000023
    20  H   -0.041964   0.627596  -0.006545   0.002459   0.000004  -0.000006
    21  H    0.005192  -0.006545   0.318742  -0.000007  -0.000000   0.000000
    22  H    0.000062   0.002459  -0.000007   0.677919  -0.051020  -0.003014
    23  O    0.000001   0.000004  -0.000000  -0.051020   8.312781   0.089454
    24  H    0.000023  -0.000006   0.000000  -0.003014   0.089454   0.320254
    25  H    0.003853  -0.000284   0.000003   0.000886   0.006088  -0.015634
    26  O    0.000144   0.000016  -0.000000   0.000789  -0.052706   0.180146
    27  H   -0.000008  -0.000000   0.000000   0.000001   0.003082  -0.008772
    28  O    0.000015   0.003811   0.067174  -0.000001   0.000000   0.000000
    29  H    0.000005   0.000094  -0.003688  -0.000001  -0.000000  -0.000000
    30  H    0.000034  -0.000769  -0.005752  -0.000028   0.000000  -0.000000
              25         26         27         28         29         30
     1  C   -0.006094   0.006066  -0.000172  -0.000001   0.000000   0.000004
     2  O    0.150074  -0.064226   0.003136   0.000000  -0.000000   0.000002
     3  C    0.002038  -0.000343  -0.000024  -0.000010  -0.000000   0.000388
     4  C   -0.000091   0.000017  -0.000002   0.000110   0.000022  -0.001893
     5  C    0.003033  -0.000097   0.000008   0.000140   0.000080  -0.000455
     6  C   -0.005898   0.001226   0.000016  -0.000733   0.000001  -0.000366
     7  H   -0.000093   0.000004  -0.000000   0.000001  -0.000000  -0.000026
     8  H   -0.000043   0.000001  -0.000000   0.003102  -0.000183   0.000688
     9  H   -0.003250   0.000138  -0.000012   0.000003  -0.000000  -0.000019
    10  H    0.000012  -0.000000   0.000000  -0.000002  -0.000001  -0.000030
    11  O    0.000040  -0.000010   0.000004   0.000000  -0.000000  -0.000003
    12  O   -0.000013   0.000000   0.000000  -0.017586   0.000638   0.052117
    13  O   -0.000118   0.000000  -0.000000   0.000004  -0.000000   0.000000
    14  H   -0.000000  -0.000000   0.000000   0.000844  -0.000038  -0.002515
    15  H   -0.000091   0.000221  -0.000021  -0.000000   0.000000   0.000000
    16  H   -0.000064   0.000003  -0.000001  -0.000000   0.000000   0.000000
    17  C   -0.000982  -0.000153  -0.000002   0.002542   0.000076   0.000635
    18  O    0.000017   0.000000  -0.000000  -0.024285   0.001593   0.002273
    19  H    0.003853   0.000144  -0.000008   0.000015   0.000005   0.000034
    20  H   -0.000284   0.000016  -0.000000   0.003811   0.000094  -0.000769
    21  H    0.000003  -0.000000   0.000000   0.067174  -0.003688  -0.005752
    22  H    0.000886   0.000789   0.000001  -0.000001  -0.000001  -0.000028
    23  O    0.006088  -0.052706   0.003082   0.000000  -0.000000   0.000000
    24  H   -0.015634   0.180146  -0.008772   0.000000  -0.000000  -0.000000
    25  H    0.299239   0.110865  -0.005138  -0.000000   0.000000   0.000000
    26  O    0.110865   8.395093   0.236629   0.000000   0.000000  -0.000000
    27  H   -0.005138   0.236629   0.366950   0.000000  -0.000000  -0.000000
    28  O   -0.000000   0.000000   0.000000   8.320605   0.240163   0.212148
    29  H    0.000000   0.000000  -0.000000   0.240163   0.376954  -0.013988
    30  H    0.000000  -0.000000  -0.000000   0.212148  -0.013988   0.326434
 Mulliken charges:
               1
     1  C    0.329062
     2  O   -0.639701
     3  C    0.095842
     4  C    0.069850
     5  C    0.106060
     6  C    0.106376
     7  H    0.124607
     8  H    0.164950
     9  H    0.171744
    10  H    0.165353
    11  O   -0.651140
    12  O   -0.649933
    13  O   -0.648622
    14  H    0.410659
    15  H    0.414809
    16  H    0.420616
    17  C   -0.069503
    18  O   -0.654615
    19  H    0.142112
    20  H    0.129562
    21  H    0.434931
    22  H    0.129387
    23  O   -0.618893
    24  H    0.442986
    25  H    0.461645
    26  O   -0.813820
    27  H    0.404327
    28  O   -0.808044
    29  H    0.398273
    30  H    0.431121
 Sum of Mulliken charges =  -0.00000
 Mulliken charges with hydrogens summed into heavy atoms:
               1
     1  C    0.458449
     2  O   -0.178056
     3  C    0.220448
     4  C    0.235204
     5  C    0.271011
     6  C    0.278120
    11  O   -0.236330
    12  O   -0.239274
    13  O   -0.228007
    17  C    0.202172
    18  O   -0.219684
    23  O   -0.618893
    26  O    0.033493
    28  O    0.021349
 Electronic spatial extent (au):  <R**2>=           3033.0471
 Charge=              0.0000 electrons
 Dipole moment (field-independent basis, Debye):
    X=             -0.4442    Y=             -1.3198    Z=             -3.5293  Tot=              3.7941
 Quadrupole moment (field-independent basis, Debye-Ang):
   XX=            -84.9960   YY=            -86.2384   ZZ=            -82.5269
   XY=             -8.6771   XZ=            -16.8928   YZ=              8.3507
 Traceless Quadrupole moment (field-independent basis, Debye-Ang):
   XX=             -0.4089   YY=             -1.6513   ZZ=              2.0602
   XY=             -8.6771   XZ=            -16.8928   YZ=              8.3507
 Octapole moment (field-independent basis, Debye-Ang**2):
  XXX=            -25.9079  YYY=            -18.9020  ZZZ=            -29.1811  XYY=             -7.8658
  XXY=             10.1239  XXZ=             -6.8102  XZZ=             13.8847  YZZ=              0.6349
  YYZ=             -9.3493  XYZ=            -11.0160
 Hexadecapole moment (field-independent basis, Debye-Ang**3):
 XXXX=          -1806.0098 YYYY=          -1105.6921 ZZZZ=           -541.1743 XXXY=            -65.4835
 XXXZ=           -233.1486 YYYX=            -75.2031 YYYZ=             52.1236 ZZZX=            -72.3095
 ZZZY=             36.2206 XXYY=           -511.5930 XXZZ=           -344.3666 YYZZ=           -245.5519
 XXYZ=             13.3932 YYXZ=            -52.1859 ZZXY=            -11.3159
 N-N= 1.125646635035D+03 E-N=-4.223323692055D+03  KE= 8.329569765716D+02
 Calling FoFJK, ICntrl=      2127 FMM=F ISym2X=0 I1Cent= 0 IOpClX= 0 NMat=1 NMatS=1 NMatT=0.
 ***** Axes restored to original set *****
 -------------------------------------------------------------------
 Center     Atomic                   Forces (Hartrees/Bohr)
 Number     Number              X              Y              Z
 -------------------------------------------------------------------
      1        6          -0.004837647   -0.007659999   -0.009898572
      2        8           0.004489596    0.000372391    0.009880802
      3        6           0.000112479   -0.002560465   -0.001041442
      4        6           0.000115273    0.001026181    0.000106993
      5        6           0.001126488    0.000294143    0.000607758
      6        6           0.002788197    0.001009051    0.003021673
      7        1           0.000272534   -0.000631989    0.000163197
      8        1           0.000092915   -0.000191315    0.000045137
      9        1           0.000738658    0.000040906    0.000248604
     10        1           0.000020933    0.000089266    0.000036396
     11        8           0.000355194   -0.000325180   -0.000085126
     12        8          -0.000051263    0.000360020   -0.000186108
     13        8           0.000163526   -0.000098390    0.000071651
     14        1           0.000058276   -0.000059503    0.000056724
     15        1           0.000009383   -0.000060001    0.000065956
     16        1          -0.000042871    0.000193008   -0.000013078
     17        6           0.000619193   -0.000009412    0.000717757
     18        8           0.001332708    0.000724316   -0.000680206
     19        1           0.000026387   -0.000011991    0.000037696
     20        1          -0.000024490   -0.000064873    0.000078313
     21        1           0.000054584    0.000023846   -0.000014106
     22        1          -0.000328487   -0.000055316   -0.000250806
     23        8          -0.001607282   -0.006100365   -0.003499479
     24        1          -0.000199115    0.001579249    0.000232280
     25        1           0.000996425   -0.000000312    0.000421893
     26        8          -0.005951470    0.011626226   -0.000144220
     27        1          -0.000364496    0.000495945    0.000019501
     28        8           0.000036330   -0.000018322    0.000003897
     29        1           0.000013946   -0.000010927   -0.000002731
     30        1          -0.000015904    0.000023813   -0.000000354
 -------------------------------------------------------------------
 Cartesian Forces:  Max     0.011626226 RMS     0.002491504

 GradGradGradGradGradGradGradGradGradGradGradGradGradGradGradGradGradGrad
 Berny optimization.
 FormGI is forming the generalized inverse of G from B-inverse, IUseBI=4.
 Internal  Forces:  Max     0.012288110 RMS     0.003083820
 Search for a local minimum.
 Step number   1 out of a maximum of  180
 All quantities printed in internal units (Hartrees-Bohrs-Radians)
 Mixed Optimization -- RFO/linear search
 Second derivative matrix not updated -- first step.
 ITU=  0
     Eigenvalues ---    0.00282   0.00326   0.00428   0.00513   0.00552
     Eigenvalues ---    0.00645   0.00887   0.00977   0.01275   0.01449
     Eigenvalues ---    0.01475   0.01606   0.01787   0.02356   0.02470
     Eigenvalues ---    0.03709   0.03829   0.04088   0.04246   0.04520
     Eigenvalues ---    0.04624   0.04744   0.05248   0.05296   0.05627
     Eigenvalues ---    0.05904   0.06038   0.06268   0.07203   0.07640
     Eigenvalues ---    0.07703   0.08253   0.08689   0.09033   0.09377
     Eigenvalues ---    0.09549   0.09933   0.10081   0.11206   0.11357
     Eigenvalues ---    0.11933   0.13283   0.14027   0.14523   0.15974
     Eigenvalues ---    0.16000   0.16000   0.16444   0.17245   0.17835
     Eigenvalues ---    0.18046   0.18322   0.19394   0.20352   0.20615
     Eigenvalues ---    0.21305   0.22975   0.27135   0.27798   0.28335
     Eigenvalues ---    0.28496   0.29143   0.32858   0.33496   0.33844
     Eigenvalues ---    0.33936   0.33983   0.34236   0.34307   0.38347
     Eigenvalues ---    0.39138   0.42467   0.42713   0.43011   0.43264
     Eigenvalues ---    0.45652   0.49342   0.50405   0.50407   0.51858
     Eigenvalues ---    0.53193   0.53432   0.53566   0.74662
 RFO step:  Lambda=-1.36343133D-02 EMin= 2.81690748D-03
 Linear search not attempted -- first point.
 Iteration  1 RMS(Cart)=  0.08870122 RMS(Int)=  0.00286243
 Iteration  2 RMS(Cart)=  0.00406237 RMS(Int)=  0.00137382
 Iteration  3 RMS(Cart)=  0.00001241 RMS(Int)=  0.00137380
 Iteration  4 RMS(Cart)=  0.00000004 RMS(Int)=  0.00137380
 Variable       Old X    -DE/DX   Delta X   Delta X   Delta X     New X
                                 (Linear)    (Quad)   (Total)
    R1        2.89216   0.00158   0.00000   0.00839   0.00770   2.89986
    R2        2.08190  -0.00003   0.00000  -0.00010  -0.00010   2.08180
    R3        2.39902   0.00060   0.00000   0.00099   0.00080   2.39983
    R4        2.71787   0.00128   0.00000   0.00263   0.00284   2.72071
    R5        1.94037   0.00613   0.00000   0.01181   0.01246   1.95283
    R6        2.90501   0.00651   0.00000   0.02259   0.02235   2.92736
    R7        2.09302   0.00020   0.00000   0.00059   0.00059   2.09361
    R8        2.67656  -0.00009   0.00000  -0.00021  -0.00021   2.67635
    R9        2.91382   0.00931   0.00000   0.03102   0.03142   2.94524
   R10        2.07359  -0.00007   0.00000  -0.00019  -0.00019   2.07341
   R11        2.72547   0.00052   0.00000   0.00112   0.00107   2.72654
   R12        2.90800   0.00283   0.00000   0.00451   0.00554   2.91354
   R13        2.06814   0.00010   0.00000   0.00027   0.00027   2.06842
   R14        2.68025  -0.00004   0.00000  -0.00009  -0.00009   2.68016
   R15        2.06934   0.00026   0.00000   0.00073   0.00073   2.07007
   R16        2.90510   0.00131   0.00000   0.00412   0.00430   2.90940
   R17        1.86157  -0.00005   0.00000  -0.00010  -0.00010   1.86147
   R18        1.83474  -0.00000   0.00000  -0.00001  -0.00001   1.83473
   R19        3.51041   0.00060   0.00000   0.00349   0.00330   3.51371
   R20        1.84736  -0.00001   0.00000  -0.00001  -0.00001   1.84734
   R21        2.66244   0.00048   0.00000   0.00201   0.00217   2.66461
   R22        2.07595  -0.00003   0.00000  -0.00007  -0.00007   2.07587
   R23        2.07437  -0.00005   0.00000  -0.00013  -0.00013   2.07424
   R24        1.85806  -0.00092   0.00000  -0.00081  -0.00112   1.85694
   R25        3.43526  -0.00083   0.00000  -0.00579  -0.00614   3.42913
   R26        3.01837   0.01229   0.00000   0.12424   0.12371   3.14207
   R27        1.90692   0.01216   0.00000   0.02657   0.02628   1.93320
   R28        2.86146   0.00987   0.00000   0.07443   0.07496   2.93642
   R29        1.83252   0.00031   0.00000   0.00056   0.00056   1.83309
   R30        1.83129   0.00001   0.00000   0.00001   0.00001   1.83130
   R31        1.85247   0.00036   0.00000   0.00022  -0.00007   1.85240
    A1        2.00365  -0.00047   0.00000   0.01241   0.01285   2.01651
    A2        1.99783   0.00879   0.00000   0.05234   0.04478   2.04261
    A3        2.09792  -0.00353   0.00000   0.01006   0.00893   2.10685
    A4        2.09439   0.01122   0.00000   0.06537   0.06088   2.15527
    A5        2.02326   0.00336   0.00000   0.01925   0.02139   2.04465
    A6        1.83531  -0.00103   0.00000  -0.01313  -0.01247   1.82283
    A7        1.87981  -0.00011   0.00000   0.00863   0.00665   1.88646
    A8        1.88530   0.00047   0.00000  -0.00162  -0.00186   1.88344
    A9        1.91607  -0.00303   0.00000  -0.00970  -0.01061   1.90546
   A10        1.92172   0.00041   0.00000  -0.00432  -0.00408   1.91764
   A11        1.97904   0.00781   0.00000   0.06662   0.06497   2.04401
   A12        1.89183  -0.00313   0.00000  -0.02669  -0.02686   1.86497
   A13        1.90305  -0.00185   0.00000  -0.00754  -0.00724   1.89581
   A14        1.85632  -0.00212   0.00000  -0.03391  -0.03216   1.82415
   A15        1.91487  -0.00214   0.00000   0.00658   0.00569   1.92056
   A16        1.91780   0.00138   0.00000  -0.00737  -0.00831   1.90949
   A17        2.00249   0.00547   0.00000   0.04259   0.04153   2.04402
   A18        1.90269  -0.00169   0.00000  -0.01833  -0.01728   1.88541
   A19        1.88565  -0.00176   0.00000  -0.00297  -0.00371   1.88195
   A20        1.87865  -0.00201   0.00000  -0.01280  -0.01346   1.86519
   A21        1.92783  -0.00123   0.00000  -0.00622  -0.00496   1.92288
   A22        1.86145   0.00096   0.00000  -0.00572  -0.00604   1.85541
   A23        1.84132  -0.00102   0.00000  -0.01826  -0.01553   1.82579
   A24        1.86287   0.00072   0.00000   0.00605   0.00651   1.86938
   A25        1.96683   0.00047   0.00000   0.00669   0.00426   1.97110
   A26        1.85243   0.00226   0.00000   0.01684   0.01744   1.86988
   A27        2.05421  -0.00118   0.00000  -0.00671  -0.00781   2.04639
   A28        1.87487  -0.00093   0.00000  -0.00244  -0.00255   1.87232
   A29        1.78791   0.00014   0.00000   0.00081   0.00081   1.78872
   A30        1.88329  -0.00004   0.00000  -0.00429  -0.00468   1.87861
   A31        2.10150   0.00104   0.00000   0.00619   0.00649   2.10799
   A32        2.03421  -0.00127   0.00000  -0.00691  -0.00702   2.02720
   A33        1.85768  -0.00012   0.00000  -0.00067  -0.00067   1.85700
   A34        1.91583   0.00259   0.00000   0.00914   0.00933   1.92516
   A35        1.88128  -0.00049   0.00000  -0.00196  -0.00245   1.87883
   A36        1.94338  -0.00085   0.00000  -0.00260  -0.00222   1.94116
   A37        1.88720  -0.00095   0.00000  -0.00379  -0.00391   1.88329
   A38        1.95870  -0.00066   0.00000  -0.00043  -0.00046   1.95824
   A39        1.87451   0.00029   0.00000  -0.00079  -0.00077   1.87374
   A40        1.88005  -0.00039   0.00000   0.00213   0.00238   1.88244
   A41        1.82980  -0.00231   0.00000   0.00172   0.00416   1.83397
   A42        2.59684   0.00834   0.00000   0.04968   0.04731   2.64415
   A43        2.59909  -0.00205   0.00000  -0.00203  -0.00114   2.59796
   A44        1.55857   0.00696   0.00000   0.06096   0.06004   1.61862
   A45        1.83770  -0.00080   0.00000   0.00058  -0.00071   1.83698
   A46        1.92336   0.00045   0.00000   0.00190   0.00394   1.92731
   A47        1.84936   0.00049   0.00000   0.00117   0.00088   1.85024
   A48        1.74211   0.00165   0.00000   0.00473   0.00403   1.74614
   A49        1.83648  -0.00019   0.00000  -0.00098  -0.00117   1.83531
   A50        2.85980   0.00330   0.00000   0.00657   0.00659   2.86639
   A51        2.93082  -0.00003   0.00000   0.01807   0.01814   2.94896
   A52        3.04879   0.00085   0.00000   0.02574   0.02403   3.07282
    D1        0.93394  -0.00003   0.00000   0.02009   0.01989   0.95383
    D2       -1.14667  -0.00184   0.00000   0.02022   0.01876  -1.12791
    D3        3.08736  -0.00174   0.00000   0.02770   0.02658   3.11394
    D4       -2.81863   0.00565   0.00000   0.13263   0.13436  -2.68427
    D5        1.38395   0.00384   0.00000   0.13276   0.13323   1.51718
    D6       -0.66521   0.00394   0.00000   0.14024   0.14105  -0.52415
    D7        2.64400  -0.01037   0.00000  -0.13391  -0.13835   2.50566
    D8       -1.14428  -0.00287   0.00000  -0.01269  -0.01519  -1.15947
    D9        3.00040   0.00606   0.00000   0.14305   0.14611  -3.13668
   D10        1.03487   0.00366   0.00000   0.12954   0.13062   1.16549
   D11       -1.01910   0.00407   0.00000   0.12496   0.12719  -0.89191
   D12        2.87380  -0.00470   0.00000  -0.12688  -0.12778   2.74601
   D13        0.96127   0.00041   0.00000   0.10465   0.10266   1.06393
   D14        3.01822   0.00041   0.00000   0.08493   0.08255   3.10078
   D15       -1.17764  -0.00083   0.00000   0.05605   0.05354  -1.12410
   D16        3.01435   0.00152   0.00000   0.09872   0.09871   3.11306
   D17       -1.21188   0.00153   0.00000   0.07900   0.07860  -1.13327
   D18        0.87545   0.00029   0.00000   0.05012   0.04959   0.92504
   D19       -1.17309   0.00053   0.00000   0.08683   0.08659  -1.08650
   D20        0.88387   0.00053   0.00000   0.06711   0.06648   0.95035
   D21        2.97119  -0.00071   0.00000   0.03823   0.03747   3.00866
   D22        0.44698  -0.00106   0.00000  -0.01213  -0.01243   0.43455
   D23        2.66444   0.00105   0.00000   0.01153   0.01195   2.67639
   D24       -1.54530   0.00001   0.00000   0.00092   0.00081  -1.54449
   D25       -0.90690  -0.00167   0.00000  -0.03012  -0.03305  -0.93996
   D26       -3.01480  -0.00152   0.00000  -0.02876  -0.03049  -3.04528
   D27        1.25194  -0.00081   0.00000  -0.01077  -0.01259   1.23935
   D28       -2.98438  -0.00092   0.00000  -0.01328  -0.01460  -2.99898
   D29        1.19091  -0.00077   0.00000  -0.01193  -0.01203   1.17888
   D30       -0.82553  -0.00006   0.00000   0.00606   0.00586  -0.81968
   D31        1.22544  -0.00021   0.00000   0.01132   0.01023   1.23567
   D32       -0.88245  -0.00006   0.00000   0.01267   0.01280  -0.86966
   D33       -2.89890   0.00065   0.00000   0.03066   0.03069  -2.86821
   D34       -1.09878   0.00430   0.00000   0.05200   0.05145  -1.04733
   D35        2.78901   0.00523   0.00000   0.06142   0.06119   2.85019
   D36        3.00741  -0.00282   0.00000  -0.03092  -0.03014   2.97727
   D37        0.61201  -0.00189   0.00000  -0.02149  -0.02040   0.59161
   D38        0.97237   0.00020   0.00000   0.01064   0.01014   0.98252
   D39       -1.42303   0.00113   0.00000   0.02007   0.01988  -1.40315
   D40        0.90891  -0.00052   0.00000   0.02734   0.02572   0.93463
   D41        2.88175   0.00081   0.00000   0.03340   0.03354   2.91529
   D42       -1.30253   0.00060   0.00000   0.03901   0.03871  -1.26381
   D43        3.02998  -0.00058   0.00000   0.02236   0.02058   3.05056
   D44       -1.28036   0.00075   0.00000   0.02842   0.02841  -1.25196
   D45        0.81855   0.00054   0.00000   0.03403   0.03357   0.85212
   D46       -1.22729  -0.00124   0.00000   0.00488   0.00330  -1.22399
   D47        0.74555   0.00008   0.00000   0.01094   0.01112   0.75667
   D48        2.84446  -0.00012   0.00000   0.01655   0.01629   2.86075
   D49       -0.81713  -0.00251   0.00000  -0.02832  -0.02776  -0.84489
   D50        1.38615   0.00233   0.00000   0.01921   0.01898   1.40513
   D51       -2.86042  -0.00015   0.00000  -0.00250  -0.00283  -2.86325
   D52        2.94016   0.00056   0.00000   0.00299   0.00209   2.94225
   D53        0.88848   0.00056   0.00000   0.00363   0.00306   0.89154
   D54       -1.16327   0.00100   0.00000   0.00724   0.00673  -1.15654
   D55       -1.19389  -0.00144   0.00000  -0.02237  -0.02234  -1.21623
   D56        3.03762  -0.00144   0.00000  -0.02174  -0.02137   3.01625
   D57        0.98587  -0.00101   0.00000  -0.01812  -0.01770   0.96817
   D58        0.89327   0.00000   0.00000  -0.00668  -0.00670   0.88657
   D59       -1.15841   0.00000   0.00000  -0.00605  -0.00573  -1.16414
   D60        3.07302   0.00044   0.00000  -0.00243  -0.00206   3.07096
   D61       -1.08575   0.00090   0.00000   0.00821   0.00738  -1.07837
   D62        2.86273   0.00130   0.00000   0.01669   0.01628   2.87901
   D63        1.59213  -0.00013   0.00000  -0.00305  -0.00198   1.59014
   D64       -2.64307   0.00017   0.00000  -0.00250  -0.00202  -2.64509
   D65       -0.57876  -0.00048   0.00000  -0.00615  -0.00573  -0.58449
   D66        1.59882   0.00032   0.00000   0.01435   0.01447   1.61329
   D67       -0.27752  -0.00014   0.00000   0.01067   0.01126  -0.26625
   D68       -0.58401  -0.00067   0.00000  -0.12621  -0.12206  -0.70607
   D69        0.07696   0.00212   0.00000  -0.00087   0.00382   0.08077
   D70       -1.85640  -0.00027   0.00000  -0.02044  -0.01825  -1.87464
   D71       -0.12359  -0.00058   0.00000   0.00020   0.00237  -0.12123
   D72        1.72741   0.00124   0.00000   0.02413   0.02565   1.75306
   D73       -0.01325   0.00154   0.00000   0.01052   0.00966  -0.00359
   D74       -1.92702   0.00049   0.00000   0.00788   0.00763  -1.91939
         Item               Value     Threshold  Converged?
 Maximum Force            0.012288     0.000450     NO 
 RMS     Force            0.003084     0.000300     NO 
 Maximum Displacement     0.421658     0.001800     NO 
 RMS     Displacement     0.089264     0.001200     NO 
 Predicted change in Energy=-8.908530D-03
 GradGradGradGradGradGradGradGradGradGradGradGradGradGradGradGradGradGrad

                          Input orientation:                          
 ---------------------------------------------------------------------
 Center     Atomic      Atomic             Coordinates (Angstroms)
 Number     Number       Type             X           Y           Z
 ---------------------------------------------------------------------
      1          6           0       -1.578475   -0.240748   -1.155228
      2          8           0       -0.990989    0.889892    0.564251
      3          6           0       -0.985578   -1.547890   -0.612401
      4          6           0        0.484699   -1.508918   -0.126137
      5          6           0        0.817651   -0.545358    1.052754
      6          6           0        0.411122    0.932755    0.888424
      7          1           0       -1.043906   -2.252807   -1.465112
      8          1           0        1.901069   -0.561436    1.207701
      9          1           0        0.499837    1.403348    1.873637
     10          1           0        0.718236   -2.508509    0.261327
     11          8           0       -1.813078   -2.000686    0.444017
     12          8           0        1.335886   -1.221480   -1.255120
     13          8           0        0.238916   -1.083776    2.230332
     14          1           0        1.207651   -1.928735   -1.907800
     15          1           0       -2.681016   -1.588935    0.226149
     16          1           0       -0.684844   -1.310751    2.004955
     17          6           0        1.229698    1.783303   -0.099922
     18          8           0        2.528147    2.004307    0.403501
     19          1           0        0.732410    2.758527   -0.191336
     20          1           0        1.244022    1.328138   -1.098641
     21          1           0        3.106684    1.282440    0.072140
     22          1           0       -1.010744    0.235871   -1.970172
     23          8           0       -2.838056   -0.100766   -1.074054
     24          1           0       -3.073620    1.511465   -0.742632
     25          1           0       -1.561369    1.733273    0.387399
     26          8           0       -2.820482    2.375941   -0.257715
     27          1           0       -3.512989    2.506807    0.408815
     28          8           0        3.884005   -0.135065   -0.752045
     29          1           0        4.242685    0.204279   -1.585898
     30          1           0        3.085738   -0.644660   -1.004969
 ---------------------------------------------------------------------
                    Distance matrix (angstroms):
                    1          2          3          4          5
     1  C    0.000000
     2  O    2.140115   0.000000
     3  C    1.534538   2.706902   0.000000
     4  C    2.631344   2.899756   1.549092   0.000000
     5  C    3.272520   2.360033   2.651310   1.558554   0.000000
     6  C    3.084172   1.439737   3.218206   2.645093   1.541781
     7  H    2.104798   3.741346   1.107893   2.163991   3.566570
     8  H    4.218234   3.299148   3.552266   2.164013   1.094560
     9  H    4.024482   2.049559   4.134809   3.532792   2.138296
    10  H    3.524805   3.816063   2.142235   1.097200   2.119009
    11  O    2.389562   3.007611   1.416262   2.417993   3.067453
    12  O    3.076575   3.630751   2.430808   1.442824   2.460079
    13  O    3.933907   2.860745   3.129843   2.407094   1.418280
    14  H    3.343376   4.346230   2.575531   1.968052   3.291005
    15  H    2.222928   3.019120   1.891919   3.186261   3.743394
    16  H    3.454018   2.648052   2.645228   2.438987   1.936493
    17  C    3.618879   2.484102   4.033228   3.375564   2.630800
    18  O    4.932975   3.694872   5.098669   4.098652   3.138171
    19  H    3.907036   2.651946   4.655535   4.275126   3.531386
    20  H    3.229720   2.820026   3.671387   3.093740   2.884490
    21  H    5.077130   4.145745   5.022547   3.834815   3.089033
    22  H    1.101642   2.617524   2.241869   2.946371   3.618207
    23  O    1.269933   2.660282   2.395614   3.731239   4.252666
    24  H    2.340074   2.536069   3.706283   4.707910   4.753517
    25  H    2.505344   1.033393   3.478098   3.868064   3.360743
    26  O    3.032354   2.496200   4.346162   5.102320   4.846373
    27  H    3.706431   2.999843   4.885822   5.691549   5.337117
    28  O    5.478358   5.152547   5.072318   3.719477   3.581643
    29  H    5.854009   5.699523   5.599333   4.380457   4.388086
    30  H    4.684080   4.630011   4.188741   2.878314   3.064034
                    6          7          8          9         10
     6  C    0.000000
     7  H    4.219484   0.000000
     8  H    2.134124   4.321752   0.000000
     9  H    1.095433   5.186314   2.503457   0.000000
    10  H    3.511391   2.480144   2.466944   4.236728   0.000000
    11  O    3.708051   2.073635   4.055803   4.356700   2.588205
    12  O    3.176586   2.602142   2.611623   4.168672   2.082678
    13  O    2.428327   4.082716   2.020239   2.526083   2.477214
    14  H    4.079394   2.317435   3.472273   5.089504   2.297994
    15  H    4.044607   2.445653   4.797364   4.667526   3.521614
    16  H    2.735161   3.613552   2.807852   2.964295   2.538405
    17  C    1.539586   4.829410   2.767385   2.138224   4.337251
    18  O    2.421811   5.862959   2.760978   2.576140   4.864309
    19  H    2.145356   5.467291   3.787508   2.480870   5.286471
    20  H    2.190543   4.265218   3.053099   3.064948   4.104367
    21  H    2.838072   5.664672   2.478484   3.171067   4.484615
    22  H    3.267862   2.539626   4.383289   4.291821   3.937077
    23  O    3.934037   2.828990   5.279955   4.700295   4.497519
    24  H    3.890846   4.337218   5.731339   4.430141   5.616609
    25  H    2.186910   4.425878   4.234036   2.562484   4.817178
    26  O    3.720173   5.102876   5.750537   4.063634   6.053906
    27  H    4.255151   5.679956   6.274102   4.412040   6.563414
    28  O    3.986513   5.410877   2.820360   4.551210   4.084391
    29  H    4.618855   5.830943   3.724739   5.235940   4.815932
    30  H    3.636859   4.455539   2.511229   4.378081   3.268410
                   11         12         13         14         15
    11  O    0.000000
    12  O    3.661994   0.000000
    13  O    2.870945   3.656594   0.000000
    14  H    3.828972   0.970899   4.333190   0.000000
    15  H    0.985049   4.297055   3.577420   4.448700   0.000000
    16  H    2.045837   3.836589   0.977571   4.390114   2.688166
    17  C    4.885993   3.220944   3.825164   4.128939   5.174166
    18  O    5.906593   3.818142   4.256072   4.749173   6.330736
    19  H    5.434454   4.163686   4.568513   5.014233   5.543122
    20  H    4.775638   2.556067   4.231977   3.356082   5.066587
    21  H    5.926320   3.341700   4.298938   4.223522   6.462661
    22  H    3.387363   2.853391   4.576827   3.100110   3.308103
    23  O    2.639094   4.325573   4.620934   4.517118   1.982382
    24  H    3.915649   5.213001   5.152348   5.614435   3.271874
    25  H    3.742862   4.452249   3.817486   5.132808   3.509512
    26  O    4.545564   5.586739   5.245945   6.121999   3.996726
    27  H    4.817513   6.338801   5.503363   6.879330   4.183377
    28  O    6.112925   2.815367   4.804299   3.422848   6.794858
    29  H    6.756825   3.254487   5.679160   3.723547   7.378128
    30  H    5.285524   1.859376   4.331788   2.447686   5.971830
                   16         17         18         19         20
    16  H    0.000000
    17  C    4.203469   0.000000
    18  O    4.886469   1.410052   0.000000
    19  H    4.836458   1.098505   2.036504   0.000000
    20  H    4.507391   1.097643   2.088686   1.769452   0.000000
    21  H    4.983583   1.950269   0.982648   2.808101   2.200529
    22  H    4.277836   3.303325   4.613614   3.544946   2.652656
    23  O    3.947237   4.587512   5.950683   4.658646   4.325013
    24  H    4.606560   4.359532   5.739016   4.042890   4.336172
    25  H    3.556805   2.833732   4.098519   2.578275   3.200417
    26  O    4.824140   4.096349   5.402143   3.574049   4.280799
    27  H    5.011967   4.824453   6.062001   4.294993   5.127459
    28  O    5.464217   3.339273   2.783981   4.315069   3.038190
    29  H    6.282523   3.712080   3.183937   4.559717   3.239207
    30  H    4.870381   3.187318   3.051511   4.216851   2.700486
                   21         22         23         24         25
    21  H    0.000000
    22  H    4.713763   0.000000
    23  O    6.210230   2.062867   0.000000
    24  H    6.237986   2.718355   1.662714   0.000000
    25  H    4.700357   2.846672   2.670108   1.900809   0.000000
    26  O    6.036212   3.284442   2.607833   1.023006   1.553886
    27  H    6.740364   4.132549   3.074715   1.584166   2.099437
    28  O    1.814615   5.057666   6.729856   7.149804   5.868655
    29  H    2.280794   5.267559   7.105768   7.479850   6.318130
    30  H    2.207785   4.299781   5.949112   6.531109   5.402671
                   26         27         28         29         30
    26  O    0.000000
    27  H    0.970028   0.000000
    28  O    7.176326   7.939937   0.000000
    29  H    7.507897   8.332527   0.969081   0.000000
    30  H    6.675766   7.448069   0.980248   1.548129   0.000000
 Stoichiometry    C6H16O8
 Framework group  C1[X(C6H16O8)]
 Deg. of freedom    84
[...]
 55,-0.00036129,0.00030914,-0.00010287,-0.00011726,0.00024168,-0.001227
 24,0.00146542,0.00019377,0.00024078,0.00047875,-0.00024480,0.00079096,
 0.00000483,-0.00001194,-0.00041973,0.00002208,-0.00001731,-0.00034975,
 -0.00006665,0.00003270,0.00001507,-0.00009375,0.00004474,0.00014815,0.
 00008122,-0.00092656,0.00015370,0.00132086,-0.01004132,0.00470180,0.00
 265193,0.12569432,0.35925761,0.00254603,-0.00007448,0.00199333,0.00274
 787,-0.00091061,0.00004650,-0.00031473,0.00041725,0.00018020,0.0000050
 8,0.00018299,0.00023009,0.00026405,0.00030321,0.00014902,-0.00145539,-
 0.00032624,-0.00042913,-0.00002002,-0.00004321,-0.00006202,0.00006145,
 -0.00017282,-0.00001275,0.00018461,0.00002185,0.00007521,-0.00007210,-
 0.00004709,-0.00005968,-0.00031319,0.00007802,-0.00052922,-0.00007035,
 0.00000343,-0.00022944,0.00002427,-0.00025344,-0.00012001,0.00005285,-
 0.00004885,0.00003303,0.00011706,-0.00008284,0.00071680,-0.00001948,0.
 00025902,0.00009024,-0.00006589,-0.00004970,0.00041789,0.00035355,0.00
 008035,-0.00021948,-0.00007983,-0.00003730,-0.00000174,0.00004108,-0.0
 0004450,-0.00012803,-0.00008291,0.00007594,0.00011538,0.00031788,-0.00
 061345,0.00015879,-0.00157877,0.00356365,-0.00514379,0.03597262,0.1448
 4751,0.08538740,0.00859074,0.00152509,0.00432521,-0.08183301,0.0845130
 3,-0.04115951,-0.00043010,0.00023347,-0.00020575,-0.00010116,0.0003136
 0,-0.00003708,-0.00690336,-0.00100557,-0.00098311,-0.01674508,0.034530
 42,-0.01082652,-0.00006990,-0.00046662,-0.00001814,-0.00014780,0.00139
 663,-0.00010742,0.00050286,-0.00010828,-0.00003313,-0.00004060,-0.0001
 4002,-0.00009908,-0.00054311,-0.00092590,-0.00059176,0.00011599,-0.000
 25270,-0.00022022,0.00085132,-0.00108403,0.00023338,-0.00002146,-0.000
 05460,0.00008629,0.00066260,0.00001020,0.00022462,0.00011975,0.0011285
 8,-0.00055005,-0.00125930,0.00169269,0.00117307,0.00353425,-0.00026478
 ,-0.00050479,-0.00034867,-0.00204123,0.00064909,0.00000659,-0.00022827
 ,-0.00008843,-0.00030832,0.00076125,0.00057700,-0.00006691,-0.00056775
 ,-0.00000274,-0.00628211,0.00287666,0.00035764,-0.00299702,-0.00368770
 ,-0.00560875,0.10320825,-0.00265359,-0.00477578,-0.00259945,0.12755647
 ,-0.36271934,0.11183274,-0.00022717,-0.00007770,0.00035362,0.00017245,
 -0.00005800,-0.00036329,-0.00152144,-0.00036351,0.00035078,0.00023975,
 0.00742972,-0.00208429,0.00003296,0.00022519,0.00004743,-0.00047670,0.
 00076871,0.00003118,-0.00192706,-0.00019174,-0.00103984,-0.00002692,0.
 00013724,0.00010405,0.00020373,0.00016840,-0.00031530,-0.00027514,0.00
 000133,0.00022918,0.00015368,0.00064535,-0.00032241,0.00008311,-0.0000
 0568,-0.00007008,-0.00013204,-0.00032325,0.00009989,-0.00020017,-0.000
 34779,-0.00003560,-0.00262645,0.00464160,-0.00207826,-0.00072397,-0.00
 129724,0.00081518,0.00035809,-0.00129900,-0.00034772,0.00021339,-0.000
 21241,0.00019779,0.00020236,-0.00011870,0.00008322,0.00011358,0.000783
 23,-0.00001773,0.00258854,-0.00071236,0.00047016,-0.00340944,0.0056744
 6,-0.00095496,-0.11568401,0.35951988,0.00574117,-0.00320113,0.00512378
 ,-0.05007801,0.10500686,-0.04672382,-0.00003832,-0.00038229,-0.0015560
 9,-0.00010503,0.00029119,0.00085025,0.00154304,-0.00046602,-0.00039041
 ,-0.00259008,0.00291381,-0.00580882,-0.00003723,-0.00065139,0.00010916
 ,0.00047798,-0.00049702,0.00031971,-0.00105776,0.00073631,-0.00021341,
 -0.00003670,-0.00003977,-0.00013035,-0.00013491,0.00023687,-0.00062542
 ,0.00012377,0.00018408,-0.00044232,-0.00017914,-0.00025263,0.00008214,
 0.00000759,-0.00001748,0.00002267,0.00023971,-0.00007137,0.00039160,-0
 .00004697,0.00003871,0.00008173,0.00179599,-0.00164666,0.00220577,-0.0
 0029773,0.00052163,-0.00106424,-0.00003649,0.00040297,0.00073443,0.000
 35528,-0.00042052,-0.00046458,0.00001915,-0.00011554,-0.00005461,0.000
 47910,-0.00015467,-0.00093778,-0.00366335,0.00307572,-0.00029419,-0.00
 380178,-0.00134661,-0.00285750,0.04556507,-0.10035876,0.05477667,-0.00
 383526,-0.00211738,-0.00149852,-0.00948002,0.01029141,-0.00587659,0.00
 051495,-0.00018090,0.00030786,-0.00002482,-0.00044463,-0.00031619,-0.0
 0111581,-0.00083093,-0.00010471,0.00332036,0.00209404,0.00067862,0.000
 01557,0.00023123,0.00003788,-0.00016996,0.00050392,-0.00000278,-0.0003
 8799,0.00000681,-0.00020934,0.00006643,0.00011667,0.00008675,0.0003702
 4,0.00046451,0.00004312,-0.00005802,0.00016212,0.00020221,0.00013161,0
 .00061033,-0.00018760,0.00001825,0.00001436,-0.00004945,-0.00038608,-0
 .00006269,-0.00002813,-0.00013853,-0.00048226,0.00009290,0.00102072,-0
 .00047342,-0.00020044,-0.00124876,0.00002484,0.00007826,-0.00021677,0.
 00044392,0.00015207,0.00000108,-0.00006810,0.00005568,0.00029086,-0.00
 024614,-0.00029679,0.00046414,0.00005656,-0.00039697,0.00521099,-0.000
 14556,-0.00081852,-0.10637235,-0.11398556,-0.02096522,0.00255170,-0.00
 286358,0.00253222,0.39603153,-0.00786096,0.00020598,0.00017569,0.01121
 002,-0.00220341,0.00662883,0.00135061,0.00058446,0.00091362,-0.0010359
 9,-0.00040890,0.00059076,0.00115253,0.00033400,-0.00018831,-0.00347863
 ,-0.00212582,-0.00028936,0.00005569,-0.00010891,0.00000288,0.00020362,
 -0.00039513,0.00012246,0.00069474,0.00004329,0.00036046,0.00035348,-0.
 00005223,0.00001501,0.00048020,-0.00077500,0.00040542,0.00082377,0.000
 12090,-0.00032586,0.00009750,-0.00003445,0.00028265,-0.00024895,0.0000
 7165,0.00010921,-0.00001961,0.00094938,-0.00076599,-0.00014148,0.00018
 396,-0.00039501,0.00002851,-0.00130997,0.00034060,0.00059727,0.0006733
 3,-0.00014341,0.00001284,0.00038238,-0.00006280,-0.00006827,0.00013799
 ,0.00003965,-0.00017962,-0.00004800,0.00002575,0.00027721,-0.00013496,
 -0.00067071,0.00563276,-0.01159765,-0.00361582,-0.16068335,-0.35044517
 ,-0.11877426,-0.00435523,-0.00649791,-0.00324260,0.02633197,0.46191492
 ,-0.00401855,-0.00051282,-0.00294169,-0.01021643,0.00609719,0.00108244
 ,0.00024748,-0.00013760,0.00011712,-0.00002617,-0.00033524,-0.00050077
 ,-0.00116778,-0.00073003,-0.00028412,0.00319746,0.00235544,0.00090175,
 0.00004885,0.00020577,0.00009021,-0.00018377,0.00053578,0.00000047,-0.
 00014424,-0.00010915,-0.00006404,0.00010448,0.00007953,0.00011197,0.00
 028769,0.00002584,0.00075308,0.00000908,-0.00000567,0.00044117,-0.0000
 0099,0.00049087,0.00016313,-0.00004675,0.00006551,-0.00005867,-0.00021
 908,-0.00003052,-0.00064954,-0.00000596,-0.00052581,-0.00010070,0.0002
 9151,0.00015241,-0.00084986,-0.00070880,-0.00026025,0.00052286,0.00001
 348,-0.00002922,-0.00017910,-0.00014123,0.00020732,0.00032030,0.000186
 48,-0.00010430,-0.00022917,-0.00040782,0.00047032,0.00018771,0.0032591
 3,-0.00515233,0.00267281,-0.05151018,-0.14428193,-0.06960539,0.0080485
 0,-0.00338821,-0.00729403,-0.16686669,0.24111976,0.25364832,-0.0004248
 0,-0.00001538,0.00027069,0.00045884,0.00007205,-0.00140429,0.00007750,
 0.00004632,0.00000983,-0.00002162,-0.00002412,0.00008786,-0.00000329,0
 .00006603,-0.00003595,-0.00018649,0.00002739,-0.00007536,0.00000215,-0
 .00002738,-0.00000404,0.00001419,-0.00001708,0.00000180,-0.00005960,0.
 00004390,-0.00005516,0.00001394,-0.00001453,-0.00001056,0.00000296,-0.
 00007148,-0.00001866,0.00002470,-0.00000361,-0.00005470,0.00000699,-0.
 00009143,-0.00000556,-0.00000751,-0.00000071,0.00001089,0.00005480,0.0
 0008053,-0.00001969,0.00000526,0.00006784,0.00001227,-0.00002869,-0.00
 001932,0.00010794,0.00007792,0.00000910,-0.00010357,-0.00001599,0.0000
 3295,0.00011602,0.00004837,-0.00008156,-0.00006354,-0.00004003,0.00002
 645,0.00003039,0.00002130,0.00000747,-0.00010506,0.00011913,-0.0010778
 9,-0.00007696,0.01020762,-0.01135887,-0.01209528,-0.00223372,0.0008001
 5,0.00325903,-0.28649654,0.12891564,0.22004099,0.27837395,0.00007626,-
 0.00014640,-0.00016023,-0.00110286,0.00030244,0.00026397,-0.00001892,-
 0.00005084,-0.00012610,0.00016302,0.00000442,-0.00009920,-0.00008585,-
 0.00006072,0.00000139,0.00078839,0.00004141,0.00041203,-0.00002250,0.0
 0004772,0.00002241,-0.00004483,0.00005680,-0.00001327,-0.00007054,-0.0
 0001930,-0.00007258,-0.00003378,0.00001406,0.00000404,-0.00009095,0.00
 012192,0.00009624,-0.00017899,-0.00001858,0.00008988,-0.00007104,0.000
 04723,-0.00001606,0.00005096,-0.00001059,-0.00002211,0.00005012,-0.000
 22159,-0.00008601,0.00007646,-0.00008071,0.00004924,0.00005076,0.00014
 245,-0.00009898,-0.00026071,-0.00012225,0.00003755,0.00009891,0.000048
 71,0.00006648,0.00001401,-0.00003255,-0.00000671,0.00005570,-0.0000130
 3,-0.00003598,-0.00007413,0.00007357,0.00006516,-0.00063102,-0.0010590
 6,0.00072471,0.03599607,-0.01300293,-0.02736595,0.00218546,-0.00104810
 ,-0.00055179,0.08043105,-0.08938904,-0.09627624,-0.11737467,0.10434920
 ,0.00013855,-0.00002549,0.00008808,-0.00074570,0.00154142,-0.00218142,
 -0.00007832,-0.00003424,0.00007309,0.00001380,0.00000110,0.00003688,-0
 .00009213,0.00000077,0.00004284,0.00009042,0.00011410,-0.00002909,0.00
 000148,-0.00001312,-0.00002846,-0.00000192,0.00001209,-0.00001026,-0.0
 0011293,0.00001344,-0.00006946,-0.00001336,-0.00000225,-0.00000801,0.0
 0002527,0.00000763,-0.00014686,0.00000469,0.00000663,-0.00006115,0.000
 04906,-0.00004595,-0.00009847,0.00000642,-0.00000740,0.00000856,0.0000
 1120,0.00003125,0.00012988,-0.00003249,0.00005678,0.00007242,0.0000104
 3,-0.00004151,0.00006831,0.00001601,0.00001784,-0.00007826,-0.00000394
 ,0.00002108,0.00006287,0.00002311,-0.00003544,-0.00004308,-0.00002102,
 0.00000831,0.00002231,-0.00001209,0.00008172,-0.00002389,-0.00030044,-
 0.00004625,0.00001454,0.01737121,-0.00143778,-0.01018195,-0.00004285,-
 0.00062775,0.00413690,0.19350036,-0.12268583,-0.17827825,-0.20981211,0
 .12309751,0.18648599,0.00111399,-0.00030479,0.00021254,-0.00091932,0.0
 0011292,0.00009587,0.00050091,0.00009707,0.00088036,0.00079788,0.00056
 839,-0.00481406,0.00039137,0.00006228,-0.00073823,0.00080761,0.0000345
 4,-0.00028509,0.00010801,0.00003992,-0.00000484,-0.00039083,0.00013293
 ,-0.00013648,-0.00011987,0.00002702,0.00015170,-0.00033967,-0.00036053
 ,0.00039185,-0.00118496,-0.00014578,0.00026072,-0.00973444,-0.00631921
 ,0.00086397,-0.00049249,-0.00030145,0.00106566,-0.00232569,-0.00022217
 ,0.00079438,0.00008264,-0.00004826,0.00003066,0.00017067,0.00002092,-0
 .00016082,0.00287423,-0.00009095,-0.00023140,-0.00190171,0.00763634,0.
 00493193,-0.00031772,0.00029351,0.00026783,0.00061283,-0.00038975,0.00
 058650,-0.00919517,-0.00303135,-0.00180072,0.00011296,-0.00014334,0.00
 013781,-0.00106543,0.00029903,-0.00001224,0.00016715,-0.00028575,0.000
 05572,0.00048067,-0.00030759,0.00004240,-0.00033776,0.00040422,-0.0001
 7409,0.00004182,-0.00011200,0.00001378,0.41154581,-0.00010158,-0.00132
 774,-0.00017806,0.00155561,0.00145923,-0.00015731,0.00028450,0.0000106
 2,0.00037911,0.00111805,0.00040657,-0.00337375,0.00098610,-0.00141338,
 -0.00009734,-0.00058957,-0.00122545,0.00088807,0.00009024,0.00017482,0
 .00008051,-0.00010783,-0.00040088,-0.00049628,-0.00000986,0.00022027,0
 .00008387,-0.00001119,0.00017334,0.00019932,-0.00080018,0.00029768,0.0
 0021703,-0.00962842,-0.00029701,0.00116400,-0.00032197,0.00119087,0.00
 036272,0.00099276,0.00035588,0.00063401,-0.00002501,-0.00030136,0.0000
 8713,0.00001355,-0.00030641,-0.00011594,-0.00724119,-0.00235783,-0.002
 55243,0.01352988,-0.00644719,-0.00890947,0.00136725,0.00006745,0.00012
 709,-0.00027108,0.00031462,0.00052085,-0.00339621,-0.00352870,0.008232
 70,0.00001678,-0.00001557,-0.00006722,-0.00005733,0.00062832,0.0000284
 3,-0.00003764,-0.00024449,-0.00008153,-0.00061197,-0.00002551,0.000144
 18,0.00026605,0.00014996,0.00011050,-0.00003368,-0.00000959,-0.0000118
 7,0.25420207,0.24938763,-0.00012767,-0.00036126,-0.00047376,0.00123991
 ,0.00029763,0.00021630,0.00004114,-0.00009961,0.00045423,-0.00051954,-
 0.00037979,-0.00242250,-0.00165490,-0.00073986,-0.00058068,-0.00047937
 ,0.00022395,0.00062498,0.00012099,0.00011895,0.00012544,0.00079927,-0.
 00018100,0.00024069,-0.00006469,-0.00003683,0.00017240,-0.00016425,-0.
 00007764,0.00021271,-0.00027876,0.00015679,0.00024956,-0.00191547,-0.0
 0049134,0.00577181,0.00083198,0.00070995,0.00002083,0.00115048,0.00044
 820,-0.00018488,-0.00007114,-0.00012840,0.00001629,-0.00011297,-0.0001
 6559,-0.00027925,-0.00438131,-0.00177371,-0.00278491,0.00837437,-0.008
 49924,-0.00207183,0.00097483,0.00006902,0.00042250,0.00076286,0.000476
 81,0.00081093,-0.00011058,0.00363291,-0.00266149,0.00000682,-0.0000147
 7,0.00001056,0.00016870,0.00011230,0.00016215,-0.00004323,-0.00003436,
 -0.00010054,-0.00032609,0.00013832,-0.00007013,0.00021585,-0.00007139,
 0.00020057,-0.00003417,0.00002925,-0.00002467,-0.00257225,-0.14760995,
 0.44580959,-0.00033220,-0.00013297,0.00003415,0.00031873,0.00011001,-0
 .00005240,-0.00009539,-0.00006233,-0.00004858,-0.00007159,0.00006219,0
 .00044214,0.00027736,-0.00015302,0.00022330,-0.00024939,-0.00026104,-0
 .00003508,-0.00000039,0.00000719,0.00000400,-0.00030138,-0.00001190,0.
 00011446,0.00006687,0.00007181,-0.00008399,0.00007176,0.00007817,-0.00
 008721,0.00013645,0.00009374,-0.00007539,-0.00080918,-0.00000328,-0.00
 166614,-0.00003297,0.00015576,-0.00020962,-0.00024226,-0.00019910,0.00
 006173,-0.00003175,-0.00004203,0.00002590,-0.00004367,-0.00004286,0.00
 005805,-0.00051295,0.00018091,0.00069369,0.00059229,0.00004087,-0.0011
 4642,0.00014398,-0.00011314,-0.00019113,-0.00045500,-0.00005945,-0.000
 24572,-0.00058226,0.00018406,0.00291774,-0.00002972,0.00003928,-0.0000
 5489,0.00028790,0.00002123,-0.00003817,-0.00005500,0.00004825,-0.00000
 732,-0.00017954,0.00006646,0.00002889,0.00011732,-0.00008945,0.0000283
 2,-0.00001171,0.00003072,-0.00000160,-0.06212682,-0.06474457,0.0641433
 0,0.07260251,0.00000459,0.00019777,0.00001789,-0.00016902,-0.00020802,
 0.00001804,-0.00005366,0.00000830,0.00001803,-0.00008758,-0.00005253,0
 .00031641,-0.00015837,0.00027465,-0.00001697,-0.00000301,0.00018598,-0
 .00002615,-0.00000225,-0.00003306,-0.00001978,-0.00002703,-0.00002477,
 0.00016697,-0.00001990,-0.00005020,0.00001430,0.00003822,-0.00000019,-
 0.00003069,0.00009467,-0.00004928,-0.00004036,-0.00005604,-0.00004337,
 -0.00101629,0.00009280,-0.00017929,-0.00005443,-0.00049574,-0.00016760
 ,0.00014613,-0.00000205,0.00004558,-0.00000905,-0.00000135,0.00005378,
 0.00000496,0.00062166,0.00006897,-0.00008565,-0.00034588,-0.00244607,0
 .00082051,-0.00001765,0.00000046,0.00002464,0.00018192,0.00010492,-0.0
 0001932,0.00077183,0.00411000,-0.00287786,0.00000049,0.00000442,0.0000
 1696,0.00001339,-0.00010589,-0.00000356,0.00000423,0.00005402,0.000009
 27,0.00006953,0.00002590,-0.00003578,-0.00003733,-0.00005019,-0.000001
 61,0.00000648,0.00000937,0.00000022,-0.08381454,-0.12472072,0.17573689
 ,0.08486098,0.13380293,0.00006679,0.00007126,0.00008767,-0.00022676,-0
 .00017820,0.00002090,0.00000915,0.00002400,0.00007075,0.00016036,0.000
 01072,-0.00020321,-0.00034865,0.00010743,-0.00008099,0.00009733,0.0001
 5513,-0.00011336,0.00000866,-0.00001618,-0.00000112,0.00008514,0.00002
 252,0.00002243,-0.00001683,-0.00001752,-0.00000688,-0.00000960,-0.0000
 2335,0.00000324,-0.00004054,-0.00002548,-0.00001272,-0.00122053,-0.000
 25881,-0.00035938,0.00009129,-0.00009034,0.00001919,-0.00014315,-0.000
 16183,0.00017100,0.00000457,0.00001677,0.00000729,0.00000747,0.0000255
 8,-0.00002191,0.00093058,0.00013925,0.00018987,-0.00135751,-0.00061368
 ,0.00117999,-0.00011098,0.00003970,0.00006481,0.00012190,-0.00007148,-
 0.00001954,0.00142716,0.00151254,-0.00389444,0.00001410,-0.00000765,0.
 00001766,-0.00006784,-0.00002211,-0.00003133,0.00001166,0.00000424,0.0
 0002386,0.00010608,-0.00001678,-0.00000302,-0.00005106,0.00000955,-0.0
 0004254,0.00000936,-0.00000469,0.00000661,0.11331798,0.20505736,-0.365
 77585,-0.10423628,-0.19755387,0.36182470,-0.00111037,0.00119842,-0.000
 02952,-0.00026212,-0.00080452,-0.00016914,-0.00073461,-0.00010672,-0.0
 0130797,-0.00351675,-0.00107394,0.00916339,0.00052547,0.00119902,0.001
 69297,-0.00025866,0.00043645,-0.00014902,-0.00023529,-0.00019298,-0.00
 009626,0.00007363,0.00010277,0.00023828,0.00015122,-0.00023677,-0.0002
 1520,0.00069756,0.00052028,-0.00093366,0.00191715,-0.00002676,-0.00052
 895,-0.00194040,0.00021575,-0.00352137,0.00017850,-0.00064284,-0.00155
 997,0.00316091,0.00035889,-0.00173818,-0.00003712,0.00025978,-0.000102
 39,-0.00014615,0.00019983,0.00041106,0.00255485,0.00122811,0.00168414,
 -0.00465670,0.00138556,0.00122917,-0.00040551,-0.00027955,-0.00033709,
 -0.00035126,0.00045746,-0.00067481,0.00541483,-0.00279547,-0.00339355,
 -0.00015380,0.00022059,-0.00012225,0.00114583,-0.00070723,-0.00003666,
 -0.00013770,0.00044157,0.00000510,-0.00011359,0.00027055,-0.00010688,0
 .00014292,-0.00046102,0.00007508,-0.00002145,0.00010491,-0.00000488,-0
 .32935667,-0.18643355,-0.06597413,-0.00845196,-0.00146938,-0.00863986,
 0.33592724,-0.00014895,0.00111982,0.00000413,-0.00081641,-0.00072527,-
 0.00003612,-0.00028973,-0.00014199,-0.00058328,-0.00209190,-0.00092926
 ,0.00465987,0.00063397,0.00125146,0.00042832,0.00097517,0.00060994,-0.
 00038624,-0.00013818,-0.00014752,-0.00007134,-0.00012999,0.00053460,-0
 .00002812,-0.00008868,-0.00024555,0.00005537,-0.00011699,-0.00014582,-
 0.00019608,0.00095920,-0.00015823,-0.00027965,0.00647840,-0.00345829,-
 0.00236000,-0.00018969,-0.00095612,-0.00061563,-0.00298428,-0.00101014
 ,-0.00160916,0.00001159,0.00024824,-0.00007555,-0.00003172,0.00021192,
 0.00028655,0.00235061,-0.00035496,-0.00095980,-0.00158862,0.00142582,0
 .00138206,-0.00035221,0.00016928,0.00040372,0.00067630,-0.00008236,0.0
 0045411,-0.00195400,-0.00479867,-0.00415508,-0.00003856,0.00007271,0.0
 0001201,0.00030047,-0.00055043,0.00000721,-0.00000657,0.00023761,0.000
 03876,0.00024204,0.00005301,-0.00010030,-0.00011130,-0.00017545,-0.000
 03532,0.00000941,0.00002600,0.00000299,-0.16805370,-0.11221544,-0.0214
 8623,-0.02013647,-0.01081589,-0.00813409,0.18663080,0.13095098,0.00002
 786,0.00003879,0.00034837,-0.00064685,0.00029770,-0.00030287,0.0000206
 6,0.00018942,-0.00082172,0.00262716,0.00102356,0.00291978,0.00257964,0
 .00061196,0.00029001,0.00039671,-0.00067141,-0.00020310,-0.00013686,-0
 .00006835,-0.00008926,-0.00056274,-0.00015414,-0.00121608,-0.00005072,
 0.00005152,-0.00002407,0.00028105,0.00025018,-0.00028493,0.00028919,-0
 .00008547,-0.00017912,-0.00021973,-0.00152164,-0.00936283,-0.00113900,
 -0.00043015,0.00015004,-0.00283368,-0.00081748,0.00022749,0.00007133,0
 .00008273,-0.00002104,0.00012096,0.00008604,0.00033448,0.00072972,-0.0
 0037981,0.00046325,0.00051731,0.00080814,-0.00041931,0.00000501,0.0001
 5192,-0.00000377,0.00000906,-0.00010446,0.00004377,-0.00332677,-0.0025
 2463,-0.00038152,-0.00000239,0.00002246,-0.00002226,-0.00011994,0.0000
 3288,-0.00012674,0.00002542,-0.00001307,0.00006291,0.00005946,-0.00013
 315,0.00009590,-0.00011480,0.00008905,-0.00013604,0.00001757,-0.000023
 93,0.00001399,-0.11317144,-0.05466571,-0.07809107,0.03940425,0.0244801
 5,0.00685634,0.07514256,0.03337687,0.07987942\\-0.00000481,-0.00001201
 ,0.00000465,0.00003426,0.00000248,0.00001075,0.00002161,-0.00000737,-0
 .00001558,-0.00001223,-0.00000575,-0.00000720,0.00001827,-0.00001997,0
 .00002441,-0.00004159,0.00003044,-0.00001427,-0.00000031,-0.00000477,0
 .00001801,-0.00000680,0.00000654,0.00000297,0.00000327,0.00000907,-0.0
 0000146,0.00000416,0.00000156,0.00000830,-0.00000780,-0.00001008,0.000
 02157,-0.00000240,0.00000540,-0.00000863,0.00000471,0.00001877,0.00000
 036,0.00000593,-0.00000643,0.00000852,0.00000658,0.00000117,-0.0000007
 1,-0.00000663,0.00000682,0.00000401,-0.00000415,-0.00000105,-0.0000092
 8,-0.00000005,0.00000512,0.00000185,-0.00000343,0.00000243,-0.00001053
 ,0.00000446,0.00000271,-0.00000391,0.00000262,-0.00000007,-0.00000516,
 0.00001863,-0.00000247,-0.00000379,-0.00002422,0.00001129,-0.00000190,
 -0.00000295,-0.00000827,-0.00002171,0.00000879,-0.00002258,-0.00000769
 ,-0.00002262,0.00001350,-0.00001021,0.00000314,-0.00000509,-0.00001227
 ,0.00000036,0.00001099,-0.00002942,-0.00000395,0.00000540,0.00000508,0
 .00000715,-0.00002778,0.00005323\\\@


 MICRO CREDO - NEVER TRUST A COMPUTER BIGGER
               BIGGER THAN YOU CAN LIFT.
 Job cpu time:       0 days  0 hours 34 minutes 14.0 seconds.
 File lengths (MBytes):  RWF=    221 Int=      0 D2E=      0 Chk=      6 Scr=      1
 Normal termination of Gaussian 09 at Sun Jan 15 13:45:10 2017.
