 Entering Gaussian System, Link 0=g09
 Initial command:
 /global/software/gaussian/g09.e01/l1.exe "/scratch/10462963.yak.local/Gau-26154.inp" -scrdir="/scratch/10462963.yak.local/"
 Entering Link 1 = /global/software/gaussian/g09.e01/l1.exe PID=     26155.
  
 Copyright (c) 1988,1990,1992,1993,1995,1998,2003,2009,2015,
            Gaussian, Inc.  All Rights Reserved.
  
 This is part of the Gaussian(R) 09 program.  It is based on
 the Gaussian(R) 03 system (copyright 2003, Gaussian, Inc.),
 the Gaussian(R) 98 system (copyright 1998, Gaussian, Inc.),
 the Gaussian(R) 94 system (copyright 1995, Gaussian, Inc.),
 the Gaussian 92(TM) system (copyright 1992, Gaussian, Inc.),
 the Gaussian 90(TM) system (copyright 1990, Gaussian, Inc.),
 the Gaussian 88(TM) system (copyright 1988, Gaussian, Inc.),
 the Gaussian 86(TM) system (copyright 1986, Carnegie Mellon
 University), and the Gaussian 82(TM) system (copyright 1983,
 Carnegie Mellon University). Gaussian is a federally registered
 trademark of Gaussian, Inc.
  
 This software contains proprietary and confidential information,
 including trade secrets, belonging to Gaussian, Inc.
  
 This software is provided under written license and may be
 used, copied, transmitted, or stored only in accord with that
 written license.
  
 The following legend is applicable only to US Government
 contracts under FAR:
  
                    RESTRICTED RIGHTS LEGEND
  
 Use, reproduction and disclosure by the US Government is
 subject to restrictions as set forth in subparagraphs (a)
 and (c) of the Commercial Computer Software - Restricted
 Rights clause in FAR 52.227-19.
  
 Gaussian, Inc.
 340 Quinnipiac St., Bldg. 40, Wallingford CT 06492
  
  
 ---------------------------------------------------------------
 Warning -- This program may not be used in any manner that
 competes with the business of Gaussian, Inc. or will provide
 assistance to any competitor of Gaussian, Inc.  The licensee
 of this program is prohibited from giving any competitor of
 Gaussian, Inc. access to this program.  By using this program,
 the user acknowledges that Gaussian, Inc. is engaged in the
 business of creating and licensing software in the field of
 computational chemistry and represents and warrants to the
 licensee that it is not a competitor of Gaussian, Inc. and that
 it will not use this program in any manner prohibited above.
 ---------------------------------------------------------------
  

 Cite this work as:
 Gaussian 09, Revision E.01,
 M. J. Frisch, G. W. Trucks, H. B. Schlegel, G. E. Scuseria, 
 M. A. Robb, J. R. Cheeseman, G. Scalmani, V. Barone, B. Mennucci, 
 G. A. Petersson, H. Nakatsuji, M. Caricato, X. Li, H. P. Hratchian, 
 A. F. Izmaylov, J. Bloino, G. Zheng, J. L. Sonnenberg, M. Hada, 
 M. Ehara, K. Toyota, R. Fukuda, J. Hasegawa, M. Ishida, T. Nakajima, 
 Y. Honda, O. Kitao, H. Nakai, T. Vreven, J. A. Montgomery, Jr., 
 J. E. Peralta, F. Ogliaro, M. Bearpark, J. J. Heyd, E. Brothers, 
 K. N. Kudin, V. N. Staroverov, T. Keith, R. Kobayashi, J. Normand, 
 K. Raghavachari, A. Rendell, J. C. Burant, S. S. Iyengar, J. Tomasi, 
 M. Cossi, N. Rega, J. M. Millam, M. Klene, J. E. Knox, J. B. Cross, 
 V. Bakken, C. Adamo, J. Jaramillo, R. Gomperts, R. E. Stratmann, 
 O. Yazyev, A. J. Austin, R. Cammi, C. Pomelli, J. W. Ochterski, 
 R. L. Martin, K. Morokuma, V. G. Zakrzewski, G. A. Voth, 
 P. Salvador, J. J. Dannenberg, S. Dapprich, A. D. Daniels, 
 O. Farkas, J. B. Foresman, J. V. Ortiz, J. Cioslowski, 
 and D. J. Fox, Gaussian, Inc., Wallingford CT, 2013.
 
 ******************************************
 Gaussian 09:  ES64L-G09RevE.01 30-Nov-2015
                15-Jan-2017 
 ******************************************
 %NPROCS=4
 Will use up to    4 processors via shared memory.
 -----------------------------------------
 # opt=(MaxCycle=1000) freq B3LYP/6-31G(d)
 -----------------------------------------
 1/6=1000,14=-1,18=20,19=15,26=3,38=1/1,3;
 2/9=110,12=2,17=6,18=5,40=1/2;
 3/5=1,6=6,7=1,11=2,16=1,25=1,30=1,71=1,74=-5/1,2,3;
 4//1;
 5/5=2,38=5/2;
 6/7=2,8=2,9=2,10=2,28=1/1;
 7//1,2,3,16;
 1/6=1000,14=-1,18=20,19=15,26=3/3(2);
 2/9=110/2;
 99//99;
 2/9=110/2;
 3/5=1,6=6,7=1,11=2,16=1,25=1,30=1,71=1,74=-5/1,2,3;
 4/5=5,16=3,69=1/1;
 5/5=2,38=5/2;
 7//1,2,3,16;
 1/6=1000,14=-1,18=20,19=15,26=3/3(-5);
 2/9=110/2;
 6/7=2,8=2,9=2,10=2,19=2,28=1/1;
 99/9=1/99;
 ----------------------------------------------
 ./boats/2/glo_1w_beta_ts_boat2_B3LYP_631Gd.out
 ----------------------------------------------
 Symbolic Z-matrix:
 Charge =  0 Multiplicity = 1
 C                     1.62704  -0.57379  -1.07391 
 O                     0.94595   1.00397  -0.84971 
 H                     3.33356   1.96552   0.51368 
 O                     2.87373  -0.53543  -0.60735 
 H                     2.90711   0.02523   0.23953 
 O                     2.6517    1.3711    0.86395 
 H                     1.88037   1.46637   0.22992 
 C                    -0.66688   0.29831   0.83335 
 C                    -0.43015   1.03041  -0.50223 
 C                    -0.92547   2.48804  -0.4446 
 O                    -2.34414   2.5481   -0.18632 
 O                    -2.07115   0.08503   1.05726 
 H                     1.59539  -0.64839  -2.16297 
 H                    -2.50446   0.93644   0.8351 
 H                    -0.2672    0.92506   1.64726 
 H                    -1.0048    0.50523  -1.2756 
 H                    -0.67488   3.00528  -1.37858 
 H                    -0.45382   3.0289    0.38209 
 H                    -2.80154   2.31445  -1.01033 
 O                    -2.8249   -2.26516  -0.2278 
 H                    -2.7328   -1.40572   0.24445 
 H                    -3.01002  -2.913     0.46816 
 C                     0.05958  -1.06983   0.90927 
 H                    -0.69141  -1.80744   1.23058 
 C                     0.6287   -1.55166  -0.44128 
 H                     1.18997  -2.47912  -0.24181 
 O                     1.1554   -1.05605   1.81268 
 H                     0.84516  -0.72257   2.66838 
 O                    -0.3815   -1.74622  -1.4104 
 H                    -1.17609  -2.16077  -1.00244 
 
 Add virtual bond connecting atoms O6         and H5         Dist= 2.84D+00.
 Add virtual bond connecting atoms H7         and O2         Dist= 2.84D+00.
 Add virtual bond connecting atoms O20        and H30        Dist= 3.45D+00.
 Add virtual bond connecting atoms H21        and O12        Dist= 3.44D+00.

 GradGradGradGradGradGradGradGradGradGradGradGradGradGradGradGradGradGrad
 Berny optimization.
 Initialization pass.
                           ----------------------------
                           !    Initial Parameters    !
                           ! (Angstroms and Degrees)  !
 --------------------------                            --------------------------
 ! Name  Definition              Value          Derivative Info.                !
 --------------------------------------------------------------------------------
 ! R1    R(1,4)                  1.3317         estimate D2E/DX2                !
 ! R2    R(1,13)                 1.0921         estimate D2E/DX2                !
 ! R3    R(1,25)                 1.534          estimate D2E/DX2                !
 ! R4    R(2,7)                  1.5009         estimate D2E/DX2                !
 ! R5    R(2,9)                  1.4195         estimate D2E/DX2                !
 ! R6    R(3,6)                  0.97           estimate D2E/DX2                !
 ! R7    R(4,5)                  1.0162         estimate D2E/DX2                !
 ! R8    R(5,6)                  1.5055         estimate D2E/DX2                !
 ! R9    R(6,7)                  1.003          estimate D2E/DX2                !
 ! R10   R(8,9)                  1.5414         estimate D2E/DX2                !
 ! R11   R(8,12)                 1.4379         estimate D2E/DX2                !
 ! R12   R(8,15)                 1.1023         estimate D2E/DX2                !
 ! R13   R(8,23)                 1.5509         estimate D2E/DX2                !
 ! R14   R(9,10)                 1.5406         estimate D2E/DX2                !
 ! R15   R(9,16)                 1.0973         estimate D2E/DX2                !
 ! R16   R(10,11)                1.4432         estimate D2E/DX2                !
 ! R17   R(10,17)                1.0967         estimate D2E/DX2                !
 ! R18   R(10,18)                1.0947         estimate D2E/DX2                !
 ! R19   R(11,19)                0.971          estimate D2E/DX2                !
 ! R20   R(12,14)                0.9808         estimate D2E/DX2                !
 ! R21   R(12,21)                1.8223         estimate D2E/DX2                !
 ! R22   R(20,21)                0.985          estimate D2E/DX2                !
 ! R23   R(20,22)                0.9687         estimate D2E/DX2                !
 ! R24   R(20,30)                1.8247         estimate D2E/DX2                !
 ! R25   R(23,24)                1.1006         estimate D2E/DX2                !
 ! R26   R(23,25)                1.5427         estimate D2E/DX2                !
 ! R27   R(23,27)                1.4203         estimate D2E/DX2                !
 ! R28   R(25,26)                1.1023         estimate D2E/DX2                !
 ! R29   R(25,29)                1.4133         estimate D2E/DX2                !
 ! R30   R(27,28)                0.9694         estimate D2E/DX2                !
 ! R31   R(29,30)                0.9847         estimate D2E/DX2                !
 ! A1    A(4,1,13)             112.24           estimate D2E/DX2                !
 ! A2    A(4,1,25)             118.8912         estimate D2E/DX2                !
 ! A3    A(13,1,25)            110.4178         estimate D2E/DX2                !
 ! A4    A(7,2,9)              114.9432         estimate D2E/DX2                !
 ! A5    A(1,4,5)              109.7929         estimate D2E/DX2                !
 ! A6    A(4,5,6)              146.4401         estimate D2E/DX2                !
 ! A7    A(3,6,5)              106.1882         estimate D2E/DX2                !
 ! A8    A(3,6,7)              104.7204         estimate D2E/DX2                !
 ! A9    A(5,6,7)               87.3174         estimate D2E/DX2                !
 ! A10   A(2,7,6)              154.7213         estimate D2E/DX2                !
 ! A11   A(9,8,12)             110.8162         estimate D2E/DX2                !
 ! A12   A(9,8,15)             108.3039         estimate D2E/DX2                !
 ! A13   A(9,8,23)             112.9217         estimate D2E/DX2                !
 ! A14   A(12,8,15)            108.8728         estimate D2E/DX2                !
 ! A15   A(12,8,23)            108.6013         estimate D2E/DX2                !
 ! A16   A(15,8,23)            107.1936         estimate D2E/DX2                !
 ! A17   A(2,9,8)              110.6184         estimate D2E/DX2                !
 ! A18   A(2,9,10)             109.783          estimate D2E/DX2                !
 ! A19   A(2,9,16)             109.0397         estimate D2E/DX2                !
 ! A20   A(8,9,10)             111.568          estimate D2E/DX2                !
 ! A21   A(8,9,16)             107.6339         estimate D2E/DX2                !
 ! A22   A(10,9,16)            108.1089         estimate D2E/DX2                !
 ! A23   A(9,10,11)            111.23           estimate D2E/DX2                !
 ! A24   A(9,10,17)            109.9338         estimate D2E/DX2                !
 ! A25   A(9,10,18)            110.9279         estimate D2E/DX2                !
 ! A26   A(11,10,17)           110.9405         estimate D2E/DX2                !
 ! A27   A(11,10,18)           105.5337         estimate D2E/DX2                !
 ! A28   A(17,10,18)           108.1599         estimate D2E/DX2                !
 ! A29   A(10,11,19)           107.5277         estimate D2E/DX2                !
 ! A30   A(8,12,14)            105.5108         estimate D2E/DX2                !
 ! A31   A(8,12,21)            113.9835         estimate D2E/DX2                !
 ! A32   A(14,12,21)           116.6596         estimate D2E/DX2                !
 ! A33   A(21,20,22)           104.8895         estimate D2E/DX2                !
 ! A34   A(21,20,30)            93.9643         estimate D2E/DX2                !
 ! A35   A(22,20,30)           121.0614         estimate D2E/DX2                !
 ! A36   A(12,21,20)           164.0746         estimate D2E/DX2                !
 ! A37   A(8,23,24)            106.6119         estimate D2E/DX2                !
 ! A38   A(8,23,25)            113.9199         estimate D2E/DX2                !
 ! A39   A(8,23,27)            112.5807         estimate D2E/DX2                !
 ! A40   A(24,23,25)           107.3363         estimate D2E/DX2                !
 ! A41   A(24,23,27)           110.3209         estimate D2E/DX2                !
 ! A42   A(25,23,27)           105.9765         estimate D2E/DX2                !
 ! A43   A(1,25,23)            113.7047         estimate D2E/DX2                !
 ! A44   A(1,25,26)            106.237          estimate D2E/DX2                !
 ! A45   A(1,25,29)            105.6727         estimate D2E/DX2                !
 ! A46   A(23,25,26)           106.9906         estimate D2E/DX2                !
 ! A47   A(23,25,29)           112.3082         estimate D2E/DX2                !
 ! A48   A(26,25,29)           111.8519         estimate D2E/DX2                !
 ! A49   A(23,27,28)           108.5361         estimate D2E/DX2                !
 ! A50   A(25,29,30)           110.5259         estimate D2E/DX2                !
 ! A51   A(20,30,29)           158.2961         estimate D2E/DX2                !
 ! D1    D(13,1,4,5)           148.3711         estimate D2E/DX2                !
 ! D2    D(25,1,4,5)           -80.6237         estimate D2E/DX2                !
 ! D3    D(4,1,25,23)           78.1529         estimate D2E/DX2                !
 ! D4    D(4,1,25,26)          -39.2515         estimate D2E/DX2                !
 ! D5    D(4,1,25,29)         -158.2215         estimate D2E/DX2                !
 ! D6    D(13,1,25,23)        -150.0351         estimate D2E/DX2                !
 ! D7    D(13,1,25,26)          92.5605         estimate D2E/DX2                !
 ! D8    D(13,1,25,29)         -26.4095         estimate D2E/DX2                !
 ! D9    D(9,2,7,6)            123.0537         estimate D2E/DX2                !
 ! D10   D(7,2,9,8)            -51.365          estimate D2E/DX2                !
 ! D11   D(7,2,9,10)            72.1893         estimate D2E/DX2                !
 ! D12   D(7,2,9,16)          -169.5448         estimate D2E/DX2                !
 ! D13   D(1,4,5,6)            -58.7377         estimate D2E/DX2                !
 ! D14   D(4,5,6,3)            -71.0879         estimate D2E/DX2                !
 ! D15   D(4,5,6,7)             33.4654         estimate D2E/DX2                !
 ! D16   D(3,6,7,2)            109.36           estimate D2E/DX2                !
 ! D17   D(5,6,7,2)              3.3228         estimate D2E/DX2                !
 ! D18   D(12,8,9,2)          -168.3824         estimate D2E/DX2                !
 ! D19   D(12,8,9,10)           69.0992         estimate D2E/DX2                !
 ! D20   D(12,8,9,16)          -49.3483         estimate D2E/DX2                !
 ! D21   D(15,8,9,2)            72.2597         estimate D2E/DX2                !
 ! D22   D(15,8,9,10)          -50.2587         estimate D2E/DX2                !
 ! D23   D(15,8,9,16)         -168.7062         estimate D2E/DX2                !
 ! D24   D(23,8,9,2)           -46.2904         estimate D2E/DX2                !
 ! D25   D(23,8,9,10)         -168.8088         estimate D2E/DX2                !
 ! D26   D(23,8,9,16)           72.7437         estimate D2E/DX2                !
 ! D27   D(9,8,12,14)          -45.1016         estimate D2E/DX2                !
 ! D28   D(9,8,12,21)           84.1789         estimate D2E/DX2                !
 ! D29   D(15,8,12,14)          73.9137         estimate D2E/DX2                !
 ! D30   D(15,8,12,21)        -156.8058         estimate D2E/DX2                !
 ! D31   D(23,8,12,14)        -169.6843         estimate D2E/DX2                !
 ! D32   D(23,8,12,21)         -40.4038         estimate D2E/DX2                !
 ! D33   D(9,8,23,24)         -129.782          estimate D2E/DX2                !
 ! D34   D(9,8,23,25)          -11.585          estimate D2E/DX2                !
 ! D35   D(9,8,23,27)          109.1163         estimate D2E/DX2                !
 ! D36   D(12,8,23,24)          -6.4544         estimate D2E/DX2                !
 ! D37   D(12,8,23,25)         111.7425         estimate D2E/DX2                !
 ! D38   D(12,8,23,27)        -127.5562         estimate D2E/DX2                !
 ! D39   D(15,8,23,24)         111.0233         estimate D2E/DX2                !
 ! D40   D(15,8,23,25)        -130.7797         estimate D2E/DX2                !
 ! D41   D(15,8,23,27)         -10.0784         estimate D2E/DX2                !
 ! D42   D(2,9,10,11)          175.9374         estimate D2E/DX2                !
 ! D43   D(2,9,10,17)           52.6567         estimate D2E/DX2                !
 ! D44   D(2,9,10,18)          -66.9232         estimate D2E/DX2                !
 ! D45   D(8,9,10,11)          -61.0664         estimate D2E/DX2                !
 ! D46   D(8,9,10,17)          175.6529         estimate D2E/DX2                !
 ! D47   D(8,9,10,18)           56.0729         estimate D2E/DX2                !
 ! D48   D(16,9,10,11)          57.0967         estimate D2E/DX2                !
 ! D49   D(16,9,10,17)         -66.184          estimate D2E/DX2                !
 ! D50   D(16,9,10,18)         174.236          estimate D2E/DX2                !
 ! D51   D(9,10,11,19)         -75.8678         estimate D2E/DX2                !
 ! D52   D(17,10,11,19)         46.835          estimate D2E/DX2                !
 ! D53   D(18,10,11,19)        163.754          estimate D2E/DX2                !
 ! D54   D(8,12,21,20)          12.4612         estimate D2E/DX2                !
 ! D55   D(14,12,21,20)        135.8878         estimate D2E/DX2                !
 ! D56   D(22,20,21,12)        100.6361         estimate D2E/DX2                !
 ! D57   D(30,20,21,12)        -22.9775         estimate D2E/DX2                !
 ! D58   D(21,20,30,29)        -33.2899         estimate D2E/DX2                !
 ! D59   D(22,20,30,29)       -143.3147         estimate D2E/DX2                !
 ! D60   D(8,23,25,1)           58.2295         estimate D2E/DX2                !
 ! D61   D(8,23,25,26)         175.1961         estimate D2E/DX2                !
 ! D62   D(8,23,25,29)         -61.7076         estimate D2E/DX2                !
 ! D63   D(24,23,25,1)         176.0104         estimate D2E/DX2                !
 ! D64   D(24,23,25,26)        -67.023          estimate D2E/DX2                !
 ! D65   D(24,23,25,29)         56.0733         estimate D2E/DX2                !
 ! D66   D(27,23,25,1)         -66.0985         estimate D2E/DX2                !
 ! D67   D(27,23,25,26)         50.8681         estimate D2E/DX2                !
 ! D68   D(27,23,25,29)        173.9644         estimate D2E/DX2                !
 ! D69   D(8,23,27,28)          52.5569         estimate D2E/DX2                !
 ! D70   D(24,23,27,28)        -66.4016         estimate D2E/DX2                !
 ! D71   D(25,23,27,28)        177.7145         estimate D2E/DX2                !
 ! D72   D(1,25,29,30)        -164.6817         estimate D2E/DX2                !
 ! D73   D(23,25,29,30)        -40.1791         estimate D2E/DX2                !
 ! D74   D(26,25,29,30)         80.1419         estimate D2E/DX2                !
 ! D75   D(25,29,30,20)         96.11           estimate D2E/DX2                !
 --------------------------------------------------------------------------------
 Trust Radius=3.00D-01 FncErr=1.00D-07 GrdErr=1.00D-06
 Number of steps in this run=    180 maximum allowed number of steps=    180.
 GradGradGradGradGradGradGradGradGradGradGradGradGradGradGradGradGradGrad

                          Input orientation:                          
 ---------------------------------------------------------------------
 Center     Atomic      Atomic             Coordinates (Angstroms)
 Number     Number       Type             X           Y           Z
 ---------------------------------------------------------------------
      1          6           0        1.627040   -0.573790   -1.073910
      2          8           0        0.945950    1.003970   -0.849710
      3          1           0        3.333560    1.965520    0.513680
      4          8           0        2.873730   -0.535430   -0.607350
      5          1           0        2.907110    0.025230    0.239530
      6          8           0        2.651700    1.371100    0.863950
      7          1           0        1.880370    1.466370    0.229920
      8          6           0       -0.666880    0.298310    0.833350
      9          6           0       -0.430150    1.030410   -0.502230
     10          6           0       -0.925470    2.488040   -0.444600
     11          8           0       -2.344140    2.548100   -0.186320
     12          8           0       -2.071150    0.085030    1.057260
     13          1           0        1.595390   -0.648390   -2.162970
     14          1           0       -2.504460    0.936440    0.835100
     15          1           0       -0.267200    0.925060    1.647260
     16          1           0       -1.004800    0.505230   -1.275600
     17          1           0       -0.674880    3.005280   -1.378580
     18          1           0       -0.453820    3.028900    0.382090
     19          1           0       -2.801540    2.314450   -1.010330
     20          8           0       -2.824900   -2.265160   -0.227800
     21          1           0       -2.732800   -1.405720    0.244450
     22          1           0       -3.010020   -2.913000    0.468160
     23          6           0        0.059580   -1.069830    0.909270
     24          1           0       -0.691410   -1.807440    1.230580
     25          6           0        0.628700   -1.551660   -0.441280
     26          1           0        1.189970   -2.479120   -0.241810
     27          8           0        1.155400   -1.056050    1.812680
     28          1           0        0.845160   -0.722570    2.668380
     29          8           0       -0.381500   -1.746220   -1.410400
     30          1           0       -1.176090   -2.160770   -1.002440
 ---------------------------------------------------------------------
                    Distance matrix (angstroms):
                    1          2          3          4          5
     1  C    0.000000
     2  O    1.733054   0.000000
     3  H    3.446846   2.912747   0.000000
     4  O    1.331685   2.478876   2.779011   0.000000
     5  H    1.929386   2.447555   2.005428   1.016199   0.000000
     6  O    2.930499   2.445608   0.970030   2.418445   1.505490
     7  H    2.434420   1.500852   1.562508   2.386417   1.769512
     8  C    3.108097   2.435543   4.345722   3.912372   3.633263
     9  C    2.670638   1.419540   4.008992   3.657667   3.563411
    10  C    4.035609   2.422559   4.396665   4.858166   4.606749
    11  O    5.128770   3.694471   5.750276   6.075491   5.841391
    12  O    4.318858   3.685631   5.748270   5.254306   5.045328
    13  H    1.092071   2.208329   4.125314   2.016647   2.818932
    14  H    4.795248   3.840374   5.936733   5.759513   5.519973
    15  H    3.638607   2.777196   3.915742   4.133006   3.587150
    16  H    2.851586   2.058045   4.914808   4.070937   4.222447
    17  H    4.266310   2.629075   4.552948   5.071889   4.932508
    18  H    4.407867   2.752640   3.936031   4.975543   4.509790
    19  H    5.287560   3.973265   6.331178   6.363403   6.276254
    20  O    4.836983   5.029244   7.508334   5.967446   6.190333
    21  H    4.630160   4.531776   6.945392   5.737259   5.818610
    22  H    5.417768   5.720938   8.002689   6.436464   6.610438
    23  C    2.576041   2.860124   4.482052   3.241166   3.123481
    24  H    3.493963   3.861681   5.563233   4.207876   4.158149
    25  C    1.533993   2.607433   4.538587   2.469911   2.853285
    26  H    2.124548   3.544151   4.992050   2.597421   3.074415
    27  O    2.964358   3.372814   3.944828   3.013345   2.590841
    28  H    3.825991   3.920211   4.249788   3.857528   3.272637
    29  O    2.349904   3.104842   5.592921   3.564747   4.083535
    30  H    3.221979   3.813392   6.297764   4.381651   4.795165
                    6          7          8          9         10
     6  O    0.000000
     7  H    1.003006   0.000000
     8  C    3.487806   2.866527   0.000000
     9  C    3.388262   2.462642   1.541358   0.000000
    10  C    3.969383   3.061295   2.548518   1.540568   0.000000
    11  O    5.238971   4.380626   2.985713   2.463035   1.443240
    12  O    4.898638   4.266978   1.437915   2.453290   3.056570
    13  H    3.788981   3.206142   3.871956   3.111148   4.375468
    14  H    5.174529   4.458004   1.945228   2.469827   2.557011
    15  H    3.054915   2.629435   1.102275   2.158230   2.692973
    16  H    4.324049   3.393315   2.145851   1.097332   2.151369
    17  H    4.331930   3.388926   3.495767   2.174395   1.096655
    18  H    3.553132   2.813023   2.775816   2.185531   1.094714
    19  H    5.843001   4.917087   3.467095   2.744160   1.967186
    20  O    6.663892   6.022739   3.514892   4.083004   5.123255
    21  H    6.089938   5.434193   2.741997   3.434306   4.347712
    22  H    7.110924   6.568984   3.992015   4.811223   5.860863
    23  C    3.560798   3.195169   1.550908   2.577436   3.932140
    24  H    4.627518   4.281729   2.143030   3.335308   4.616510
    25  C    3.786645   3.335520   2.593376   2.791409   4.328352
    26  H    4.264218   4.033122   3.509698   3.874198   5.402674
    27  O    3.005006   3.064851   2.472667   3.496583   4.688913
    28  H    3.301970   3.436452   2.587624   3.840849   4.809760
    29  O    4.908223   4.257633   3.048927   2.921783   4.376943
    30  H    5.532585   4.900694   3.110706   3.315157   4.688862
                   11         12         13         14         15
    11  O    0.000000
    12  O    2.772675   0.000000
    13  H    5.444685   4.934704   0.000000
    14  H    1.914797   0.980822   5.320609   0.000000
    15  H    3.210912   2.075569   4.523587   2.380140   0.000000
    16  H    2.674636   2.599213   2.979807   2.624877   3.043587
    17  H    2.101648   4.051018   4.372493   3.539469   3.694486
    18  H    2.031642   3.426074   4.919253   2.964579   2.462037
    19  H    0.970979   3.127093   5.425863   2.322236   3.926330
    20  O    4.837388   2.782609   5.088987   3.388610   4.498353
    21  H    3.996162   1.822300   5.010234   2.426256   3.671457
    22  H    5.540339   3.196357   5.767244   3.899798   4.862514
    23  C    4.479688   2.428088   3.460489   3.256520   2.151976
    24  H    4.869276   2.348439   4.253120   3.312466   2.796450
    25  C    5.070583   3.494791   2.171314   4.199581   3.361366
    26  H    6.145401   4.347108   2.684547   5.145347   4.156967
    27  O    5.406725   3.504761   4.020643   4.280217   2.444576
    28  H    5.386857   3.428234   4.889815   4.163314   2.234886
    29  O    4.877654   3.506813   2.383209   4.092175   4.061784
    30  H    4.919741   3.176022   3.363811   3.838467   4.167654
                   16         17         18         19         20
    16  H    0.000000
    17  H    2.523827   0.000000
    18  H    3.069271   1.774650   0.000000
    19  H    2.563576   2.266172   2.821535   0.000000
    20  O    3.476451   5.807273   5.832757   4.646044   0.000000
    21  H    2.991365   5.130905   4.987840   3.926686   0.984957
    22  H    4.329654   6.624905   6.468983   5.436509   0.968672
    23  C    2.896097   4.730773   4.164263   4.829516   3.322946
    24  H    3.424557   5.474510   4.915950   5.144347   2.624530
    25  C    2.755941   4.831517   4.778213   5.199728   3.532989
    26  H    3.846048   5.903266   5.781832   6.284989   4.020592
    27  O    4.079403   5.479824   4.617683   5.914984   4.633389
    28  H    4.526016   5.708351   4.581266   6.004566   4.923087
    29  O    2.340022   4.760655   5.100982   4.744016   2.763701
    30  H    2.685426   5.203918   5.419527   4.761275   1.824702
                   21         22         23         24         25
    21  H    0.000000
    22  H    1.548803   0.000000
    23  C    2.890016   3.607533   0.000000
    24  H    2.302413   2.679459   1.100588   0.000000
    25  C    3.433833   3.990064   1.542739   2.145514   0.000000
    26  H    4.095944   4.281615   2.142164   2.481668   1.102268
    27  O    4.207103   4.754653   1.420268   2.077049   2.367146
    28  H    4.375378   4.949885   1.957599   2.367543   3.225559
    29  O    2.895355   3.435037   2.456201   2.659806   1.413348
    30  H    2.132647   2.468160   2.524216   2.312171   1.985745
                   26         27         28         29         30
    26  H    0.000000
    27  O    2.499450   0.000000
    28  H    3.416660   0.969371   0.000000
    29  O    2.090996   3.636845   4.380525   0.000000
    30  H    2.505623   3.818528   4.430439   0.984711   0.000000
 Stoichiometry    C6H16O8
 Framework group  C1[X(C6H16O8)]
 Deg. of freedom    84
 Full point group                 C1      NOp   1
 Largest Abelian subgroup         C1      NOp   1
 Largest concise Abelian subgroup C1      NOp   1
                         Standard orientation:                         
 ---------------------------------------------------------------------
 Center     Atomic      Atomic             Coordinates (Angstroms)
 Number     Number       Type             X           Y           Z
 ---------------------------------------------------------------------
      1          6           0        1.635494   -0.596131   -1.082695
      2          8           0        0.965657    0.986726   -0.860527
      3          1           0        3.363244    1.935371    0.494367
      4          8           0        2.883625   -0.565083   -0.619455
      5          1           0        2.922993   -0.002642    0.225986
      6          8           0        2.678301    1.346409    0.847828
      7          1           0        1.905984    1.445376    0.215568
      8          6           0       -0.647514    0.295998    0.828390
      9          6           0       -0.409324    1.023293   -0.509553
     10          6           0       -0.894641    2.484370   -0.454146
     11          8           0       -2.312196    2.554631   -0.192342
     12          8           0       -2.052605    0.092747    1.056444
     13          1           0        1.600506   -0.673113   -2.171487
     14          1           0       -2.480734    0.946533    0.833360
     15          1           0       -0.241495    0.921974    1.639755
     16          1           0       -0.989518    0.500165   -1.280170
     17          1           0       -0.642996    2.997675   -1.390012
     18          1           0       -0.417200    3.024002    0.370019
     19          1           0       -2.773306    2.322112   -1.014603
     20          8           0       -2.825546   -2.255355   -0.221010
     21          1           0       -2.726417   -1.395433    0.248934
     22          1           0       -3.013223   -2.900267    0.476982
     23          6           0        0.069888   -1.076834    0.905719
     24          1           0       -0.685226   -1.808584    1.230743
     25          6           0        0.632225   -1.565720   -0.445136
     26          1           0        1.187738   -2.496473   -0.244890
     27          8           0        1.168124   -1.068304    1.806256
     28          1           0        0.862370   -0.730694    2.661951
     29          8           0       -0.381785   -1.755761   -1.411170
     30          1           0       -1.178091   -2.163958   -1.000161
 ---------------------------------------------------------------------
 Rotational constants (GHZ):      0.7308339      0.5743294      0.4285532
 Standard basis: 6-31G(d) (6D, 7F)
 There are   242 symmetry adapted cartesian basis functions of A   symmetry.
 There are   242 symmetry adapted basis functions of A   symmetry.
   242 basis functions,   456 primitive gaussians,   242 cartesian basis functions
    58 alpha electrons       58 beta electrons
       nuclear repulsion energy      1133.5475026767 Hartrees.
 NAtoms=   30 NActive=   30 NUniq=   30 SFac= 1.00D+00 NAtFMM=   60 NAOKFM=F Big=F
 Integral buffers will be    131072 words long.
 Raffenetti 2 integral format.
 Two-electron integral symmetry is turned on.
 One-electron integrals computed using PRISM.
 NBasis=   242 RedAO= T EigKep=  1.52D-03  NBF=   242
 NBsUse=   242 1.00D-06 EigRej= -1.00D+00 NBFU=   242
 ExpMin= 1.61D-01 ExpMax= 5.48D+03 ExpMxC= 8.25D+02 IAcc=1 IRadAn=         1 AccDes= 0.00D+00
 Harris functional with IExCor=  402 and IRadAn=       1 diagonalized for initial guess.
 HarFok:  IExCor=  402 AccDes= 0.00D+00 IRadAn=         1 IDoV= 1 UseB2=F ITyADJ=14
 ICtDFT=  3500011 ScaDFX=  1.000000  1.000000  1.000000  1.000000
 FoFCou: FMM=F IPFlag=           0 FMFlag=      100000 FMFlg1=           0
         NFxFlg=           0 DoJE=T BraDBF=F KetDBF=T FulRan=T
         wScrn=  0.000000 ICntrl=     500 IOpCl=  0 I1Cent=   200000004 NGrid=           0
         NMat0=    1 NMatS0=      1 NMatT0=    0 NMatD0=    1 NMtDS0=    0 NMtDT0=    0
 Petite list used in FoFCou.
 Requested convergence on RMS density matrix=1.00D-08 within 128 cycles.
 Requested convergence on MAX density matrix=1.00D-06.
 Requested convergence on             energy=1.00D-06.
 No special actions if energy rises.
 Integral accuracy reduced to 1.0D-05 until final iterations.
 Initial convergence to 1.0D-05 achieved.  Increase integral accuracy.
 SCF Done:  E(RB3LYP) =  -839.967306384     A.U. after   14 cycles
            NFock= 14  Conv=0.30D-08     -V/T= 2.0086

 **********************************************************************

            Population analysis using the SCF density.

 **********************************************************************

 Orbital symmetries:
       Occupied  (A) (A) (A) (A) (A) (A) (A) (A) (A) (A) (A) (A)
                 (A) (A) (A) (A) (A) (A) (A) (A) (A) (A) (A) (A)
                 (A) (A) (A) (A) (A) (A) (A) (A) (A) (A) (A) (A)
                 (A) (A) (A) (A) (A) (A) (A) (A) (A) (A) (A) (A)
                 (A) (A) (A) (A) (A) (A) (A) (A) (A) (A)
       Virtual   (A) (A) (A) (A) (A) (A) (A) (A) (A) (A) (A) (A)
                 (A) (A) (A) (A) (A) (A) (A) (A) (A) (A) (A) (A)
                 (A) (A) (A) (A) (A) (A) (A) (A) (A) (A) (A) (A)
                 (A) (A) (A) (A) (A) (A) (A) (A) (A) (A) (A) (A)
                 (A) (A) (A) (A) (A) (A) (A) (A) (A) (A) (A) (A)
                 (A) (A) (A) (A) (A) (A) (A) (A) (A) (A) (A) (A)
                 (A) (A) (A) (A) (A) (A) (A) (A) (A) (A) (A) (A)
                 (A) (A) (A) (A) (A) (A) (A) (A) (A) (A) (A) (A)
                 (A) (A) (A) (A) (A) (A) (A) (A) (A) (A) (A) (A)
                 (A) (A) (A) (A) (A) (A) (A) (A) (A) (A) (A) (A)
                 (A) (A) (A) (A) (A) (A) (A) (A) (A) (A) (A) (A)
                 (A) (A) (A) (A) (A) (A) (A) (A) (A) (A) (A) (A)
                 (A) (A) (A) (A) (A) (A) (A) (A) (A) (A) (A) (A)
                 (A) (A) (A) (A) (A) (A) (A) (A) (A) (A) (A) (A)
                 (A) (A) (A) (A) (A) (A) (A) (A) (A) (A) (A) (A)
                 (A) (A) (A) (A)
 The electronic state is 1-A.
 Alpha  occ. eigenvalues --  -19.18580 -19.16547 -19.15282 -19.15210 -19.15017
 Alpha  occ. eigenvalues --  -19.13633 -19.13506 -19.13021 -10.29017 -10.25226
 Alpha  occ. eigenvalues --  -10.24701 -10.24523 -10.24044 -10.23704  -1.05793
 Alpha  occ. eigenvalues --   -1.05077  -1.03615  -1.02430  -1.01217  -1.00175
 Alpha  occ. eigenvalues --   -0.99753  -0.98385  -0.77071  -0.75428  -0.70228
 Alpha  occ. eigenvalues --   -0.65131  -0.62383  -0.57978  -0.55544  -0.53779
 Alpha  occ. eigenvalues --   -0.53153  -0.52472  -0.51532  -0.50373  -0.49096
 Alpha  occ. eigenvalues --   -0.47778  -0.45875  -0.45623  -0.43799  -0.41699
 Alpha  occ. eigenvalues --   -0.41595  -0.40881  -0.40484  -0.38781  -0.38162
 Alpha  occ. eigenvalues --   -0.36977  -0.35615  -0.34430  -0.33859  -0.33345
 Alpha  occ. eigenvalues --   -0.30622  -0.30432  -0.30086  -0.28090  -0.27944
 Alpha  occ. eigenvalues --   -0.27249  -0.25335  -0.24815
 Alpha virt. eigenvalues --    0.02641   0.04660   0.06523   0.06851   0.08441
 Alpha virt. eigenvalues --    0.09640   0.11051   0.12874   0.13645   0.14646
 Alpha virt. eigenvalues --    0.15184   0.16955   0.17364   0.18901   0.20042
 Alpha virt. eigenvalues --    0.20658   0.21703   0.22667   0.23571   0.24191
 Alpha virt. eigenvalues --    0.25031   0.26261   0.26666   0.28549   0.30454
 Alpha virt. eigenvalues --    0.31701   0.32842   0.34981   0.51424   0.53242
 Alpha virt. eigenvalues --    0.53904   0.54942   0.56667   0.57191   0.58952
 Alpha virt. eigenvalues --    0.59438   0.62315   0.63728   0.65237   0.66167
 Alpha virt. eigenvalues --    0.69178   0.71688   0.71791   0.73914   0.75417
 Alpha virt. eigenvalues --    0.76196   0.76605   0.77657   0.78336   0.80403
 Alpha virt. eigenvalues --    0.82233   0.82934   0.84238   0.85236   0.85581
 Alpha virt. eigenvalues --    0.87016   0.88135   0.88909   0.89330   0.91354
 Alpha virt. eigenvalues --    0.91675   0.91939   0.92970   0.94974   0.96727
 Alpha virt. eigenvalues --    0.97533   0.98634   0.99350   1.01100   1.02964
 Alpha virt. eigenvalues --    1.04657   1.05882   1.07215   1.08056   1.08866
 Alpha virt. eigenvalues --    1.10273   1.13992   1.15467   1.16144   1.18154
 Alpha virt. eigenvalues --    1.19061   1.20752   1.21419   1.23679   1.26621
 Alpha virt. eigenvalues --    1.27270   1.30760   1.34948   1.35940   1.38933
 Alpha virt. eigenvalues --    1.40256   1.42736   1.45207   1.46019   1.49238
 Alpha virt. eigenvalues --    1.54010   1.54294   1.56418   1.58621   1.59260
 Alpha virt. eigenvalues --    1.61738   1.62501   1.66035   1.66185   1.68507
 Alpha virt. eigenvalues --    1.71307   1.71598   1.72654   1.73202   1.73938
 Alpha virt. eigenvalues --    1.74314   1.74720   1.76228   1.77476   1.78121
 Alpha virt. eigenvalues --    1.81299   1.81966   1.84469   1.85584   1.86020
 Alpha virt. eigenvalues --    1.88049   1.90096   1.92011   1.93395   1.96264
 Alpha virt. eigenvalues --    1.98437   2.00017   2.00996   2.03286   2.04696
 Alpha virt. eigenvalues --    2.05698   2.08079   2.09654   2.13537   2.16103
 Alpha virt. eigenvalues --    2.16862   2.20871   2.23197   2.25112   2.25971
 Alpha virt. eigenvalues --    2.29523   2.31328   2.34922   2.35720   2.37765
 Alpha virt. eigenvalues --    2.42159   2.45375   2.47062   2.49103   2.50846
 Alpha virt. eigenvalues --    2.52012   2.53094   2.54975   2.56310   2.58751
 Alpha virt. eigenvalues --    2.60283   2.61982   2.66305   2.69403   2.70720
 Alpha virt. eigenvalues --    2.72629   2.75732   2.78803   2.82556   2.87809
 Alpha virt. eigenvalues --    2.91360   2.94651   3.00488   3.03890   3.08065
 Alpha virt. eigenvalues --    3.73226   3.75455   3.78826   3.80910   3.91388
 Alpha virt. eigenvalues --    3.98619   4.07159   4.12341   4.28997   4.35743
 Alpha virt. eigenvalues --    4.40789   4.53642   4.66456   4.79262
          Condensed to atoms (all electrons):
               1          2          3          4          5          6
     1  C    4.730355   0.132718   0.000064   0.326768  -0.026677   0.009675
     2  O    0.132718   8.495202   0.003155  -0.035856   0.004395  -0.069762
     3  H    0.000064   0.003155   0.384222   0.005242  -0.006510   0.229863
     4  O    0.326768  -0.035856   0.005242   8.271159   0.184793  -0.071099
     5  H   -0.026677   0.004395  -0.006510   0.184793   0.292757   0.096483
     6  O    0.009675  -0.069762   0.229863  -0.071099   0.096483   8.456297
     7  H   -0.007695   0.084210  -0.006407   0.011699  -0.016179   0.163164
     8  C   -0.020236  -0.037551  -0.000071   0.000091   0.000421   0.000320
     9  C   -0.010053   0.145587  -0.000169   0.001446  -0.000388   0.006301
    10  C    0.001559  -0.032921   0.000008  -0.000029   0.000004  -0.000071
    11  O   -0.000021   0.001282   0.000000   0.000000  -0.000000   0.000000
    12  O    0.000284   0.001609  -0.000000  -0.000000   0.000000   0.000002
    13  H    0.373793  -0.023782   0.000008  -0.043968   0.004928  -0.000428
    14  H   -0.000020   0.000081   0.000000  -0.000000   0.000000  -0.000000
    15  H    0.001035   0.003957  -0.000009   0.000007   0.000032   0.001307
    16  H   -0.007356  -0.027133   0.000008   0.000000   0.000035  -0.000173
    17  H   -0.000079   0.004981  -0.000002   0.000002  -0.000001   0.000013
    18  H   -0.000115   0.002667   0.000027   0.000004  -0.000009   0.000083
    19  H   -0.000002  -0.000012   0.000000  -0.000000   0.000000  -0.000000
    20  O    0.000001   0.000000  -0.000000   0.000000  -0.000000   0.000000
    21  H    0.000010  -0.000001   0.000000  -0.000000   0.000000  -0.000000
    22  H    0.000004  -0.000000   0.000000  -0.000000   0.000000  -0.000000
    23  C   -0.016504  -0.004996   0.000007   0.000593  -0.000461   0.000242
    24  H    0.005439   0.000058   0.000001  -0.000115   0.000049  -0.000002
    25  C    0.269793  -0.030393   0.000025  -0.043925  -0.006449  -0.000630
    26  H   -0.052885   0.002398  -0.000003   0.004160   0.000512   0.000014
    27  O    0.003332  -0.000591   0.000222  -0.001216   0.007975  -0.000463
    28  H   -0.000038   0.000034  -0.000018   0.000170  -0.000197   0.000370
    29  O   -0.038785   0.001299  -0.000000   0.001488   0.000046   0.000001
    30  H    0.004308  -0.000102   0.000000  -0.000080   0.000001  -0.000000
               7          8          9         10         11         12
     1  C   -0.007695  -0.020236  -0.010053   0.001559  -0.000021   0.000284
     2  O    0.084210  -0.037551   0.145587  -0.032921   0.001282   0.001609
     3  H   -0.006407  -0.000071  -0.000169   0.000008   0.000000  -0.000000
     4  O    0.011699   0.000091   0.001446  -0.000029   0.000000  -0.000000
     5  H   -0.016179   0.000421  -0.000388   0.000004  -0.000000   0.000000
     6  O    0.163164   0.000320   0.006301  -0.000071   0.000000   0.000002
     7  H    0.345799  -0.001993  -0.010985  -0.002607   0.000032  -0.000012
     8  C   -0.001993   5.099061   0.297912  -0.033405   0.001775   0.165431
     9  C   -0.010985   0.297912   5.002048   0.320001  -0.038637  -0.023217
    10  C   -0.002607  -0.033405   0.320001   4.972323   0.216173   0.001190
    11  O    0.000032   0.001775  -0.038637   0.216173   8.227226  -0.019458
    12  O   -0.000012   0.165431  -0.023217   0.001190  -0.019458   8.353692
    13  H    0.001045   0.000126  -0.001135  -0.000088   0.000001   0.000005
    14  H    0.000007  -0.020897  -0.007039  -0.006898   0.059676   0.212849
    15  H    0.002410   0.354618  -0.045627  -0.011834   0.000160  -0.033909
    16  H    0.001726  -0.058647   0.348327  -0.046579   0.000824   0.003719
    17  H    0.000003   0.005939  -0.042863   0.362645  -0.025761  -0.000247
    18  H    0.002788  -0.011024  -0.037083   0.364671  -0.034604   0.000088
    19  H    0.000007  -0.001505   0.000236  -0.027427   0.234583   0.001812
    20  O   -0.000000   0.001629  -0.000234   0.000008  -0.000002  -0.022518
    21  H    0.000001  -0.005888   0.000176  -0.000089   0.000050   0.064817
    22  H    0.000000  -0.000150   0.000019  -0.000001   0.000000   0.000864
    23  C   -0.000965   0.292211  -0.028172   0.003766   0.000023  -0.027216
    24  H    0.000029  -0.074804   0.005239  -0.000186   0.000002   0.001305
    25  C    0.000763  -0.025943   0.002098   0.000023   0.000010   0.001101
    26  H   -0.000142   0.006393   0.000163   0.000018  -0.000000  -0.000085
    27  O    0.001007  -0.035280   0.001556  -0.000040   0.000000   0.000963
    28  H   -0.000037  -0.004125  -0.000093  -0.000012   0.000000   0.000098
    29  O   -0.000018   0.005947  -0.012216   0.000525  -0.000001  -0.000597
    30  H    0.000004  -0.001374   0.000544  -0.000056   0.000000   0.000645
              13         14         15         16         17         18
     1  C    0.373793  -0.000020   0.001035  -0.007356  -0.000079  -0.000115
     2  O   -0.023782   0.000081   0.003957  -0.027133   0.004981   0.002667
     3  H    0.000008   0.000000  -0.000009   0.000008  -0.000002   0.000027
     4  O   -0.043968  -0.000000   0.000007   0.000000   0.000002   0.000004
     5  H    0.004928   0.000000   0.000032   0.000035  -0.000001  -0.000009
     6  O   -0.000428  -0.000000   0.001307  -0.000173   0.000013   0.000083
     7  H    0.001045   0.000007   0.002410   0.001726   0.000003   0.002788
     8  C    0.000126  -0.020897   0.354618  -0.058647   0.005939  -0.011024
     9  C   -0.001135  -0.007039  -0.045627   0.348327  -0.042863  -0.037083
    10  C   -0.000088  -0.006898  -0.011834  -0.046579   0.362645   0.364671
    11  O    0.000001   0.059676   0.000160   0.000824  -0.025761  -0.034604
    12  O    0.000005   0.212849  -0.033909   0.003719  -0.000247   0.000088
    13  H    0.576659  -0.000001   0.000024   0.002349  -0.000017   0.000007
    14  H   -0.000001   0.338864  -0.001762   0.000367   0.000829  -0.000195
    15  H    0.000024  -0.001762   0.633349   0.006776  -0.000009   0.006908
    16  H    0.002349   0.000367   0.006776   0.609637  -0.005538   0.005483
    17  H   -0.000017   0.000829  -0.000009  -0.005538   0.586893  -0.036473
    18  H    0.000007  -0.000195   0.006908   0.005483  -0.036473   0.567425
    19  H    0.000000  -0.003176   0.000110   0.004776  -0.008260   0.006752
    20  O    0.000001   0.000693  -0.000062   0.000180  -0.000000  -0.000000
    21  H   -0.000001  -0.001872   0.000770   0.001259   0.000001   0.000001
    22  H   -0.000000  -0.000018   0.000004  -0.000011   0.000000   0.000000
    23  C    0.005048   0.004066  -0.060098  -0.008767  -0.000131  -0.000057
    24  H   -0.000190   0.000271   0.002702  -0.000254   0.000004  -0.000004
    25  C   -0.074089  -0.000192   0.002815  -0.000136   0.000020   0.000019
    26  H    0.000936   0.000006  -0.000204   0.000319  -0.000000  -0.000001
    27  O   -0.000030  -0.000083  -0.000030  -0.000046   0.000001  -0.000021
    28  H    0.000016  -0.000037   0.006609   0.000022   0.000000   0.000004
    29  O    0.008055   0.000006   0.000019   0.019243   0.000002  -0.000010
    30  H   -0.000272   0.000004   0.000020  -0.000779   0.000000   0.000001
              19         20         21         22         23         24
     1  C   -0.000002   0.000001   0.000010   0.000004  -0.016504   0.005439
     2  O   -0.000012   0.000000  -0.000001  -0.000000  -0.004996   0.000058
     3  H    0.000000  -0.000000   0.000000   0.000000   0.000007   0.000001
     4  O   -0.000000   0.000000  -0.000000  -0.000000   0.000593  -0.000115
     5  H    0.000000  -0.000000   0.000000   0.000000  -0.000461   0.000049
     6  O   -0.000000   0.000000  -0.000000  -0.000000   0.000242  -0.000002
     7  H    0.000007  -0.000000   0.000001   0.000000  -0.000965   0.000029
     8  C   -0.001505   0.001629  -0.005888  -0.000150   0.292211  -0.074804
     9  C    0.000236  -0.000234   0.000176   0.000019  -0.028172   0.005239
    10  C   -0.027427   0.000008  -0.000089  -0.000001   0.003766  -0.000186
    11  O    0.234583  -0.000002   0.000050   0.000000   0.000023   0.000002
    12  O    0.001812  -0.022518   0.064817   0.000864  -0.027216   0.001305
    13  H    0.000000   0.000001  -0.000001  -0.000000   0.005048  -0.000190
    14  H   -0.003176   0.000693  -0.001872  -0.000018   0.004066   0.000271
    15  H    0.000110  -0.000062   0.000770   0.000004  -0.060098   0.002702
    16  H    0.004776   0.000180   0.001259  -0.000011  -0.008767  -0.000254
    17  H   -0.008260  -0.000000   0.000001   0.000000  -0.000131   0.000004
    18  H    0.006752  -0.000000   0.000001   0.000000  -0.000057  -0.000004
    19  H    0.383519  -0.000001   0.000019   0.000000  -0.000005  -0.000001
    20  O   -0.000001   8.331176   0.206498   0.241438  -0.002296   0.012528
    21  H    0.000019   0.206498   0.323991  -0.015861  -0.002021   0.000081
    22  H    0.000000   0.241438  -0.015861   0.378376  -0.000202   0.002525
    23  C   -0.000005  -0.002296  -0.002021  -0.000202   5.021327   0.353684
    24  H   -0.000001   0.012528   0.000081   0.002525   0.353684   0.658981
    25  C    0.000002  -0.001522   0.000234   0.000019   0.308924  -0.046892
    26  H   -0.000000   0.000004   0.000003   0.000004  -0.050662  -0.008135
    27  O   -0.000000   0.000027   0.000009  -0.000002   0.192002  -0.030806
    28  H    0.000000   0.000002   0.000006  -0.000001  -0.020552  -0.003753
    29  O   -0.000012  -0.021373   0.003827   0.001008  -0.035761  -0.002624
    30  H    0.000002   0.066556  -0.007403  -0.003033  -0.001551   0.005949
              25         26         27         28         29         30
     1  C    0.269793  -0.052885   0.003332  -0.000038  -0.038785   0.004308
     2  O   -0.030393   0.002398  -0.000591   0.000034   0.001299  -0.000102
     3  H    0.000025  -0.000003   0.000222  -0.000018  -0.000000   0.000000
     4  O   -0.043925   0.004160  -0.001216   0.000170   0.001488  -0.000080
     5  H   -0.006449   0.000512   0.007975  -0.000197   0.000046   0.000001
     6  O   -0.000630   0.000014  -0.000463   0.000370   0.000001  -0.000000
     7  H    0.000763  -0.000142   0.001007  -0.000037  -0.000018   0.000004
     8  C   -0.025943   0.006393  -0.035280  -0.004125   0.005947  -0.001374
     9  C    0.002098   0.000163   0.001556  -0.000093  -0.012216   0.000544
    10  C    0.000023   0.000018  -0.000040  -0.000012   0.000525  -0.000056
    11  O    0.000010  -0.000000   0.000000   0.000000  -0.000001   0.000000
    12  O    0.001101  -0.000085   0.000963   0.000098  -0.000597   0.000645
    13  H   -0.074089   0.000936  -0.000030   0.000016   0.008055  -0.000272
    14  H   -0.000192   0.000006  -0.000083  -0.000037   0.000006   0.000004
    15  H    0.002815  -0.000204  -0.000030   0.006609   0.000019   0.000020
    16  H   -0.000136   0.000319  -0.000046   0.000022   0.019243  -0.000779
    17  H    0.000020  -0.000000   0.000001   0.000000   0.000002   0.000000
    18  H    0.000019  -0.000001  -0.000021   0.000004  -0.000010   0.000001
    19  H    0.000002  -0.000000  -0.000000   0.000000  -0.000012   0.000002
    20  O   -0.001522   0.000004   0.000027   0.000002  -0.021373   0.066556
    21  H    0.000234   0.000003   0.000009   0.000006   0.003827  -0.007403
    22  H    0.000019   0.000004  -0.000002  -0.000001   0.001008  -0.003033
    23  C    0.308924  -0.050662   0.192002  -0.020552  -0.035761  -0.001551
    24  H   -0.046892  -0.008135  -0.030806  -0.003753  -0.002624   0.005949
    25  C    5.035033   0.359870  -0.045532   0.005852   0.207461  -0.018680
    26  H    0.359870   0.617250   0.005481  -0.000339  -0.033892  -0.002850
    27  O   -0.045532   0.005481   8.290934   0.229959   0.001477   0.000012
    28  H    0.005852  -0.000339   0.229959   0.387222  -0.000104  -0.000004
    29  O    0.207461  -0.033892   0.001477  -0.000104   8.368638   0.202494
    30  H   -0.018680  -0.002850   0.000012  -0.000004   0.202494   0.320888
 Mulliken charges:
               1
     1  C    0.321328
     2  O   -0.620536
     3  H    0.390336
     4  O   -0.611333
     5  H    0.464438
     6  O   -0.821507
     7  H    0.432346
     8  C    0.101018
     9  C    0.126256
    10  C   -0.080674
    11  O   -0.623335
    12  O   -0.683216
    13  H    0.171002
    14  H    0.424471
    15  H    0.129909
    16  H    0.150368
    17  H    0.158047
    18  H    0.162668
    19  H    0.408585
    20  O   -0.812733
    21  H    0.431382
    22  H    0.395017
    23  C    0.078523
    24  H    0.118914
    25  C    0.100325
    26  H    0.151665
    27  O   -0.620818
    28  H    0.398944
    29  O   -0.676145
    30  H    0.434753
 Sum of Mulliken charges =  -0.00000
 Mulliken charges with hydrogens summed into heavy atoms:
               1
     1  C    0.492330
     2  O   -0.620536
     4  O   -0.146896
     6  O    0.001176
     8  C    0.230927
     9  C    0.276624
    10  C    0.240041
    11  O   -0.214750
    12  O   -0.258744
    20  O    0.013667
    23  C    0.197437
    25  C    0.251990
    27  O   -0.221874
    29  O   -0.241392
 Electronic spatial extent (au):  <R**2>=           2890.5212
 Charge=              0.0000 electrons
 Dipole moment (field-independent basis, Debye):
    X=             -2.4112    Y=              1.9787    Z=              1.3430  Tot=              3.3960
 Quadrupole moment (field-independent basis, Debye-Ang):
   XX=            -84.6971   YY=            -78.0586   ZZ=            -82.5788
   XY=              5.1064   XZ=             -1.2466   YZ=             -8.9656
 Traceless Quadrupole moment (field-independent basis, Debye-Ang):
   XX=             -2.9189   YY=              3.7196   ZZ=             -0.8007
   XY=              5.1064   XZ=             -1.2466   YZ=             -8.9656
 Octapole moment (field-independent basis, Debye-Ang**2):
  XXX=            -13.6578  YYY=            -12.8740  ZZZ=             18.3277  XYY=             -0.7999
  XXY=             22.2786  XXZ=             -0.8281  XZZ=             -7.6509  YZZ=              5.3051
  YYZ=              5.3032  XYZ=             22.0330
 Hexadecapole moment (field-independent basis, Debye-Ang**3):
 XXXX=          -1498.9372 YYYY=          -1181.2362 ZZZZ=           -470.5284 XXXY=             98.2028
 XXXZ=             13.3331 YYYX=            120.5165 YYYZ=            -50.4021 ZZZX=             13.4878
 ZZZY=            -24.7573 XXYY=           -415.5264 XXZZ=           -359.8115 YYZZ=           -297.3649
 XXYZ=            -63.2773 YYXZ=            -16.9525 ZZXY=            -16.9880
 N-N= 1.133547502677D+03 E-N=-4.239786128058D+03  KE= 8.328290379937D+02
 Calling FoFJK, ICntrl=      2127 FMM=F ISym2X=0 I1Cent= 0 IOpClX= 0 NMat=1 NMatS=1 NMatT=0.
 ***** Axes restored to original set *****
 -------------------------------------------------------------------
 Center     Atomic                   Forces (Hartrees/Bohr)
 Number     Number              X              Y              Z
 -------------------------------------------------------------------
      1        6          -0.017195502    0.022111387    0.002874383
      2        8           0.001655756   -0.023751396   -0.012796495
      3        1           0.001110786    0.000089780    0.000711322
      4        8           0.000766817   -0.004638462   -0.009681375
      5        1           0.000174410   -0.004673110    0.000703765
      6        8           0.009893424    0.017717514    0.021196687
      7        1           0.001405373    0.001196180    0.000993108
      8        6           0.000139754   -0.000587226   -0.000373516
      9        6          -0.001167773   -0.005202765   -0.002948615
     10        6           0.002836766   -0.001252055   -0.000853650
     11        8           0.002509645   -0.001105445   -0.000331736
     12        8           0.000243835    0.000010978    0.000280437
     13        1          -0.000293573   -0.000155926    0.000392497
     14        1          -0.000003988   -0.000005695    0.000033867
     15        1           0.000084998    0.000106698   -0.000193575
     16        1          -0.000798252   -0.000145331    0.000103924
     17        1           0.000146029    0.000024389   -0.000020289
     18        1           0.000211892   -0.000208866   -0.000007927
     19        1           0.000122073   -0.000051385   -0.000017774
     20        8           0.000159423    0.000171349   -0.000003628
     21        1          -0.000042607   -0.000004728    0.000023952
     22        1           0.000018550   -0.000006223   -0.000010355
     23        6          -0.000993178   -0.000968712    0.000658158
     24        1          -0.000074218   -0.000029880    0.000177512
     25        6          -0.001272231    0.002639041    0.000214037
     26        1           0.000621421    0.000638049   -0.000413812
     27        8           0.000289174   -0.001035845   -0.000739047
     28        1           0.000318866    0.000453729   -0.000145123
     29        8          -0.000786412   -0.001314729    0.000172922
     30        1          -0.000081256   -0.000021315    0.000000349
 -------------------------------------------------------------------
 Cartesian Forces:  Max     0.023751396 RMS     0.005377145

 GradGradGradGradGradGradGradGradGradGradGradGradGradGradGradGradGradGrad
 Berny optimization.
 FormGI is forming the generalized inverse of G from B-inverse, IUseBI=4.
 Internal  Forces:  Max     0.046560606 RMS     0.007713528
 Search for a local minimum.
 Step number   1 out of a maximum of  180
 All quantities printed in internal units (Hartrees-Bohrs-Radians)
 Mixed Optimization -- RFO/linear search
 Second derivative matrix not updated -- first step.
 ITU=  0
     Eigenvalues ---    0.00230   0.00377   0.00483   0.00574   0.00658
     Eigenvalues ---    0.00701   0.00890   0.01120   0.01159   0.01424
     Eigenvalues ---    0.01646   0.02144   0.02637   0.03214   0.03553
     Eigenvalues ---    0.03946   0.04177   0.04488   0.04690   0.04742
     Eigenvalues ---    0.04824   0.04944   0.05387   0.05632   0.05679
     Eigenvalues ---    0.05793   0.06424   0.06715   0.06896   0.07179
     Eigenvalues ---    0.07487   0.08323   0.08737   0.09516   0.09955
     Eigenvalues ---    0.10352   0.11243   0.11460   0.11521   0.12054
     Eigenvalues ---    0.12727   0.13704   0.13845   0.15511   0.16000
     Eigenvalues ---    0.16000   0.16222   0.16678   0.17279   0.17518
     Eigenvalues ---    0.18581   0.19089   0.19833   0.21029   0.21966
     Eigenvalues ---    0.22025   0.22861   0.26243   0.27329   0.27929
     Eigenvalues ---    0.28469   0.28656   0.33432   0.33433   0.33617
     Eigenvalues ---    0.33979   0.34055   0.34273   0.34574   0.38777
     Eigenvalues ---    0.39144   0.41210   0.42420   0.42557   0.43805
     Eigenvalues ---    0.46228   0.48920   0.49422   0.51226   0.53177
     Eigenvalues ---    0.53371   0.53506   0.53649   0.57604
 RFO step:  Lambda=-5.24363593D-02 EMin= 2.30000000D-03
 Linear search not attempted -- first point.
 Maximum step size (   0.300) exceeded in Quadratic search.
    -- Step size scaled by   0.729
 Iteration  1 RMS(Cart)=  0.17051055 RMS(Int)=  0.00718133
 Iteration  2 RMS(Cart)=  0.01428623 RMS(Int)=  0.00120154
 Iteration  3 RMS(Cart)=  0.00013429 RMS(Int)=  0.00119939
 Iteration  4 RMS(Cart)=  0.00000072 RMS(Int)=  0.00119939
 Variable       Old X    -DE/DX   Delta X   Delta X   Delta X     New X
                                 (Linear)    (Quad)   (Total)
    R1        2.51652   0.00777   0.00000   0.01020   0.00891   2.52544
    R2        2.06371  -0.00037   0.00000  -0.00068  -0.00068   2.06303
    R3        2.89883   0.00049   0.00000   0.00406   0.00369   2.90252
    R4        2.83620   0.01917   0.00000   0.07902   0.07885   2.91505
    R5        2.68254   0.00589   0.00000   0.00728   0.00900   2.69154
    R6        1.83309   0.00058   0.00000   0.00072   0.00072   1.83381
    R7        1.92034   0.00513   0.00000   0.00861   0.00957   1.92991
    R8        2.84496   0.00155   0.00000   0.01066   0.01219   2.85715
    R9        1.89541   0.00901   0.00000   0.01121   0.01186   1.90726
   R10        2.91275  -0.00161   0.00000  -0.00470  -0.00413   2.90861
   R11        2.71726   0.00074   0.00000   0.00210   0.00235   2.71962
   R12        2.08300  -0.00005   0.00000  -0.00010  -0.00010   2.08290
   R13        2.93079  -0.01201   0.00000  -0.03084  -0.03287   2.89792
   R14        2.91125  -0.00438   0.00000  -0.00947  -0.00947   2.90178
   R15        2.07366   0.00042   0.00000   0.00077   0.00077   2.07443
   R16        2.72733  -0.00269   0.00000  -0.00441  -0.00441   2.72292
   R17        2.07238   0.00006   0.00000   0.00011   0.00011   2.07249
   R18        2.06871  -0.00002   0.00000  -0.00004  -0.00004   2.06867
   R19        1.83488  -0.00002   0.00000  -0.00003  -0.00003   1.83485
   R20        1.85348  -0.00001   0.00000  -0.00002  -0.00002   1.85347
   R21        3.44365  -0.00229   0.00000  -0.00887  -0.00856   3.43509
   R22        1.86130  -0.00287   0.00000  -0.00250  -0.00222   1.85908
   R23        1.83053  -0.00000   0.00000  -0.00000  -0.00000   1.83052
   R24        3.44819  -0.00130   0.00000  -0.01312  -0.01346   3.43473
   R25        2.07981   0.00012   0.00000   0.00022   0.00022   2.08004
   R26        2.91535  -0.00910   0.00000  -0.01883  -0.02001   2.89534
   R27        2.68392  -0.00009   0.00000  -0.00014  -0.00014   2.68377
   R28        2.08298  -0.00029   0.00000  -0.00055  -0.00055   2.08243
   R29        2.67084   0.00006   0.00000   0.00073   0.00079   2.67163
   R30        1.83185  -0.00007   0.00000  -0.00009  -0.00009   1.83176
   R31        1.86083   0.00010   0.00000  -0.00155  -0.00204   1.85880
    A1        1.95896   0.00238   0.00000  -0.01361  -0.01519   1.94377
    A2        2.07504  -0.01651   0.00000  -0.03220  -0.02825   2.04679
    A3        1.92715   0.00427   0.00000  -0.00368  -0.00649   1.92066
    A4        2.00614  -0.01921   0.00000  -0.05300  -0.05215   1.95399
    A5        1.91625   0.00609   0.00000   0.01008   0.01130   1.92755
    A6        2.55586  -0.01700   0.00000  -0.04790  -0.04891   2.50695
    A7        1.85333  -0.00092   0.00000  -0.00537  -0.00808   1.84526
    A8        1.82772   0.00335   0.00000   0.00443   0.00459   1.83231
    A9        1.52398  -0.04656   0.00000  -0.19174  -0.18894   1.33504
   A10        2.70040  -0.00661   0.00000  -0.04086  -0.04146   2.65894
   A11        1.93411   0.01070   0.00000   0.03483   0.03606   1.97017
   A12        1.89026   0.00618   0.00000   0.02364   0.02309   1.91335
   A13        1.97086  -0.02449   0.00000  -0.10151  -0.10295   1.86791
   A14        1.90019  -0.00620   0.00000  -0.00509  -0.00638   1.89381
   A15        1.89545   0.00792   0.00000   0.02755   0.02883   1.92428
   A16        1.87088   0.00600   0.00000   0.02234   0.02211   1.89300
   A17        1.93066  -0.00095   0.00000  -0.01765  -0.01795   1.91270
   A18        1.91608  -0.00780   0.00000  -0.01484  -0.01349   1.90258
   A19        1.90310   0.00484   0.00000   0.01468   0.01398   1.91708
   A20        1.94723   0.00789   0.00000   0.02097   0.01980   1.96702
   A21        1.87857  -0.00387   0.00000  -0.00718  -0.00631   1.87225
   A22        1.88686   0.00003   0.00000   0.00489   0.00482   1.89168
   A23        1.94133  -0.00198   0.00000  -0.00548  -0.00548   1.93585
   A24        1.91871   0.00049   0.00000   0.00123   0.00123   1.91993
   A25        1.93606   0.00013   0.00000  -0.00017  -0.00017   1.93589
   A26        1.93628   0.00075   0.00000   0.00210   0.00210   1.93838
   A27        1.84191   0.00081   0.00000   0.00213   0.00212   1.84403
   A28        1.88775  -0.00014   0.00000   0.00037   0.00037   1.88812
   A29        1.87671  -0.00022   0.00000  -0.00075  -0.00075   1.87597
   A30        1.84151   0.00428   0.00000   0.00689   0.00680   1.84831
   A31        1.98939  -0.00001   0.00000  -0.00147  -0.00213   1.98726
   A32        2.03609  -0.00485   0.00000  -0.00748  -0.00695   2.02915
   A33        1.83067   0.00642   0.00000   0.01359   0.01415   1.84481
   A34        1.63999  -0.00917   0.00000  -0.03631  -0.03779   1.60220
   A35        2.11292   0.00581   0.00000   0.01151   0.01136   2.12428
   A36        2.86364  -0.00441   0.00000  -0.01656  -0.01773   2.84591
   A37        1.86073   0.00877   0.00000   0.03579   0.03764   1.89837
   A38        1.98828  -0.02878   0.00000  -0.11289  -0.11470   1.87357
   A39        1.96490   0.00750   0.00000   0.02199   0.02046   1.98536
   A40        1.87337   0.00659   0.00000   0.03172   0.03248   1.90585
   A41        1.92546  -0.00502   0.00000   0.00231   0.00056   1.92602
   A42        1.84964   0.01077   0.00000   0.02251   0.02303   1.87267
   A43        1.98452  -0.01137   0.00000  -0.03893  -0.03934   1.94518
   A44        1.85419   0.00315   0.00000   0.01879   0.02071   1.87490
   A45        1.84434   0.00550   0.00000   0.00470   0.00291   1.84725
   A46        1.86734   0.00469   0.00000   0.02292   0.02248   1.88982
   A47        1.96015   0.00273   0.00000   0.00126   0.00180   1.96195
   A48        1.95218  -0.00513   0.00000  -0.00905  -0.00893   1.94325
   A49        1.89431   0.00035   0.00000   0.00121   0.00121   1.89553
   A50        1.92904  -0.00191   0.00000  -0.00471  -0.00516   1.92388
   A51        2.76279  -0.00749   0.00000  -0.02046  -0.02290   2.73989
    D1        2.58956   0.00432   0.00000   0.02981   0.02762   2.61718
    D2       -1.40715  -0.00342   0.00000  -0.02353  -0.02462  -1.43177
    D3        1.36403   0.00919   0.00000   0.09149   0.09009   1.45411
    D4       -0.68507   0.00773   0.00000   0.07292   0.07172  -0.61335
    D5       -2.76149   0.00941   0.00000   0.07195   0.07041  -2.69108
    D6       -2.61861   0.00098   0.00000   0.03496   0.03481  -2.58379
    D7        1.61549  -0.00048   0.00000   0.01639   0.01645   1.63193
    D8       -0.46093   0.00120   0.00000   0.01542   0.01514  -0.44580
    D9        2.14769   0.01677   0.00000   0.11902   0.11968   2.26737
   D10       -0.89649  -0.00972   0.00000  -0.06316  -0.06076  -0.95725
   D11        1.25994  -0.00574   0.00000  -0.05886  -0.05696   1.20299
   D12       -2.95911  -0.00739   0.00000  -0.05289  -0.05082  -3.00993
   D13       -1.02517  -0.00671   0.00000  -0.01497  -0.01158  -1.03675
   D14       -1.24072   0.00116   0.00000  -0.01066  -0.01096  -1.25168
   D15        0.58408  -0.00877   0.00000  -0.06136  -0.05483   0.52925
   D16        1.90869   0.00104   0.00000   0.01884   0.02147   1.93016
   D17        0.05799   0.01400   0.00000   0.07411   0.07519   0.13319
   D18       -2.93883  -0.00480   0.00000  -0.00729  -0.00605  -2.94488
   D19        1.20601   0.00036   0.00000   0.00960   0.01035   1.21636
   D20       -0.86129  -0.00182   0.00000  -0.00396  -0.00308  -0.86437
   D21        1.26117  -0.00741   0.00000  -0.03644  -0.03618   1.22499
   D22       -0.87718  -0.00225   0.00000  -0.01955  -0.01978  -0.89696
   D23       -2.94448  -0.00443   0.00000  -0.03311  -0.03321  -2.97769
   D24       -0.80792  -0.00410   0.00000  -0.01828  -0.01676  -0.82468
   D25       -2.94627   0.00106   0.00000  -0.00138  -0.00035  -2.94662
   D26        1.26962  -0.00112   0.00000  -0.01495  -0.01378   1.25583
   D27       -0.78717  -0.01251   0.00000  -0.05992  -0.06004  -0.84721
   D28        1.46920  -0.01545   0.00000  -0.06527  -0.06525   1.40395
   D29        1.29004  -0.00236   0.00000  -0.01312  -0.01286   1.27717
   D30       -2.73678  -0.00529   0.00000  -0.01847  -0.01807  -2.75485
   D31       -2.96155   0.00574   0.00000   0.02578   0.02635  -2.93520
   D32       -0.70518   0.00280   0.00000   0.02044   0.02115  -0.68403
   D33       -2.26512  -0.00077   0.00000   0.00854   0.00803  -2.25709
   D34       -0.20220  -0.00339   0.00000   0.00643   0.00518  -0.19702
   D35        1.90444  -0.00489   0.00000  -0.03132  -0.03254   1.87189
   D36       -0.11265   0.00203   0.00000   0.00409   0.00445  -0.10820
   D37        1.95027  -0.00059   0.00000   0.00199   0.00160   1.95187
   D38       -2.22628  -0.00209   0.00000  -0.03576  -0.03613  -2.26240
   D39        1.93772   0.00211   0.00000   0.02460   0.02539   1.96311
   D40       -2.28254  -0.00050   0.00000   0.02249   0.02253  -2.26001
   D41       -0.17590  -0.00201   0.00000  -0.01526  -0.01519  -0.19109
   D42        3.07069   0.00094   0.00000   0.01054   0.01062   3.08131
   D43        0.91903   0.00100   0.00000   0.01078   0.01086   0.92989
   D44       -1.16803   0.00078   0.00000   0.00963   0.00971  -1.15832
   D45       -1.06581  -0.00036   0.00000  -0.00806  -0.00839  -1.07420
   D46        3.06572  -0.00029   0.00000  -0.00782  -0.00815   3.05757
   D47        0.97866  -0.00052   0.00000  -0.00897  -0.00930   0.96936
   D48        0.99653  -0.00047   0.00000  -0.00158  -0.00132   0.99520
   D49       -1.15513  -0.00040   0.00000  -0.00134  -0.00108  -1.15621
   D50        3.04099  -0.00063   0.00000  -0.00249  -0.00223   3.03876
   D51       -1.32414  -0.00003   0.00000  -0.00001  -0.00001  -1.32416
   D52        0.81743  -0.00028   0.00000  -0.00082  -0.00082   0.81660
   D53        2.85805   0.00040   0.00000   0.00190   0.00190   2.85995
   D54        0.21749  -0.00999   0.00000  -0.05169  -0.05099   0.16650
   D55        2.37169  -0.00815   0.00000  -0.04973  -0.04927   2.32242
   D56        1.75643  -0.00429   0.00000  -0.02745  -0.02718   1.72925
   D57       -0.40103  -0.00880   0.00000  -0.03000  -0.02902  -0.43005
   D58       -0.58102   0.00771   0.00000   0.03219   0.03209  -0.54893
   D59       -2.50131   0.00439   0.00000   0.03665   0.03716  -2.46415
   D60        1.01630  -0.00151   0.00000  -0.04052  -0.04255   0.97375
   D61        3.05775  -0.00103   0.00000  -0.02460  -0.02550   3.03225
   D62       -1.07700  -0.00250   0.00000  -0.01934  -0.01985  -1.09685
   D63        3.07196  -0.00311   0.00000  -0.04119  -0.04300   3.02896
   D64       -1.16977  -0.00263   0.00000  -0.02527  -0.02596  -1.19573
   D65        0.97866  -0.00410   0.00000  -0.02001  -0.02030   0.95836
   D66       -1.15364  -0.00025   0.00000  -0.01164  -0.01295  -1.16659
   D67        0.88782   0.00022   0.00000   0.00427   0.00409   0.89191
   D68        3.03625  -0.00124   0.00000   0.00953   0.00974   3.04600
   D69        0.91729   0.01181   0.00000   0.05434   0.05586   0.97315
   D70       -1.15893  -0.00077   0.00000  -0.00686  -0.00699  -1.16592
   D71        3.10170  -0.01197   0.00000  -0.05773  -0.05912   3.04259
   D72       -2.87424   0.00611   0.00000   0.04240   0.04418  -2.83005
   D73       -0.70126  -0.00257   0.00000  -0.00213  -0.00153  -0.70278
   D74        1.39874   0.00177   0.00000   0.02191   0.02241   1.42115
   D75        1.67744   0.01241   0.00000   0.04987   0.04976   1.72719
         Item               Value     Threshold  Converged?
 Maximum Force            0.046561     0.000450     NO 
 RMS     Force            0.007714     0.000300     NO 
 Maximum Displacement     0.828114     0.001800     NO 
 RMS     Displacement     0.177373     0.001200     NO 
 Predicted change in Energy=-2.905731D-02
 GradGradGradGradGradGradGradGradGradGradGradGradGradGradGradGradGradGrad

                          Input orientation:                          
 ---------------------------------------------------------------------
 Center     Atomic      Atomic             Coordinates (Angstroms)
 Number     Number       Type             X           Y           Z
 ---------------------------------------------------------------------
      1          6           0        1.421806   -0.286989   -1.039942
      2          8           0        1.034262    0.775094   -0.761439
      3          1           0        3.293708    2.015017    0.694441
      4          8           0        2.714722   -0.296994   -0.701946
      5          1           0        2.845039    0.118047    0.222033
      6          8           0        2.641203    1.379796    1.029749
      7          1           0        1.886021    1.403670    0.360587
      8          6           0       -0.661407    0.250423    0.886940
      9          6           0       -0.360383    0.871460   -0.488831
     10          6           0       -0.787456    2.343560   -0.580777
     11          8           0       -2.209296    2.479505   -0.390783
     12          8           0       -2.069710    0.074282    1.125351
     13          1           0        1.293941   -0.210171   -2.121413
     14          1           0       -2.490670    0.928937    0.892223
     15          1           0       -0.249809    0.893807    1.681635
     16          1           0       -0.926361    0.299469   -1.235513
     17          1           0       -0.476538    2.764917   -1.544401
     18          1           0       -0.325085    2.935148    0.215832
     19          1           0       -2.642080    2.191065   -1.210703
     20          8           0       -2.866843   -2.264470   -0.134935
     21          1           0       -2.768977   -1.407762    0.338669
     22          1           0       -2.989736   -2.932970    0.555230
     23          6           0        0.058617   -1.102658    0.935964
     24          1           0       -0.659224   -1.874536    1.252925
     25          6           0        0.540371   -1.415527   -0.484426
     26          1           0        1.157154   -2.327958   -0.447065
     27          8           0        1.200115   -1.112939    1.780844
     28          1           0        0.931031   -0.828944    2.667709
     29          8           0       -0.529513   -1.554803   -1.398036
     30          1           0       -1.272455   -2.045186   -0.979592
 ---------------------------------------------------------------------
                    Distance matrix (angstroms):
                    1          2          3          4          5
     1  C    0.000000
     2  O    1.164378   0.000000
     3  H    3.436762   2.960083   0.000000
     4  O    1.336403   1.994207   2.762340   0.000000
     5  H    1.944795   2.162832   2.005734   1.021264   0.000000
     6  O    2.923820   2.481185   0.970412   2.411597   1.511941
     7  H    2.243949   1.542577   1.570601   2.169789   1.609888
     8  C    2.888160   2.422339   4.335179   3.771270   3.571385
     9  C    2.195888   1.424302   4.007523   3.296509   3.368633
    10  C    3.465755   2.410680   4.288359   4.387763   4.335024
    11  O    4.610835   3.682807   5.628189   5.661424   5.612337
    12  O    4.124281   3.699426   5.719999   5.134944   4.997265
    13  H    1.091709   1.699327   4.108475   2.010234   2.829376
    14  H    4.529814   3.896590   5.888779   5.580358   5.438427
    15  H    3.405225   2.762524   3.845540   3.985964   3.508607
    16  H    2.428182   2.072439   4.947404   3.727995   4.047321
    17  H    3.629368   2.618194   4.448541   4.502129   4.599900
    18  H    3.874372   2.732894   3.764488   4.530948   4.240965
    19  H    4.762886   3.965136   6.236517   5.928288   6.038097
    20  O    4.808532   4.984985   7.546805   5.945278   6.199146
    21  H    4.551853   4.521032   6.971237   5.691014   5.818838
    22  H    5.385862   5.628137   7.998977   6.408565   6.592748
    23  C    2.535312   2.712750   4.499338   3.222846   3.124734
    24  H    3.479689   3.734448   5.573706   4.206385   4.160888
    25  C    1.535945   2.262629   4.554035   2.454839   2.856997
    26  H    2.141752   3.121357   4.972860   2.572119   3.046242
    27  O    2.947572   3.171023   3.917591   3.020604   2.578952
    28  H    3.779055   3.787169   4.190960   3.849559   3.246775
    29  O    2.354407   2.877337   5.633746   3.548476   4.100080
    30  H    3.217755   3.650002   6.335415   4.362435   4.803877
                    6          7          8          9         10
     6  O    0.000000
     7  H    1.009281   0.000000
     8  C    3.493295   2.845420   0.000000
     9  C    3.402060   2.459896   1.539171   0.000000
    10  C    3.908752   2.986141   2.559552   1.535554   0.000000
    11  O    5.172486   4.300418   2.999557   2.452326   1.440905
    12  O    4.889398   4.242634   1.439160   2.482514   3.115232
    13  H    3.777954   3.019166   3.617420   2.563599   3.636938
    14  H    5.153476   4.434347   1.951054   2.539436   2.659290
    15  H    3.003180   2.562596   1.102222   2.173395   2.740320
    16  H    4.361884   3.417058   2.139489   1.097742   2.150879
    17  H    4.273771   3.326207   3.502610   2.170921   1.096714
    18  H    3.446802   2.693579   2.787695   2.180964   1.094692
    19  H    5.795763   4.857226   3.476962   2.732874   1.964610
    20  O    6.706395   6.024160   3.497551   4.030091   5.075092
    21  H    6.125204   5.438165   2.737158   3.417738   4.340994
    22  H    7.108629   6.528196   3.957922   4.741018   5.829436
    23  C    3.583451   3.154702   1.533515   2.470373   3.859114
    24  H    4.640399   4.245136   2.156247   3.265504   4.601222
    25  C    3.810519   3.236154   2.469880   2.457984   3.987875
    26  H    4.258031   3.886978   3.425608   3.541319   5.061864
    27  O    2.975670   2.970004   2.474487   3.394763   4.634122
    28  H    3.238230   3.349535   2.621455   3.810888   4.854960
    29  O    4.955750   4.204774   2.915023   2.596538   3.991451
    30  H    5.575363   4.864839   3.021117   3.095084   4.433437
                   11         12         13         14         15
    11  O    0.000000
    12  O    2.846620   0.000000
    13  H    4.743639   4.683646   0.000000
    14  H    2.032126   0.980812   4.970196   0.000000
    15  H    3.263271   2.071983   4.250306   2.376103   0.000000
    16  H    2.666842   2.632800   2.444237   2.714876   3.052984
    17  H    2.101130   4.111604   3.509799   3.655775   3.736276
    18  H    2.031217   3.472103   4.239928   3.028556   2.514223
    19  H    0.970963   3.203987   4.699744   2.457273   3.971329
    20  O    4.796157   2.773716   5.047610   3.375559   4.485922
    21  H    3.994520   1.817773   4.898320   2.417444   3.667013
    22  H    5.549677   3.196099   5.738288   3.908575   4.839443
    23  C    4.442474   2.439432   3.416155   3.260086   2.153375
    24  H    4.905321   2.409074   4.239236   3.368050   2.831102
    25  C    4.768722   3.409315   2.168059   4.071717   3.263315
    26  H    5.869230   4.319247   2.703178   5.070274   4.109827
    27  O    5.407930   3.539904   4.006421   4.310546   2.477732
    28  H    5.491981   3.492725   4.842548   4.236807   2.309675
    29  O    4.484626   3.375442   2.378296   3.906455   3.944401
    30  H    4.658025   3.091690   3.355208   3.719294   4.094583
                   16         17         18         19         20
    16  H    0.000000
    17  H    2.525111   0.000000
    18  H    3.068344   1.774918   0.000000
    19  H    2.553908   2.265002   2.820838   0.000000
    20  O    3.398607   5.744117   5.798241   4.589073   0.000000
    21  H    2.964444   5.119813   4.984834   3.920232   0.983781
    22  H    4.232369   6.571951   6.453710   5.430942   0.968671
    23  C    2.766127   4.625661   4.119429   4.769755   3.324898
    24  H    3.315115   5.420603   4.931559   5.150757   2.636624
    25  C    2.378371   4.431000   4.490852   4.864461   3.528732
    26  H    3.444715   5.459897   5.507881   5.953058   4.036583
    27  O    3.951608   5.376448   4.600273   5.884579   4.640730
    28  H    4.467478   5.713051   4.664538   6.076978   4.933496
    29  O    1.903215   4.322524   4.775565   4.304598   2.749939
    30  H    2.383838   4.908114   5.208673   4.458151   1.817582
                   21         22         23         24         25
    21  H    0.000000
    22  H    1.556243   0.000000
    23  C    2.906052   3.575956   0.000000
    24  H    2.346231   2.652989   1.100707   0.000000
    25  C    3.410180   3.980600   1.532150   2.160580   0.000000
    26  H    4.108363   4.308983   2.149631   2.528792   1.101974
    27  O    4.233259   4.729640   1.420192   2.077467   2.378712
    28  H    4.410160   4.925638   1.958306   2.371452   3.229961
    29  O    2.837775   3.430349   2.449059   2.673322   1.413765
    30  H    2.093729   2.468380   2.515844   2.321489   1.981917
                   26         27         28         29         30
    26  H    0.000000
    27  O    2.538050   0.000000
    28  H    3.464101   0.969323   0.000000
    29  O    2.084936   3.645838   4.380678   0.000000
    30  H    2.503307   3.821348   4.431411   0.983633   0.000000
[...]
 56,-0.00047503,-0.00025091,0.00007950,-0.00015071,0.00024188,0.0002739
 6,-0.00058464,0.00004522,0.00001849,0.00011067,0.00001028,-0.00008341,
 -0.00002554,0.00002311,-0.00170393,-0.00054367,-0.00110516,0.00099946,
 -0.00031952,0.00053022,0.00008975,0.00038595,0.00005787,-0.09701443,-0
 .17544912,0.08140795,0.10965993,0.18578488,-0.00074099,-0.00468246,-0.
 00592129,-0.00074816,0.00001166,0.00073295,0.00003770,0.00004263,-0.00
 001101,0.00080144,0.00033148,0.00138676,0.00021416,-0.00029105,-0.0009
 1872,-0.00002780,-0.00080877,0.00041388,-0.00019776,-0.00010614,-0.000
 40831,0.00130118,0.00045511,0.00097260,0.00073631,0.00016153,0.0001921
 2,0.00016476,-0.00018399,-0.00014618,-0.00021538,-0.00000700,0.0001114
 6,-0.00059500,-0.00024926,0.00038509,0.00114007,0.00151711,-0.00065362
 ,-0.00016191,-0.00016139,0.00003154,-0.00016087,0.00040544,-0.00027155
 ,-0.00001017,0.00002423,-0.00000966,-0.00002341,0.00003616,0.00001974,
 -0.00000862,0.00001722,0.00000781,0.00003417,0.00001079,0.00000049,0.0
 0113639,-0.00050783,0.00087233,-0.00083718,0.00102179,0.00013423,-0.00
 089643,-0.00034295,0.00028715,0.07232806,0.08507882,-0.10602493,-0.067
 29504,-0.08463679,0.11366707,-0.09150187,-0.03406219,0.03099005,0.0056
 8351,0.01817633,-0.00104555,0.00000372,-0.00008441,0.00002866,-0.03525
 872,-0.01853384,0.00307724,-0.00205510,-0.00268832,0.00022351,0.000131
 07,-0.00044540,0.00110553,-0.00086176,-0.00038471,-0.00127437,-0.00137
 767,0.01020810,0.01776062,0.00724140,0.00067325,0.00151581,-0.00121924
 ,-0.00078414,-0.00093405,-0.00072539,0.00022950,0.00011191,-0.00243785
 ,-0.00100466,-0.00168463,0.00089545,-0.00313228,0.00042936,-0.00035160
 ,0.00023652,-0.00013834,-0.00166943,0.00245871,-0.00079052,-0.00183158
 ,0.00246144,-0.00162016,0.00007570,-0.00009509,0.00003779,0.00011816,-
 0.00072966,-0.00013744,0.00002710,0.00028931,0.00004162,0.00464133,0.0
 0016124,-0.00274986,-0.00125763,0.00183483,0.00198056,0.00042796,-0.00
 024934,0.00019627,-0.09242650,0.01395703,0.04246452,-0.00514598,0.0068
 2940,0.01978071,0.54734377,-0.02939843,-0.11928979,0.03193600,-0.01102
 488,-0.03872332,0.00871757,-0.00007947,-0.00019051,-0.00015105,0.00389
 773,0.00294803,0.00077186,-0.00102501,0.00194729,-0.00052158,-0.000269
 79,0.00071338,-0.00000467,0.00043120,-0.00082417,0.00040625,0.00991486
 ,-0.01395841,-0.02797206,-0.00111269,-0.00273913,0.00069229,0.00041253
 ,-0.00009005,-0.00040924,-0.00024973,0.00020619,-0.00000716,0.00008299
 ,-0.00085662,0.00017747,-0.00014983,0.00555606,-0.00142691,0.00056230,
 0.00011529,-0.00020336,0.00207920,-0.00383535,0.00011954,0.00067857,0.
 00029109,0.00035291,-0.00008114,0.00036348,-0.00005350,0.00002956,0.00
 023785,0.00010609,0.00007755,-0.00002677,0.00003465,0.00046395,-0.0002
 6571,-0.00066483,0.00031689,0.00033935,0.00080245,0.00010885,0.0003685
 1,0.00034888,0.01021469,-0.09340325,-0.01900119,-0.00796107,0.00893554
 ,0.02258134,-0.05178417,0.56492019,0.02709275,0.03060848,-0.11173541,-
 0.00478563,-0.00454976,0.00363453,-0.00000915,0.00000391,-0.00002536,-
 0.01491927,-0.00736516,0.00816931,-0.00226800,-0.00268093,0.00298139,0
 .00036907,0.00087887,-0.00065191,0.00022280,-0.00010083,0.00091908,0.0
 0606149,-0.00799986,0.00545636,0.00051696,0.00032369,0.00321507,-0.000
 29896,0.00004523,-0.00116507,0.00016763,0.00001244,-0.00020323,-0.0033
 1720,0.00063298,-0.00142026,0.01868515,0.02308573,-0.01409735,-0.00061
 075,-0.00030095,0.00045917,-0.00036845,0.00258954,0.00003117,-0.000708
 22,0.00173917,-0.00120314,-0.00019894,0.00039671,-0.00002318,0.0000980
 7,-0.00049665,-0.00003341,0.00001960,0.00012593,0.00002612,0.00355148,
 0.00034297,-0.00464322,0.00026748,0.00185317,0.00139254,0.00114336,-0.
 00015436,-0.00029062,0.04153897,-0.01431828,-0.13370756,0.00722528,-0.
 00720949,-0.01547422,0.01758826,-0.01781686,0.46832685,0.00758235,-0.0
 1453485,0.00170079,-0.00060729,-0.00508172,0.00052403,0.00002333,0.000
 02766,-0.00001406,0.00097888,-0.00162749,0.00087706,0.00001304,-0.0001
 9624,-0.00040921,0.00002609,-0.00008276,-0.00008365,0.00009080,0.00004
 724,0.00018629,0.00032598,-0.00064268,0.00197352,-0.00178085,0.0001087
 8,0.00012269,0.00013902,0.00004459,0.00009308,0.00014447,0.00005217,-0
 .00006008,-0.00023782,0.00040598,0.00006143,-0.00019630,0.00057655,0.0
 0011956,-0.00006140,-0.00014639,0.00005404,-0.00018335,0.00054519,0.00
 016092,0.00035873,-0.00048273,0.00009978,-0.00002397,0.00006078,-0.000
 03594,-0.00001787,0.00006461,0.00005663,0.00001642,-0.00007519,-0.0000
 0044,-0.00048339,-0.00053799,0.00056802,0.00023415,0.00004176,-0.00025
 531,-0.00027260,0.00014613,0.00013110,-0.00599583,0.01286162,0.0000690
 3,0.00028799,-0.00026360,-0.00054158,-0.11353555,0.10958250,-0.0054868
 6,0.13837803,0.01397190,-0.02153544,0.00065178,-0.00219570,-0.00467107
 ,0.00203502,-0.00000228,-0.00006847,-0.00002685,0.00030314,0.00368176,
 -0.00044001,-0.00068384,-0.00186207,-0.00123303,-0.00025643,0.00021420
 ,-0.00033342,0.00050638,-0.00000830,0.00047795,-0.00025463,0.00089023,
 -0.00134758,-0.00165276,0.00105840,0.00005124,-0.00006615,0.00023335,0
 .00001452,0.00022878,-0.00018201,-0.00003333,0.00052546,-0.00009619,-0
 .00015029,-0.00057483,0.00046605,0.00045069,-0.00000002,0.00008643,0.0
 0001258,0.00019592,-0.00036096,-0.00000241,0.00003321,0.00007992,0.000
 04402,-0.00001237,-0.00001261,0.00000002,0.00000522,-0.00000404,0.0000
 0465,-0.00005416,0.00004565,-0.00002368,0.00005219,0.00013232,0.000022
 94,-0.00011309,-0.00020785,-0.00003232,0.00003181,-0.00006803,-0.00000
 895,0.00621191,-0.00854544,0.00134049,-0.00006815,0.00083149,-0.000383
 31,0.10515153,-0.22888363,0.01788480,-0.11708394,0.24185923,-0.0074835
 6,0.01460236,0.00027018,0.00141904,0.00323479,-0.00022390,-0.00001780,
 0.00001458,0.00003713,-0.00092979,-0.00219744,0.00036696,0.00001035,-0
 .00018487,0.00063161,0.00002875,0.00005435,0.00011758,-0.00018243,-0.0
 0000083,-0.00030324,-0.00071389,-0.00116783,-0.00632890,0.00085059,0.0
 0015368,-0.00101751,0.00004360,-0.00003191,0.00019162,-0.00013986,0.00
 000815,0.00010013,0.00082301,-0.00022390,0.00049392,-0.00000366,-0.000
 67210,0.00000710,0.00016264,0.00018723,-0.00016582,0.00093012,-0.00160
 001,0.00016693,-0.00000374,-0.00049116,0.00027200,0.00003613,-0.000116
 56,0.00004847,0.00002962,0.00010100,-0.00000368,-0.00000042,-0.0000218
 5,-0.00000316,-0.00042631,0.00003484,0.00055079,-0.00003320,-0.0004173
 8,-0.00032827,-0.00007897,0.00001812,0.00003591,0.01703029,-0.02790927
 ,0.00022234,-0.00037668,0.00075780,0.00148253,-0.00691759,0.01881849,-
 0.05242942,0.01882385,-0.02035990,0.06101499,-0.01203747,0.00049832,-0
 .00370442,0.00595387,-0.00119818,-0.00025937,0.00095093,0.00131090,0.0
 0004867,0.00254366,-0.00150554,0.01609330,0.00498907,-0.00055874,-0.00
 921298,0.00154332,-0.01145052,0.00308501,-0.00228015,0.00074015,-0.002
 60670,-0.02537826,-0.00336643,-0.01844472,-0.00612265,0.00098328,0.003
 23475,0.00015439,-0.00021461,-0.00130336,0.00077900,0.00078934,-0.0004
 5184,-0.00466982,0.00732326,-0.00220862,0.00143152,0.00051629,-0.00000
 714,-0.00141000,-0.00152001,0.00062111,0.00118884,-0.00325554,0.000554
 41,0.00055689,0.00005240,-0.00023216,-0.00004029,0.00072334,-0.0001935
 1,-0.00017689,0.00019794,0.00014411,0.00013596,-0.00028442,0.00011675,
 -0.00225475,-0.00091287,-0.00129502,0.00161641,0.00032860,0.00059107,0
 .00087110,0.00065614,0.00005975,-0.15795504,0.00865316,-0.06310049,-0.
 02674955,-0.00606219,-0.02049757,-0.00723151,-0.00028053,-0.01126378,0
 .00144662,-0.00094144,0.00083418,0.26629969,-0.00102416,-0.00452869,-0
 .00125905,0.00072769,0.00219051,0.00297037,0.00132185,-0.00251298,0.00
 162284,0.00084299,0.00428133,0.00203515,-0.00021234,-0.00525479,-0.001
 31235,-0.00895078,-0.01549782,0.00269559,-0.00167462,-0.00001266,-0.00
 396868,0.01892300,0.00256321,0.01238171,-0.00033200,-0.00052333,-0.000
 43433,-0.00063321,-0.00004718,-0.00010510,0.00045149,0.00006152,0.0000
 6656,0.00431072,-0.00216059,0.00152737,0.00015740,0.00054377,-0.000144
 06,0.00102294,0.00054077,-0.00035466,0.00121630,0.00357662,0.00175536,
 0.00045351,-0.00038431,0.00022891,-0.00000806,-0.00008308,0.00001115,-
 0.00016700,0.00028658,0.00002908,-0.00003730,0.00001368,-0.00004648,-0
 .00212254,0.00046094,-0.00041813,0.00075159,-0.00167476,-0.00011336,0.
 00068078,0.00031878,-0.00000871,-0.02724943,-0.09795610,-0.02030293,-0
 .02345081,0.00143489,-0.01903476,-0.01515931,0.00008630,-0.00667286,-0
 .00168604,0.00130545,0.00175492,0.09363976,0.52196324,0.00394435,-0.00
 219898,0.00634255,-0.00097419,0.00359255,-0.00026969,0.00030347,0.0005
 4010,-0.00035410,0.00676171,0.00324868,-0.01092269,-0.00604978,-0.0002
 1627,-0.00377708,0.00025377,-0.00247333,0.00589220,-0.00132504,-0.0021
 3150,-0.00170160,-0.00921922,-0.00146819,-0.00536866,0.00121557,0.0008
 2741,0.00098716,0.00030101,-0.00055923,-0.00033432,-0.00038884,0.00044
 284,0.00017493,0.00063574,0.00178113,0.00064946,-0.00091477,-0.0002383
 1,0.00004844,-0.00011263,-0.00050181,-0.00049201,0.00113585,0.00072007
 ,0.00170556,0.00004660,-0.00067868,0.00051136,0.00000720,0.00014007,-0
 .00002304,-0.00005365,0.00025245,0.00001223,0.00011166,-0.00014425,0.0
 0003470,-0.00143310,-0.00007075,0.00046287,0.00052241,-0.00048602,-0.0
 0024370,0.00025335,0.00024447,-0.00003399,-0.06955515,0.00053121,-0.10
 440026,-0.00449805,-0.00363108,0.00819471,-0.03820801,-0.00555354,-0.0
 1896268,0.00001088,0.00041101,0.00225646,0.14223521,0.07119831,0.15393
 675,0.00249314,0.00013247,-0.00000794,-0.00261810,-0.00074022,0.000061
 73,-0.00196197,-0.00355724,0.00098118,-0.00203232,-0.00176179,-0.00070
 327,0.00079760,0.00416657,0.00237845,-0.00621783,0.00755798,-0.0048456
 5,0.00320294,0.00038146,0.00367926,-0.00130716,-0.00201100,-0.00163610
 ,0.00195981,0.00055016,-0.00121428,0.00004236,0.00036235,0.00045789,-0
 .00026248,-0.00035759,0.00012794,0.00279514,-0.00004328,0.00121038,-0.
 00025637,-0.00005281,-0.00001011,0.00010452,0.00057639,-0.00042331,-0.
 00156818,0.00303833,0.00071634,-0.00024711,-0.00023512,0.00049475,0.00
 005137,-0.00026680,0.00011536,0.00024951,-0.00010180,-0.00010275,-0.00
 008878,0.00011212,-0.00002973,-0.00008291,0.00041712,0.00002249,-0.000
 13068,-0.00073724,-0.00014842,0.00002275,-0.00002395,-0.00001826,-0.01
 626626,-0.03515662,-0.00672781,-0.00460408,-0.00062293,-0.00371205,-0.
 00081554,0.00049044,-0.00011016,0.00015055,-0.00019377,-0.00006996,-0.
 04721665,-0.04279664,-0.02674512,0.07351805,-0.00132710,0.00390918,-0.
 00079723,-0.00157868,-0.00338394,-0.00184686,-0.00163502,0.00298501,-0
 .00270682,-0.00086986,-0.00226305,0.00215768,0.00368250,0.00126343,-0.
 00397920,0.00434966,-0.00013516,-0.00233719,0.00256449,0.00017615,0.00
 745824,0.00379664,0.00475326,0.00408722,0.00173010,-0.00037000,-0.0006
 0825,0.00064837,0.00052416,0.00085941,-0.00054609,-0.00044370,-0.00002
 106,0.00018503,-0.00264430,0.00022844,0.00013490,-0.00058772,0.0001257
 3,0.00045776,0.00044027,-0.00006360,0.00165900,0.00008431,-0.00113947,
 -0.00036810,0.00014997,-0.00009523,-0.00005951,-0.00022352,-0.00000669
 ,0.00029729,-0.00046549,-0.00013569,-0.00005648,0.00007699,-0.00001457
 ,0.00096422,-0.00002573,0.00020748,-0.00044288,0.00041201,-0.00005950,
 -0.00034989,-0.00018268,-0.00002741,-0.00419716,0.00240553,-0.00203673
 ,0.00282732,0.00106734,0.00036825,0.00160599,-0.00103794,-0.00110730,0
 .00005563,-0.00025792,0.00002973,-0.08493432,-0.41079074,-0.06027423,0
 .07099065,0.40443240,-0.00187287,-0.00138274,-0.00294433,0.00131260,-0
 .00084399,0.00149067,0.00031820,-0.00126812,0.00085760,0.00037805,0.00
 137607,0.00190286,0.00294947,-0.00364265,-0.00313617,-0.00255147,-0.00
 217052,-0.00805405,0.00227809,0.00713504,-0.00296002,-0.00060958,0.000
 50711,0.00159450,-0.00231280,-0.00014221,-0.00053028,-0.00018036,0.000
 27796,0.00008523,0.00040162,-0.00022841,-0.00008605,0.00059345,-0.0000
 3327,-0.00021927,0.00018982,0.00007498,0.00020464,-0.00001004,0.000072
 12,0.00018993,0.00001691,-0.00015372,0.00073280,0.00029947,-0.00002320
 ,-0.00005334,0.00001269,-0.00003000,-0.00000521,-0.00006248,0.00005036
 ,0.00002423,-0.00005589,0.00004934,-0.00003043,0.00020260,0.00011186,0
 .00007158,-0.00011699,-0.00009993,-0.00003255,-0.00009417,-0.00004537,
 0.00001132,-0.00348749,-0.02153250,-0.00981548,0.00177293,0.00070855,-
 0.00023091,-0.00474778,-0.00117774,-0.00106391,-0.00009702,0.00013143,
 0.00027305,-0.03061034,-0.03725287,-0.02252772,0.03558883,0.05918112,0
 .04644242,-0.03279281,-0.00218419,-0.02283670,0.00503277,-0.00552376,0
 .00014024,0.00009024,0.00034547,0.00022383,-0.00753182,-0.00870377,0.0
 0139754,0.00132600,0.00162311,0.00224927,0.00017772,-0.00109096,-0.000
 38333,-0.00026557,0.00081683,0.00029760,-0.00324872,0.00006712,-0.0021
 4533,-0.00461575,0.00069492,-0.00050679,0.00028479,0.00039090,0.000695
 25,0.00097207,0.00008685,-0.00026315,0.00374336,0.00221954,0.00159757,
 0.00202163,0.00164819,-0.00110218,0.00033030,-0.00040139,-0.00008251,0
 .00054540,-0.00046060,0.00035364,0.00082204,-0.00062622,0.00151094,0.0
 0003739,0.00000421,-0.00006712,-0.00010077,0.00050349,0.00004191,-0.00
 009127,-0.00035204,0.00001425,-0.01170823,-0.00545809,0.01365798,0.000
 31746,-0.00401129,-0.00258183,-0.00374260,0.00177579,0.00042730,-0.003
 05946,-0.00528395,-0.00528214,0.00119386,0.00107680,-0.00096952,-0.177
 03503,-0.01965926,-0.08858341,-0.02796932,-0.00278934,-0.02497833,0.00
 259410,-0.00080968,-0.00092829,0.00032729,0.00102049,0.00024026,0.4826
 5488,-0.02177800,-0.00240519,-0.01841540,0.00037123,0.00234536,0.00080
 654,0.00005720,0.00010903,0.00013516,-0.00644754,-0.00233852,0.0008358
 3,0.00045946,-0.00081377,0.00052103,-0.00027626,-0.00034885,-0.0004610
 3,0.00034072,0.00040587,0.00038926,-0.00124805,0.00148746,0.00337601,0
 .00490971,-0.00668814,0.00221674,-0.00284710,0.00020763,-0.00198212,0.
 00089218,-0.00029650,-0.00012903,0.00178083,0.00058411,-0.00116524,0.0
 0126664,0.00131580,-0.00088035,-0.00026184,0.00005439,0.00034392,0.000
 01200,0.00048986,-0.00033264,-0.00190650,-0.00455354,-0.00334925,0.000
 05199,-0.00006495,0.00008730,0.00034791,-0.00109750,-0.00015712,-0.000
 29481,0.00031562,-0.00004703,-0.00637018,0.00333399,0.00502534,-0.0018
 9314,-0.00311053,0.00030524,-0.00025093,0.00061759,-0.00048348,-0.0109
 4129,-0.00145814,-0.00593023,0.00082715,0.00057867,-0.00077317,-0.0309
 5858,-0.07723869,-0.01037741,0.01596016,0.01533564,0.01469232,-0.00105
 650,0.00106156,-0.00460813,0.00000999,0.00049606,0.00017359,0.19448477
 ,0.17867312,0.00402225,-0.00320126,0.00826111,-0.00040551,0.00001700,0
 .00152167,0.00009275,0.00006692,0.00001686,0.00563267,0.00221688,0.001
 74767,0.00152060,0.00095603,-0.00223613,-0.00039289,-0.00133863,0.0006
 9174,-0.00018913,0.00011983,-0.00070258,-0.00011087,0.00365557,0.00169
 596,0.00021238,-0.00034213,-0.00049048,0.00002198,-0.00006770,0.000219
 38,-0.00010080,-0.00029183,0.00030625,0.00117346,-0.00178785,0.0002714
 8,-0.00001488,-0.00112540,0.00232947,0.00006879,0.00034860,-0.00058288
 ,-0.00034569,0.00009830,0.00042490,0.00058611,-0.00191477,0.00037650,0
 .00002585,-0.00024252,0.00008366,-0.00007294,0.00018722,0.00006114,-0.
 00001524,-0.00001715,-0.00012001,0.00852354,0.00267850,-0.00163994,-0.
 00104102,0.00110707,-0.00009499,0.00059062,-0.00076495,0.00066217,-0.0
 3511202,-0.00526575,-0.01649454,0.00013416,0.00147289,0.00303826,-0.05
 288363,0.00677842,-0.15170892,-0.01735815,0.00027125,-0.00681446,-0.00
 400543,-0.00751582,-0.01119466,0.00063565,0.00276022,-0.00230991,-0.02
 675459,-0.09284079,0.32220320,-0.00179773,-0.00057340,-0.00282953,-0.0
 0118616,0.00128960,0.00062787,-0.00004961,-0.00011603,-0.00008159,0.00
 056805,0.00034657,0.00063079,-0.00024784,-0.00032524,-0.00005976,0.000
 12381,0.00056899,0.00023378,-0.00014274,-0.00033719,-0.00025507,0.0032
 6816,-0.00040239,-0.00061072,0.00035396,0.00035720,-0.00056475,0.00105
 290,-0.00024469,0.00012686,-0.00087431,-0.00014730,0.00028472,-0.00334
 848,-0.00248724,-0.00033993,-0.00015640,0.00005835,0.00026291,-0.00013
 874,0.00026985,-0.00019369,-0.00062519,0.00007547,0.00011595,0.0006765
 5,-0.00086450,-0.00000736,-0.00007248,0.00003523,0.00002481,-0.0000788
 5,0.00015585,0.00002984,0.00018969,0.00008126,-0.00005640,-0.00568204,
 0.00345002,-0.00452928,-0.00014196,0.00652743,0.00290980,0.00452416,-0
 .00330055,-0.00149243,0.00400732,-0.00033405,-0.00205712,0.00050892,-0
 .00044414,-0.00003551,-0.02985124,-0.01626781,0.00838043,0.00116910,-0
 .00027456,0.00133401,0.00046765,0.00181389,0.00266707,-0.00003861,-0.0
 0060492,0.00025429,-0.23030993,-0.13524125,0.11556197,0.25783206,-0.00
 189159,0.00066272,-0.00098219,0.00098867,0.00023680,0.00014979,-0.0000
 2718,-0.00002727,-0.00004987,0.00026367,-0.00016152,0.00001928,-0.0002
 8167,0.00002713,0.00020796,0.00023529,0.00027872,0.00011704,-0.0001803
 3,-0.00012558,-0.00010222,-0.00038754,-0.00144705,-0.00078730,-0.00080
 606,-0.00075495,-0.00024415,0.00029049,-0.00027778,0.00000730,-0.00013
 777,0.00033078,-0.00002745,-0.00081442,0.00005524,0.00081844,-0.000017
 65,-0.00003681,-0.00007817,0.00014348,-0.00030118,-0.00007322,-0.00009
 141,0.00018120,0.00017691,-0.00009476,-0.00081363,0.00045194,-0.000016
 05,0.00009301,-0.00004465,-0.00002792,0.00008851,0.00004065,0.00010594
 ,-0.00019095,0.00003609,0.00232621,-0.00978208,-0.00141248,0.00613599,
 0.00286333,-0.00389999,-0.00199712,-0.00037016,0.00112405,0.00007109,0
 .00041584,-0.00077312,-0.00000592,0.00000930,0.00010527,-0.00417709,-0
 .00566520,0.00062707,0.00186027,0.00054390,0.00093265,0.00112898,0.000
 73791,0.00130403,-0.00012721,-0.00036418,0.00017770,-0.14940396,-0.106
 99746,0.09398186,0.14693554,0.12079142,-0.00304429,0.00201489,-0.00484
 291,0.00089798,-0.00127183,-0.00023251,0.00000666,0.00005397,0.0000416
 8,-0.00262809,-0.00180305,0.00025380,0.00016870,0.00026228,0.00088164,
 0.00011314,0.00000844,-0.00024955,0.00001821,0.00017256,0.00026831,-0.
 00134807,-0.00070124,0.00008569,-0.00063733,-0.00005903,0.00088114,-0.
 00034317,0.00009356,-0.00017236,0.00039141,0.00023115,-0.00026003,0.00
 137596,0.00170626,-0.00031295,-0.00007133,0.00000790,0.00021716,0.0002
 8749,-0.00022771,0.00040468,0.00025046,0.00013396,-0.00005310,-0.00002
 740,0.00026811,-0.00012312,0.00001662,0.00009270,-0.00004838,0.0000198
 4,-0.00008718,-0.00001065,-0.00003054,-0.00002023,0.00006895,-0.005631
 62,0.00005824,-0.00139577,0.00324152,-0.00496764,-0.00195745,0.0001651
 1,0.00127953,-0.00159762,-0.00419005,-0.00251784,0.00190439,0.00039011
 ,0.00070077,-0.00186033,-0.02420049,-0.01768052,0.01422729,-0.00129040
 ,0.00057070,-0.00092135,0.00177916,0.00066684,-0.00060321,0.00003469,-
 0.00020648,0.00011879,0.15461767,0.11302413,-0.14952194,-0.12033196,-0
 .09180323,0.14480972\\0.00002990,0.00002254,0.00002184,0.00000487,-0.0
 0002899,-0.00002976,-0.00000901,-0.00000134,0.00001114,-0.00001687,-0.
 00002529,0.00000393,0.00000150,0.00003155,-0.00000620,-0.00000137,0.00
 001951,-0.00000274,0.00000106,-0.00003842,0.00003390,-0.00003812,-0.00
 002279,0.00001782,0.00002001,0.00001216,-0.00002724,-0.00000587,-0.000
 00776,-0.00000199,0.00000044,0.00000555,-0.00000402,0.00000580,0.00001
 906,-0.00001680,-0.00000253,0.00001757,0.00000556,0.00001600,0.0000036
 6,-0.00000175,0.00000284,0.00000331,0.00000072,0.00000417,-0.00000162,
 0.00000051,0.00000523,0.00000262,-0.00000185,-0.00000323,0.00000129,-0
 .00000182,0.00000617,-0.00000100,-0.00000794,-0.00003286,-0.00000442,0
 .00000856,0.00002892,-0.00002845,-0.00002298,-0.00000088,0.00000102,-0
 .00000563,0.00000071,0.00001043,0.00000450,-0.00000162,-0.00000063,0.0
 0000009,-0.00000585,-0.00001417,0.00000571,0.00000095,0.00000133,0.000
 00241,-0.00001891,0.00000513,0.00001465,-0.00000209,0.00000201,0.00000
 299,-0.00000582,0.00001053,0.00000410,0.00001645,0.00000560,-0.0000076
 9\\\@


 THE PROGRESS OF RIVERS TO THE SEA IS NOT AS RAPID
 AS THAT OF MAN TO ERROR.
                                              -- VOLTAIRE
 Job cpu time:       0 days  0 hours 38 minutes  6.8 seconds.
 File lengths (MBytes):  RWF=    221 Int=      0 D2E=      0 Chk=      6 Scr=      1
 Normal termination of Gaussian 09 at Sun Jan 15 14:16:36 2017.
