 Entering Gaussian System, Link 0=g09
 Initial command:
 /global/software/gaussian/g09.e01/l1.exe "/scratch/10462960.yak.local/Gau-14887.inp" -scrdir="/scratch/10462960.yak.local/"
 Entering Link 1 = /global/software/gaussian/g09.e01/l1.exe PID=     14888.
  
 Copyright (c) 1988,1990,1992,1993,1995,1998,2003,2009,2015,
            Gaussian, Inc.  All Rights Reserved.
  
 This is part of the Gaussian(R) 09 program.  It is based on
 the Gaussian(R) 03 system (copyright 2003, Gaussian, Inc.),
 the Gaussian(R) 98 system (copyright 1998, Gaussian, Inc.),
 the Gaussian(R) 94 system (copyright 1995, Gaussian, Inc.),
 the Gaussian 92(TM) system (copyright 1992, Gaussian, Inc.),
 the Gaussian 90(TM) system (copyright 1990, Gaussian, Inc.),
 the Gaussian 88(TM) system (copyright 1988, Gaussian, Inc.),
 the Gaussian 86(TM) system (copyright 1986, Carnegie Mellon
 University), and the Gaussian 82(TM) system (copyright 1983,
 Carnegie Mellon University). Gaussian is a federally registered
 trademark of Gaussian, Inc.
  
 This software contains proprietary and confidential information,
 including trade secrets, belonging to Gaussian, Inc.
  
 This software is provided under written license and may be
 used, copied, transmitted, or stored only in accord with that
 written license.
  
 The following legend is applicable only to US Government
 contracts under FAR:
  
                    RESTRICTED RIGHTS LEGEND
  
 Use, reproduction and disclosure by the US Government is
 subject to restrictions as set forth in subparagraphs (a)
 and (c) of the Commercial Computer Software - Restricted
 Rights clause in FAR 52.227-19.
  
 Gaussian, Inc.
 340 Quinnipiac St., Bldg. 40, Wallingford CT 06492
  
  
 ---------------------------------------------------------------
 Warning -- This program may not be used in any manner that
 competes with the business of Gaussian, Inc. or will provide
 assistance to any competitor of Gaussian, Inc.  The licensee
 of this program is prohibited from giving any competitor of
 Gaussian, Inc. access to this program.  By using this program,
 the user acknowledges that Gaussian, Inc. is engaged in the
 business of creating and licensing software in the field of
 computational chemistry and represents and warrants to the
 licensee that it is not a competitor of Gaussian, Inc. and that
 it will not use this program in any manner prohibited above.
 ---------------------------------------------------------------
  

 Cite this work as:
 Gaussian 09, Revision E.01,
 M. J. Frisch, G. W. Trucks, H. B. Schlegel, G. E. Scuseria, 
 M. A. Robb, J. R. Cheeseman, G. Scalmani, V. Barone, B. Mennucci, 
 G. A. Petersson, H. Nakatsuji, M. Caricato, X. Li, H. P. Hratchian, 
 A. F. Izmaylov, J. Bloino, G. Zheng, J. L. Sonnenberg, M. Hada, 
 M. Ehara, K. Toyota, R. Fukuda, J. Hasegawa, M. Ishida, T. Nakajima, 
 Y. Honda, O. Kitao, H. Nakai, T. Vreven, J. A. Montgomery, Jr., 
 J. E. Peralta, F. Ogliaro, M. Bearpark, J. J. Heyd, E. Brothers, 
 K. N. Kudin, V. N. Staroverov, T. Keith, R. Kobayashi, J. Normand, 
 K. Raghavachari, A. Rendell, J. C. Burant, S. S. Iyengar, J. Tomasi, 
 M. Cossi, N. Rega, J. M. Millam, M. Klene, J. E. Knox, J. B. Cross, 
 V. Bakken, C. Adamo, J. Jaramillo, R. Gomperts, R. E. Stratmann, 
 O. Yazyev, A. J. Austin, R. Cammi, C. Pomelli, J. W. Ochterski, 
 R. L. Martin, K. Morokuma, V. G. Zakrzewski, G. A. Voth, 
 P. Salvador, J. J. Dannenberg, S. Dapprich, A. D. Daniels, 
 O. Farkas, J. B. Foresman, J. V. Ortiz, J. Cioslowski, 
 and D. J. Fox, Gaussian, Inc., Wallingford CT, 2013.
 
 ******************************************
 Gaussian 09:  ES64L-G09RevE.01 30-Nov-2015
                15-Jan-2017 
 ******************************************
 %NPROCS=4
 Will use up to    4 processors via shared memory.
 -----------------------------------------
 # opt=(MaxCycle=1000) freq B3LYP/6-31G(d)
 -----------------------------------------
 1/6=1000,14=-1,18=20,19=15,26=3,38=1/1,3;
 2/9=110,12=2,17=6,18=5,40=1/2;
 3/5=1,6=6,7=1,11=2,16=1,25=1,30=1,71=1,74=-5/1,2,3;
 4//1;
 5/5=2,38=5/2;
 6/7=2,8=2,9=2,10=2,28=1/1;
 7//1,2,3,16;
 1/6=1000,14=-1,18=20,19=15,26=3/3(2);
 2/9=110/2;
 99//99;
 2/9=110/2;
 3/5=1,6=6,7=1,11=2,16=1,25=1,30=1,71=1,74=-5/1,2,3;
 4/5=5,16=3,69=1/1;
 5/5=2,38=5/2;
 7//1,2,3,16;
 1/6=1000,14=-1,18=20,19=15,26=3/3(-5);
 2/9=110/2;
 6/7=2,8=2,9=2,10=2,19=2,28=1/1;
 99/9=1/99;
 ------------------------------------------------
 ./boats/2/glo_2w_beta_ts_boat2_B3LYP_631Gd_r.out
 ------------------------------------------------
 Symbolic Z-matrix:
 Charge =  0 Multiplicity = 1
 C                     0.91655  -0.30855  -1.38265 
 O                    -0.27051   0.75272  -0.77633 
 H                     0.49069   3.12916   0.904 
 H                     2.99241   0.67056   1.07242 
 O                     3.02827   1.36762   0.39269 
 H                     2.22643   1.9177    0.6168 
 O                     0.76162   2.19943   0.89043 
 H                     0.28996   1.73003   0.10243 
 C                    -1.10492  -0.83933   0.95119 
 C                    -1.4299    0.12212  -0.23073 
 H                    -1.35156  -0.36732   1.91071 
 H                    -1.87312  -0.49896  -1.02665 
 O                    -1.93324  -1.9926    0.87446 
 H                    -1.62966  -2.46521   0.07798 
 C                    -2.48433   1.15529   0.20069 
 O                    -2.89727   2.03584  -0.82615 
 H                    -2.0699    1.79304   0.98962 
 H                    -3.32832   0.59491   0.63554 
 H                    -3.27308   1.50336  -1.54459 
 H                     2.5159    0.70853  -0.75412 
 C                     0.96722  -1.49694  -0.39552 
 H                     2.0184   -1.80025  -0.30656 
 C                     0.39192  -1.22664   1.01239 
 H                     0.42923  -2.17776   1.55916 
 O                     0.19643  -2.55301  -1.00877 
 H                     0.51835  -3.399    -0.65987 
 O                     1.19886  -0.31748   1.75073 
 H                     0.81693   0.58238   1.71874 
 O                     2.02446   0.37043  -1.60147 
 H                     0.42989  -0.6007   -2.31552 
 
 Add virtual bond connecting atoms H20        and O5         Dist= 2.68D+00.
 Add virtual bond connecting atoms O7         and H6         Dist= 2.87D+00.
 Add virtual bond connecting atoms H8         and O2         Dist= 2.70D+00.

 GradGradGradGradGradGradGradGradGradGradGradGradGradGradGradGradGradGrad
 Berny optimization.
 Initialization pass.
                           ----------------------------
                           !    Initial Parameters    !
                           ! (Angstroms and Degrees)  !
 --------------------------                            --------------------------
 ! Name  Definition              Value          Derivative Info.                !
 --------------------------------------------------------------------------------
 ! R1    R(1,21)                 1.5457         estimate D2E/DX2                !
 ! R2    R(1,29)                 1.3177         estimate D2E/DX2                !
 ! R3    R(1,30)                 1.092          estimate D2E/DX2                !
 ! R4    R(2,8)                  1.4288         estimate D2E/DX2                !
 ! R5    R(2,10)                 1.4281         estimate D2E/DX2                !
 ! R6    R(3,7)                  0.9685         estimate D2E/DX2                !
 ! R7    R(4,5)                  0.9743         estimate D2E/DX2                !
 ! R8    R(5,6)                  0.9979         estimate D2E/DX2                !
 ! R9    R(5,20)                 1.4185         estimate D2E/DX2                !
 ! R10   R(6,7)                  1.5165         estimate D2E/DX2                !
 ! R11   R(7,8)                  1.0314         estimate D2E/DX2                !
 ! R12   R(9,10)                 1.5579         estimate D2E/DX2                !
 ! R13   R(9,11)                 1.0974         estimate D2E/DX2                !
 ! R14   R(9,13)                 1.422          estimate D2E/DX2                !
 ! R15   R(9,23)                 1.5473         estimate D2E/DX2                !
 ! R16   R(10,12)                1.1026         estimate D2E/DX2                !
 ! R17   R(10,15)                1.538          estimate D2E/DX2                !
 ! R18   R(13,14)                0.9746         estimate D2E/DX2                !
 ! R19   R(15,16)                1.4143         estimate D2E/DX2                !
 ! R20   R(15,17)                1.0959         estimate D2E/DX2                !
 ! R21   R(15,18)                1.1025         estimate D2E/DX2                !
 ! R22   R(16,19)                0.97           estimate D2E/DX2                !
 ! R23   R(20,29)                1.0363         estimate D2E/DX2                !
 ! R24   R(21,22)                1.0977         estimate D2E/DX2                !
 ! R25   R(21,23)                1.5447         estimate D2E/DX2                !
 ! R26   R(21,25)                1.4441         estimate D2E/DX2                !
 ! R27   R(23,24)                1.0977         estimate D2E/DX2                !
 ! R28   R(23,27)                1.4223         estimate D2E/DX2                !
 ! R29   R(25,26)                0.9701         estimate D2E/DX2                !
 ! R30   R(27,28)                0.9781         estimate D2E/DX2                !
 ! A1    A(21,1,29)            118.336          estimate D2E/DX2                !
 ! A2    A(21,1,30)            110.7617         estimate D2E/DX2                !
 ! A3    A(29,1,30)            111.7588         estimate D2E/DX2                !
 ! A4    A(8,2,10)             112.6757         estimate D2E/DX2                !
 ! A5    A(4,5,6)              102.0131         estimate D2E/DX2                !
 ! A6    A(4,5,20)             102.6106         estimate D2E/DX2                !
 ! A7    A(6,5,20)              98.4797         estimate D2E/DX2                !
 ! A8    A(5,6,7)              156.7891         estimate D2E/DX2                !
 ! A9    A(3,7,6)              116.8119         estimate D2E/DX2                !
 ! A10   A(3,7,8)              108.6434         estimate D2E/DX2                !
 ! A11   A(6,7,8)              102.6684         estimate D2E/DX2                !
 ! A12   A(2,8,7)              163.8611         estimate D2E/DX2                !
 ! A13   A(10,9,11)            110.5498         estimate D2E/DX2                !
 ! A14   A(10,9,13)            109.76           estimate D2E/DX2                !
 ! A15   A(10,9,23)            112.7234         estimate D2E/DX2                !
 ! A16   A(11,9,13)            105.3727         estimate D2E/DX2                !
 ! A17   A(11,9,23)            106.8873         estimate D2E/DX2                !
 ! A18   A(13,9,23)            111.2615         estimate D2E/DX2                !
 ! A19   A(2,10,9)             113.1418         estimate D2E/DX2                !
 ! A20   A(2,10,12)            107.4149         estimate D2E/DX2                !
 ! A21   A(2,10,15)            111.5385         estimate D2E/DX2                !
 ! A22   A(9,10,12)            106.4921         estimate D2E/DX2                !
 ! A23   A(9,10,15)            110.169          estimate D2E/DX2                !
 ! A24   A(12,10,15)           107.7763         estimate D2E/DX2                !
 ! A25   A(9,13,14)            104.8289         estimate D2E/DX2                !
 ! A26   A(10,15,16)           114.504          estimate D2E/DX2                !
 ! A27   A(10,15,17)           109.4885         estimate D2E/DX2                !
 ! A28   A(10,15,18)           107.0998         estimate D2E/DX2                !
 ! A29   A(16,15,17)           105.7104         estimate D2E/DX2                !
 ! A30   A(16,15,18)           112.2914         estimate D2E/DX2                !
 ! A31   A(17,15,18)           107.5396         estimate D2E/DX2                !
 ! A32   A(15,16,19)           108.0041         estimate D2E/DX2                !
 ! A33   A(1,21,22)            107.1929         estimate D2E/DX2                !
 ! A34   A(1,21,23)            115.8052         estimate D2E/DX2                !
 ! A35   A(1,21,25)            105.8753         estimate D2E/DX2                !
 ! A36   A(22,21,23)           109.3376         estimate D2E/DX2                !
 ! A37   A(22,21,25)           110.0891         estimate D2E/DX2                !
 ! A38   A(23,21,25)           108.4344         estimate D2E/DX2                !
 ! A39   A(9,23,21)            111.5934         estimate D2E/DX2                !
 ! A40   A(9,23,24)            105.632          estimate D2E/DX2                !
 ! A41   A(9,23,27)            114.1652         estimate D2E/DX2                !
 ! A42   A(21,23,24)           106.8403         estimate D2E/DX2                !
 ! A43   A(21,23,27)           111.9437         estimate D2E/DX2                !
 ! A44   A(24,23,27)           106.0218         estimate D2E/DX2                !
 ! A45   A(21,25,26)           107.9322         estimate D2E/DX2                !
 ! A46   A(23,27,28)           110.4617         estimate D2E/DX2                !
 ! A47   A(1,29,20)            115.5354         estimate D2E/DX2                !
 ! A48   L(5,20,29,8,-1)       171.4705         estimate D2E/DX2                !
 ! A49   L(5,20,29,8,-2)       174.2716         estimate D2E/DX2                !
 ! D1    D(29,1,21,22)         -20.1008         estimate D2E/DX2                !
 ! D2    D(29,1,21,23)         102.218          estimate D2E/DX2                !
 ! D3    D(29,1,21,25)        -137.6041         estimate D2E/DX2                !
 ! D4    D(30,1,21,22)         110.8071         estimate D2E/DX2                !
 ! D5    D(30,1,21,23)        -126.8741         estimate D2E/DX2                !
 ! D6    D(30,1,21,25)          -6.6962         estimate D2E/DX2                !
 ! D7    D(21,1,29,20)         -51.7665         estimate D2E/DX2                !
 ! D8    D(30,1,29,20)         177.7769         estimate D2E/DX2                !
 ! D9    D(10,2,8,7)            69.4597         estimate D2E/DX2                !
 ! D10   D(8,2,10,9)           -70.887          estimate D2E/DX2                !
 ! D11   D(8,2,10,12)          171.8796         estimate D2E/DX2                !
 ! D12   D(8,2,10,15)           53.9887         estimate D2E/DX2                !
 ! D13   D(4,5,6,7)            -55.2349         estimate D2E/DX2                !
 ! D14   D(20,5,6,7)            49.6813         estimate D2E/DX2                !
 ! D15   D(4,5,29,1)            44.424          estimate D2E/DX2                !
 ! D16   D(6,5,29,1)           -59.3216         estimate D2E/DX2                !
 ! D17   D(5,6,7,3)           -166.8796         estimate D2E/DX2                !
 ! D18   D(5,6,7,8)            -48.1468         estimate D2E/DX2                !
 ! D19   D(3,7,8,2)           -160.6028         estimate D2E/DX2                !
 ! D20   D(6,7,8,2)             75.0812         estimate D2E/DX2                !
 ! D21   D(11,9,10,2)          102.6542         estimate D2E/DX2                !
 ! D22   D(11,9,10,12)        -139.5721         estimate D2E/DX2                !
 ! D23   D(11,9,10,15)         -22.9599         estimate D2E/DX2                !
 ! D24   D(13,9,10,2)         -141.5291         estimate D2E/DX2                !
 ! D25   D(13,9,10,12)         -23.7554         estimate D2E/DX2                !
 ! D26   D(13,9,10,15)          92.8568         estimate D2E/DX2                !
 ! D27   D(23,9,10,2)          -16.9056         estimate D2E/DX2                !
 ! D28   D(23,9,10,12)         100.8682         estimate D2E/DX2                !
 ! D29   D(23,9,10,15)        -142.5196         estimate D2E/DX2                !
 ! D30   D(10,9,13,14)          67.8996         estimate D2E/DX2                !
 ! D31   D(11,9,13,14)        -173.0494         estimate D2E/DX2                !
 ! D32   D(23,9,13,14)         -57.5658         estimate D2E/DX2                !
 ! D33   D(10,9,23,21)         -40.9307         estimate D2E/DX2                !
 ! D34   D(10,9,23,24)        -156.6706         estimate D2E/DX2                !
 ! D35   D(10,9,23,27)          87.2461         estimate D2E/DX2                !
 ! D36   D(11,9,23,21)        -162.5886         estimate D2E/DX2                !
 ! D37   D(11,9,23,24)          81.6715         estimate D2E/DX2                !
 ! D38   D(11,9,23,27)         -34.4118         estimate D2E/DX2                !
 ! D39   D(13,9,23,21)          82.8666         estimate D2E/DX2                !
 ! D40   D(13,9,23,24)         -32.8732         estimate D2E/DX2                !
 ! D41   D(13,9,23,27)        -148.9566         estimate D2E/DX2                !
 ! D42   D(2,10,15,16)          56.47           estimate D2E/DX2                !
 ! D43   D(2,10,15,17)         -62.0177         estimate D2E/DX2                !
 ! D44   D(2,10,15,18)        -178.3346         estimate D2E/DX2                !
 ! D45   D(9,10,15,16)        -177.0113         estimate D2E/DX2                !
 ! D46   D(9,10,15,17)          64.5011         estimate D2E/DX2                !
 ! D47   D(9,10,15,18)         -51.8158         estimate D2E/DX2                !
 ! D48   D(12,10,15,16)        -61.2033         estimate D2E/DX2                !
 ! D49   D(12,10,15,17)       -179.691          estimate D2E/DX2                !
 ! D50   D(12,10,15,18)         63.9921         estimate D2E/DX2                !
 ! D51   D(10,15,16,19)         59.5086         estimate D2E/DX2                !
 ! D52   D(17,15,16,19)       -179.8888         estimate D2E/DX2                !
 ! D53   D(18,15,16,19)        -62.9102         estimate D2E/DX2                !
 ! D54   D(1,21,23,9)           60.7037         estimate D2E/DX2                !
 ! D55   D(1,21,23,24)         175.7015         estimate D2E/DX2                !
 ! D56   D(1,21,23,27)         -68.6506         estimate D2E/DX2                !
 ! D57   D(22,21,23,9)        -178.1216         estimate D2E/DX2                !
 ! D58   D(22,21,23,24)        -63.1238         estimate D2E/DX2                !
 ! D59   D(22,21,23,27)         52.5241         estimate D2E/DX2                !
 ! D60   D(25,21,23,9)         -58.0765         estimate D2E/DX2                !
 ! D61   D(25,21,23,24)         56.9213         estimate D2E/DX2                !
 ! D62   D(25,21,23,27)        172.5692         estimate D2E/DX2                !
 ! D63   D(1,21,25,26)         154.6211         estimate D2E/DX2                !
 ! D64   D(22,21,25,26)         39.0754         estimate D2E/DX2                !
 ! D65   D(23,21,25,26)        -80.4997         estimate D2E/DX2                !
 ! D66   D(9,23,27,28)         -28.3288         estimate D2E/DX2                !
 ! D67   D(21,23,27,28)         99.6696         estimate D2E/DX2                !
 ! D68   D(24,23,27,28)       -144.1853         estimate D2E/DX2                !
 --------------------------------------------------------------------------------
 Trust Radius=3.00D-01 FncErr=1.00D-07 GrdErr=1.00D-06
 Number of steps in this run=    180 maximum allowed number of steps=    180.
 GradGradGradGradGradGradGradGradGradGradGradGradGradGradGradGradGradGrad

                          Input orientation:                          
 ---------------------------------------------------------------------
 Center     Atomic      Atomic             Coordinates (Angstroms)
 Number     Number       Type             X           Y           Z
 ---------------------------------------------------------------------
      1          6           0        0.916550   -0.308550   -1.382650
      2          8           0       -0.270510    0.752720   -0.776330
      3          1           0        0.490690    3.129160    0.904000
      4          1           0        2.992410    0.670560    1.072420
      5          8           0        3.028270    1.367620    0.392690
      6          1           0        2.226430    1.917700    0.616800
      7          8           0        0.761620    2.199430    0.890430
      8          1           0        0.289960    1.730030    0.102430
      9          6           0       -1.104920   -0.839330    0.951190
     10          6           0       -1.429900    0.122120   -0.230730
     11          1           0       -1.351560   -0.367320    1.910710
     12          1           0       -1.873120   -0.498960   -1.026650
     13          8           0       -1.933240   -1.992600    0.874460
     14          1           0       -1.629660   -2.465210    0.077980
     15          6           0       -2.484330    1.155290    0.200690
     16          8           0       -2.897270    2.035840   -0.826150
     17          1           0       -2.069900    1.793040    0.989620
     18          1           0       -3.328320    0.594910    0.635540
     19          1           0       -3.273080    1.503360   -1.544590
     20          1           0        2.515900    0.708530   -0.754120
     21          6           0        0.967220   -1.496940   -0.395520
     22          1           0        2.018400   -1.800250   -0.306560
     23          6           0        0.391920   -1.226640    1.012390
     24          1           0        0.429230   -2.177760    1.559160
     25          8           0        0.196430   -2.553010   -1.008770
     26          1           0        0.518350   -3.399000   -0.659870
     27          8           0        1.198860   -0.317480    1.750730
     28          1           0        0.816930    0.582380    1.718740
     29          8           0        2.024460    0.370430   -1.601470
     30          1           0        0.429890   -0.600700   -2.315520
 ---------------------------------------------------------------------
                    Distance matrix (angstroms):
                    1          2          3          4          5
     1  C    0.000000
     2  O    1.703828   0.000000
     3  H    4.150660   3.008389   0.000000
     4  H    3.360836   3.751170   3.511650   0.000000
     5  O    3.228117   3.553401   3.131098   0.974275   0.000000
     6  H    3.266462   3.087507   2.136097   1.532864   0.997878
     7  O    3.388342   2.436463   0.968496   2.710533   2.465229
     8  H    2.598824   1.428804   1.624922   3.060489   2.777397
     9  C    3.132870   2.493028   4.277512   4.368361   4.718666
    10  C    2.649193   1.428118   3.744138   4.642824   4.670675
    11  H    3.999250   3.105373   4.078323   4.544227   4.949476
    12  H    2.818732   2.048834   4.741125   5.426532   5.433440
    13  O    4.006479   3.609233   5.666457   5.603003   6.011636
    14  H    3.642500   3.596138   6.039468   5.673226   6.040359
    15  C    4.026882   2.453086   3.638894   5.566827   5.520028
    16  O    4.511217   2.923824   3.958161   6.336946   6.086388
    17  H    4.354679   2.727389   2.889493   5.185923   5.150597
    18  H    4.786257   3.371718   4.591223   6.336262   6.407987
    19  H    4.567520   3.188904   4.775435   6.840955   6.593822
    20  H    1.996853   2.786849   3.565149   1.888055   1.418484
    21  C    1.545724   2.595758   4.828730   3.309728   3.615924
    22  H    2.144111   3.460845   5.300796   2.992521   3.397674
    23  C    2.618080   2.748854   4.358268   3.219553   3.750274
    24  H    3.519328   3.812068   5.347561   3.862607   4.548118
    25  O    2.386621   3.346627   6.002694   4.747658   5.035350
    26  H    3.198727   4.227605   6.712922   5.067852   5.488920
    27  O    3.146085   3.112942   3.619086   2.157116   2.833827
    28  H    3.228359   2.727071   2.693756   2.271171   2.695373
    29  O    1.317710   2.468580   4.029941   2.859492   2.445137
    30  H    1.091987   2.165967   4.927561   4.434044   4.237955
                    6          7          8          9         10
     6  H    0.000000
     7  O    1.516547   0.000000
     8  H    2.012390   1.031379   0.000000
     9  C    4.337156   3.566753   3.044289   0.000000
    10  C    4.160669   3.221021   2.377875   1.557862   0.000000
    11  H    4.438190   3.477744   3.219214   1.097408   2.198057
    12  H    5.034628   4.230645   3.304865   2.148915   1.102576
    13  O    5.714866   4.983537   4.404160   1.421982   2.438614
    14  H    5.862564   5.304447   4.613630   1.918680   2.613328
    15  C    4.790165   3.478816   2.834901   2.538608   1.537981
    16  O    5.324318   4.044859   3.333799   3.825972   2.483953
    17  H    4.314277   2.862254   2.521907   2.803932   2.165832
    18  H    5.710111   4.400802   3.829446   2.664618   2.139615
    19  H    5.923504   4.763679   3.931833   4.051917   2.651672
    20  H    1.850758   2.829280   2.594600   4.291188   4.023326
    21  C    3.777588   3.919067   3.334662   2.557312   2.897360
    22  H    3.836538   4.360014   3.951918   3.501490   3.948674
    23  C    3.661802   3.448117   3.095209   1.547348   2.585252
    24  H    4.570641   4.440436   4.172803   2.124768   3.456808
    25  O    5.172101   5.148989   4.425827   2.910611   3.225929
    26  H    5.728414   5.814209   5.190396   3.432554   4.046990
    27  O    2.708824   2.695576   2.781239   2.493791   3.321116
    28  H    2.232497   1.817693   2.051160   2.510757   3.010069
    29  O    2.712113   3.339097   2.785727   4.215758   3.724673
    30  H    4.262440   4.269530   3.361304   3.617178   2.885765
                   11         12         13         14         15
    11  H    0.000000
    12  H    2.986208   0.000000
    13  O    2.013380   2.418428   0.000000
    14  H    2.799532   2.268396   0.974629   0.000000
    15  C    2.554541   2.148601   3.266019   3.722034   0.000000
    16  O    3.956615   2.741221   4.477696   4.762745   1.414315
    17  H    2.455926   3.058975   3.789856   4.376939   1.095850
    18  H    2.541560   2.465164   2.949329   3.544101   1.102470
    19  H    4.373875   2.497486   4.457433   4.591635   1.946608
    20  H    4.818300   4.560241   5.453735   5.286841   5.110143
    21  C    3.459982   3.076007   3.204871   2.811678   4.393517
    22  H    4.280912   4.166031   4.128833   3.728054   5.409907
    23  C    2.141292   3.133306   2.451956   2.548326   3.821683
    24  H    2.563687   3.847804   2.466650   2.552557   4.630712
    25  O    3.961928   2.915901   2.897604   2.126814   4.732944
    26  H    4.392668   3.776756   3.215964   2.455674   5.522518
    27  O    2.555919   4.145339   3.658405   3.925731   4.258822
    28  H    2.375107   3.992848   3.860928   4.238597   3.678453
    29  O    4.927189   4.034524   5.232354   4.920772   4.918635
    30  H    4.592282   2.641097   4.206868   3.667013   4.231724
                   16         17         18         19         20
    16  O    0.000000
    17  H    2.010103   0.000000
    18  H    2.097289   1.773276   0.000000
    19  H    0.970012   2.820244   2.362477   0.000000
    20  H    5.573989   5.024575   6.008242   5.896515   0.000000
    21  C    5.253595   4.686862   4.887800   5.319991   2.718658
    22  H    6.256946   5.595178   5.933950   6.359742   2.596496
    23  C    4.984253   3.896093   4.159356   5.236723   3.372941
    24  H    5.874498   4.726233   4.760247   6.073797   4.246896
    25  O    5.537317   5.293200   5.003700   5.364582   4.010291
    26  H    6.421183   6.031346   5.694407   6.260256   4.568467
    27  O    5.381144   3.964641   4.750943   5.845754   3.010243
    28  H    4.731204   3.214203   4.284458   5.312787   3.002907
    29  O    5.253393   5.049886   5.805761   5.417628   1.036256
    30  H    4.498840   4.785697   4.925686   4.328208   2.916075
                   21         22         23         24         25
    21  C    0.000000
    22  H    1.097675   0.000000
    23  C    1.544747   2.171197   0.000000
    24  H    2.138626   2.479695   1.097715   0.000000
    25  O    1.444118   2.092683   2.425399   2.605623   0.000000
    26  H    1.972105   2.220581   2.744374   2.534455   0.970084
    27  O    2.459913   2.665088   1.422276   2.022294   3.690163
    28  H    2.969218   3.349970   1.987993   2.791800   4.201786
    29  O    2.461533   2.527584   3.471035   4.362065   3.498498
    30  H    2.185948   2.828110   3.386477   4.183332   2.360850
                   26         27         28         29         30
    26  H    0.000000
    27  O    3.971127   0.000000
    28  H    4.647400   0.978081   0.000000
    29  O    4.166963   3.520239   3.539328   0.000000
    30  H    3.252612   4.148002   4.221935   1.998903   0.000000
 Stoichiometry    C6H16O8
 Framework group  C1[X(C6H16O8)]
 Deg. of freedom    84
 Full point group                 C1      NOp   1
 Largest Abelian subgroup         C1      NOp   1
 Largest concise Abelian subgroup C1      NOp   1
                         Standard orientation:                         
 ---------------------------------------------------------------------
 Center     Atomic      Atomic             Coordinates (Angstroms)
 Number     Number       Type             X           Y           Z
 ---------------------------------------------------------------------
      1          6           0        0.918322    0.317755    1.395630
      2          8           0       -0.264533   -0.748026    0.789005
      3          1           0        0.506146   -3.121592   -0.891066
      4          1           0        2.998560   -0.653515   -1.058849
      5          8           0        3.036879   -1.350420   -0.379095
      6          1           0        2.237195   -1.903545   -0.603414
      7          8           0        0.773540   -2.190840   -0.877441
      8          1           0        0.299885   -1.723218   -0.089581
      9          6           0       -1.104506    0.840811   -0.938778
     10          6           0       -1.426159   -0.121843    0.243073
     11          1           0       -1.349088    0.367849   -1.898356
     12          1           0       -1.871953    0.497566    1.038858
     13          8           0       -1.937220    1.990929   -0.862299
     14          1           0       -1.635656    2.464704   -0.065746
     15          6           0       -2.476540   -1.159017   -0.188616
     16          8           0       -2.886417   -2.041108    0.838129
     17          1           0       -2.059475   -1.795204   -0.977418
     18          1           0       -3.322532   -0.601854   -0.623710
     19          1           0       -3.264443   -1.510045    1.556454
     20          1           0        2.521695   -0.693258    0.767561
     21          6           0        0.964751    1.506310    0.408489
     22          1           0        2.014797    1.813607    0.319812
     23          6           0        0.390869    1.233800   -0.999574
     24          1           0        0.424718    2.185044   -1.546353
     25          8           0        0.189789    2.559458    1.021505
     26          1           0        0.508591    3.406657    0.672676
     27          8           0        1.201458    0.327695   -1.737673
     28          1           0        0.822939   -0.573608   -1.705769
     29          8           0        2.028741   -0.357009    1.614768
     30          1           0        0.430300    0.608074    2.328360
 ---------------------------------------------------------------------
 Rotational constants (GHZ):      0.7204739      0.5853849      0.4542146
 Standard basis: 6-31G(d) (6D, 7F)
 There are   242 symmetry adapted cartesian basis functions of A   symmetry.
 There are   242 symmetry adapted basis functions of A   symmetry.
   242 basis functions,   456 primitive gaussians,   242 cartesian basis functions
    58 alpha electrons       58 beta electrons
       nuclear repulsion energy      1141.5282812165 Hartrees.
 NAtoms=   30 NActive=   30 NUniq=   30 SFac= 1.00D+00 NAtFMM=   60 NAOKFM=F Big=F
 Integral buffers will be    131072 words long.
 Raffenetti 2 integral format.
 Two-electron integral symmetry is turned on.
 One-electron integrals computed using PRISM.
 NBasis=   242 RedAO= T EigKep=  1.86D-03  NBF=   242
 NBsUse=   242 1.00D-06 EigRej= -1.00D+00 NBFU=   242
 ExpMin= 1.61D-01 ExpMax= 5.48D+03 ExpMxC= 8.25D+02 IAcc=1 IRadAn=         1 AccDes= 0.00D+00
 Harris functional with IExCor=  402 and IRadAn=       1 diagonalized for initial guess.
 HarFok:  IExCor=  402 AccDes= 0.00D+00 IRadAn=         1 IDoV= 1 UseB2=F ITyADJ=14
 ICtDFT=  3500011 ScaDFX=  1.000000  1.000000  1.000000  1.000000
 FoFCou: FMM=F IPFlag=           0 FMFlag=      100000 FMFlg1=           0
         NFxFlg=           0 DoJE=T BraDBF=F KetDBF=T FulRan=T
         wScrn=  0.000000 ICntrl=     500 IOpCl=  0 I1Cent=   200000004 NGrid=           0
         NMat0=    1 NMatS0=      1 NMatT0=    0 NMatD0=    1 NMtDS0=    0 NMtDT0=    0
 Petite list used in FoFCou.
 Requested convergence on RMS density matrix=1.00D-08 within 128 cycles.
 Requested convergence on MAX density matrix=1.00D-06.
 Requested convergence on             energy=1.00D-06.
 No special actions if energy rises.
 Integral accuracy reduced to 1.0D-05 until final iterations.
 Initial convergence to 1.0D-05 achieved.  Increase integral accuracy.
 SCF Done:  E(RB3LYP) =  -839.973120080     A.U. after   14 cycles
            NFock= 14  Conv=0.31D-08     -V/T= 2.0085

 **********************************************************************

            Population analysis using the SCF density.

 **********************************************************************

 Orbital symmetries:
       Occupied  (A) (A) (A) (A) (A) (A) (A) (A) (A) (A) (A) (A)
                 (A) (A) (A) (A) (A) (A) (A) (A) (A) (A) (A) (A)
                 (A) (A) (A) (A) (A) (A) (A) (A) (A) (A) (A) (A)
                 (A) (A) (A) (A) (A) (A) (A) (A) (A) (A) (A) (A)
                 (A) (A) (A) (A) (A) (A) (A) (A) (A) (A)
       Virtual   (A) (A) (A) (A) (A) (A) (A) (A) (A) (A) (A) (A)
                 (A) (A) (A) (A) (A) (A) (A) (A) (A) (A) (A) (A)
                 (A) (A) (A) (A) (A) (A) (A) (A) (A) (A) (A) (A)
                 (A) (A) (A) (A) (A) (A) (A) (A) (A) (A) (A) (A)
                 (A) (A) (A) (A) (A) (A) (A) (A) (A) (A) (A) (A)
                 (A) (A) (A) (A) (A) (A) (A) (A) (A) (A) (A) (A)
                 (A) (A) (A) (A) (A) (A) (A) (A) (A) (A) (A) (A)
                 (A) (A) (A) (A) (A) (A) (A) (A) (A) (A) (A) (A)
                 (A) (A) (A) (A) (A) (A) (A) (A) (A) (A) (A) (A)
                 (A) (A) (A) (A) (A) (A) (A) (A) (A) (A) (A) (A)
                 (A) (A) (A) (A) (A) (A) (A) (A) (A) (A) (A) (A)
                 (A) (A) (A) (A) (A) (A) (A) (A) (A) (A) (A) (A)
                 (A) (A) (A) (A) (A) (A) (A) (A) (A) (A) (A) (A)
                 (A) (A) (A) (A) (A) (A) (A) (A) (A) (A) (A) (A)
                 (A) (A) (A) (A) (A) (A) (A) (A) (A) (A) (A) (A)
                 (A) (A) (A) (A)
 The electronic state is 1-A.
 Alpha  occ. eigenvalues --  -19.18533 -19.16184 -19.15785 -19.15637 -19.15014
 Alpha  occ. eigenvalues --  -19.14876 -19.14613 -19.14254 -10.30244 -10.26060
 Alpha  occ. eigenvalues --  -10.25113 -10.24677 -10.24501 -10.24078  -1.06705
 Alpha  occ. eigenvalues --   -1.05019  -1.03706  -1.02756  -1.02448  -1.01891
 Alpha  occ. eigenvalues --   -1.00710  -0.98388  -0.77803  -0.76215  -0.70076
 Alpha  occ. eigenvalues --   -0.65885  -0.62845  -0.60162  -0.55931  -0.55589
 Alpha  occ. eigenvalues --   -0.53218  -0.53190  -0.52581  -0.50999  -0.49930
 Alpha  occ. eigenvalues --   -0.48240  -0.45990  -0.45084  -0.44380  -0.43673
 Alpha  occ. eigenvalues --   -0.43238  -0.40921  -0.40175  -0.39257  -0.38324
 Alpha  occ. eigenvalues --   -0.37521  -0.36142  -0.35761  -0.33916  -0.32873
 Alpha  occ. eigenvalues --   -0.32434  -0.31211  -0.30430  -0.29379  -0.29008
 Alpha  occ. eigenvalues --   -0.27191  -0.26229  -0.25415
 Alpha virt. eigenvalues --    0.02780   0.03625   0.06062   0.07233   0.09098
 Alpha virt. eigenvalues --    0.10840   0.11428   0.11798   0.13242   0.14541
 Alpha virt. eigenvalues --    0.15176   0.15398   0.16366   0.17405   0.18271
 Alpha virt. eigenvalues --    0.19316   0.20846   0.21915   0.24083   0.24491
 Alpha virt. eigenvalues --    0.25200   0.26849   0.28413   0.29365   0.30491
 Alpha virt. eigenvalues --    0.31948   0.34381   0.36391   0.52864   0.53245
 Alpha virt. eigenvalues --    0.55246   0.55547   0.56361   0.58015   0.58102
 Alpha virt. eigenvalues --    0.58951   0.60499   0.61554   0.62956   0.64656
 Alpha virt. eigenvalues --    0.67883   0.68617   0.69859   0.71444   0.73056
 Alpha virt. eigenvalues --    0.75264   0.76957   0.78182   0.78928   0.80293
 Alpha virt. eigenvalues --    0.81769   0.82717   0.82755   0.83701   0.84610
 Alpha virt. eigenvalues --    0.85325   0.85966   0.88123   0.88441   0.89195
 Alpha virt. eigenvalues --    0.90477   0.91435   0.91917   0.94291   0.95554
 Alpha virt. eigenvalues --    0.97206   0.99775   1.00843   1.02105   1.02438
 Alpha virt. eigenvalues --    1.03854   1.05045   1.05767   1.08141   1.09279
 Alpha virt. eigenvalues --    1.10496   1.12135   1.13814   1.17708   1.18669
 Alpha virt. eigenvalues --    1.19893   1.22614   1.24116   1.25395   1.25828
 Alpha virt. eigenvalues --    1.29132   1.30708   1.31471   1.33355   1.37578
 Alpha virt. eigenvalues --    1.39415   1.42088   1.46130   1.46748   1.49902
 Alpha virt. eigenvalues --    1.52852   1.54689   1.56816   1.58056   1.60344
 Alpha virt. eigenvalues --    1.62291   1.64759   1.67331   1.67622   1.68377
 Alpha virt. eigenvalues --    1.69078   1.70957   1.71473   1.73291   1.73747
 Alpha virt. eigenvalues --    1.74337   1.75102   1.75977   1.76680   1.78067
 Alpha virt. eigenvalues --    1.79177   1.80751   1.81097   1.83354   1.86395
 Alpha virt. eigenvalues --    1.88113   1.89738   1.91133   1.91633   1.93429
 Alpha virt. eigenvalues --    1.95820   1.97856   2.00949   2.01912   2.04518
 Alpha virt. eigenvalues --    2.06913   2.07899   2.10737   2.13595   2.13877
 Alpha virt. eigenvalues --    2.15834   2.20744   2.22405   2.25104   2.26852
 Alpha virt. eigenvalues --    2.29190   2.31880   2.36008   2.37179   2.39956
 Alpha virt. eigenvalues --    2.41887   2.42184   2.44678   2.45643   2.46955
 Alpha virt. eigenvalues --    2.52803   2.53528   2.55478   2.58001   2.58835
 Alpha virt. eigenvalues --    2.62031   2.63831   2.66304   2.68835   2.72810
 Alpha virt. eigenvalues --    2.76883   2.79070   2.83299   2.86929   2.88953
 Alpha virt. eigenvalues --    2.90500   2.91632   2.98637   3.03119   3.07716
 Alpha virt. eigenvalues --    3.73784   3.77566   3.80145   3.84454   3.92327
 Alpha virt. eigenvalues --    3.99612   4.05032   4.11686   4.27604   4.36266
 Alpha virt. eigenvalues --    4.40521   4.57905   4.66620   4.73544
          Condensed to atoms (all electrons):
               1          2          3          4          5          6
     1  C    4.685553   0.124570  -0.000031  -0.000277   0.008901  -0.000611
     2  O    0.124570   8.514763   0.003240  -0.000001  -0.000634   0.001243
     3  H   -0.000031   0.003240   0.352312  -0.000065   0.002472  -0.002236
     4  H   -0.000277  -0.000001  -0.000065   0.349395   0.229817  -0.017119
     5  O    0.008901  -0.000634   0.002472   0.229817   8.414198   0.200181
     6  H   -0.000611   0.001243  -0.002236  -0.017119   0.200181   0.303371
     7  O    0.003695  -0.081453   0.233351   0.003080  -0.066885   0.078649
     8  H   -0.003492   0.088633  -0.000786  -0.000085   0.004548  -0.002262
     9  C   -0.019713  -0.040009  -0.000033   0.000160  -0.000020  -0.000015
    10  C   -0.004806   0.161984  -0.000549  -0.000009  -0.000006   0.000009
    11  H    0.000201   0.002856   0.000018  -0.000015   0.000002  -0.000002
    12  H   -0.004357  -0.040725   0.000019   0.000001  -0.000001   0.000003
    13  O    0.000225   0.001439   0.000000  -0.000001   0.000000  -0.000000
    14  H    0.000257  -0.000025   0.000000   0.000000  -0.000000   0.000000
    15  C    0.001800  -0.035096   0.000139   0.000001  -0.000001   0.000004
    16  O   -0.000064   0.001893   0.000027  -0.000000   0.000000  -0.000000
    17  H   -0.000050  -0.002779   0.000746  -0.000001   0.000005  -0.000031
    18  H   -0.000054   0.003171   0.000003   0.000000   0.000000  -0.000000
    19  H   -0.000032  -0.000160   0.000001   0.000000  -0.000000   0.000000
    20  H   -0.018408   0.002874  -0.000048  -0.007593   0.125071  -0.011804
    21  C    0.243266  -0.035070  -0.000021  -0.000333   0.000848  -0.000260
    22  H   -0.044128   0.002622  -0.000000   0.001146  -0.000084  -0.000041
    23  C   -0.026195   0.006332  -0.000030  -0.001099  -0.000387   0.000294
    24  H    0.005291   0.000119   0.000003  -0.000011  -0.000013   0.000004
    25  O   -0.031506   0.000616   0.000000   0.000007   0.000001  -0.000001
    26  H    0.005588  -0.000129   0.000000   0.000000  -0.000000   0.000000
    27  O    0.008231  -0.003141   0.000798   0.032048  -0.008667   0.000677
    28  H    0.000432   0.003186  -0.000925  -0.004231   0.004208  -0.001453
    29  O    0.352026  -0.039314  -0.000002   0.004745  -0.087446   0.008705
    30  H    0.379214  -0.031560   0.000005   0.000034  -0.000130   0.000058
               7          8          9         10         11         12
     1  C    0.003695  -0.003492  -0.019713  -0.004806   0.000201  -0.004357
     2  O   -0.081453   0.088633  -0.040009   0.161984   0.002856  -0.040725
     3  H    0.233351  -0.000786  -0.000033  -0.000549   0.000018   0.000019
     4  H    0.003080  -0.000085   0.000160  -0.000009  -0.000015   0.000001
     5  O   -0.066885   0.004548  -0.000020  -0.000006   0.000002  -0.000001
     6  H    0.078649  -0.002262  -0.000015   0.000009  -0.000002   0.000003
     7  O    8.493216   0.143881  -0.000658   0.008360  -0.000182  -0.000156
     8  H    0.143881   0.312813   0.001224  -0.013270   0.000069   0.001365
     9  C   -0.000658   0.001224   5.075439   0.234270   0.370556  -0.060798
    10  C    0.008360  -0.013270   0.234270   5.067436  -0.057763   0.353054
    11  H   -0.000182   0.000069   0.370556  -0.057763   0.603909   0.005779
    12  H   -0.000156   0.001365  -0.060798   0.353054   0.005779   0.647130
    13  O    0.000001  -0.000025   0.224191  -0.034855  -0.037159   0.003706
    14  H   -0.000001   0.000007  -0.033835  -0.005249   0.006627   0.005798
    15  C   -0.001268  -0.001956  -0.019515   0.331487  -0.004755  -0.042960
    16  O   -0.000082   0.000955   0.002813  -0.039123   0.000097  -0.002593
    17  H    0.005688   0.000745  -0.007806  -0.035561   0.005285   0.006097
    18  H    0.000039   0.000183   0.005139  -0.054994   0.000512  -0.002694
    19  H   -0.000006   0.000014  -0.000035  -0.004240   0.000034   0.005897
    20  H    0.003222  -0.000341  -0.000015  -0.000089  -0.000002   0.000011
    21  C   -0.000610   0.000778  -0.019652  -0.013556   0.006122  -0.001141
    22  H    0.000032  -0.000151   0.004971   0.000106  -0.000178   0.000051
    23  C    0.001262  -0.000342   0.308779  -0.035136  -0.052404  -0.001001
    24  H   -0.000022   0.000044  -0.052090   0.006623  -0.004343  -0.000260
    25  O    0.000000  -0.000008  -0.003425   0.001238  -0.000148   0.000562
    26  H   -0.000000   0.000003  -0.000815   0.000153   0.000002  -0.000074
    27  O   -0.019337   0.003297  -0.023661   0.001716   0.001718  -0.000118
    28  H    0.052162  -0.006362  -0.007310   0.001398   0.003777   0.000085
    29  O   -0.001679   0.005024   0.000324   0.001289   0.000004  -0.000027
    30  H   -0.000073   0.000647   0.000311  -0.002266   0.000026   0.005821
              13         14         15         16         17         18
     1  C    0.000225   0.000257   0.001800  -0.000064  -0.000050  -0.000054
     2  O    0.001439  -0.000025  -0.035096   0.001893  -0.002779   0.003171
     3  H    0.000000   0.000000   0.000139   0.000027   0.000746   0.000003
     4  H   -0.000001   0.000000   0.000001  -0.000000  -0.000001   0.000000
     5  O    0.000000  -0.000000  -0.000001   0.000000   0.000005   0.000000
     6  H   -0.000000   0.000000   0.000004  -0.000000  -0.000031  -0.000000
     7  O    0.000001  -0.000001  -0.001268  -0.000082   0.005688   0.000039
     8  H   -0.000025   0.000007  -0.001956   0.000955   0.000745   0.000183
     9  C    0.224191  -0.033835  -0.019515   0.002813  -0.007806   0.005139
    10  C   -0.034855  -0.005249   0.331487  -0.039123  -0.035561  -0.054994
    11  H   -0.037159   0.006627  -0.004755   0.000097   0.005285   0.000512
    12  H    0.003706   0.005798  -0.042960  -0.002593   0.006097  -0.002694
    13  O    8.285785   0.227252  -0.000994  -0.000015   0.000116   0.003911
    14  H    0.227252   0.373775   0.000065   0.000001  -0.000004  -0.000001
    15  C   -0.000994   0.000065   4.880729   0.267010   0.362351   0.356098
    16  O   -0.000015   0.000001   0.267010   8.215587  -0.040887  -0.034383
    17  H    0.000116  -0.000004   0.362351  -0.040887   0.593730  -0.039112
    18  H    0.003911  -0.000001   0.356098  -0.034383  -0.039112   0.620253
    19  H   -0.000001  -0.000004  -0.033922   0.237425   0.007649  -0.005307
    20  H   -0.000000   0.000001   0.000005  -0.000000  -0.000002  -0.000000
    21  C    0.000423  -0.003838  -0.000023  -0.000000   0.000003   0.000003
    22  H   -0.000193   0.000328   0.000014  -0.000000  -0.000000  -0.000000
    23  C   -0.030036  -0.008467   0.001795  -0.000047  -0.000210   0.000394
    24  H    0.005970   0.000301  -0.000085   0.000000  -0.000006   0.000002
    25  O   -0.010068   0.038247   0.000073  -0.000000  -0.000001   0.000000
    26  H    0.001089  -0.001325  -0.000005   0.000000   0.000000   0.000000
    27  O    0.001571   0.000067  -0.000023   0.000000  -0.000127  -0.000007
    28  H    0.000087   0.000021  -0.000530   0.000002   0.000819   0.000003
    29  O   -0.000000  -0.000001  -0.000066   0.000000  -0.000001   0.000000
    30  H    0.000010   0.000044  -0.000175  -0.000001   0.000006   0.000007
              19         20         21         22         23         24
     1  C   -0.000032  -0.018408   0.243266  -0.044128  -0.026195   0.005291
     2  O   -0.000160   0.002874  -0.035070   0.002622   0.006332   0.000119
     3  H    0.000001  -0.000048  -0.000021  -0.000000  -0.000030   0.000003
     4  H    0.000000  -0.007593  -0.000333   0.001146  -0.001099  -0.000011
     5  O   -0.000000   0.125071   0.000848  -0.000084  -0.000387  -0.000013
     6  H    0.000000  -0.011804  -0.000260  -0.000041   0.000294   0.000004
     7  O   -0.000006   0.003222  -0.000610   0.000032   0.001262  -0.000022
     8  H    0.000014  -0.000341   0.000778  -0.000151  -0.000342   0.000044
     9  C   -0.000035  -0.000015  -0.019652   0.004971   0.308779  -0.052090
    10  C   -0.004240  -0.000089  -0.013556   0.000106  -0.035136   0.006623
    11  H    0.000034  -0.000002   0.006122  -0.000178  -0.052404  -0.004343
    12  H    0.005897   0.000011  -0.001141   0.000051  -0.001001  -0.000260
    13  O   -0.000001  -0.000000   0.000423  -0.000193  -0.030036   0.005970
    14  H   -0.000004   0.000001  -0.003838   0.000328  -0.008467   0.000301
    15  C   -0.033922   0.000005  -0.000023   0.000014   0.001795  -0.000085
    16  O    0.237425  -0.000000  -0.000000  -0.000000  -0.000047   0.000000
    17  H    0.007649  -0.000002   0.000003  -0.000000  -0.000210  -0.000006
    18  H   -0.005307  -0.000000   0.000003  -0.000000   0.000394   0.000002
    19  H    0.400754  -0.000000   0.000003  -0.000000  -0.000006  -0.000000
    20  H   -0.000000   0.294929  -0.006036   0.002359   0.000235   0.000002
    21  C    0.000003  -0.006036   5.256594   0.359531   0.263832  -0.062569
    22  H   -0.000000   0.002359   0.359531   0.598691  -0.044008  -0.006061
    23  C   -0.000006   0.000235   0.263832  -0.044008   4.963559   0.368166
    24  H   -0.000000   0.000002  -0.062569  -0.006061   0.368166   0.626371
    25  O   -0.000000   0.000005   0.153615  -0.026944  -0.032329   0.003163
    26  H    0.000000  -0.000005  -0.017075  -0.009472  -0.000239   0.003920
    27  O    0.000000   0.001657  -0.051065   0.002450   0.218037  -0.036355
    28  H   -0.000000  -0.000286   0.001753  -0.000447  -0.025616   0.003594
    29  O    0.000000   0.159685  -0.035960   0.001626   0.000764  -0.000094
    30  H    0.000007   0.003330  -0.074949   0.003006   0.003476  -0.000209
              25         26         27         28         29         30
     1  C   -0.031506   0.005588   0.008231   0.000432   0.352026   0.379214
     2  O    0.000616  -0.000129  -0.003141   0.003186  -0.039314  -0.031560
     3  H    0.000000   0.000000   0.000798  -0.000925  -0.000002   0.000005
     4  H    0.000007   0.000000   0.032048  -0.004231   0.004745   0.000034
     5  O    0.000001  -0.000000  -0.008667   0.004208  -0.087446  -0.000130
     6  H   -0.000001   0.000000   0.000677  -0.001453   0.008705   0.000058
     7  O    0.000000  -0.000000  -0.019337   0.052162  -0.001679  -0.000073
     8  H   -0.000008   0.000003   0.003297  -0.006362   0.005024   0.000647
     9  C   -0.003425  -0.000815  -0.023661  -0.007310   0.000324   0.000311
    10  C    0.001238   0.000153   0.001716   0.001398   0.001289  -0.002266
    11  H   -0.000148   0.000002   0.001718   0.003777   0.000004   0.000026
    12  H    0.000562  -0.000074  -0.000118   0.000085  -0.000027   0.005821
    13  O   -0.010068   0.001089   0.001571   0.000087  -0.000000   0.000010
    14  H    0.038247  -0.001325   0.000067   0.000021  -0.000001   0.000044
    15  C    0.000073  -0.000005  -0.000023  -0.000530  -0.000066  -0.000175
    16  O   -0.000000   0.000000   0.000000   0.000002   0.000000  -0.000001
    17  H   -0.000001   0.000000  -0.000127   0.000819  -0.000001   0.000006
    18  H    0.000000   0.000000  -0.000007   0.000003   0.000000   0.000007
    19  H   -0.000000   0.000000   0.000000  -0.000000   0.000000   0.000007
    20  H    0.000005  -0.000005   0.001657  -0.000286   0.159685   0.003330
    21  C    0.153615  -0.017075  -0.051065   0.001753  -0.035960  -0.074949
    22  H   -0.026944  -0.009472   0.002450  -0.000447   0.001626   0.003006
    23  C   -0.032329  -0.000239   0.218037  -0.025616   0.000764   0.003476
    24  H    0.003163   0.003920  -0.036355   0.003594  -0.000094  -0.000209
    25  O    8.305696   0.231029   0.001712  -0.000087   0.001201   0.008247
    26  H    0.231029   0.378207  -0.000022   0.000002  -0.000152  -0.000347
    27  O    0.001712  -0.000022   8.347517   0.205844  -0.000788  -0.000023
    28  H   -0.000087   0.000002   0.205844   0.334748   0.000087   0.000032
    29  O    0.001201  -0.000152  -0.000788   0.000087   8.272235  -0.039983
    30  H    0.008247  -0.000347  -0.000023   0.000032  -0.039983   0.573170
 Mulliken charges:
               1
     1  C    0.334474
     2  O   -0.609446
     3  H    0.411594
     4  H    0.410406
     5  O   -0.825979
     6  H    0.442640
     7  O   -0.854230
     8  H    0.464850
     9  C    0.061227
    10  C    0.132349
    11  H    0.149357
    12  H    0.121527
    13  O   -0.642429
    14  H    0.399956
    15  C   -0.060193
    16  O   -0.608613
    17  H    0.143338
    18  H    0.146835
    19  H    0.391928
    20  H    0.451242
    21  C    0.035390
    22  H    0.154774
    23  C    0.120629
    24  H    0.138544
    25  O   -0.640897
    26  H    0.409666
    27  O   -0.684006
    28  H    0.435004
    29  O   -0.602202
    30  H    0.172266
 Sum of Mulliken charges =  -0.00000
 Mulliken charges with hydrogens summed into heavy atoms:
               1
     1  C    0.506739
     2  O   -0.609446
     5  O    0.027067
     7  O    0.022214
     9  C    0.210584
    10  C    0.253875
    13  O   -0.242473
    15  C    0.229979
    16  O   -0.216685
    21  C    0.190165
    23  C    0.259173
    25  O   -0.231230
    27  O   -0.249001
    29  O   -0.150961
 Electronic spatial extent (au):  <R**2>=           2815.1815
 Charge=              0.0000 electrons
 Dipole moment (field-independent basis, Debye):
    X=             -1.0818    Y=              2.0888    Z=             -0.4608  Tot=              2.3970
 Quadrupole moment (field-independent basis, Debye-Ang):
   XX=            -91.9813   YY=            -74.8712   ZZ=            -87.9538
   XY=              5.5351   XZ=             -6.2169   YZ=              7.0538
 Traceless Quadrupole moment (field-independent basis, Debye-Ang):
   XX=             -7.0459   YY=             10.0643   ZZ=             -3.0184
   XY=              5.5351   XZ=             -6.2169   YZ=              7.0538
 Octapole moment (field-independent basis, Debye-Ang**2):
  XXX=            -19.7951  YYY=             12.9624  ZZZ=              6.1915  XYY=             32.4176
  XXY=             18.9498  XXZ=              8.6068  XZZ=            -13.6225  YZZ=            -11.7547
  YYZ=             -7.1300  XYZ=             -4.5917
 Hexadecapole moment (field-independent basis, Debye-Ang**3):
 XXXX=          -1623.2551 YYYY=           -894.4602 ZZZZ=           -606.0174 XXXY=             47.7649
 XXXZ=            -89.1814 YYYX=            -26.3519 YYYZ=             61.5208 ZZZX=            -38.3023
 ZZZY=              8.1681 XXYY=           -526.1234 XXZZ=           -345.1788 YYZZ=           -304.6796
 XXYZ=             19.5512 YYXZ=             -6.5645 ZZXY=             11.1056
 N-N= 1.141528281217D+03 E-N=-4.255090453210D+03  KE= 8.328976183029D+02
 Calling FoFJK, ICntrl=      2127 FMM=F ISym2X=0 I1Cent= 0 IOpClX= 0 NMat=1 NMatS=1 NMatT=0.
 ***** Axes restored to original set *****
 -------------------------------------------------------------------
 Center     Atomic                   Forces (Hartrees/Bohr)
 Number     Number              X              Y              Z
 -------------------------------------------------------------------
      1        6          -0.024326391    0.011179302    0.011951294
      2        8           0.012971673   -0.019900395   -0.013158522
      3        1          -0.001848638    0.000579741    0.000921701
      4        1           0.000157644    0.000360985    0.000827602
      5        8           0.021118233   -0.002931248    0.007567901
      6        1           0.002511678    0.001788434    0.000436020
      7        8          -0.011367264    0.014969193    0.009784871
      8        1           0.001254770    0.002958037    0.000205679
      9        6           0.000182460   -0.000591060   -0.000738501
     10        6           0.002894332   -0.004337600   -0.004344295
     11        1          -0.000070204    0.000130117   -0.000176391
     12        1          -0.000534330   -0.000372465    0.000139906
     13        8          -0.000098045   -0.000454427    0.000732930
     14        1          -0.000143998    0.000007705   -0.000049018
     15        6           0.004596246    0.000131578   -0.001999689
     16        8          -0.000043748    0.000186534    0.000057778
     17        1           0.000298802   -0.000008095   -0.000118736
     18        1           0.000581439   -0.000269405   -0.000139053
     19        1           0.000116372   -0.000008321   -0.000046650
     20        1          -0.000810520   -0.001712847   -0.001632101
     21        6          -0.001911681    0.001438260    0.000471495
     22        1          -0.000007968    0.000593521   -0.000528762
     23        6           0.000044807   -0.001247261    0.000702254
     24        1          -0.000048255   -0.000068298    0.000112339
     25        8           0.000434967   -0.000127509   -0.000289674
     26        1          -0.000051092    0.000049255    0.000208208
     27        8          -0.000152016   -0.001529017    0.000376721
     28        1          -0.000009790   -0.000134861   -0.000130304
     29        8          -0.006266041   -0.000000974   -0.011430323
     30        1           0.000526555   -0.000678882    0.000285321
 -------------------------------------------------------------------
 Cartesian Forces:  Max     0.024326391 RMS     0.005623283

 GradGradGradGradGradGradGradGradGradGradGradGradGradGradGradGradGradGrad
 Berny optimization.
 FormGI is forming the generalized inverse of G from B-inverse, IUseBI=4.
 Internal  Forces:  Max     0.045987478 RMS     0.009299815
 Search for a local minimum.
 Step number   1 out of a maximum of  180
 All quantities printed in internal units (Hartrees-Bohrs-Radians)
 Mixed Optimization -- RFO/linear search
 Second derivative matrix not updated -- first step.
 ITU=  0
     Eigenvalues ---    0.00230   0.00239   0.00264   0.00298   0.00448
     Eigenvalues ---    0.00722   0.00872   0.00937   0.01108   0.01397
     Eigenvalues ---    0.01401   0.01502   0.01726   0.02275   0.02789
     Eigenvalues ---    0.03660   0.04035   0.04327   0.04508   0.04590
     Eigenvalues ---    0.04688   0.04890   0.05035   0.05241   0.05661
     Eigenvalues ---    0.05902   0.06586   0.06733   0.07178   0.07857
     Eigenvalues ---    0.08281   0.08789   0.09835   0.09970   0.11026
     Eigenvalues ---    0.11788   0.12603   0.13472   0.13816   0.13963
     Eigenvalues ---    0.14101   0.15635   0.16000   0.16000   0.16000
     Eigenvalues ---    0.16000   0.16501   0.16943   0.17021   0.17775
     Eigenvalues ---    0.18102   0.19175   0.19329   0.20329   0.21642
     Eigenvalues ---    0.22082   0.23133   0.26705   0.27570   0.27765
     Eigenvalues ---    0.27956   0.28699   0.33399   0.33410   0.33936
     Eigenvalues ---    0.33941   0.33970   0.34145   0.34584   0.39026
     Eigenvalues ---    0.40208   0.41181   0.42119   0.42163   0.42295
     Eigenvalues ---    0.43328   0.47425   0.51759   0.52442   0.52513
     Eigenvalues ---    0.53360   0.53374   0.53685   0.61202
 RFO step:  Lambda=-6.49486769D-02 EMin= 2.30000000D-03
 Linear search not attempted -- first point.
 Maximum step size (   0.300) exceeded in Quadratic search.
    -- Step size scaled by   0.687
 Iteration  1 RMS(Cart)=  0.20074843 RMS(Int)=  0.00888140
 Iteration  2 RMS(Cart)=  0.02292385 RMS(Int)=  0.00086658
 Iteration  3 RMS(Cart)=  0.00033239 RMS(Int)=  0.00085691
 Iteration  4 RMS(Cart)=  0.00000084 RMS(Int)=  0.00085691
 Variable       Old X    -DE/DX   Delta X   Delta X   Delta X     New X
                                 (Linear)    (Quad)   (Total)
    R1        2.92100   0.00308   0.00000   0.00651   0.00606   2.92706
    R2        2.49011   0.00903   0.00000   0.00876   0.00846   2.49857
    R3        2.06356  -0.00029   0.00000  -0.00049  -0.00049   2.06307
    R4        2.70005   0.01482   0.00000   0.05349   0.05328   2.75332
    R5        2.69875   0.00572   0.00000   0.00833   0.00865   2.70741
    R6        1.83019   0.00109   0.00000   0.00124   0.00124   1.83143
    R7        1.84111   0.00030   0.00000   0.00035   0.00035   1.84147
    R8        1.88572   0.00632   0.00000   0.00781   0.00797   1.89369
    R9        2.68055   0.01520   0.00000   0.04884   0.04922   2.72976
   R10        2.86586   0.00728   0.00000   0.02894   0.02911   2.89497
   R11        1.94902   0.01029   0.00000   0.01541   0.01504   1.96407
   R12        2.94393  -0.00149   0.00000  -0.00377  -0.00319   2.94074
   R13        2.07380  -0.00008   0.00000  -0.00014  -0.00014   2.07366
   R14        2.68716   0.00047   0.00000   0.00066   0.00066   2.68782
   R15        2.92406  -0.01715   0.00000  -0.03463  -0.03462   2.88944
   R16        2.08357   0.00032   0.00000   0.00055   0.00055   2.08412
   R17        2.90636  -0.00440   0.00000  -0.00859  -0.00859   2.89778
   R18        1.84178  -0.00000   0.00000  -0.00001  -0.00001   1.84178
   R19        2.67267   0.00006   0.00000   0.00008   0.00008   2.67275
   R20        2.07086   0.00003   0.00000   0.00005   0.00005   2.07090
   R21        2.08337  -0.00035   0.00000  -0.00061  -0.00061   2.08276
   R22        1.83306  -0.00001   0.00000  -0.00001  -0.00001   1.83304
   R23        1.95824   0.01418   0.00000   0.01932   0.01964   1.97788
   R24        2.07430  -0.00021   0.00000  -0.00036  -0.00036   2.07394
   R25        2.91915  -0.01601   0.00000  -0.03070  -0.03128   2.88786
   R26        2.72899  -0.00011   0.00000  -0.00017  -0.00017   2.72882
   R27        2.07438   0.00011   0.00000   0.00019   0.00019   2.07457
   R28        2.68771  -0.00103   0.00000  -0.00145  -0.00145   2.68626
   R29        1.83319   0.00001   0.00000   0.00001   0.00001   1.83320
   R30        1.84830  -0.00012   0.00000  -0.00014  -0.00014   1.84816
    A1        2.06535  -0.01621   0.00000  -0.02507  -0.02683   2.03852
    A2        1.93316   0.00410   0.00000  -0.00171  -0.00201   1.93114
    A3        1.95056   0.00160   0.00000  -0.01675  -0.01697   1.93359
    A4        1.96656  -0.01348   0.00000  -0.03945  -0.04080   1.92576
    A5        1.78046   0.01036   0.00000   0.01841   0.01898   1.79944
    A6        1.79089   0.00201   0.00000   0.00288   0.00382   1.79471
    A7        1.71880  -0.03426   0.00000  -0.11417  -0.11173   1.60707
    A8        2.73649  -0.01106   0.00000  -0.04233  -0.03942   2.69706
    A9        2.03875   0.00312   0.00000   0.01163   0.01020   2.04895
   A10        1.89619   0.01027   0.00000   0.02246   0.02262   1.91880
   A11        1.79190  -0.03289   0.00000  -0.10054  -0.09950   1.69240
   A12        2.85991  -0.00017   0.00000  -0.00212  -0.00400   2.85591
   A13        1.92946   0.01215   0.00000   0.04962   0.04986   1.97932
   A14        1.91567   0.00462   0.00000   0.00549   0.00389   1.91957
   A15        1.96739  -0.02718   0.00000  -0.09535  -0.09351   1.87388
   A16        1.83910  -0.00542   0.00000  -0.00293  -0.00347   1.83563
   A17        1.86553   0.00791   0.00000   0.03212   0.03282   1.89835
   A18        1.94188   0.00972   0.00000   0.01912   0.01688   1.95876
   A19        1.97470   0.00408   0.00000  -0.00234  -0.00086   1.97384
   A20        1.87474   0.00085   0.00000   0.00294   0.00274   1.87749
   A21        1.94671  -0.00629   0.00000  -0.01053  -0.01118   1.93553
   A22        1.85864  -0.00361   0.00000  -0.01109  -0.01115   1.84749
   A23        1.92281   0.00344   0.00000   0.01621   0.01537   1.93818
   A24        1.88105   0.00149   0.00000   0.00472   0.00502   1.88607
   A25        1.82961   0.00015   0.00000   0.00047   0.00047   1.83008
   A26        1.99847   0.00038   0.00000   0.00089   0.00089   1.99936
   A27        1.91093  -0.00025   0.00000  -0.00093  -0.00093   1.91000
   A28        1.86924  -0.00065   0.00000  -0.00211  -0.00211   1.86713
   A29        1.84499  -0.00007   0.00000  -0.00005  -0.00005   1.84494
   A30        1.95985   0.00031   0.00000   0.00136   0.00136   1.96122
   A31        1.87692   0.00028   0.00000   0.00087   0.00087   1.87779
   A32        1.88503  -0.00002   0.00000  -0.00007  -0.00007   1.88495
   A33        1.87087   0.00426   0.00000   0.02189   0.02231   1.89318
   A34        2.02118  -0.01973   0.00000  -0.06459  -0.06467   1.95651
   A35        1.84787   0.00810   0.00000   0.00972   0.00904   1.85691
   A36        1.90830   0.00966   0.00000   0.03740   0.03791   1.94621
   A37        1.92142  -0.00317   0.00000  -0.00078  -0.00107   1.92035
   A38        1.89254   0.00094   0.00000  -0.00320  -0.00395   1.88859
   A39        1.94767  -0.04599   0.00000  -0.13473  -0.13392   1.81375
   A40        1.84363   0.00937   0.00000   0.03697   0.03836   1.88199
   A41        1.99256   0.01959   0.00000   0.03620   0.03422   2.02678
   A42        1.86472   0.01570   0.00000   0.05683   0.05771   1.92242
   A43        1.95379   0.01265   0.00000   0.02100   0.01965   1.97343
   A44        1.85043  -0.00914   0.00000  -0.00431  -0.00634   1.84409
   A45        1.88377  -0.00019   0.00000  -0.00059  -0.00059   1.88318
   A46        1.92792  -0.00023   0.00000  -0.00071  -0.00071   1.92722
   A47        2.01647   0.01314   0.00000   0.03886   0.04041   2.05689
   A48        2.99272  -0.00629   0.00000  -0.06135  -0.05963   2.93309
   A49        3.04161  -0.00515   0.00000  -0.04272  -0.04468   2.99693
    D1       -0.35082   0.00962   0.00000   0.07186   0.07223  -0.27860
    D2        1.78404   0.01218   0.00000   0.09382   0.09396   1.87800
    D3       -2.40165   0.00720   0.00000   0.05739   0.05768  -2.34396
    D4        1.93395   0.00057   0.00000   0.02078   0.02089   1.95484
    D5       -2.21437   0.00312   0.00000   0.04274   0.04263  -2.17175
    D6       -0.11687  -0.00186   0.00000   0.00631   0.00635  -0.11052
    D7       -0.90350  -0.00252   0.00000  -0.00054  -0.00055  -0.90405
    D8        3.10279   0.00561   0.00000   0.04428   0.04409  -3.13630
    D9        1.21230   0.02193   0.00000   0.11683   0.11919   1.33149
   D10       -1.23721  -0.00608   0.00000  -0.05593  -0.05521  -1.29242
   D11        2.99986  -0.00452   0.00000  -0.04286  -0.04278   2.95708
   D12        0.94228  -0.00331   0.00000  -0.04445  -0.04424   0.89804
   D13       -0.96403  -0.00097   0.00000  -0.01292  -0.01201  -0.97604
   D14        0.86710  -0.00559   0.00000  -0.03570  -0.03350   0.83360
   D15        0.77535  -0.01029   0.00000  -0.06412  -0.06458   0.71076
   D16       -1.03536  -0.01055   0.00000  -0.04350  -0.04480  -1.08015
   D17       -2.91260   0.00925   0.00000   0.06208   0.06268  -2.84992
   D18       -0.84032   0.00064   0.00000   0.02581   0.02829  -0.81203
   D19       -2.80305   0.00475   0.00000   0.02616   0.02765  -2.77540
   D20        1.31041   0.01443   0.00000   0.05778   0.05916   1.36957
   D21        1.79165  -0.00225   0.00000  -0.00481  -0.00548   1.78617
   D22       -2.43599  -0.00123   0.00000  -0.00961  -0.00968  -2.44567
   D23       -0.40073   0.00028   0.00000  -0.00187  -0.00214  -0.40286
   D24       -2.47015   0.00095   0.00000   0.02367   0.02294  -2.44721
   D25       -0.41461   0.00197   0.00000   0.01887   0.01875  -0.39586
   D26        1.62066   0.00348   0.00000   0.02661   0.02629   1.64694
   D27       -0.29506  -0.00259   0.00000  -0.01642  -0.01628  -0.31134
   D28        1.76048  -0.00157   0.00000  -0.02122  -0.02048   1.74001
   D29       -2.48744  -0.00006   0.00000  -0.01348  -0.01293  -2.50037
   D30        1.18507  -0.01287   0.00000  -0.05565  -0.05539   1.12968
   D31       -3.02028   0.00080   0.00000   0.00409   0.00397  -3.01631
   D32       -1.00471   0.01185   0.00000   0.04970   0.04956  -0.95515
   D33       -0.71438   0.01059   0.00000   0.09756   0.09706  -0.61731
   D34       -2.73442   0.00965   0.00000   0.07645   0.07677  -2.65764
   D35        1.52273   0.00441   0.00000   0.03894   0.03872   1.56145
   D36       -2.83771   0.00679   0.00000   0.07252   0.07218  -2.76553
   D37        1.42544   0.00584   0.00000   0.05141   0.05189   1.47733
   D38       -0.60060   0.00060   0.00000   0.01390   0.01383  -0.58677
   D39        1.44629   0.00377   0.00000   0.04804   0.04774   1.49404
   D40       -0.57375   0.00283   0.00000   0.02693   0.02745  -0.54629
   D41       -2.59978  -0.00241   0.00000  -0.01058  -0.01061  -2.61039
   D42        0.98559  -0.00168   0.00000  -0.00052  -0.00091   0.98468
   D43       -1.08241  -0.00167   0.00000  -0.00037  -0.00076  -1.08317
   D44       -3.11253  -0.00151   0.00000   0.00024  -0.00015  -3.11268
   D45       -3.08943   0.00158   0.00000   0.00090   0.00123  -3.08820
   D46        1.12576   0.00159   0.00000   0.00105   0.00137   1.12713
   D47       -0.90436   0.00175   0.00000   0.00166   0.00198  -0.90237
   D48       -1.06820  -0.00005   0.00000  -0.00100  -0.00094  -1.06914
   D49       -3.13620  -0.00004   0.00000  -0.00085  -0.00079  -3.13699
   D50        1.11687   0.00012   0.00000  -0.00024  -0.00018   1.11670
   D51        1.03862  -0.00013   0.00000  -0.00068  -0.00068   1.03794
   D52       -3.13965  -0.00026   0.00000  -0.00135  -0.00135  -3.14100
   D53       -1.09799   0.00019   0.00000   0.00038   0.00038  -1.09761
   D54        1.05948   0.00127   0.00000  -0.03477  -0.03273   1.02675
   D55        3.06657  -0.00232   0.00000  -0.02764  -0.02791   3.03866
   D56       -1.19818   0.00270   0.00000   0.01195   0.01231  -1.18587
   D57       -3.10881   0.00051   0.00000  -0.02231  -0.02108  -3.12989
   D58       -1.10172  -0.00308   0.00000  -0.01519  -0.01626  -1.11798
   D59        0.91672   0.00195   0.00000   0.02441   0.02396   0.94067
   D60       -1.01363   0.00291   0.00000  -0.00318  -0.00194  -1.01556
   D61        0.99346  -0.00068   0.00000   0.00394   0.00289   0.99635
   D62        3.01190   0.00435   0.00000   0.04353   0.04310   3.05500
   D63        2.69865   0.00881   0.00000   0.03568   0.03587   2.73451
   D64        0.68199   0.00099   0.00000   0.00514   0.00513   0.68713
   D65       -1.40498  -0.00948   0.00000  -0.03798  -0.03816  -1.44314
   D66       -0.49443   0.01734   0.00000   0.06622   0.06699  -0.42744
   D67        1.73956  -0.01871   0.00000  -0.07186  -0.07247   1.66710
   D68       -2.51651   0.00123   0.00000   0.00444   0.00428  -2.51223
         Item               Value     Threshold  Converged?
 Maximum Force            0.045987     0.000450     NO 
 RMS     Force            0.009300     0.000300     NO 
 Maximum Displacement     0.926570     0.001800     NO 
 RMS     Displacement     0.216633     0.001200     NO 
 Predicted change in Energy=-3.589939D-02
 GradGradGradGradGradGradGradGradGradGradGradGradGradGradGradGradGradGrad

                          Input orientation:                          
 ---------------------------------------------------------------------
 Center     Atomic      Atomic             Coordinates (Angstroms)
 Number     Number       Type             X           Y           Z
 ---------------------------------------------------------------------
      1          6           0        0.573126   -0.111786   -1.173036
      2          8           0       -0.053951    0.562693   -0.713370
      3          1           0        0.449598    3.071478    0.963012
      4          1           0        3.119681    0.741324    0.974240
      5          8           0        3.071183    1.447039    0.304025
      6          1           0        2.271362    1.978216    0.590967
      7          8           0        0.797343    2.166862    0.963198
      8          1           0        0.396792    1.632993    0.166474
      9          6           0       -1.083167   -0.898831    1.026712
     10          6           0       -1.279268    0.001386   -0.227412
     11          1           0       -1.367719   -0.406743    1.965338
     12          1           0       -1.677322   -0.660858   -1.014372
     13          8           0       -1.920989   -2.044805    0.938271
     14          1           0       -1.587091   -2.539603    0.167828
     15          6           0       -2.315975    1.099334    0.039383
     16          8           0       -2.602403    1.920756   -1.075800
     17          1           0       -1.940262    1.774526    0.816491
     18          1           0       -3.216034    0.602470    0.436560
     19          1           0       -2.939626    1.353795   -1.786958
     20          1           0        2.335333    0.820028   -0.769308
     21          6           0        0.809341   -1.414823   -0.369610
     22          1           0        1.865962   -1.695633   -0.465336
     23          6           0        0.398657   -1.269549    1.095179
     24          1           0        0.479856   -2.236643    1.608342
     25          8           0       -0.027407   -2.424149   -0.974859
     26          1           0        0.351562   -3.291728   -0.763286
     27          8           0        1.233962   -0.378172    1.822090
     28          1           0        0.838898    0.516151    1.846721
     29          8           0        1.646700    0.577889   -1.519390
     30          1           0       -0.060430   -0.304247   -2.041043
 ---------------------------------------------------------------------
                    Distance matrix (angstroms):
                    1          2          3          4          5
     1  C    0.000000
     2  O    1.029291   0.000000
     3  H    3.835510   3.059056   0.000000
     4  H    3.438536   3.598871   3.543880   0.000000
     5  O    3.294227   3.403472   3.153692   0.974461   0.000000
     6  H    3.219289   3.018622   2.156957   1.548045   1.002097
     7  O    3.131455   2.471627   0.969153   2.724983   2.474470
     8  H    2.206726   1.456997   1.645144   2.976857   2.684374
     9  C    2.863851   2.494639   4.256381   4.511850   4.825351
    10  C    2.082877   1.432698   3.719080   4.619765   4.615059
    11  H    3.701793   3.137079   4.050348   4.736781   5.089236
    12  H    2.321890   2.054997   4.729077   5.378841   5.360009
    13  O    3.796682   3.607325   5.638852   5.759528   6.125114
    14  H    3.515501   3.570891   6.022014   5.793831   6.132812
    15  C    3.359119   2.443640   3.520062   5.527068   5.404850
    16  O    3.771560   2.910378   3.846508   6.191604   5.858148
    17  H    3.719343   2.714256   2.723047   5.166760   5.048213
    18  H    4.178361   3.364921   4.450844   6.360005   6.345074
    19  H    3.855419   3.178924   4.690374   6.686892   6.364803
    20  H    2.033875   2.403753   3.409686   1.913467   1.444528
    21  C    1.548934   2.184951   4.693847   3.434032   3.709443
    22  H    2.163524   2.974495   5.174130   3.095634   3.452661
    23  C    2.552578   2.613964   4.343337   3.385588   3.892065
    24  H    3.501397   3.675809   5.347290   4.029770   4.688895
    25  O    2.397277   2.998384   5.846777   4.870664   5.120831
    26  H    3.213879   3.876015   6.593945   5.191049   5.566993
    27  O    3.078708   2.995413   3.640512   2.351182   3.001883
    28  H    3.095783   2.711717   2.731701   2.452325   2.868721
    29  O    1.322185   1.882050   3.716633   2.900789   2.471723
    30  H    1.091728   1.585668   4.547527   4.505358   4.286414
                    6          7          8          9         10
     6  H    0.000000
     7  O    1.531951   0.000000
     8  H    1.952788   1.039339   0.000000
     9  C    4.440736   3.597058   3.056210   0.000000
    10  C    4.145428   3.227872   2.372018   1.556173   0.000000
    11  H    4.562875   3.509305   3.241903   1.097332   2.232162
    12  H    5.013375   4.246264   3.310303   2.139083   1.102869
    13  O    5.820749   5.012793   4.415199   1.422331   2.440804
    14  H    5.956290   5.335631   4.620211   1.919311   2.589903
    15  C    4.703226   3.418450   2.767680   2.547017   1.533437
    16  O    5.151213   3.971946   3.259022   3.831280   2.480812
    17  H    4.222573   2.769465   2.429892   2.815251   2.161174
    18  H    5.659331   4.339570   3.766622   2.674192   2.133828
    19  H    5.761841   4.710560   3.876279   4.054319   2.649147
    20  H    1.787691   2.679730   2.300988   4.226857   3.745554
    21  C    3.817450   3.821648   3.121981   2.407811   2.527480
    22  H    3.844125   4.254589   3.692885   3.399775   3.581754
    23  C    3.782754   3.461978   3.047498   1.529027   2.485952
    24  H    4.691437   4.461823   4.130371   2.138007   3.387224
    25  O    5.207396   5.051105   4.235917   2.729014   2.830027
    26  H    5.769917   5.742445   5.011924   3.314891   3.713673
    27  O    2.853844   2.721310   2.736184   2.504556   3.265096
    28  H    2.401355   1.872748   2.065435   2.523672   3.008926
    29  O    2.608587   3.067489   2.348969   4.014413   3.250054
    30  H    4.192179   3.983419   2.972388   3.287955   2.206408
                   11         12         13         14         15
    11  H    0.000000
    12  H    3.006509   0.000000
    13  O    2.011025   2.405722   0.000000
    14  H    2.797902   2.221581   0.974626   0.000000
    15  C    2.622357   2.148617   3.293877   3.713439   0.000000
    16  O    4.023706   2.743042   4.499609   4.740493   1.414358
    17  H    2.530926   3.058152   3.821321   4.376894   1.095875
    18  H    2.602295   2.463501   2.989469   3.549408   1.102148
    19  H    4.432844   2.499825   4.473810   4.561698   1.946590
    20  H    4.764017   4.284214   5.407345   5.248882   4.729341
    21  C    3.347805   2.677251   3.092269   2.701269   4.031856
    22  H    4.245717   3.731898   4.053768   3.610645   5.055214
    23  C    2.149813   3.021655   2.450796   2.533024   3.754402
    24  H    2.624788   3.743680   2.499970   2.537545   4.626775
    25  O    3.809347   2.415155   2.718386   1.936924   4.322171
    26  H    4.327176   3.331800   3.100742   2.278385   5.200140
    27  O    2.605778   4.074433   3.675937   3.920039   4.238292
    28  H    2.394778   3.987802   3.873080   4.247556   3.682362
    29  O    4.711640   3.583108   5.064289   4.798215   4.290043
    30  H    4.215519   1.948221   3.920145   3.493797   3.374270
                   16         17         18         19         20
    16  O    0.000000
    17  H    2.010119   0.000000
    18  H    2.098012   1.773600   0.000000
    19  H    0.970005   2.820229   2.363245   0.000000
    20  H    5.068212   4.659028   5.684992   5.398677   0.000000
    21  C    4.823358   4.374825   4.574169   4.871229   2.735502
    22  H    5.780763   5.307771   5.649901   5.842891   2.577065
    23  C    4.888512   3.848974   4.123618   5.131547   3.404903
    24  H    5.830000   4.751155   4.805542   6.009339   4.294096
    25  O    5.051632   4.949426   4.617345   4.838737   4.018642
    26  H    5.999464   5.780578   5.415917   5.784523   4.565296
    27  O    5.329215   3.964976   4.762753   5.783059   3.060074
    28  H    4.728276   3.220032   4.294005   5.308720   3.029071
    29  O    4.478274   4.444612   5.241424   4.659185   1.046647
    30  H    3.513397   4.002570   4.113210   3.332181   2.936152
                   21         22         23         24         25
    21  C    0.000000
    22  H    1.097482   0.000000
    23  C    1.528192   2.183973   0.000000
    24  H    2.167082   2.552278   1.097816   0.000000
    25  O    1.444027   2.091697   2.408254   2.639205   0.000000
    26  H    1.971627   2.220293   2.746874   2.598900   0.970090
    27  O    2.461402   2.714304   1.421509   2.016997   3.687818
    28  H    2.939669   3.360425   1.986794   2.786326   4.166193
    29  O    2.448278   2.515554   3.436075   4.366443   3.480141
    30  H    2.187137   2.851280   3.313375   4.164622   2.373146
                   26         27         28         29         30
    26  H    0.000000
    27  O    3.993946   0.000000
    28  H    4.642152   0.978006   0.000000
    29  O    4.150062   3.499985   3.462233   0.000000
    30  H    3.275277   4.074888   4.073887   1.991125   0.000000
 Stoichiometry    C6H16O8
 Framework group  C1[X(C6H16O8)]
 Deg. of freedom    84
 Full point group                 C1      NOp   1
 Largest Abelian subgroup         C1      NOp   1
 Largest concise Abelian subgroup C1      NOp   1
                         Standard orientation:                         
 ---------------------------------------------------------------------
 Center     Atomic      Atomic             Coordinates (Angstroms)
 Number     Number       Type             X           Y           Z
 ---------------------------------------------------------------------
      1          6           0        0.432252    0.122928    1.259420
      2          8           0        0.120422   -0.648162    0.653101
      3          1           0        1.594987   -2.521777   -1.263419
      4          1           0        3.228172    0.570889   -0.691397
      5          8           0        3.403615   -0.202515   -0.125146
      6          1           0        2.869497   -0.929429   -0.561624
      7          8           0        1.588474   -1.564625   -1.111513
      8          1           0        0.977833   -1.338456   -0.301457
      9          6           0       -1.273704    0.610611   -0.988583
     10          6           0       -1.196577   -0.485970    0.112887
     11          1           0       -1.307365    0.203757   -2.007148
     12          1           0       -1.851160   -0.138957    0.929846
     13          8           0       -2.475130    1.358561   -0.846555
     14          1           0       -2.387365    1.811726    0.011836
[...]
 2088,-0.00003434,0.00004452,-0.00003256,0.00004450,-0.00013519,-0.0001
 8857,-0.00003743,0.00247057,-0.00281192,-0.00032905,0.00031682,0.00043
 840,0.03155034,-0.20147022,0.12148132,-0.02870213,0.23498400,0.0032165
 8,-0.00459544,-0.00165283,-0.00061918,-0.00032312,0.00090081,-0.000035
 56,-0.00004314,0.00007257,0.00018610,0.00004637,-0.00012470,0.00000010
 ,0.00009369,0.00045940,0.00008333,-0.00000370,-0.00009941,0.00004862,-
 0.00038722,0.00029042,-0.00004967,-0.00019196,-0.00025329,-0.00061271,
 0.00375475,-0.00164099,0.00009837,0.00038212,0.00057916,-0.00025903,-0
 .00034479,0.00058797,-0.00003586,-0.00005782,-0.00005306,0.00062510,-0
 .00092188,0.00034319,-0.00043464,0.00024306,-0.00057768,0.00000140,-0.
 00003953,-0.00028773,-0.00009110,0.00015331,0.00007039,-0.00001272,0.0
 0002943,0.00004755,-0.00003883,0.00002859,0.00004257,0.00006875,-0.000
 04113,0.00001348,-0.00035638,-0.00053937,-0.00050069,-0.00424936,0.024
 26500,-0.02060325,0.00015910,-0.00048827,0.00105189,-0.02197238,0.1301
 1625,-0.14848319,0.02413440,-0.12617451,0.15837685,0.00145720,0.008438
 89,0.00453107,0.00052212,0.00193999,-0.00192131,-0.00002841,-0.0000593
 2,0.00002794,-0.00035707,0.00082299,0.00102895,0.00040234,-0.00145496,
 -0.00043255,-0.00056336,0.00022019,-0.00001077,0.00053439,0.00007564,-
 0.00008576,-0.00032806,-0.00019839,-0.00003612,-0.00273277,-0.00838303
 ,-0.00466315,-0.00088874,0.00012032,0.00025756,0.00139617,0.00086321,0
 .00049265,0.00022496,0.00001055,0.00031109,-0.01214666,0.00733147,0.00
 889212,0.00298390,0.00096139,0.00198421,0.00030354,-0.00046849,-0.0000
 3980,-0.00000957,0.00064216,-0.00024931,-0.00003737,0.00006141,0.00003
 774,0.00009695,-0.00005140,-0.00000985,-0.00000817,-0.00010808,0.00006
 977,-0.00033972,0.00134070,-0.00065850,-0.08705585,-0.01003460,-0.0300
 7585,-0.00353836,-0.03839018,-0.01740374,0.00776688,0.00617970,0.00141
 663,-0.00010577,0.00032022,-0.00063352,0.18966729,-0.00980291,-0.03526
 600,-0.01318655,0.00564866,-0.00580960,0.00198365,0.00000828,0.0001092
 4,0.00009586,0.00086606,0.00085901,0.00059909,-0.00087251,-0.00127928,
 -0.00027839,0.00005447,0.00045804,0.00005018,-0.00002313,-0.00097325,-
 0.00023385,0.00005432,0.00086909,0.00020778,-0.00264740,-0.00274515,-0
 .00060043,-0.00289925,-0.00105763,0.00100229,0.00064457,0.00022629,0.0
 0008995,0.00046082,0.00008368,0.00013675,0.00129496,0.00742710,0.00067
 693,0.00522656,-0.00745512,-0.00104807,-0.00001742,0.00026705,-0.00007
 378,0.00053397,-0.00026922,-0.00008987,-0.00008684,0.00005802,0.000048
 42,0.00025442,-0.00014795,-0.00005910,-0.00030600,0.00017372,-0.000067
 70,0.00089651,0.00126337,-0.00002453,-0.04220489,-0.17003218,-0.061944
 64,-0.00880617,-0.01531302,-0.00733042,-0.00824712,-0.02147023,-0.0058
 2656,-0.00058724,0.00297263,-0.00038031,-0.09236612,0.52011375,0.00767
 120,0.01606163,0.00922066,-0.00314332,0.00387989,0.00112478,0.00001050
 ,0.00006565,0.00006564,0.00107075,0.00074858,-0.00027903,-0.00032471,-
 0.00052992,0.00086921,0.00004851,0.00018133,-0.00021296,0.00003398,-0.
 00060802,0.00056470,-0.00012051,-0.00022590,-0.00050218,-0.00132384,0.
 00311459,0.00114925,0.00095648,0.00019502,-0.00123198,-0.00022881,-0.0
 0023587,-0.00012957,-0.00001142,-0.00011005,0.00030999,0.00773209,-0.0
 0193163,0.00101472,-0.00078084,-0.00023516,-0.00577808,-0.00034262,0.0
 0015233,-0.00005450,0.00004034,-0.00044313,0.00032323,-0.00006190,0.00
 012627,0.00012893,-0.00005492,0.00010233,0.00007383,0.00005185,0.00001
 551,-0.00006460,-0.00072573,-0.00017356,-0.00129501,-0.03110262,-0.020
 29895,-0.09985951,-0.00383418,-0.01256200,-0.00179446,-0.01478604,-0.0
 3263058,-0.00925361,-0.00197051,-0.00014550,0.00364595,0.16087177,-0.1
 0804947,0.28157912,0.00036681,-0.00233709,-0.00303821,0.00028837,-0.00
 093833,0.00061243,0.00000978,0.00002509,0.00000577,0.00029360,-0.00008
 338,-0.00010232,-0.00030490,0.00013442,0.00007829,0.00014762,-0.000008
 83,-0.00000412,-0.00014366,-0.00014691,0.00001716,0.00008964,0.0001338
 4,0.00001290,0.00012398,0.00108048,0.00010021,-0.00013663,-0.00013345,
 -0.00020522,-0.00004636,-0.00015440,-0.00007037,0.00009671,-0.00000715
 ,0.00005716,0.00006739,-0.00193639,0.00142876,-0.00114245,0.00326047,-
 0.00294033,-0.00000946,0.00013215,0.00005506,0.00004959,-0.00019523,0.
 00006141,-0.00001029,0.00002318,0.00001541,-0.00001242,-0.00000582,-0.
 00000012,-0.00001612,0.00003451,-0.00002804,0.00026644,-0.00002900,-0.
 00005503,0.00411534,-0.01470754,0.00623851,0.00069609,-0.00110749,0.00
 056854,-0.00044624,0.00136830,-0.00048614,0.00019379,0.00007269,0.0006
 9409,-0.10233281,0.15116840,-0.12490263,0.09854583,-0.00304874,-0.0042
 8826,-0.00458954,0.00079125,-0.00113843,0.00041758,-0.00001660,-0.0000
 2881,-0.00002792,-0.00020552,-0.00027606,-0.00006012,0.00007176,0.0003
 2298,-0.00011196,0.00003340,-0.00008584,0.00004397,-0.00001815,0.00019
 835,-0.00009686,0.00003281,0.00001399,0.00011616,0.00047184,-0.0002820
 4,0.00020050,-0.00048486,-0.00023787,0.00014286,-0.00016690,0.00012556
 ,0.00000285,0.00004740,0.00007365,-0.00003406,-0.00121718,0.00010758,0
 .00045798,0.00194046,0.00053354,-0.00046728,0.00019441,-0.00010006,0.0
 0002397,-0.00005227,0.00021262,-0.00009787,0.00000303,-0.00001101,-0.0
 0001713,0.00001207,-0.00002675,-0.00002141,0.00001131,-0.00003395,0.00
 002051,0.00020903,-0.00009769,0.00027816,0.01614003,-0.02914467,0.0233
 5679,-0.00070754,0.00239558,0.00080531,0.00091106,-0.00022711,-0.00034
 881,0.00045953,0.00017219,-0.00127396,0.11989300,-0.26972576,0.1577472
 3,-0.13478461,0.30051388,-0.00144600,-0.00050750,-0.00154347,0.0010129
 6,-0.00000012,0.00039366,-0.00000529,-0.00002215,-0.00000421,-0.000142
 78,-0.00000571,0.00013417,0.00015478,-0.00005150,-0.00006805,-0.000082
 68,-0.00001812,0.00000862,0.00008729,0.00016432,-0.00003146,-0.0000542
 2,-0.00010204,0.00001999,0.00019041,0.00014937,-0.00037083,-0.00042250
 ,-0.00019394,0.00030991,0.00000790,0.00000989,0.00003671,-0.00001131,0
 .00003254,-0.00006158,-0.00003393,0.00032513,-0.00078258,0.00018708,-0
 .00044088,0.00092698,0.00008278,-0.00013241,-0.00006068,-0.00004732,0.
 00019863,-0.00006773,0.00000295,-0.00000430,-0.00000688,-0.00000484,0.
 00000272,0.00000112,0.00002125,-0.00003869,0.00002518,-0.00005691,0.00
 022313,-0.00006030,0.00650455,-0.01807138,0.00573433,-0.00052005,-0.00
 041861,0.00036614,-0.00045948,-0.00367593,0.00229613,-0.00001568,0.000
 65558,-0.00149816,-0.12682161,0.19875425,-0.16935253,0.12070363,-0.177
 90119,0.16300485,-0.00379032,-0.00019851,0.00118357,0.00280394,0.00101
 399,-0.00464689,0.00009065,-0.00038457,0.00036128,0.00392854,0.0034144
 3,0.00026817,-0.00548516,-0.00601716,0.00589520,-0.00155412,0.00219734
 ,-0.00005167,0.00296902,-0.00020067,-0.00019012,-0.00120276,-0.0008704
 1,-0.00020042,-0.00743953,-0.03486152,-0.01819923,-0.00036522,0.000091
 41,0.00299145,0.00457954,-0.00073350,0.00018829,0.00034556,-0.00006611
 ,-0.00006906,-0.01220943,-0.00448160,-0.00609547,-0.00174088,0.0013529
 0,0.00197031,0.00061366,-0.00049949,0.00076355,-0.00012064,0.00148066,
 -0.00098173,0.00004270,-0.00067019,-0.00051436,-0.00002810,-0.00001898
 ,-0.00017321,-0.00002973,-0.00007764,0.00008124,-0.00174140,-0.0012626
 9,-0.00356933,0.00573227,0.00525720,-0.00095845,0.00304336,0.00034482,
 -0.00144380,-0.09585694,-0.02022437,-0.04102437,0.00331860,-0.00008797
 ,0.00168469,0.00243516,0.00272924,0.00410058,-0.00038337,-0.00041604,0
 .00016484,0.16045607,0.00273591,-0.00629441,0.00026538,0.00218856,0.00
 399820,0.00387025,-0.00098379,-0.00001458,0.00170988,0.00575556,-0.002
 74513,-0.00214721,-0.00578590,-0.00022508,0.00563460,0.00130116,0.0012
 9034,-0.00119008,0.00141001,-0.00714978,0.00240580,-0.00093857,-0.0011
 1973,-0.00233741,-0.00547712,-0.00845446,-0.00616480,-0.00383767,-0.00
 130664,0.00212247,0.00031195,0.00069410,0.00134350,0.00024351,0.000528
 35,-0.00016594,-0.00520570,0.00175654,-0.00221391,0.00184729,0.0002435
 8,0.00142878,-0.00012994,-0.00120073,-0.00170059,0.00032126,0.00139530
 ,0.00006134,-0.00054147,0.00040905,0.00052089,0.00031673,0.00008642,0.
 00032552,0.00004499,-0.00015815,0.00004248,-0.00113909,-0.00218966,-0.
 00285879,-0.01055808,-0.01491698,-0.01274922,0.00039264,0.00075348,0.0
 0216930,-0.04839685,-0.16894823,-0.06184783,-0.01691528,-0.03561073,-0
 .02298692,0.00178311,-0.00231714,-0.00832792,-0.00105669,0.00171899,0.
 00106762,-0.04027367,0.57870748,0.00002124,0.00052877,0.00456696,-0.00
 532988,0.00222650,-0.00688302,0.00027175,0.00012943,-0.00065856,-0.000
 28331,-0.00077719,-0.00466851,0.00354467,0.00336674,0.00139034,0.00042
 765,-0.00068344,-0.00080349,-0.00064904,0.00024622,0.00323364,-0.00005
 714,-0.00161761,-0.00068567,-0.00463566,-0.01222672,-0.00576289,0.0036
 4736,0.00114080,-0.00017246,-0.00085428,0.00086754,0.00142358,-0.00026
 074,-0.00048796,0.00050962,-0.00285589,0.00025564,0.00132609,0.0015524
 8,0.00049085,-0.00008181,-0.00006545,-0.00045213,-0.00131920,-0.000310
 28,0.00035108,0.00047604,-0.00024470,0.00045723,0.00026467,-0.00005441
 ,0.00015181,0.00025446,0.00029073,-0.00019083,0.00003902,-0.00065622,-
 0.00059536,0.00012561,-0.01707219,-0.03026535,-0.01310840,-0.00068780,
 0.00092395,0.00272963,-0.04110089,-0.02977304,-0.11323183,0.00527347,0
 .00729627,0.01203826,0.00212589,-0.00687384,-0.00924048,-0.00015722,0.
 00074001,-0.00066431,0.13389384,-0.07468962,0.24305926,0.00414597,-0.0
 0104365,-0.00026337,-0.00279202,0.00102521,0.00173928,-0.00016615,0.00
 087756,-0.00115340,-0.00653494,0.00196605,-0.00022923,0.00305314,0.000
 60467,-0.00200522,-0.00107629,-0.00280638,0.00110127,-0.00448455,-0.00
 067993,0.00176206,0.00179256,0.00164530,-0.00099652,0.00091709,-0.0031
 0718,0.00020764,-0.00148615,-0.00090826,-0.00251768,-0.00059117,-0.000
 20016,0.00042790,-0.00011286,0.00000584,0.00045143,-0.00064908,0.00143
 715,0.00021644,0.00061970,-0.00005764,0.00003234,-0.00078513,0.0004804
 5,-0.00227830,-0.00006280,-0.00066012,0.00087347,-0.00097353,0.0008631
 4,0.00107930,0.00027993,0.00000259,0.00053980,0.00005932,0.00000016,-0
 .00004229,0.00059620,0.00066921,0.00235181,0.00006558,0.00158291,0.000
 08492,-0.00030923,0.00034694,-0.00005683,0.00265675,-0.01963690,0.0087
 2687,-0.00111685,-0.00412117,-0.00201024,-0.00039513,-0.00035917,-0.00
 021352,-0.00002324,0.00008963,0.00006997,-0.06179295,0.12112077,-0.076
 28751,0.07158268,-0.00011921,0.00111849,-0.00244228,0.00162359,-0.0030
 1993,0.00316284,0.00159707,0.00000467,-0.00270928,0.00183006,0.0028226
 9,-0.00014301,-0.00018576,-0.00317065,-0.00009488,-0.00350944,0.001369
 74,0.00091580,-0.00020394,0.00494378,-0.00119800,0.00134387,0.00096013
 ,0.00545960,-0.00163043,0.00193397,0.00047374,-0.00128397,0.00055435,-
 0.00129094,-0.00055107,0.00006641,-0.00004308,0.00004395,-0.00024238,0
 .00012905,0.00202028,0.00081989,0.00096266,-0.00016385,-0.00015239,-0.
 00030937,0.00031900,0.00152476,0.00045012,-0.00047232,-0.00129898,0.00
 025312,0.00049206,0.00045542,-0.00029476,-0.00014253,-0.00027171,-0.00
 020676,-0.00011807,0.00006388,0.00000110,0.00024209,0.00103552,0.00031
 580,0.00136585,-0.00095255,-0.00077060,0.00007467,0.00002016,-0.000159
 32,0.00646405,-0.03054727,0.01157396,-0.00172399,-0.00118935,-0.003270
 95,-0.00016558,0.00143708,0.00131272,0.00010270,-0.00021487,0.00000315
 ,0.09192714,-0.34351203,0.13899437,-0.09882437,0.36704088,0.00286180,-
 0.00346963,-0.00294802,0.00246603,0.00180334,0.00262863,-0.00081486,-0
 .00080441,0.00137496,0.00090757,-0.00009754,0.00159986,-0.00138681,-0.
 00035025,-0.00109775,0.00109331,0.00076618,0.00086431,0.00094800,-0.00
 095003,-0.00544912,-0.00053211,0.00471745,-0.00208659,-0.00009660,-0.0
 0035387,0.00129416,-0.00558112,-0.00178033,0.00141653,0.00046991,0.000
 27991,-0.00041602,0.00079910,0.00046062,-0.00026200,-0.00052546,0.0001
 8537,-0.00095928,0.00001336,-0.00013068,0.00031819,-0.00001495,0.00031
 420,0.00097741,0.00032922,0.00012838,-0.00060889,0.00014346,-0.0002925
 3,0.00013992,0.00017920,-0.00017602,-0.00018681,-0.00027006,0.00019778
 ,-0.00005905,0.00102967,-0.00015563,-0.00057109,-0.00094391,-0.0026544
 4,0.00114744,0.00003956,-0.00004766,-0.00002645,0.00824577,-0.02173940
 ,0.00801017,-0.00104738,-0.00246697,-0.00109155,0.00022744,0.00003163,
 -0.00191174,-0.00011756,0.00034864,0.00019114,-0.07641469,0.17646876,-
 0.11372988,0.06907446,-0.15137025,0.11084272,-0.19218583,-0.10417074,0
 .05165174,-0.05542729,-0.00439207,0.03395275,0.00010419,-0.00015932,0.
 00018374,-0.00248119,-0.00267291,0.00043447,-0.00157725,-0.00620478,-0
 .01652578,-0.00325042,0.00210839,-0.00066156,0.00282251,0.00140054,0.0
 0057241,-0.00165971,-0.00291408,-0.00109638,-0.00036752,0.00152836,-0.
 00117966,0.00358306,0.00967966,0.00089705,0.00016778,-0.00036082,0.000
 52973,-0.00041619,-0.00040741,0.00021641,0.00036859,-0.00155475,0.0006
 7415,-0.00041489,0.00073382,-0.00025407,-0.00217712,-0.00355175,0.0007
 1889,-0.00034704,0.00140405,-0.00019811,-0.00002322,0.00018512,0.00023
 215,-0.00085988,0.00117658,0.00052602,0.00055570,-0.00058925,0.0001941
 8,-0.14174081,-0.06850096,-0.16389470,-0.00400198,-0.00414015,0.005586
 00,0.00312854,-0.00004788,0.00082059,0.00030100,-0.00304943,-0.0004711
 0,-0.00005418,-0.00001937,0.00091073,0.00233940,-0.00033845,0.00027614
 ,-0.00058864,-0.00002939,0.00056872,0.00298712,0.00176715,0.00050373,-
 0.00194879,-0.00052118,-0.00078592,0.42164468,-0.09068099,-0.13968204,
 0.04156195,0.01287350,0.02379136,-0.00342997,-0.00000604,0.00008834,0.
 00010956,-0.00200624,-0.00289534,-0.00036573,-0.00485354,0.00191427,-0
 .01249102,-0.00012013,0.00171695,0.00238767,0.00217992,0.00069568,-0.0
 0125370,-0.00297129,-0.00095953,0.00133375,0.00113510,-0.00040246,0.00
 018269,0.00207932,-0.00016121,-0.00116043,-0.00052077,0.00026245,-0.00
 002189,0.00070852,0.00020949,-0.00002399,-0.00064167,0.00077071,0.0002
 0774,0.00121447,0.00011715,-0.00030899,0.00030348,-0.00052674,0.000162
 09,-0.00002864,0.00088067,-0.00033319,-0.00008873,-0.00000247,0.000069
 97,0.00009499,0.00004152,-0.00007266,-0.00014619,-0.00022572,0.0001090
 7,-0.07169876,-0.05571613,-0.08817520,-0.02841134,-0.01084927,0.020543
 86,-0.00123779,0.00187284,-0.00222054,0.00129979,-0.00870662,-0.001140
 50,-0.00106664,0.00031764,0.00220645,0.00008993,-0.00333982,0.00180204
 ,-0.00003579,-0.00058123,0.00009658,0.00169710,0.00385985,0.00085770,-
 0.00066058,-0.00133703,0.00055068,0.20209629,0.19768444,0.02275963,0.0
 2640773,-0.12973556,0.03228503,0.00672926,-0.00817305,0.00020791,0.000
 12912,-0.00002852,-0.00066258,-0.00143148,0.00113646,-0.00920668,-0.00
 837884,-0.01293395,-0.00161783,0.00207509,-0.00106004,0.00089869,-0.00
 077951,0.00026188,-0.00038875,0.00016503,-0.00051425,-0.00065660,-0.00
 064069,0.00005361,0.00028882,-0.00354297,0.00016936,0.00006113,-0.0000
 3518,0.00001353,0.00123807,0.00023347,-0.00011152,0.00048075,0.0005368
 0,0.00043908,-0.00021240,0.00005389,-0.00042757,0.00122115,0.00141044,
 -0.00025141,0.00000175,-0.00053182,0.00040210,-0.00012754,0.00005769,0
 .00010764,0.00025410,-0.00051148,-0.00018647,0.00007205,0.00014064,-0.
 00020428,-0.12981240,-0.06423939,-0.26232991,0.02357324,0.01709185,-0.
 01205876,0.00207790,-0.00157334,0.00219537,-0.00119987,0.00259220,-0.0
 0084574,0.00038121,0.00018213,-0.00100005,-0.00015615,0.00402885,-0.00
 125415,0.00105844,0.00075715,0.00025622,0.00095761,-0.00005643,-0.0006
 8990,-0.00075445,0.00024365,0.00023870,0.07516826,0.03063289,0.4100791
 0,-0.10641443,-0.04828367,-0.09264796,0.00418029,0.01782511,0.02292461
 ,0.00008117,0.00003030,0.00004487,-0.00013799,-0.00017188,0.00012558,-
 0.00053157,-0.00049134,-0.00183160,-0.00026474,0.00037538,0.00016943,0
 .00058720,0.00047308,0.00025050,-0.00056145,-0.00091341,-0.00007940,-0
 .00056433,-0.00026717,-0.00028034,0.00508538,0.00247062,0.00041055,0.0
 0006648,0.00000401,0.00002128,0.00027918,-0.00092596,-0.00144800,0.000
 15639,-0.00003138,0.00024199,-0.00001917,0.00002056,-0.00012991,0.0000
 2917,0.00018358,-0.00015130,-0.00013242,-0.00001990,0.00006724,-0.0000
 7593,-0.00005798,-0.00008050,-0.00009459,0.00003443,-0.00005044,0.0000
 3258,-0.00001705,0.00001302,0.00013897,-0.00341142,0.00471068,-0.00018
 753,-0.00418935,-0.00891209,0.00000424,0.00030150,-0.00016090,-0.00089
 234,0.00157947,-0.00046748,0.00025557,-0.00006995,-0.00050019,0.000737
 51,-0.00027660,0.00106391,0.00024562,-0.00016424,0.00036553,0.00039436
 ,-0.00030076,0.00000981,-0.00046807,0.00016932,-0.00029642,-0.02848062
 ,-0.02059726,-0.01819048,0.12655109,-0.04918900,-0.09000532,-0.0722855
 3,0.00314525,-0.01924180,-0.02755214,-0.00006699,-0.00001672,-0.000043
 37,-0.00008950,-0.00029992,-0.00001678,-0.00044296,-0.00006267,-0.0009
 5376,0.00014294,0.00004870,0.00006146,-0.00032530,-0.00068210,-0.00045
 519,0.00031744,0.00121438,0.00017826,0.00037058,0.00018106,-0.00001210
 ,-0.00369423,-0.00123026,0.00107803,-0.00013360,0.00004638,-0.00005948
 ,0.00117007,0.00048351,0.00010685,-0.00003095,0.00025997,-0.00015663,-
 0.00002687,0.00001448,0.00012881,0.00038829,0.00029819,0.00022246,0.00
 019297,-0.00002642,-0.00003394,-0.00013232,0.00010454,0.00011847,0.000
 19069,-0.00014071,-0.00001471,-0.00001726,0.00002669,-0.00009783,-0.00
 156649,0.00021581,0.00254898,0.00986164,0.00668615,0.01683480,0.000475
 66,-0.00193394,0.00130077,0.00089635,-0.00276038,0.00041684,-0.0006070
 7,0.00037345,0.00074500,0.00058531,0.00088327,0.00100252,0.00013186,0.
 00011150,-0.00009844,-0.00016114,0.00072180,-0.00039181,0.00034794,-0.
 00026268,0.00058669,-0.01845529,-0.00883775,-0.01174675,0.05672196,0.1
 1383078,-0.09909682,-0.07873132,-0.20674301,0.00481764,-0.01438165,-0.
 00997973,-0.00007495,-0.00000936,-0.00002064,0.00021163,0.00022241,0.0
 0012421,0.00005215,0.00001331,0.00078129,0.00017338,-0.00004113,-0.000
 03847,-0.00019407,-0.00051232,-0.00019967,0.00016656,0.00085869,0.0000
 3408,-0.00015734,-0.00085440,-0.00066493,-0.00240988,-0.00093104,0.000
 51401,0.00008473,0.00005144,0.00002335,0.00156488,0.00026871,-0.000100
 09,0.00018776,0.00034540,0.00059479,0.00015391,0.00040001,-0.00058100,
 0.00040130,0.00012995,0.00034594,0.00013337,0.00003050,-0.00005401,-0.
 00013842,0.00017383,0.00012591,0.00009520,-0.00008236,-0.00002798,-0.0
 0005274,-0.00001383,-0.00005642,0.00214737,0.00207417,-0.00062687,-0.0
 1403214,-0.00754325,-0.01758712,-0.00014924,0.00195655,-0.00188582,-0.
 00103592,0.00182831,-0.00029389,0.00047366,-0.00002654,-0.00065389,0.0
 0092316,-0.00163810,0.00214438,0.00039958,-0.00041157,0.00086760,0.000
 02818,0.00000013,0.00026324,0.00006963,0.00005181,0.00036008,0.0104494
 2,0.00818312,0.01645208,0.09480800,0.08858853,0.21688258\\-0.00002143,
 -0.00002065,-0.00000387,0.00002417,0.00002688,0.00000679,0.00000119,0.
 00000120,-0.00000434,-0.00000046,-0.00000651,-0.00001955,0.00003044,0.
 00001252,0.00001326,-0.00000997,-0.00001043,-0.00002499,0.00001321,0.0
 0000581,0.00002393,-0.00000845,-0.00001215,-0.00003240,0.00000761,-0.0
 0001445,0.00000250,-0.00002697,-0.00000423,0.00000648,0.00000723,0.000
 00111,0.00000941,-0.00000163,0.00000369,0.00000944,0.00000191,0.000009
 22,0.00000769,-0.00000320,0.00000486,0.00001088,0.00000361,-0.00000415
 ,0.00001138,-0.00000907,0.00000675,0.00001077,0.00001125,-0.00000182,0
 .00000320,0.00000176,0.00000354,0.00001470,0.00000277,-0.00000149,0.00
 000887,-0.00001629,-0.00000109,-0.00001611,-0.00000495,-0.00000675,-0.
 00001269,-0.00000321,-0.00000175,-0.00000871,0.00000023,0.00000706,-0.
 00000032,0.00000364,0.00000159,0.00000044,-0.00000510,-0.00000296,0.00
 001508,0.00000067,-0.00000142,-0.00001037,0.00001383,0.00000180,-0.000
 00495,0.00000246,-0.00000334,-0.00000288,-0.00000519,0.00000347,-0.000
 01330,-0.00001007,0.00000368,-0.00000033\\\@


 MAN IS A SINGULAR CREATURE.  HE HAS A SET OF GIFTS
 WHICH MAKE HIM UNIQUE AMONG THE ANIMALS: SO THAT, 
 UNLIKE THEM, HE IS NOT A FIGURE IN THE LANDSCAPE --
 HE IS A SHAPER OF THE LANDSCAPE.

                       -- JACOB BRONOWSKI
 Job cpu time:       0 days  0 hours 41 minutes 37.1 seconds.
 File lengths (MBytes):  RWF=    220 Int=      0 D2E=      0 Chk=      6 Scr=      1
 Normal termination of Gaussian 09 at Sun Jan 15 14:20:36 2017.
