 Entering Gaussian System, Link 0=g09
 Initial command:
 /global/software/gaussian/g09.e01/l1.exe "/scratch/10462961.yak.local/Gau-18405.inp" -scrdir="/scratch/10462961.yak.local/"
 Entering Link 1 = /global/software/gaussian/g09.e01/l1.exe PID=     18406.
  
 Copyright (c) 1988,1990,1992,1993,1995,1998,2003,2009,2015,
            Gaussian, Inc.  All Rights Reserved.
  
 This is part of the Gaussian(R) 09 program.  It is based on
 the Gaussian(R) 03 system (copyright 2003, Gaussian, Inc.),
 the Gaussian(R) 98 system (copyright 1998, Gaussian, Inc.),
 the Gaussian(R) 94 system (copyright 1995, Gaussian, Inc.),
 the Gaussian 92(TM) system (copyright 1992, Gaussian, Inc.),
 the Gaussian 90(TM) system (copyright 1990, Gaussian, Inc.),
 the Gaussian 88(TM) system (copyright 1988, Gaussian, Inc.),
 the Gaussian 86(TM) system (copyright 1986, Carnegie Mellon
 University), and the Gaussian 82(TM) system (copyright 1983,
 Carnegie Mellon University). Gaussian is a federally registered
 trademark of Gaussian, Inc.
  
 This software contains proprietary and confidential information,
 including trade secrets, belonging to Gaussian, Inc.
  
 This software is provided under written license and may be
 used, copied, transmitted, or stored only in accord with that
 written license.
  
 The following legend is applicable only to US Government
 contracts under FAR:
  
                    RESTRICTED RIGHTS LEGEND
  
 Use, reproduction and disclosure by the US Government is
 subject to restrictions as set forth in subparagraphs (a)
 and (c) of the Commercial Computer Software - Restricted
 Rights clause in FAR 52.227-19.
  
 Gaussian, Inc.
 340 Quinnipiac St., Bldg. 40, Wallingford CT 06492
  
  
 ---------------------------------------------------------------
 Warning -- This program may not be used in any manner that
 competes with the business of Gaussian, Inc. or will provide
 assistance to any competitor of Gaussian, Inc.  The licensee
 of this program is prohibited from giving any competitor of
 Gaussian, Inc. access to this program.  By using this program,
 the user acknowledges that Gaussian, Inc. is engaged in the
 business of creating and licensing software in the field of
 computational chemistry and represents and warrants to the
 licensee that it is not a competitor of Gaussian, Inc. and that
 it will not use this program in any manner prohibited above.
 ---------------------------------------------------------------
  

 Cite this work as:
 Gaussian 09, Revision E.01,
 M. J. Frisch, G. W. Trucks, H. B. Schlegel, G. E. Scuseria, 
 M. A. Robb, J. R. Cheeseman, G. Scalmani, V. Barone, B. Mennucci, 
 G. A. Petersson, H. Nakatsuji, M. Caricato, X. Li, H. P. Hratchian, 
 A. F. Izmaylov, J. Bloino, G. Zheng, J. L. Sonnenberg, M. Hada, 
 M. Ehara, K. Toyota, R. Fukuda, J. Hasegawa, M. Ishida, T. Nakajima, 
 Y. Honda, O. Kitao, H. Nakai, T. Vreven, J. A. Montgomery, Jr., 
 J. E. Peralta, F. Ogliaro, M. Bearpark, J. J. Heyd, E. Brothers, 
 K. N. Kudin, V. N. Staroverov, T. Keith, R. Kobayashi, J. Normand, 
 K. Raghavachari, A. Rendell, J. C. Burant, S. S. Iyengar, J. Tomasi, 
 M. Cossi, N. Rega, J. M. Millam, M. Klene, J. E. Knox, J. B. Cross, 
 V. Bakken, C. Adamo, J. Jaramillo, R. Gomperts, R. E. Stratmann, 
 O. Yazyev, A. J. Austin, R. Cammi, C. Pomelli, J. W. Ochterski, 
 R. L. Martin, K. Morokuma, V. G. Zakrzewski, G. A. Voth, 
 P. Salvador, J. J. Dannenberg, S. Dapprich, A. D. Daniels, 
 O. Farkas, J. B. Foresman, J. V. Ortiz, J. Cioslowski, 
 and D. J. Fox, Gaussian, Inc., Wallingford CT, 2013.
 
 ******************************************
 Gaussian 09:  ES64L-G09RevE.01 30-Nov-2015
                15-Jan-2017 
 ******************************************
 %NPROCS=4
 Will use up to    4 processors via shared memory.
 -----------------------------------------
 # opt=(MaxCycle=1000) freq B3LYP/6-31G(d)
 -----------------------------------------
 1/6=1000,14=-1,18=20,19=15,26=3,38=1/1,3;
 2/9=110,12=2,17=6,18=5,40=1/2;
 3/5=1,6=6,7=1,11=2,16=1,25=1,30=1,71=1,74=-5/1,2,3;
 4//1;
 5/5=2,38=5/2;
 6/7=2,8=2,9=2,10=2,28=1/1;
 7//1,2,3,16;
 1/6=1000,14=-1,18=20,19=15,26=3/3(2);
 2/9=110/2;
 99//99;
 2/9=110/2;
 3/5=1,6=6,7=1,11=2,16=1,25=1,30=1,71=1,74=-5/1,2,3;
 4/5=5,16=3,69=1/1;
 5/5=2,38=5/2;
 7//1,2,3,16;
 1/6=1000,14=-1,18=20,19=15,26=3/3(-5);
 2/9=110/2;
 6/7=2,8=2,9=2,10=2,19=2,28=1/1;
 99/9=1/99;
 -----------------------------------------------
 ./boats/2/glo_1w_alpha_ts_boat2_B3LYP_631Gd.out
 -----------------------------------------------
 Symbolic Z-matrix:
 Charge =  0 Multiplicity = 1
 C                    -1.45029  -1.26142  -0.40358 
 O                    -1.15797   0.25979  -0.82564 
 H                    -3.99598   0.61522  -1.52396 
 O                    -3.53993   0.68598  -0.67142 
 H                    -2.56472   0.77469  -0.8812 
 C                     1.06318   0.36151  -0.08628 
 C                    -0.31274   1.01259   0.06303 
 H                     1.39862   0.54336  -1.11113 
 H                    -0.67012   0.93896   1.09655 
 O                     2.05702   1.0105    0.7449 
 H                     1.85614   0.78149   1.66914 
 C                    -0.31577   2.49987  -0.34359 
 O                     0.3997    3.30071   0.5819 
 H                    -1.34629   2.87027  -0.34785 
 H                     0.07962   2.59741  -1.3688 
 H                     1.2838    2.90081   0.66099 
 H                    -1.44186  -1.71921  -1.39772 
 O                    -2.63418  -1.35016   0.26044 
 H                    -3.25985  -0.63486  -0.10128 
 O                     4.01163  -0.57633  -0.62707 
 H                     4.4225   -0.0627   -1.33833 
 H                     3.59915   0.08986  -0.04009 
 C                     1.06175  -1.18329   0.11913 
 H                     1.70993  -1.39512   0.98527 
 C                    -0.31061  -1.755     0.49754 
 H                    -0.24715  -2.84926   0.39688 
 O                    -0.57343  -1.38095   1.83966 
 H                    -1.54894  -1.36115   1.9028 
 O                     1.52553  -1.8615   -1.02913 
 H                     2.47085  -1.60994  -1.11252 
 
 Add virtual bond connecting atoms O2         and H5         Dist= 2.83D+00.
 Add virtual bond connecting atoms H19        and O4         Dist= 2.77D+00.
 Add virtual bond connecting atoms O10        and H22        Dist= 3.70D+00.
 Add virtual bond connecting atoms H30        and O20        Dist= 3.62D+00.

 GradGradGradGradGradGradGradGradGradGradGradGradGradGradGradGradGradGrad
 Berny optimization.
 Initialization pass.
                           ----------------------------
                           !    Initial Parameters    !
                           ! (Angstroms and Degrees)  !
 --------------------------                            --------------------------
 ! Name  Definition              Value          Derivative Info.                !
 --------------------------------------------------------------------------------
 ! R1    R(1,2)                  1.6055         estimate D2E/DX2                !
 ! R2    R(1,17)                 1.0945         estimate D2E/DX2                !
 ! R3    R(1,18)                 1.3603         estimate D2E/DX2                !
 ! R4    R(1,25)                 1.5344         estimate D2E/DX2                !
 ! R5    R(2,5)                  1.4991         estimate D2E/DX2                !
 ! R6    R(2,7)                  1.439          estimate D2E/DX2                !
 ! R7    R(3,4)                  0.9694         estimate D2E/DX2                !
 ! R8    R(4,5)                  1.0015         estimate D2E/DX2                !
 ! R9    R(4,19)                 1.4656         estimate D2E/DX2                !
 ! R10   R(6,7)                  1.5295         estimate D2E/DX2                !
 ! R11   R(6,8)                  1.0936         estimate D2E/DX2                !
 ! R12   R(6,10)                 1.4491         estimate D2E/DX2                !
 ! R13   R(6,23)                 1.5584         estimate D2E/DX2                !
 ! R14   R(7,9)                  1.096          estimate D2E/DX2                !
 ! R15   R(7,12)                 1.5419         estimate D2E/DX2                !
 ! R16   R(10,11)                0.9731         estimate D2E/DX2                !
 ! R17   R(10,22)                1.9601         estimate D2E/DX2                !
 ! R18   R(12,13)                1.4177         estimate D2E/DX2                !
 ! R19   R(12,14)                1.0951         estimate D2E/DX2                !
 ! R20   R(12,15)                1.1031         estimate D2E/DX2                !
 ! R21   R(13,16)                0.9736         estimate D2E/DX2                !
 ! R22   R(18,19)                1.0168         estimate D2E/DX2                !
 ! R23   R(20,21)                0.9688         estimate D2E/DX2                !
 ! R24   R(20,22)                0.979          estimate D2E/DX2                !
 ! R25   R(20,30)                1.9178         estimate D2E/DX2                !
 ! R26   R(23,24)                1.1024         estimate D2E/DX2                !
 ! R27   R(23,25)                1.5341         estimate D2E/DX2                !
 ! R28   R(23,29)                1.4119         estimate D2E/DX2                !
 ! R29   R(25,26)                1.1007         estimate D2E/DX2                !
 ! R30   R(25,27)                1.4178         estimate D2E/DX2                !
 ! R31   R(27,28)                0.9778         estimate D2E/DX2                !
 ! R32   R(29,30)                0.9818         estimate D2E/DX2                !
 ! A1    A(2,1,17)              98.9818         estimate D2E/DX2                !
 ! A2    A(2,1,18)             110.4015         estimate D2E/DX2                !
 ! A3    A(2,1,25)             108.9006         estimate D2E/DX2                !
 ! A4    A(17,1,18)            115.0113         estimate D2E/DX2                !
 ! A5    A(17,1,25)            113.1504         estimate D2E/DX2                !
 ! A6    A(18,1,25)            109.8015         estimate D2E/DX2                !
 ! A7    A(1,2,5)               99.4583         estimate D2E/DX2                !
 ! A8    A(1,2,7)              116.1203         estimate D2E/DX2                !
 ! A9    A(5,2,7)              113.2281         estimate D2E/DX2                !
 ! A10   A(3,4,5)              106.281          estimate D2E/DX2                !
 ! A11   A(3,4,19)             111.4822         estimate D2E/DX2                !
 ! A12   A(5,4,19)              88.5805         estimate D2E/DX2                !
 ! A13   A(2,5,4)              151.1213         estimate D2E/DX2                !
 ! A14   A(7,6,8)              107.2557         estimate D2E/DX2                !
 ! A15   A(7,6,10)             111.7367         estimate D2E/DX2                !
 ! A16   A(7,6,23)             114.0966         estimate D2E/DX2                !
 ! A17   A(8,6,10)             104.6374         estimate D2E/DX2                !
 ! A18   A(8,6,23)             106.7769         estimate D2E/DX2                !
 ! A19   A(10,6,23)            111.6531         estimate D2E/DX2                !
 ! A20   A(2,7,6)              104.206          estimate D2E/DX2                !
 ! A21   A(2,7,9)              110.8337         estimate D2E/DX2                !
 ! A22   A(2,7,12)             109.913          estimate D2E/DX2                !
 ! A23   A(6,7,9)              110.9026         estimate D2E/DX2                !
 ! A24   A(6,7,12)             112.7454         estimate D2E/DX2                !
 ! A25   A(9,7,12)             108.2302         estimate D2E/DX2                !
 ! A26   A(6,10,11)            107.3255         estimate D2E/DX2                !
 ! A27   A(6,10,22)             95.7118         estimate D2E/DX2                !
 ! A28   A(11,10,22)           115.6094         estimate D2E/DX2                !
 ! A29   A(7,12,13)            111.8234         estimate D2E/DX2                !
 ! A30   A(7,12,14)            109.2168         estimate D2E/DX2                !
 ! A31   A(7,12,15)            109.2492         estimate D2E/DX2                !
 ! A32   A(13,12,14)           106.6424         estimate D2E/DX2                !
 ! A33   A(13,12,15)           112.0783         estimate D2E/DX2                !
 ! A34   A(14,12,15)           107.6843         estimate D2E/DX2                !
 ! A35   A(12,13,16)           106.2187         estimate D2E/DX2                !
 ! A36   A(1,18,19)            108.4199         estimate D2E/DX2                !
 ! A37   A(4,19,18)            152.8628         estimate D2E/DX2                !
 ! A38   A(21,20,22)           104.9573         estimate D2E/DX2                !
 ! A39   A(21,20,30)           116.1446         estimate D2E/DX2                !
 ! A40   A(22,20,30)           100.3705         estimate D2E/DX2                !
 ! A41   A(10,22,20)           153.0242         estimate D2E/DX2                !
 ! A42   A(6,23,24)            107.068          estimate D2E/DX2                !
 ! A43   A(6,23,25)            113.7504         estimate D2E/DX2                !
 ! A44   A(6,23,29)            111.6327         estimate D2E/DX2                !
 ! A45   A(24,23,25)           105.1046         estimate D2E/DX2                !
 ! A46   A(24,23,29)           110.7041         estimate D2E/DX2                !
 ! A47   A(25,23,29)           108.3872         estimate D2E/DX2                !
 ! A48   A(1,25,23)            113.5593         estimate D2E/DX2                !
 ! A49   A(1,25,26)            107.9929         estimate D2E/DX2                !
 ! A50   A(1,25,27)            109.4729         estimate D2E/DX2                !
 ! A51   A(23,25,26)           107.2387         estimate D2E/DX2                !
 ! A52   A(23,25,27)           107.5178         estimate D2E/DX2                !
 ! A53   A(26,25,27)           111.0709         estimate D2E/DX2                !
 ! A54   A(25,27,28)           104.5611         estimate D2E/DX2                !
 ! A55   A(23,29,30)           105.2051         estimate D2E/DX2                !
 ! A56   A(20,30,29)           152.8952         estimate D2E/DX2                !
 ! D1    D(17,1,2,5)            95.3931         estimate D2E/DX2                !
 ! D2    D(17,1,2,7)          -142.8044         estimate D2E/DX2                !
 ! D3    D(18,1,2,5)           -25.6365         estimate D2E/DX2                !
 ! D4    D(18,1,2,7)            96.166          estimate D2E/DX2                !
 ! D5    D(25,1,2,5)          -146.2587         estimate D2E/DX2                !
 ! D6    D(25,1,2,7)           -24.4562         estimate D2E/DX2                !
 ! D7    D(2,1,18,19)           31.5075         estimate D2E/DX2                !
 ! D8    D(17,1,18,19)         -79.4287         estimate D2E/DX2                !
 ! D9    D(25,1,18,19)         151.5894         estimate D2E/DX2                !
 ! D10   D(2,1,25,23)          -35.0102         estimate D2E/DX2                !
 ! D11   D(2,1,25,26)         -153.7965         estimate D2E/DX2                !
 ! D12   D(2,1,25,27)           85.1537         estimate D2E/DX2                !
 ! D13   D(17,1,25,23)          74.008          estimate D2E/DX2                !
 ! D14   D(17,1,25,26)         -44.7784         estimate D2E/DX2                !
 ! D15   D(17,1,25,27)        -165.8282         estimate D2E/DX2                !
 ! D16   D(18,1,25,23)        -156.0007         estimate D2E/DX2                !
 ! D17   D(18,1,25,26)          85.2129         estimate D2E/DX2                !
 ! D18   D(18,1,25,27)         -35.8369         estimate D2E/DX2                !
 ! D19   D(1,2,5,4)             14.9843         estimate D2E/DX2                !
 ! D20   D(7,2,5,4)           -108.8776         estimate D2E/DX2                !
 ! D21   D(1,2,7,6)             68.2938         estimate D2E/DX2                !
 ! D22   D(1,2,7,9)            -51.0543         estimate D2E/DX2                !
 ! D23   D(1,2,7,12)          -170.6487         estimate D2E/DX2                !
 ! D24   D(5,2,7,6)           -177.5261         estimate D2E/DX2                !
 ! D25   D(5,2,7,9)             63.1258         estimate D2E/DX2                !
 ! D26   D(5,2,7,12)           -56.4685         estimate D2E/DX2                !
 ! D27   D(3,4,5,2)           -116.0377         estimate D2E/DX2                !
 ! D28   D(19,4,5,2)            -4.0511         estimate D2E/DX2                !
 ! D29   D(3,4,19,18)          122.0209         estimate D2E/DX2                !
 ! D30   D(5,4,19,18)           15.0661         estimate D2E/DX2                !
 ! D31   D(8,6,7,2)             65.4688         estimate D2E/DX2                !
 ! D32   D(8,6,7,9)           -175.2298         estimate D2E/DX2                !
 ! D33   D(8,6,7,12)           -53.6809         estimate D2E/DX2                !
 ! D34   D(10,6,7,2)           179.5924         estimate D2E/DX2                !
 ! D35   D(10,6,7,9)           -61.1063         estimate D2E/DX2                !
 ! D36   D(10,6,7,12)           60.4426         estimate D2E/DX2                !
 ! D37   D(23,6,7,2)           -52.5671         estimate D2E/DX2                !
 ! D38   D(23,6,7,9)            66.7342         estimate D2E/DX2                !
 ! D39   D(23,6,7,12)         -171.7169         estimate D2E/DX2                !
 ! D40   D(7,6,10,11)           71.012          estimate D2E/DX2                !
 ! D41   D(7,6,10,22)         -169.8945         estimate D2E/DX2                !
 ! D42   D(8,6,10,11)         -173.2546         estimate D2E/DX2                !
 ! D43   D(8,6,10,22)          -54.1611         estimate D2E/DX2                !
 ! D44   D(23,6,10,11)         -58.1252         estimate D2E/DX2                !
 ! D45   D(23,6,10,22)          60.9684         estimate D2E/DX2                !
 ! D46   D(7,6,23,24)         -118.3375         estimate D2E/DX2                !
 ! D47   D(7,6,23,25)           -2.6852         estimate D2E/DX2                !
 ! D48   D(7,6,23,29)          120.356          estimate D2E/DX2                !
 ! D49   D(8,6,23,24)          123.353          estimate D2E/DX2                !
 ! D50   D(8,6,23,25)         -120.9948         estimate D2E/DX2                !
 ! D51   D(8,6,23,29)            2.0465         estimate D2E/DX2                !
 ! D52   D(10,6,23,24)           9.5458         estimate D2E/DX2                !
 ! D53   D(10,6,23,25)         125.198          estimate D2E/DX2                !
 ! D54   D(10,6,23,29)        -111.7607         estimate D2E/DX2                !
 ! D55   D(2,7,12,13)          174.2729         estimate D2E/DX2                !
 ! D56   D(2,7,12,14)           56.479          estimate D2E/DX2                !
 ! D57   D(2,7,12,15)          -61.0674         estimate D2E/DX2                !
 ! D58   D(6,7,12,13)          -69.9485         estimate D2E/DX2                !
 ! D59   D(6,7,12,14)          172.2576         estimate D2E/DX2                !
 ! D60   D(6,7,12,15)           54.7112         estimate D2E/DX2                !
 ! D61   D(9,7,12,13)           53.1031         estimate D2E/DX2                !
 ! D62   D(9,7,12,14)          -64.6908         estimate D2E/DX2                !
 ! D63   D(9,7,12,15)          177.7628         estimate D2E/DX2                !
 ! D64   D(6,10,22,20)          -6.5703         estimate D2E/DX2                !
 ! D65   D(11,10,22,20)        105.753          estimate D2E/DX2                !
 ! D66   D(7,12,13,16)          54.0544         estimate D2E/DX2                !
 ! D67   D(14,12,13,16)        173.3788         estimate D2E/DX2                !
 ! D68   D(15,12,13,16)        -69.0151         estimate D2E/DX2                !
 ! D69   D(1,18,19,4)          -32.8487         estimate D2E/DX2                !
 ! D70   D(21,20,22,10)        109.8302         estimate D2E/DX2                !
 ! D71   D(30,20,22,10)        -11.0039         estimate D2E/DX2                !
 ! D72   D(21,20,30,29)       -121.6041         estimate D2E/DX2                !
 ! D73   D(22,20,30,29)         -9.139          estimate D2E/DX2                !
 ! D74   D(6,23,25,1)           48.4437         estimate D2E/DX2                !
 ! D75   D(6,23,25,26)         167.662          estimate D2E/DX2                !
 ! D76   D(6,23,25,27)         -72.821          estimate D2E/DX2                !
 ! D77   D(24,23,25,1)         165.2453         estimate D2E/DX2                !
 ! D78   D(24,23,25,26)        -75.5364         estimate D2E/DX2                !
 ! D79   D(24,23,25,27)         43.9806         estimate D2E/DX2                !
 ! D80   D(29,23,25,1)         -76.3554         estimate D2E/DX2                !
 ! D81   D(29,23,25,26)         42.8629         estimate D2E/DX2                !
 ! D82   D(29,23,25,27)        162.3799         estimate D2E/DX2                !
 ! D83   D(6,23,29,30)          66.146          estimate D2E/DX2                !
 ! D84   D(24,23,29,30)        -53.0262         estimate D2E/DX2                !
 ! D85   D(25,23,29,30)       -167.8098         estimate D2E/DX2                !
 ! D86   D(1,25,27,28)          29.5997         estimate D2E/DX2                !
 ! D87   D(23,25,27,28)        153.3911         estimate D2E/DX2                !
 ! D88   D(26,25,27,28)        -89.5667         estimate D2E/DX2                !
 ! D89   D(23,29,30,20)         -8.9533         estimate D2E/DX2                !
 --------------------------------------------------------------------------------
 Trust Radius=3.00D-01 FncErr=1.00D-07 GrdErr=1.00D-06
 Number of steps in this run=    180 maximum allowed number of steps=    180.
 GradGradGradGradGradGradGradGradGradGradGradGradGradGradGradGradGradGrad

                          Input orientation:                          
 ---------------------------------------------------------------------
 Center     Atomic      Atomic             Coordinates (Angstroms)
 Number     Number       Type             X           Y           Z
 ---------------------------------------------------------------------
      1          6           0       -1.450290   -1.261420   -0.403580
      2          8           0       -1.157970    0.259790   -0.825640
      3          1           0       -3.995980    0.615220   -1.523960
      4          8           0       -3.539930    0.685980   -0.671420
      5          1           0       -2.564720    0.774690   -0.881200
      6          6           0        1.063180    0.361510   -0.086280
      7          6           0       -0.312740    1.012590    0.063030
      8          1           0        1.398620    0.543360   -1.111130
      9          1           0       -0.670120    0.938960    1.096550
     10          8           0        2.057020    1.010500    0.744900
     11          1           0        1.856140    0.781490    1.669140
     12          6           0       -0.315770    2.499870   -0.343590
     13          8           0        0.399700    3.300710    0.581900
     14          1           0       -1.346290    2.870270   -0.347850
     15          1           0        0.079620    2.597410   -1.368800
     16          1           0        1.283800    2.900810    0.660990
     17          1           0       -1.441860   -1.719210   -1.397720
     18          8           0       -2.634180   -1.350160    0.260440
     19          1           0       -3.259850   -0.634860   -0.101280
     20          8           0        4.011630   -0.576330   -0.627070
     21          1           0        4.422500   -0.062700   -1.338330
     22          1           0        3.599150    0.089860   -0.040090
     23          6           0        1.061750   -1.183290    0.119130
     24          1           0        1.709930   -1.395120    0.985270
     25          6           0       -0.310610   -1.755000    0.497540
     26          1           0       -0.247150   -2.849260    0.396880
     27          8           0       -0.573430   -1.380950    1.839660
     28          1           0       -1.548940   -1.361150    1.902800
     29          8           0        1.525530   -1.861500   -1.029130
     30          1           0        2.470850   -1.609940   -1.112520
 ---------------------------------------------------------------------
                    Distance matrix (angstroms):
                    1          2          3          4          5
     1  C    0.000000
     2  O    1.605511   0.000000
     3  H    3.355230   2.944195   0.000000
     4  O    2.868920   2.424697   0.969440   0.000000
     5  H    2.369772   1.499051   1.577047   1.001455   0.000000
     6  C    3.008673   2.343183   5.265586   4.651483   3.736880
     7  C    2.585124   1.439047   4.030223   3.325785   2.453483
     8  H    3.445888   2.588063   5.410850   4.960137   3.976738
     9  H    2.775018   2.096207   4.246554   3.380167   2.743718
    10  O    4.333803   3.655998   6.476325   5.782484   4.905129
    11  H    4.404785   3.947272   6.668646   5.882594   5.103752
    12  C    3.929127   2.441236   4.299898   3.713876   2.884969
    13  O    5.020624   3.695227   5.564935   4.891657   4.160436
    14  H    4.133374   2.660518   3.672784   3.112535   2.482033
    15  H    4.261789   2.700207   4.534718   4.152234   3.248476
    16  H    5.092417   3.891953   6.154186   5.472583   4.659382
    17  H    1.094512   2.079498   3.462518   3.273278   2.783369
    18  O    1.360291   2.439407   2.983505   2.415494   2.413121
    19  H    1.938677   2.396455   2.031897   1.465648   1.754512
    20  O    5.509253   5.240543   8.145307   7.656465   6.718498
    21  H    6.066329   5.613243   8.447771   8.025309   7.052052
    22  H    5.239745   4.824537   7.756537   7.191690   6.258574
    23  C    2.567036   2.811090   5.613824   5.029374   4.240947
    24  H    3.454529   3.773986   6.549436   5.885289   5.144358
    25  C    1.534441   2.555035   4.825594   4.213473   3.658041
    26  H    2.146979   3.462707   5.453987   4.947887   4.487497
    27  O    2.411493   3.183950   5.197353   4.402027   4.001887
    28  H    2.310642   3.197607   4.651530   3.844657   3.652982
    29  O    3.099502   3.426726   6.071744   5.681241   4.868421
    30  H    3.999925   4.092252   6.851314   6.449441   5.576463
                    6          7          8          9         10
     6  C    0.000000
     7  C    1.529495   0.000000
     8  H    1.093575   2.127811   0.000000
     9  H    2.176434   1.096041   3.051235   0.000000
    10  O    1.449057   2.465910   2.023995   2.750649   0.000000
    11  H    1.971463   2.708697   2.827708   2.595120   0.973148
    12  C    2.557400   1.541866   2.712228   2.153139   3.005523
    13  O    3.086352   2.451997   3.386321   2.643339   2.831667
    14  H    3.488243   2.165184   3.678537   2.504687   4.029313
    15  H    2.758894   2.171575   2.454644   3.064395   3.300927
    16  H    2.656149   2.543987   2.951468   2.802922   2.044060
    17  H    3.510626   3.297186   3.642758   3.725967   4.927910
    18  O    4.089071   3.318229   4.661555   3.129965   5.273971
    19  H    4.436391   3.380318   4.910126   3.258590   5.629595
    20  O    3.140916   4.658442   2.883720   5.213996   2.867199
    21  H    3.610071   5.053964   3.092374   5.732952   3.329730
    22  H    2.550896   4.020566   2.489000   4.498843   1.960090
    23  C    1.558397   2.591189   2.146705   2.908379   2.488949
    24  H    2.156908   3.277009   2.872196   3.335409   2.442388
    25  C    2.589934   2.801492   3.285079   2.783070   3.648952
    26  H    3.501350   3.876808   4.061099   3.875442   4.508665
    27  O    3.069838   2.992224   4.037216   2.437938   3.719785
    28  H    3.707717   3.247705   4.625910   2.590921   4.468602
    29  O    2.458558   3.582240   2.409602   4.145114   3.417316
    30  H    2.630840   4.000994   2.405490   4.608967   3.238514
                   11         12         13         14         15
    11  H    0.000000
    12  C    3.423610   0.000000
    13  O    3.106409   1.417665   0.000000
    14  H    4.322824   1.095073   2.024400   0.000000
    15  H    3.960135   1.103133   2.098169   1.774827   0.000000
    16  H    2.415669   1.930947   0.973554   2.817102   2.379527
    17  H    5.151304   4.492205   5.701740   4.709001   4.577002
    18  O    5.166366   4.534601   5.562226   4.454291   5.059886
    19  H    5.595872   4.307302   5.417357   4.001055   4.817285
    20  O    3.429634   5.316931   5.434987   6.376858   5.107200
    21  H    4.042739   5.477908   5.584150   6.546931   5.092909
    22  H    2.537302   4.607262   4.575250   5.681793   4.521103
    23  C    2.625633   3.959462   4.556174   4.737940   4.179977
    24  H    2.286195   4.586968   4.891853   5.413986   4.913232
    25  C    3.535708   4.337216   5.106061   4.814607   4.751734
    26  H    4.384612   5.400574   6.186661   5.871606   5.735034
    27  O    3.256998   4.460239   4.944379   4.843076   5.152479
    28  H    4.029897   4.634053   5.222539   4.797021   5.387557
    29  O    3.791485   4.783503   5.523706   5.576840   4.699778
    30  H    3.719467   5.024644   5.592424   5.935281   4.846179
                   16         17         18         19         20
    16  H    0.000000
    17  H    5.745615   0.000000
    18  O    5.794977   2.075408   0.000000
    19  H    5.807476   2.482269   1.016837   0.000000
    20  O    4.603331   5.625000   6.749317   7.290700   0.000000
    21  H    4.757217   6.094118   7.349174   7.802318   0.968773
    22  H    3.708611   5.525186   6.404559   6.897452   0.979027
    23  C    4.125869   2.975921   3.702393   4.361832   3.102742
    24  H    4.329175   3.964525   4.404395   5.143666   2.927094
    25  C    4.923964   2.207491   2.370462   3.211124   4.619066
    26  H    5.956246   2.434119   2.822026   3.772014   4.934764
    27  O    4.813734   3.368860   2.596454   3.397168   5.268296
    28  H    5.266005   3.321612   1.968556   2.733322   6.159231
    29  O    5.059104   2.993578   4.384934   5.026471   2.827368
    30  H    4.990119   3.924612   5.292810   5.900365   1.917815
                   21         22         23         24         25
    21  H    0.000000
    22  H    1.544865   0.000000
    23  C    3.830738   2.843354   0.000000
    24  H    3.812151   2.612600   1.102365   0.000000
    25  C    5.351320   4.356464   1.534086   2.109497   0.000000
    26  H    5.708021   4.860390   2.136778   2.508164   1.100711
    27  O    6.066030   4.806991   2.381828   2.438015   1.417841
    28  H    6.917297   5.690614   3.166830   3.385742   1.913984
    29  O    3.423992   3.014284   1.411935   2.075890   2.390287
    30  H    2.500776   2.304883   1.919519   2.241845   3.217119
                   26         27         28         29         30
    26  H    0.000000
    27  O    2.084228   0.000000
    28  H    2.485342   0.977752   0.000000
    29  O    2.480236   3.586993   4.277725   0.000000
    30  H    3.346898   4.246816   5.031179   0.981767   0.000000
 Stoichiometry    C6H16O8
 Framework group  C1[X(C6H16O8)]
 Deg. of freedom    84
 Full point group                 C1      NOp   1
 Largest Abelian subgroup         C1      NOp   1
 Largest concise Abelian subgroup C1      NOp   1
                         Standard orientation:                         
 ---------------------------------------------------------------------
 Center     Atomic      Atomic             Coordinates (Angstroms)
 Number     Number       Type             X           Y           Z
 ---------------------------------------------------------------------
      1          6           0       -1.454598   -1.275315   -0.393868
      2          8           0       -1.166151    0.247017   -0.814546
      3          1           0       -4.005126    0.595963   -1.512213
      4          8           0       -3.549156    0.667076   -0.659659
      5          1           0       -2.574197    0.758431   -0.869467
      6          6           0        1.054822    0.353631   -0.075344
      7          6           0       -0.322712    1.001112    0.074728
      8          1           0        1.389686    0.537277   -1.100062
      9          1           0       -0.679786    0.925623    1.108220
     10          8           0        2.047125    1.004344    0.756327
     11          1           0        1.846928    0.773970    1.680376
     12          6           0       -0.329527    2.488757   -0.330508
     13          8           0        0.384035    3.290532    0.595646
     14          1           0       -1.360975    2.856570   -0.334306
     15          1           0        0.065498    2.588244   -1.355671
     16          1           0        1.269147    2.892782    0.674263
     17          1           0       -1.445132   -1.732157   -1.388435
     18          8           0       -2.638184   -1.367647    0.270203
     19          1           0       -3.265692   -0.653586   -0.090780
     20          8           0        4.005557   -0.576292   -0.617341
     21          1           0        4.415053   -0.060970   -1.328169
     22          1           0        3.591472    0.088313   -0.029694
     23          6           0        1.057298   -1.191358    0.128629
     24          1           0        1.706109   -1.402364    0.994498
     25          6           0       -0.313577   -1.766867    0.506663
     26          1           0       -0.247378   -2.860870    0.404977
     27          8           0       -0.577180   -1.394727    1.849160
     28          1           0       -1.552730   -1.377437    1.912429
     29          8           0        1.522648   -1.867332   -1.020314
     30          1           0        2.467324   -1.613319   -1.103577
 ---------------------------------------------------------------------
 Rotational constants (GHZ):      0.7612775      0.5124200      0.3678540
 Standard basis: 6-31G(d) (6D, 7F)
 There are   242 symmetry adapted cartesian basis functions of A   symmetry.
 There are   242 symmetry adapted basis functions of A   symmetry.
   242 basis functions,   456 primitive gaussians,   242 cartesian basis functions
    58 alpha electrons       58 beta electrons
       nuclear repulsion energy      1115.1403592245 Hartrees.
 NAtoms=   30 NActive=   30 NUniq=   30 SFac= 1.00D+00 NAtFMM=   60 NAOKFM=F Big=F
 Integral buffers will be    131072 words long.
 Raffenetti 2 integral format.
 Two-electron integral symmetry is turned on.
 One-electron integrals computed using PRISM.
 NBasis=   242 RedAO= T EigKep=  1.43D-03  NBF=   242
 NBsUse=   242 1.00D-06 EigRej= -1.00D+00 NBFU=   242
 ExpMin= 1.61D-01 ExpMax= 5.48D+03 ExpMxC= 8.25D+02 IAcc=1 IRadAn=         1 AccDes= 0.00D+00
 Harris functional with IExCor=  402 and IRadAn=       1 diagonalized for initial guess.
 HarFok:  IExCor=  402 AccDes= 0.00D+00 IRadAn=         1 IDoV= 1 UseB2=F ITyADJ=14
 ICtDFT=  3500011 ScaDFX=  1.000000  1.000000  1.000000  1.000000
 FoFCou: FMM=F IPFlag=           0 FMFlag=      100000 FMFlg1=           0
         NFxFlg=           0 DoJE=T BraDBF=F KetDBF=T FulRan=T
         wScrn=  0.000000 ICntrl=     500 IOpCl=  0 I1Cent=   200000004 NGrid=           0
         NMat0=    1 NMatS0=      1 NMatT0=    0 NMatD0=    1 NMtDS0=    0 NMtDT0=    0
 Petite list used in FoFCou.
 Requested convergence on RMS density matrix=1.00D-08 within 128 cycles.
 Requested convergence on MAX density matrix=1.00D-06.
 Requested convergence on             energy=1.00D-06.
 No special actions if energy rises.
 Integral accuracy reduced to 1.0D-05 until final iterations.
 Initial convergence to 1.0D-05 achieved.  Increase integral accuracy.
 SCF Done:  E(RB3LYP) =  -839.980238675     A.U. after   14 cycles
            NFock= 14  Conv=0.37D-08     -V/T= 2.0085

 **********************************************************************

            Population analysis using the SCF density.

 **********************************************************************

 Orbital symmetries:
       Occupied  (A) (A) (A) (A) (A) (A) (A) (A) (A) (A) (A) (A)
                 (A) (A) (A) (A) (A) (A) (A) (A) (A) (A) (A) (A)
                 (A) (A) (A) (A) (A) (A) (A) (A) (A) (A) (A) (A)
                 (A) (A) (A) (A) (A) (A) (A) (A) (A) (A) (A) (A)
                 (A) (A) (A) (A) (A) (A) (A) (A) (A) (A)
       Virtual   (A) (A) (A) (A) (A) (A) (A) (A) (A) (A) (A) (A)
                 (A) (A) (A) (A) (A) (A) (A) (A) (A) (A) (A) (A)
                 (A) (A) (A) (A) (A) (A) (A) (A) (A) (A) (A) (A)
                 (A) (A) (A) (A) (A) (A) (A) (A) (A) (A) (A) (A)
                 (A) (A) (A) (A) (A) (A) (A) (A) (A) (A) (A) (A)
                 (A) (A) (A) (A) (A) (A) (A) (A) (A) (A) (A) (A)
                 (A) (A) (A) (A) (A) (A) (A) (A) (A) (A) (A) (A)
                 (A) (A) (A) (A) (A) (A) (A) (A) (A) (A) (A) (A)
                 (A) (A) (A) (A) (A) (A) (A) (A) (A) (A) (A) (A)
                 (A) (A) (A) (A) (A) (A) (A) (A) (A) (A) (A) (A)
                 (A) (A) (A) (A) (A) (A) (A) (A) (A) (A) (A) (A)
                 (A) (A) (A) (A) (A) (A) (A) (A) (A) (A) (A) (A)
                 (A) (A) (A) (A) (A) (A) (A) (A) (A) (A) (A) (A)
                 (A) (A) (A) (A) (A) (A) (A) (A) (A) (A) (A) (A)
                 (A) (A) (A) (A) (A) (A) (A) (A) (A) (A) (A) (A)
                 (A) (A) (A) (A)
 The electronic state is 1-A.
 Alpha  occ. eigenvalues --  -19.19437 -19.17465 -19.16164 -19.15689 -19.15217
 Alpha  occ. eigenvalues --  -19.14786 -19.14067 -19.13456 -10.30259 -10.25215
 Alpha  occ. eigenvalues --  -10.24631 -10.24523 -10.24469 -10.23667  -1.07703
 Alpha  occ. eigenvalues --   -1.06008  -1.02933  -1.02073  -1.01654  -1.01186
 Alpha  occ. eigenvalues --   -1.00712  -1.00386  -0.77742  -0.76426  -0.69462
 Alpha  occ. eigenvalues --   -0.66057  -0.62533  -0.58080  -0.55956  -0.54936
 Alpha  occ. eigenvalues --   -0.54190  -0.53724  -0.52526  -0.51641  -0.48997
 Alpha  occ. eigenvalues --   -0.48285  -0.46842  -0.44663  -0.44136  -0.43086
 Alpha  occ. eigenvalues --   -0.41854  -0.41136  -0.40161  -0.39802  -0.38517
 Alpha  occ. eigenvalues --   -0.37368  -0.36047  -0.35587  -0.34745  -0.33295
 Alpha  occ. eigenvalues --   -0.31926  -0.31085  -0.30468  -0.29164  -0.28830
 Alpha  occ. eigenvalues --   -0.27476  -0.26587  -0.25356
 Alpha virt. eigenvalues --    0.03749   0.05541   0.06355   0.06974   0.09290
 Alpha virt. eigenvalues --    0.10349   0.11307   0.12327   0.12610   0.14345
 Alpha virt. eigenvalues --    0.15861   0.16679   0.17642   0.18394   0.19222
 Alpha virt. eigenvalues --    0.19596   0.19704   0.20475   0.22433   0.23569
 Alpha virt. eigenvalues --    0.24793   0.24968   0.26697   0.28925   0.29001
 Alpha virt. eigenvalues --    0.30806   0.32678   0.34048   0.52233   0.52562
 Alpha virt. eigenvalues --    0.53360   0.54050   0.55285   0.57937   0.59508
 Alpha virt. eigenvalues --    0.60291   0.60687   0.62687   0.64967   0.66678
 Alpha virt. eigenvalues --    0.67149   0.69410   0.71237   0.72024   0.76162
 Alpha virt. eigenvalues --    0.76329   0.77034   0.78587   0.78940   0.79931
 Alpha virt. eigenvalues --    0.81573   0.82588   0.84014   0.84495   0.85239
 Alpha virt. eigenvalues --    0.86350   0.87254   0.87744   0.88445   0.88868
 Alpha virt. eigenvalues --    0.90514   0.92305   0.92811   0.93835   0.95646
 Alpha virt. eigenvalues --    0.95826   0.97002   0.99562   1.00408   1.02258
 Alpha virt. eigenvalues --    1.02677   1.03466   1.05766   1.08299   1.09730
 Alpha virt. eigenvalues --    1.10354   1.11947   1.13449   1.14285   1.15158
 Alpha virt. eigenvalues --    1.16351   1.17531   1.19358   1.22956   1.23848
 Alpha virt. eigenvalues --    1.26341   1.30337   1.33217   1.33754   1.36934
 Alpha virt. eigenvalues --    1.40799   1.43090   1.45172   1.46089   1.47143
 Alpha virt. eigenvalues --    1.49040   1.54188   1.55890   1.57326   1.59699
 Alpha virt. eigenvalues --    1.62448   1.62635   1.63448   1.66653   1.68447
 Alpha virt. eigenvalues --    1.69602   1.70933   1.71134   1.72688   1.74841
 Alpha virt. eigenvalues --    1.75631   1.76441   1.78184   1.79214   1.80013
 Alpha virt. eigenvalues --    1.80969   1.81377   1.83089   1.85066   1.86789
 Alpha virt. eigenvalues --    1.88227   1.89416   1.89534   1.91967   1.94541
 Alpha virt. eigenvalues --    1.95788   1.99009   2.01738   2.03501   2.05143
 Alpha virt. eigenvalues --    2.07446   2.09660   2.10564   2.11569   2.12344
 Alpha virt. eigenvalues --    2.15584   2.21566   2.23491   2.24625   2.27421
 Alpha virt. eigenvalues --    2.31047   2.31644   2.35838   2.36807   2.38004
 Alpha virt. eigenvalues --    2.39075   2.42669   2.45571   2.47089   2.49753
 Alpha virt. eigenvalues --    2.52312   2.53498   2.55620   2.56770   2.57541
 Alpha virt. eigenvalues --    2.59820   2.61033   2.65411   2.68141   2.70307
 Alpha virt. eigenvalues --    2.70649   2.77857   2.83008   2.84890   2.88381
 Alpha virt. eigenvalues --    2.91643   2.93913   2.96409   3.01469   3.03826
 Alpha virt. eigenvalues --    3.69319   3.74387   3.77523   3.81333   3.91199
 Alpha virt. eigenvalues --    3.95342   4.03140   4.13086   4.28977   4.36190
 Alpha virt. eigenvalues --    4.40288   4.52022   4.62237   4.78595
          Condensed to atoms (all electrons):
               1          2          3          4          5          6
     1  C    4.746955   0.135087   0.000648   0.013551  -0.008611  -0.022971
     2  O    0.135087   8.530198   0.003036  -0.071753   0.075932  -0.040294
     3  H    0.000648   0.003036   0.372882   0.232059  -0.004867  -0.000002
     4  O    0.013551  -0.071753   0.232059   8.435975   0.174101  -0.000045
     5  H   -0.008611   0.075932  -0.004867   0.174101   0.322609   0.000975
     6  C   -0.022971  -0.040294  -0.000002  -0.000045   0.000975   5.133780
     7  C   -0.009089   0.127153  -0.000187   0.004979  -0.010700   0.305982
     8  H    0.001663   0.004405  -0.000000   0.000001  -0.000005   0.345747
     9  H   -0.001174  -0.031796  -0.000025   0.000203   0.000280  -0.057155
    10  O    0.000179   0.001563  -0.000000   0.000000  -0.000009   0.154173
    11  H    0.000119  -0.000042   0.000000  -0.000000   0.000001  -0.025574
    12  C    0.001439  -0.025503   0.000071  -0.000997  -0.000710  -0.027519
    13  O   -0.000025   0.001210  -0.000000   0.000002   0.000030  -0.000316
    14  H   -0.000140   0.000064  -0.000078   0.001857   0.004031   0.005271
    15  H   -0.000105   0.004883  -0.000001   0.000001   0.000121  -0.014365
    16  H   -0.000005   0.000029   0.000000  -0.000000   0.000009   0.000087
    17  H    0.371646  -0.045669   0.000216  -0.000286   0.000304   0.000619
    18  O    0.285302  -0.046169   0.003211  -0.079568   0.011059   0.000312
    19  H   -0.026545   0.005284  -0.005105   0.109033  -0.016579  -0.000029
    20  O   -0.000000   0.000000  -0.000000  -0.000000   0.000000   0.006320
    21  H    0.000000  -0.000000   0.000000  -0.000000   0.000000   0.000129
    22  H   -0.000006  -0.000011   0.000000  -0.000000   0.000000  -0.006978
    23  C   -0.031952  -0.003107  -0.000001   0.000016  -0.000008   0.300896
    24  H    0.007125   0.000148   0.000000  -0.000000   0.000002  -0.072434
    25  C    0.288377  -0.012295   0.000028  -0.000135   0.001306  -0.027734
    26  H   -0.044785   0.002452  -0.000000   0.000004  -0.000060   0.005901
    27  O   -0.024173  -0.001522   0.000000  -0.000012  -0.000095   0.003630
    28  H   -0.014607   0.000183  -0.000001   0.000154  -0.000075  -0.000251
    29  O    0.004950  -0.000530   0.000000  -0.000000   0.000003  -0.050317
    30  H   -0.000195  -0.000016  -0.000000   0.000000   0.000000   0.000441
               7          8          9         10         11         12
     1  C   -0.009089   0.001663  -0.001174   0.000179   0.000119   0.001439
     2  O    0.127153   0.004405  -0.031796   0.001563  -0.000042  -0.025503
     3  H   -0.000187  -0.000000  -0.000025  -0.000000   0.000000   0.000071
     4  O    0.004979   0.000001   0.000203   0.000000  -0.000000  -0.000997
     5  H   -0.010700  -0.000005   0.000280  -0.000009   0.000001  -0.000710
     6  C    0.305982   0.345747  -0.057155   0.154173  -0.025574  -0.027519
     7  C    5.028562  -0.033345   0.350063  -0.028287  -0.001864   0.326002
     8  H   -0.033345   0.585014   0.006284  -0.037746   0.006911  -0.010759
     9  H    0.350063   0.006284   0.605518   0.001351   0.004768  -0.045680
    10  O   -0.028287  -0.037746   0.001351   8.297528   0.231810   0.000344
    11  H   -0.001864   0.006911   0.004768   0.231810   0.367536  -0.000977
    12  C    0.326002  -0.010759  -0.045680   0.000344  -0.000977   4.872845
    13  O   -0.035510   0.000045   0.005799  -0.012092   0.001839   0.267017
    14  H   -0.033462  -0.000000  -0.006399  -0.000104   0.000009   0.371169
    15  H   -0.046731   0.007868   0.007019   0.000412   0.000127   0.345265
    16  H   -0.008303  -0.000525  -0.000618   0.038334  -0.001963  -0.031754
    17  H    0.003852   0.000081   0.000136  -0.000001  -0.000000  -0.000102
    18  O   -0.000065   0.000006   0.002591   0.000000  -0.000001  -0.000083
    19  H   -0.000194   0.000002  -0.000109  -0.000000   0.000000  -0.000004
    20  O    0.000188   0.004133  -0.000000  -0.014971   0.000531  -0.000003
    21  H    0.000003   0.000592   0.000000   0.000378   0.000003  -0.000000
    22  H    0.000584  -0.002747  -0.000025   0.048693  -0.002158  -0.000015
    23  C   -0.039439  -0.046634  -0.007009  -0.026411  -0.005595   0.003418
    24  H    0.004004   0.005202   0.000181   0.001234   0.006634  -0.000183
    25  C   -0.003770   0.000249  -0.004926   0.001779  -0.000396   0.000291
    26  H    0.000260  -0.000257   0.000233  -0.000080  -0.000006   0.000016
    27  O   -0.004704   0.000043   0.016509  -0.000407   0.001556   0.000377
    28  H    0.000793   0.000010  -0.000181   0.000015  -0.000034  -0.000031
    29  O    0.003105   0.005095  -0.000010   0.001527  -0.000026  -0.000053
    30  H    0.000118   0.001831  -0.000001   0.000107  -0.000031  -0.000002
              13         14         15         16         17         18
     1  C   -0.000025  -0.000140  -0.000105  -0.000005   0.371646   0.285302
     2  O    0.001210   0.000064   0.004883   0.000029  -0.045669  -0.046169
     3  H   -0.000000  -0.000078  -0.000001   0.000000   0.000216   0.003211
     4  O    0.000002   0.001857   0.000001  -0.000000  -0.000286  -0.079568
     5  H    0.000030   0.004031   0.000121   0.000009   0.000304   0.011059
     6  C   -0.000316   0.005271  -0.014365   0.000087   0.000619   0.000312
     7  C   -0.035510  -0.033462  -0.046731  -0.008303   0.003852  -0.000065
     8  H    0.000045  -0.000000   0.007868  -0.000525   0.000081   0.000006
     9  H    0.005799  -0.006399   0.007019  -0.000618   0.000136   0.002591
    10  O   -0.012092  -0.000104   0.000412   0.038334  -0.000001   0.000000
    11  H    0.001839   0.000009   0.000127  -0.001963  -0.000000  -0.000001
    12  C    0.267017   0.371169   0.345265  -0.031754  -0.000102  -0.000083
    13  O    8.247011  -0.034970  -0.036125   0.229186   0.000001   0.000000
    14  H   -0.034970   0.574860  -0.046276   0.005994   0.000003   0.000015
    15  H   -0.036125  -0.046276   0.660431  -0.004007   0.000008   0.000002
    16  H    0.229186   0.005994  -0.004007   0.366769  -0.000000   0.000000
    17  H    0.000001   0.000003   0.000008  -0.000000   0.610255  -0.049410
    18  O    0.000000   0.000015   0.000002   0.000000  -0.049410   8.363091
    19  H   -0.000000  -0.000023   0.000000   0.000000  -0.001096   0.184650
    20  O   -0.000000  -0.000000  -0.000001   0.000005   0.000000   0.000000
    21  H    0.000000   0.000000   0.000000  -0.000003  -0.000000  -0.000000
    22  H    0.000013   0.000001  -0.000005   0.000029  -0.000000  -0.000000
    23  C    0.000018  -0.000137  -0.000016   0.000306  -0.002587   0.002163
    24  H    0.000001   0.000004  -0.000005  -0.000001  -0.000104  -0.000074
    25  C    0.000005   0.000009  -0.000003  -0.000021  -0.053931  -0.051961
    26  H   -0.000000  -0.000000  -0.000001   0.000000  -0.000128   0.000026
    27  O   -0.000001   0.000002  -0.000007  -0.000001   0.002910  -0.019254
    28  H   -0.000000  -0.000000   0.000000  -0.000000   0.001684   0.045878
    29  O    0.000000   0.000001  -0.000017  -0.000004   0.003630   0.000012
    30  H    0.000000  -0.000000   0.000000  -0.000001  -0.000033   0.000001
              19         20         21         22         23         24
     1  C   -0.026545  -0.000000   0.000000  -0.000006  -0.031952   0.007125
     2  O    0.005284   0.000000  -0.000000  -0.000011  -0.003107   0.000148
     3  H   -0.005105  -0.000000   0.000000   0.000000  -0.000001   0.000000
     4  O    0.109033  -0.000000  -0.000000  -0.000000   0.000016  -0.000000
     5  H   -0.016579   0.000000   0.000000   0.000000  -0.000008   0.000002
     6  C   -0.000029   0.006320   0.000129  -0.006978   0.300896  -0.072434
     7  C   -0.000194   0.000188   0.000003   0.000584  -0.039439   0.004004
     8  H    0.000002   0.004133   0.000592  -0.002747  -0.046634   0.005202
     9  H   -0.000109  -0.000000   0.000000  -0.000025  -0.007009   0.000181
    10  O   -0.000000  -0.014971   0.000378   0.048693  -0.026411   0.001234
    11  H    0.000000   0.000531   0.000003  -0.002158  -0.005595   0.006634
    12  C   -0.000004  -0.000003  -0.000000  -0.000015   0.003418  -0.000183
    13  O   -0.000000  -0.000000   0.000000   0.000013   0.000018   0.000001
    14  H   -0.000023  -0.000000   0.000000   0.000001  -0.000137   0.000004
    15  H    0.000000  -0.000001   0.000000  -0.000005  -0.000016  -0.000005
    16  H    0.000000   0.000005  -0.000003   0.000029   0.000306  -0.000001
    17  H   -0.001096   0.000000  -0.000000  -0.000000  -0.002587  -0.000104
    18  O    0.184650   0.000000  -0.000000  -0.000000   0.002163  -0.000074
    19  H    0.295226   0.000000   0.000000   0.000000  -0.000059   0.000007
    20  O    0.000000   8.312244   0.242488   0.217028   0.000664   0.000990
    21  H    0.000000   0.242488   0.374630  -0.015873  -0.000223  -0.000041
    22  H    0.000000   0.217028  -0.015873   0.337260   0.000185   0.000581
    23  C   -0.000059   0.000664  -0.000223   0.000185   4.927275   0.360041
    24  H    0.000007   0.000990  -0.000041   0.000581   0.360041   0.642341
    25  C    0.005088   0.000053  -0.000004   0.000027   0.330507  -0.047703
    26  H   -0.000188   0.000002  -0.000000  -0.000003  -0.046334  -0.006541
    27  O    0.000231   0.000000  -0.000000  -0.000004  -0.045836   0.003700
    28  H   -0.000830  -0.000000   0.000000   0.000000   0.006626  -0.000280
    29  O    0.000002  -0.017984   0.000912   0.002191   0.225954  -0.032174
    30  H   -0.000000   0.054792  -0.002273  -0.005416  -0.025070  -0.004962
              25         26         27         28         29         30
     1  C    0.288377  -0.044785  -0.024173  -0.014607   0.004950  -0.000195
     2  O   -0.012295   0.002452  -0.001522   0.000183  -0.000530  -0.000016
     3  H    0.000028  -0.000000   0.000000  -0.000001   0.000000  -0.000000
     4  O   -0.000135   0.000004  -0.000012   0.000154  -0.000000   0.000000
     5  H    0.001306  -0.000060  -0.000095  -0.000075   0.000003   0.000000
     6  C   -0.027734   0.005901   0.003630  -0.000251  -0.050317   0.000441
     7  C   -0.003770   0.000260  -0.004704   0.000793   0.003105   0.000118
     8  H    0.000249  -0.000257   0.000043   0.000010   0.005095   0.001831
     9  H   -0.004926   0.000233   0.016509  -0.000181  -0.000010  -0.000001
    10  O    0.001779  -0.000080  -0.000407   0.000015   0.001527   0.000107
    11  H   -0.000396  -0.000006   0.001556  -0.000034  -0.000026  -0.000031
    12  C    0.000291   0.000016   0.000377  -0.000031  -0.000053  -0.000002
    13  O    0.000005  -0.000000  -0.000001  -0.000000   0.000000   0.000000
    14  H    0.000009  -0.000000   0.000002  -0.000000   0.000001  -0.000000
    15  H   -0.000003  -0.000001  -0.000007   0.000000  -0.000017   0.000000
    16  H   -0.000021   0.000000  -0.000001  -0.000000  -0.000004  -0.000001
    17  H   -0.053931  -0.000128   0.002910   0.001684   0.003630  -0.000033
    18  O   -0.051961   0.000026  -0.019254   0.045878   0.000012   0.000001
    19  H    0.005088  -0.000188   0.000231  -0.000830   0.000002  -0.000000
    20  O    0.000053   0.000002   0.000000  -0.000000  -0.017984   0.054792
    21  H   -0.000004  -0.000000  -0.000000   0.000000   0.000912  -0.002273
    22  H    0.000027  -0.000003  -0.000004   0.000000   0.002191  -0.005416
    23  C    0.330507  -0.046334  -0.045836   0.006626   0.225954  -0.025070
    24  H   -0.047703  -0.006541   0.003700  -0.000280  -0.032174  -0.004962
    25  C    5.000273   0.355259   0.214306  -0.041985  -0.047301   0.005653
    26  H    0.355259   0.606152  -0.034923   0.000583   0.006790  -0.000139
    27  O    0.214306  -0.034923   8.316967   0.230354   0.001236  -0.000102
    28  H   -0.041985   0.000583   0.230354   0.351382  -0.000105   0.000008
    29  O   -0.047301   0.006790   0.001236  -0.000105   8.342050   0.220936
    30  H    0.005653  -0.000139  -0.000102   0.000008   0.220936   0.324607
 Mulliken charges:
               1
     1  C    0.327340
     2  O   -0.612920
     3  H    0.398118
     4  O   -0.819139
     5  H    0.450956
     6  C    0.081719
     7  C    0.100001
     8  H    0.156836
     9  H    0.154170
    10  O   -0.659319
    11  H    0.416825
    12  C   -0.043879
    13  O   -0.633138
    14  H    0.158299
    15  H    0.121524
    16  H    0.406458
    17  H    0.158003
    18  O   -0.651733
    19  H    0.451240
    20  O   -0.806477
    21  H    0.399281
    22  H    0.426648
    23  C    0.122348
    24  H    0.132308
    25  C    0.088956
    26  H    0.155767
    27  O   -0.660779
    28  H    0.420715
    29  O   -0.669874
    30  H    0.429745
 Sum of Mulliken charges =  -0.00000
 Mulliken charges with hydrogens summed into heavy atoms:
               1
     1  C    0.485343
     2  O   -0.612920
     4  O    0.029935
     6  C    0.238555
     7  C    0.254172
    10  O   -0.242494
    12  C    0.235944
    13  O   -0.226680
    18  O   -0.200493
    20  O    0.019452
    23  C    0.254657
    25  C    0.244722
    27  O   -0.240064
    29  O   -0.240130
 Electronic spatial extent (au):  <R**2>=           3158.8042
 Charge=              0.0000 electrons
 Dipole moment (field-independent basis, Debye):
    X=              0.7231    Y=              0.6894    Z=             -2.1166  Tot=              2.3406
 Quadrupole moment (field-independent basis, Debye-Ang):
   XX=            -75.1994   YY=            -97.6654   ZZ=            -79.0976
   XY=              6.9913   XZ=              4.8755   YZ=             -3.3669
 Traceless Quadrupole moment (field-independent basis, Debye-Ang):
   XX=              8.7881   YY=            -13.6780   ZZ=              4.8899
   XY=              6.9913   XZ=              4.8755   YZ=             -3.3669
 Octapole moment (field-independent basis, Debye-Ang**2):
  XXX=              8.5418  YYY=            -34.4250  ZZZ=             -6.1953  XYY=             -2.9192
  XXY=             25.9329  XXZ=            -44.1448  XZZ=              0.4273  YZZ=              9.2928
  YYZ=             -9.7864  XYZ=             -0.9457
 Hexadecapole moment (field-independent basis, Debye-Ang**3):
 XXXX=          -1796.1642 YYYY=          -1495.2920 ZZZZ=           -370.3704 XXXY=            103.8397
 XXXZ=              7.9849 YYYX=              5.3474 YYYZ=            -40.3190 ZZZX=             10.4211
 ZZZY=             14.6915 XXYY=           -569.3367 XXZZ=           -256.4030 YYZZ=           -296.3419
 XXYZ=            -15.6444 YYXZ=             14.7777 ZZXY=              8.9879
 N-N= 1.115140359225D+03 E-N=-4.202364699145D+03  KE= 8.328963400526D+02
 Calling FoFJK, ICntrl=      2127 FMM=F ISym2X=0 I1Cent= 0 IOpClX= 0 NMat=1 NMatS=1 NMatT=0.
 ***** Axes restored to original set *****
 -------------------------------------------------------------------
 Center     Atomic                   Forces (Hartrees/Bohr)
 Number     Number              X              Y              Z
 -------------------------------------------------------------------
      1        6           0.012771510    0.027162002   -0.008339117
      2        8           0.006929914   -0.024479940    0.006818491
      3        1          -0.001557705    0.002063948   -0.000452986
      4        8          -0.023850083    0.015112906   -0.007174039
      5        1          -0.001927211    0.002147164   -0.001247637
      6        6           0.001379269   -0.000113124    0.001259102
      7        6           0.001105488   -0.004691898    0.001272742
      8        1           0.000044912    0.000021835    0.000080533
      9        1           0.000085963   -0.000091327    0.000083685
     10        8           0.001909697   -0.000241760    0.000508887
     11        1           0.000051913    0.000129090    0.000052295
     12        6          -0.001448385   -0.002710915   -0.001153661
     13        8          -0.000976502   -0.002090111   -0.000840066
     14        1          -0.000120211   -0.000200127   -0.000033935
     15        1          -0.000067398   -0.000102027   -0.000054374
     16        1          -0.000028205   -0.000082713   -0.000083608
     17        1           0.000264069    0.000391076    0.000171035
     18        8           0.006473619   -0.009533497    0.008150512
     19        1          -0.000434112   -0.003209859    0.000961343
     20        8          -0.000033731    0.000016375    0.000061399
     21        1          -0.000040125    0.000011593   -0.000008791
     22        1          -0.000022565   -0.000017742    0.000010412
     23        6           0.000337477   -0.000793287    0.000873953
     24        1           0.000046798   -0.000073217    0.000046690
     25        6          -0.000975664    0.001442807   -0.001558985
     26        1          -0.000793901    0.000162563   -0.000356529
     27        8           0.000947392    0.000236026    0.000350265
     28        1           0.000094733   -0.000233778    0.000401914
     29        8          -0.000131484   -0.000258149    0.000223678
     30        1          -0.000035470    0.000026086   -0.000023207
 -------------------------------------------------------------------
 Cartesian Forces:  Max     0.027162002 RMS     0.005576785

 GradGradGradGradGradGradGradGradGradGradGradGradGradGradGradGradGradGrad
 Berny optimization.
 FormGI is forming the generalized inverse of G from B-inverse, IUseBI=4.
 Internal  Forces:  Max     0.022527090 RMS     0.003484305
 Search for a local minimum.
 Step number   1 out of a maximum of  180
 All quantities printed in internal units (Hartrees-Bohrs-Radians)
 Mixed Optimization -- RFO/linear search
 Second derivative matrix not updated -- first step.
 ITU=  0
     Eigenvalues ---    0.00230   0.00409   0.00546   0.00548   0.00667
     Eigenvalues ---    0.00744   0.00803   0.01325   0.01456   0.01456
     Eigenvalues ---    0.01458   0.02445   0.02815   0.03535   0.04108
     Eigenvalues ---    0.04247   0.04518   0.04592   0.04598   0.04809
     Eigenvalues ---    0.04906   0.05008   0.05098   0.05318   0.05596
     Eigenvalues ---    0.05844   0.05945   0.06320   0.06605   0.06782
     Eigenvalues ---    0.06953   0.07330   0.07605   0.07949   0.08895
     Eigenvalues ---    0.09377   0.09421   0.11415   0.11542   0.11711
     Eigenvalues ---    0.12268   0.12388   0.13279   0.13925   0.15327
     Eigenvalues ---    0.15743   0.16000   0.16000   0.16424   0.17487
     Eigenvalues ---    0.18606   0.19699   0.19821   0.20436   0.20917
     Eigenvalues ---    0.21930   0.22041   0.24943   0.26712   0.28206
     Eigenvalues ---    0.28354   0.29055   0.33338   0.33422   0.33604
     Eigenvalues ---    0.34124   0.34233   0.34296   0.34403   0.37111
     Eigenvalues ---    0.37483   0.42610   0.42638   0.42787   0.42814
     Eigenvalues ---    0.45582   0.49760   0.50469   0.51405   0.51824
     Eigenvalues ---    0.52657   0.52739   0.53492   0.53628
 RFO step:  Lambda=-1.15774098D-02 EMin= 2.30000000D-03
 Linear search not attempted -- first point.
 Iteration  1 RMS(Cart)=  0.03650016 RMS(Int)=  0.00053647
 Iteration  2 RMS(Cart)=  0.00072802 RMS(Int)=  0.00023773
 Iteration  3 RMS(Cart)=  0.00000068 RMS(Int)=  0.00023773
 Variable       Old X    -DE/DX   Delta X   Delta X   Delta X     New X
                                 (Linear)    (Quad)   (Total)
    R1        3.03398  -0.02253   0.00000  -0.10847  -0.10937   2.92461
    R2        2.06833  -0.00031   0.00000  -0.00088  -0.00088   2.06744
    R3        2.57058   0.00409   0.00000   0.00680   0.00636   2.57694
    R4        2.89967   0.00016   0.00000  -0.00092  -0.00091   2.89876
    R5        2.83280   0.02053   0.00000   0.15915   0.15919   2.99199
    R6        2.71940  -0.00072   0.00000  -0.00460  -0.00475   2.71466
    R7        1.83198   0.00099   0.00000   0.00181   0.00181   1.83378
    R8        1.89248   0.01507   0.00000   0.03197   0.03236   1.92484
    R9        2.76967   0.01313   0.00000   0.11399   0.11460   2.88427
   R10        2.89033   0.00223   0.00000   0.00970   0.00972   2.90005
   R11        2.06656  -0.00006   0.00000  -0.00017  -0.00017   2.06639
   R12        2.73832   0.00165   0.00000   0.00394   0.00393   2.74226
   R13        2.94494  -0.00470   0.00000  -0.00961  -0.00947   2.93548
   R14        2.07122   0.00006   0.00000   0.00016   0.00016   2.07138
   R15        2.91370  -0.00442   0.00000  -0.01499  -0.01499   2.89871
   R16        1.83898   0.00001   0.00000   0.00003   0.00003   1.83901
   R17        3.70403  -0.00001   0.00000   0.00023   0.00023   3.70427
   R18        2.67900  -0.00234   0.00000  -0.00532  -0.00532   2.67368
   R19        2.06939   0.00005   0.00000   0.00013   0.00013   2.06952
   R20        2.08462   0.00002   0.00000   0.00006   0.00006   2.08467
   R21        1.83975  -0.00000   0.00000  -0.00000  -0.00000   1.83975
   R22        1.92154   0.01245   0.00000   0.03051   0.03085   1.95239
   R23        1.83072  -0.00001   0.00000  -0.00002  -0.00002   1.83069
   R24        1.85009  -0.00000   0.00000   0.00010   0.00011   1.85021
   R25        3.62415   0.00003   0.00000   0.00066   0.00068   3.62482
   R26        2.08317   0.00008   0.00000   0.00023   0.00023   2.08340
   R27        2.89900  -0.00347   0.00000  -0.00902  -0.00891   2.89009
   R28        2.66817  -0.00012   0.00000  -0.00055  -0.00055   2.66762
   R29        2.08004  -0.00017   0.00000  -0.00050  -0.00050   2.07954
   R30        2.67933   0.00052   0.00000   0.00118   0.00118   2.68051
   R31        1.84768  -0.00007   0.00000  -0.00013  -0.00013   1.84755
   R32        1.85527  -0.00002   0.00000  -0.00009  -0.00008   1.85519
    A1        1.72756  -0.00090   0.00000  -0.00161  -0.00152   1.72604
    A2        1.92687   0.00113   0.00000   0.00381   0.00294   1.92981
    A3        1.90067   0.00455   0.00000   0.02366   0.02406   1.92473
    A4        2.00733   0.00070   0.00000  -0.00063  -0.00064   2.00669
    A5        1.97485  -0.00058   0.00000  -0.00752  -0.00776   1.96709
    A6        1.91640  -0.00401   0.00000  -0.01362  -0.01329   1.90311
    A7        1.73587   0.00511   0.00000   0.02187   0.02119   1.75707
    A8        2.02668  -0.00465   0.00000  -0.02020  -0.02029   2.00639
    A9        1.97620  -0.00082   0.00000   0.02420   0.02490   2.00110
   A10        1.85495   0.00362   0.00000   0.01442   0.01448   1.86943
   A11        1.94573   0.00460   0.00000   0.02480   0.02456   1.97029
   A12        1.54602  -0.01400   0.00000  -0.06909  -0.06757   1.47846
   A13        2.63756   0.00294   0.00000   0.00626   0.00661   2.64417
   A14        1.87197   0.00015   0.00000   0.00123   0.00121   1.87318
   A15        1.95017   0.00254   0.00000   0.01321   0.01325   1.96343
   A16        1.99136  -0.00260   0.00000  -0.01320  -0.01329   1.97807
   A17        1.82627  -0.00051   0.00000  -0.00074  -0.00078   1.82549
   A18        1.86361   0.00022   0.00000  -0.00004  -0.00000   1.86360
   A19        1.94871   0.00026   0.00000   0.00001   0.00003   1.94875
   A20        1.81874   0.00501   0.00000   0.02451   0.02426   1.84300
   A21        1.93441  -0.00024   0.00000   0.00236   0.00224   1.93666
   A22        1.91834  -0.00487   0.00000  -0.03388  -0.03387   1.88448
   A23        1.93562  -0.00082   0.00000   0.00079   0.00063   1.93625
   A24        1.96778  -0.00089   0.00000   0.00124   0.00165   1.96942
   A25        1.88897   0.00173   0.00000   0.00469   0.00455   1.89352
   A26        1.87318   0.00001   0.00000   0.00105   0.00107   1.87425
   A27        1.67049  -0.00000   0.00000  -0.00098  -0.00100   1.66948
   A28        2.01776  -0.00049   0.00000  -0.00090  -0.00092   2.01684
   A29        1.95169  -0.00197   0.00000  -0.00896  -0.00896   1.94272
   A30        1.90619   0.00021   0.00000   0.00008   0.00008   1.90627
   A31        1.90676   0.00046   0.00000   0.00156   0.00156   1.90832
   A32        1.86126   0.00076   0.00000   0.00328   0.00327   1.86453
   A33        1.95614   0.00074   0.00000   0.00320   0.00319   1.95933
   A34        1.87945  -0.00014   0.00000   0.00118   0.00117   1.88062
   A35        1.85387  -0.00022   0.00000  -0.00128  -0.00128   1.85258
   A36        1.89228   0.00277   0.00000   0.01522   0.01441   1.90669
   A37        2.66796   0.00203   0.00000   0.01072   0.01099   2.67895
   A38        1.83185   0.00020   0.00000  -0.00018  -0.00018   1.83167
   A39        2.02710  -0.00026   0.00000  -0.00044  -0.00044   2.02667
   A40        1.75179  -0.00016   0.00000   0.00093   0.00095   1.75274
   A41        2.67078  -0.00008   0.00000   0.00041   0.00042   2.67120
   A42        1.86869   0.00152   0.00000   0.00618   0.00613   1.87481
   A43        1.98532  -0.00383   0.00000  -0.02156  -0.02161   1.96371
   A44        1.94836   0.00036   0.00000   0.00412   0.00414   1.95250
   A45        1.83442   0.00094   0.00000   0.00583   0.00587   1.84029
   A46        1.93215  -0.00060   0.00000   0.00210   0.00205   1.93420
   A47        1.89171   0.00162   0.00000   0.00368   0.00367   1.89538
   A48        1.98198   0.00168   0.00000   0.00663   0.00658   1.98857
   A49        1.88483  -0.00051   0.00000  -0.00767  -0.00772   1.87711
   A50        1.91066   0.00008   0.00000   0.00795   0.00806   1.91872
   A51        1.87167  -0.00076   0.00000  -0.00011   0.00002   1.87169
   A52        1.87654  -0.00075   0.00000  -0.00611  -0.00625   1.87029
   A53        1.93855   0.00027   0.00000  -0.00083  -0.00083   1.93772
   A54        1.82493   0.00060   0.00000   0.00351   0.00351   1.82845
   A55        1.83618   0.00007   0.00000  -0.00299  -0.00298   1.83319
   A56        2.66853  -0.00023   0.00000  -0.00118  -0.00118   2.66734
    D1        1.66492   0.00027   0.00000  -0.02279  -0.02295   1.64197
    D2       -2.49241   0.00042   0.00000   0.01154   0.01147  -2.48094
    D3       -0.44744  -0.00051   0.00000  -0.02277  -0.02262  -0.47006
    D4        1.67841  -0.00036   0.00000   0.01155   0.01180   1.69022
    D5       -2.55270   0.00085   0.00000  -0.02334  -0.02350  -2.57619
    D6       -0.42684   0.00100   0.00000   0.01098   0.01092  -0.41592
    D7        0.54991   0.00131   0.00000   0.02897   0.02859   0.57850
    D8       -1.38629   0.00130   0.00000   0.02889   0.02896  -1.35733
    D9        2.64573   0.00510   0.00000   0.05200   0.05174   2.69747
   D10       -0.61104  -0.00085   0.00000  -0.01003  -0.01019  -0.62123
   D11       -2.68426  -0.00058   0.00000  -0.00875  -0.00897  -2.69323
   D12        1.48621  -0.00065   0.00000  -0.00779  -0.00800   1.47822
   D13        1.29168   0.00037   0.00000  -0.00231  -0.00232   1.28937
   D14       -0.78153   0.00064   0.00000  -0.00103  -0.00110  -0.78263
   D15       -2.89425   0.00058   0.00000  -0.00006  -0.00013  -2.89437
   D16       -2.72273  -0.00261   0.00000  -0.02112  -0.02056  -2.74329
   D17        1.48725  -0.00234   0.00000  -0.01984  -0.01935   1.46790
   D18       -0.62547  -0.00241   0.00000  -0.01887  -0.01837  -0.64384
   D19        0.26153  -0.00010   0.00000   0.00524   0.00528   0.26681
   D20       -1.90027   0.00264   0.00000   0.00376   0.00317  -1.89711
   D21        1.19195   0.00042   0.00000   0.00088   0.00111   1.19306
   D22       -0.89107  -0.00138   0.00000  -0.01543  -0.01520  -0.90626
   D23       -2.97838  -0.00025   0.00000  -0.00095  -0.00085  -2.97924
   D24       -3.09841   0.00331   0.00000   0.03327   0.03289  -3.06553
   D25        1.10175   0.00151   0.00000   0.01695   0.01658   1.11833
   D26       -0.98556   0.00264   0.00000   0.03143   0.03092  -0.95464
   D27       -2.02524   0.00038   0.00000   0.00678   0.00655  -2.01870
   D28       -0.07070   0.00126   0.00000   0.01296   0.01282  -0.05789
   D29        2.12967  -0.00131   0.00000  -0.01876  -0.01881   2.11085
   D30        0.26295   0.00000   0.00000  -0.00875  -0.00840   0.25456
   D31        1.14265  -0.00201   0.00000  -0.01329  -0.01333   1.12932
   D32       -3.05834   0.00019   0.00000   0.00411   0.00407  -3.05427
   D33       -0.93691   0.00121   0.00000   0.01163   0.01160  -0.92531
   D34        3.13448  -0.00122   0.00000  -0.00661  -0.00659   3.12788
   D35       -1.06651   0.00098   0.00000   0.01079   0.01080  -1.05570
   D36        1.05492   0.00200   0.00000   0.01831   0.01833   1.07325
   D37       -0.91747  -0.00085   0.00000  -0.00628  -0.00636  -0.92383
   D38        1.16473   0.00135   0.00000   0.01113   0.01103   1.17576
   D39       -2.99702   0.00237   0.00000   0.01864   0.01856  -2.97847
   D40        1.23939  -0.00096   0.00000  -0.00906  -0.00911   1.23028
   D41       -2.96522  -0.00149   0.00000  -0.01014  -0.01022  -2.97544
   D42       -3.02386   0.00015   0.00000  -0.00166  -0.00166  -3.02553
   D43       -0.94529  -0.00038   0.00000  -0.00274  -0.00277  -0.94806
   D44       -1.01448   0.00024   0.00000  -0.00212  -0.00209  -1.01657
   D45        1.06410  -0.00029   0.00000  -0.00319  -0.00320   1.06090
   D46       -2.06538  -0.00104   0.00000  -0.00033  -0.00028  -2.06566
   D47       -0.04687  -0.00104   0.00000  -0.00116  -0.00119  -0.04805
   D48        2.10061  -0.00151   0.00000  -0.00941  -0.00938   2.09123
   D49        2.15292   0.00014   0.00000   0.00588   0.00589   2.15880
   D50       -2.11176   0.00015   0.00000   0.00504   0.00498  -2.10677
   D51        0.03572  -0.00032   0.00000  -0.00321  -0.00321   0.03250
   D52        0.16661   0.00050   0.00000   0.00677   0.00680   0.17341
   D53        2.18512   0.00050   0.00000   0.00594   0.00590   2.19102
   D54       -1.95059   0.00003   0.00000  -0.00231  -0.00230  -1.95289
   D55        3.04164  -0.00158   0.00000  -0.00802  -0.00795   3.03368
   D56        0.98574  -0.00146   0.00000  -0.00670  -0.00664   0.97911
   D57       -1.06583  -0.00168   0.00000  -0.00906  -0.00900  -1.07482
   D58       -1.22083   0.00098   0.00000   0.00146   0.00143  -1.21940
   D59        3.00646   0.00110   0.00000   0.00278   0.00274   3.00921
   D60        0.95489   0.00088   0.00000   0.00041   0.00038   0.95528
   D61        0.92682   0.00058   0.00000   0.00664   0.00661   0.93343
   D62       -1.12907   0.00070   0.00000   0.00796   0.00793  -1.12114
   D63        3.10255   0.00048   0.00000   0.00560   0.00557   3.10811
   D64       -0.11467   0.00021   0.00000   0.00013   0.00011  -0.11456
   D65        1.84574   0.00008   0.00000   0.00052   0.00050   1.84624
   D66        0.94343   0.00002   0.00000   0.00030   0.00030   0.94373
   D67        3.02603  -0.00036   0.00000  -0.00263  -0.00264   3.02339
   D68       -1.20454   0.00034   0.00000   0.00257   0.00257  -1.20197
   D69       -0.57332  -0.00018   0.00000  -0.00742  -0.00717  -0.58049
   D70        1.91690   0.00030   0.00000   0.00121   0.00121   1.91811
   D71       -0.19205   0.00058   0.00000   0.00136   0.00136  -0.19070
   D72       -2.12239   0.00032   0.00000   0.00252   0.00253  -2.11986
   D73       -0.15951   0.00036   0.00000   0.00270   0.00272  -0.15679
   D74        0.84550  -0.00093   0.00000  -0.00492  -0.00479   0.84072
   D75        2.92625  -0.00107   0.00000  -0.01057  -0.01045   2.91581
   D76       -1.27097  -0.00156   0.00000  -0.01487  -0.01474  -1.28571
   D77        2.88408  -0.00050   0.00000  -0.00507  -0.00505   2.87902
   D78       -1.31836  -0.00065   0.00000  -0.01072  -0.01071  -1.32907
   D79        0.76761  -0.00114   0.00000  -0.01502  -0.01501   0.75260
   D80       -1.33265   0.00008   0.00000   0.00221   0.00226  -1.33039
   D81        0.74810  -0.00007   0.00000  -0.00344  -0.00340   0.74470
   D82        2.83406  -0.00056   0.00000  -0.00774  -0.00770   2.82637
   D83        1.15446   0.00087   0.00000   0.00487   0.00484   1.15931
   D84       -0.92548  -0.00088   0.00000  -0.00701  -0.00702  -0.93250
   D85       -2.92883  -0.00260   0.00000  -0.01722  -0.01730  -2.94613
   D86        0.51661  -0.00048   0.00000   0.00287   0.00289   0.51951
   D87        2.67718   0.00115   0.00000   0.01202   0.01196   2.68914
   D88       -1.56323  -0.00007   0.00000   0.00780   0.00783  -1.55540
   D89       -0.15626  -0.00026   0.00000  -0.00236  -0.00236  -0.15863
         Item               Value     Threshold  Converged?
 Maximum Force            0.022527     0.000450     NO 
 RMS     Force            0.003484     0.000300     NO 
 Maximum Displacement     0.188626     0.001800     NO 
 RMS     Displacement     0.036649     0.001200     NO 
 Predicted change in Energy=-6.217613D-03
 GradGradGradGradGradGradGradGradGradGradGradGradGradGradGradGradGradGrad

                          Input orientation:                          
 ---------------------------------------------------------------------
 Center     Atomic      Atomic             Coordinates (Angstroms)
 Number     Number       Type             X           Y           Z
 ---------------------------------------------------------------------
      1          6           0       -1.426886   -1.215473   -0.402546
      2          8           0       -1.161008    0.252935   -0.812750
      3          1           0       -4.089544    0.644374   -1.570402
      4          8           0       -3.639747    0.727366   -0.714561
      5          1           0       -2.642337    0.804035   -0.906396
      6          6           0        1.085985    0.353745   -0.074491
      7          6           0       -0.304292    0.985448    0.077808
      8          1           0        1.418069    0.540633   -1.099432
      9          1           0       -0.657722    0.909751    1.112625
     10          8           0        2.083948    1.000796    0.756893
     11          1           0        1.886627    0.769493    1.681343
     12          6           0       -0.337007    2.460805   -0.340759
     13          8           0        0.372953    3.271291    0.576232
     14          1           0       -1.373883    2.813250   -0.338711
     15          1           0        0.048993    2.557270   -1.369674
     16          1           0        1.262507    2.882425    0.648915
     17          1           0       -1.419922   -1.672675   -1.396452
     18          8           0       -2.608475   -1.318526    0.270355
     19          1           0       -3.274554   -0.622293   -0.102499
     20          8           0        4.032050   -0.585647   -0.625383
     21          1           0        4.442402   -0.070539   -1.335858
     22          1           0        3.622145    0.079621   -0.035461
     23          6           0        1.086767   -1.187016    0.123177
     24          1           0        1.731774   -1.408290    0.989481
     25          6           0       -0.293821   -1.730503    0.494079
     26          1           0       -0.254174   -2.824630    0.383211
     27          8           0       -0.539428   -1.364206    1.842242
     28          1           0       -1.513616   -1.330942    1.917843
     29          8           0        1.542927   -1.864631   -1.028124
     30          1           0        2.488858   -1.615737   -1.112062
 ---------------------------------------------------------------------
                    Distance matrix (angstroms):
                    1          2          3          4          5
     1  C    0.000000
     2  O    1.547637   0.000000
     3  H    3.451473   3.050178   0.000000
     4  O    2.961204   2.525643   0.970397   0.000000
     5  H    2.410311   1.583293   1.600251   1.018580   0.000000
     6  C    2.980702   2.367312   5.395212   4.783495   3.846454
     7  C    2.516944   1.436535   4.142591   3.437981   2.543231
     8  H    3.415161   2.610861   5.528687   5.075874   4.073517
     9  H    2.721017   2.095656   4.364225   3.502049   2.833076
    10  O    4.310696   3.681415   6.607219   5.916132   5.014281
    11  H    4.388855   3.971827   6.804712   6.023531   5.216234
    12  C    3.834927   2.403423   4.346605   3.748684   2.894715
    13  O    4.932390   3.659615   5.605587   4.923359   4.168634
    14  H    4.029577   2.612517   3.687261   3.102630   2.442987
    15  H    4.164990   2.661621   4.563655   4.169475   3.245260
    16  H    5.013100   3.863174   6.211175   5.525889   4.688977
    17  H    1.094044   2.028723   3.539188   3.339580   2.805093
    18  O    1.363659   2.395363   3.071633   2.493843   2.427170
    19  H    1.963611   2.395320   2.103187   1.526291   1.755096
    20  O    5.499665   5.263666   8.268392   7.783856   6.823315
    21  H    6.052313   5.637063   8.565058   8.145170   7.151422
    22  H    5.225393   4.848996   7.883218   7.322282   6.366085
    23  C    2.568199   2.828765   5.745989   5.167843   4.350922
    24  H    3.457174   3.791555   6.682378   6.026443   5.255624
    25  C    1.533958   2.528604   4.930480   4.324019   3.728369
    26  H    2.140573   3.424044   5.528169   5.028307   4.531403
    27  O    2.418424   3.170251   5.318257   4.530330   4.083933
    28  H    2.324879   3.176341   4.764991   3.960633   3.715975
    29  O    3.103634   3.441182   6.189822   5.803178   4.965181
    30  H    3.999584   4.111331   6.970907   6.573274   5.676861
                    6          7          8          9         10
     6  C    0.000000
     7  C    1.534638   0.000000
     8  H    1.093485   2.133139   0.000000
     9  H    2.181491   1.096125   3.055872   0.000000
    10  O    1.451139   2.482958   2.025114   2.766150   0.000000
    11  H    1.974038   2.723616   2.829245   2.610904   0.973162
    12  C    2.556464   1.533932   2.709786   2.149639   3.032736
    13  O    3.073098   2.435604   3.369958   2.631896   2.848735
    14  H    3.488543   2.158327   3.679468   2.498514   4.054866
    15  H    2.758328   2.165788   2.452392   3.061955   3.329555
    16  H    2.636039   2.525776   2.926587   2.791729   2.055956
    17  H    3.483322   3.237853   3.611253   3.680400   4.905247
    18  O    4.069943   3.264143   4.641750   3.078973   5.256881
    19  H    4.468527   3.382278   4.936293   3.266726   5.664496
    20  O    3.140897   4.665477   2.885502   5.220234   2.867505
    21  H    3.610623   5.064056   3.094514   5.741716   3.330116
    22  H    2.551230   4.031160   2.490485   4.508267   1.960214
    23  C    1.553388   2.580059   2.142265   2.901497   2.486460
    24  H    2.157277   3.272108   2.874068   3.331392   2.445775
    25  C    2.563440   2.747686   3.260046   2.736049   3.630819
    26  H    3.479595   3.822627   4.039755   3.826290   4.498926
    27  O    3.044205   2.947777   4.014181   2.391070   3.695039
    28  H    3.683136   3.195913   4.604511   2.530146   4.441540
    29  O    2.457519   3.571869   2.409557   4.137978   3.419015
    30  H    2.631247   3.997954   2.407629   4.607416   3.240862
                   11         12         13         14         15
    11  H    0.000000
    12  C    3.448764   0.000000
    13  O    3.125935   1.414851   0.000000
[...]
 0036745,-0.00011670,-0.00020009,0.00019734,0.00033746,0.00025374,-0.00
 021395,0.00009617,-0.00004094,0.00003635,-0.00052763,-0.00044509,0.000
 40676,0.04063511,-0.06764363,0.04953593,-0.03954371,0.07658627,0.00139
 017,0.00018300,-0.00112592,0.00023987,-0.00009846,0.00017330,0.0000214
 6,-0.00001434,-0.00000238,-0.00003240,-0.00004510,0.00006363,0.0000577
 5,0.00000594,-0.00001121,-0.00786172,0.00258198,-0.00328918,0.00091407
 ,0.00153172,-0.00055094,-0.00006541,-0.00007717,-0.00007346,-0.0000958
 4,0.00006351,0.00008957,0.00134992,-0.00321628,0.00255292,-0.00012856,
 0.00105600,0.00049579,-0.00077450,-0.00025336,-0.00010586,0.00036083,-
 0.00005475,0.00021003,-0.00000561,0.00018808,-0.00004117,0.00002970,-0
 .00001027,0.00003928,-0.00016289,0.00022617,-0.00003876,0.00005590,0.0
 0005676,0.00010244,0.00086199,-0.00034671,0.00048687,0.00013927,0.0000
 7757,-0.00007061,0.00055450,0.00012034,0.00137470,-0.00020668,-0.00012
 274,-0.00004253,0.00054047,0.00080138,-0.00063716,-0.11029373,0.048303
 07,-0.17489675,0.11887017,-0.04327841,0.20738002,-0.12020247,0.0267507
 6,-0.02562778,0.00503618,-0.00157231,0.00319959,-0.00014496,0.00021901
 ,-0.00013845,0.00056462,0.00011665,-0.00049577,-0.00083370,0.00014709,
 -0.00017863,0.00077558,-0.01119616,-0.00120729,0.00212539,0.00129875,0
 .00040405,-0.00015669,0.00118651,-0.00077551,-0.00055651,0.00044033,-0
 .00005204,0.00098941,0.00296061,0.00134942,0.00014609,-0.00027040,-0.0
 0038038,-0.00078345,0.00039645,0.00002172,-0.00045274,-0.00029483,-0.0
 0007559,-0.00000320,0.00045226,0.00001595,0.00004404,-0.00015261,0.000
 07290,0.00028942,-0.00037359,-0.00000844,0.00328038,0.00093328,-0.0012
 0784,-0.04793245,0.01648234,-0.01172159,-0.00366603,-0.00166383,0.0042
 6594,0.00071494,0.00022586,0.00014050,-0.00007190,0.00003907,0.0001015
 2,-0.00023462,0.00001046,-0.00017652,-0.17177311,-0.03647945,0.0052749
 4,-0.02497103,-0.01022139,0.00383343,0.52592634,0.02622351,-0.09837045
 ,0.01002978,0.02072052,-0.03363192,0.02362738,0.00027405,-0.00006587,0
 .00007088,0.00007323,0.00113524,-0.00049720,-0.00145903,-0.00063267,-0
 .00005075,-0.03033872,-0.01164221,0.00818861,0.00291862,-0.00028006,0.
 00378059,0.00065857,-0.00300785,0.00070549,0.00078063,-0.00133436,-0.0
 0120679,-0.00165924,-0.00565046,-0.00111015,-0.00036652,-0.00023588,0.
 00032288,-0.00051243,-0.00067076,-0.00071228,0.00016498,0.00012232,0.0
 0001968,-0.00011123,0.00033314,-0.00000116,0.00007603,0.00046814,-0.00
 032286,-0.00030301,0.00010355,-0.00000164,-0.01118897,0.00708525,-0.00
 864852,-0.00017801,0.00490126,-0.00142404,-0.00008399,0.00065065,0.002
 02202,0.00027649,0.00042265,0.00017360,-0.00004210,-0.00000430,-0.0000
 0027,0.00020200,-0.00031318,0.00002872,-0.04311894,-0.09775901,0.01379
 895,0.00844134,0.00452714,-0.00074271,0.00834367,0.61179013,-0.0487069
 2,0.02563815,-0.10106563,-0.00062982,0.00140265,-0.00035171,-0.0000522
 8,-0.00000985,0.00002430,0.00020535,-0.00014685,0.00016009,-0.00038065
 ,-0.00001898,0.00005655,0.00260838,0.00585166,0.00125211,0.00010424,0.
 00191497,0.00523385,0.00038991,-0.00024399,-0.00012292,0.00094166,-0.0
 0252619,-0.00091555,-0.00074589,-0.00392395,-0.00144869,-0.00134807,0.
 00013446,0.00096945,0.00053730,-0.00019931,-0.00160925,0.00005523,-0.0
 0044482,-0.00025188,0.00002463,-0.00017698,0.00008121,0.00003291,0.000
 55413,-0.00029559,-0.00020115,0.00029126,0.00014974,-0.01904293,0.0109
 8375,-0.01336141,0.01370442,-0.00923314,0.00391878,0.00392294,-0.00013
 724,-0.00491177,-0.00039720,-0.00008100,0.00064451,-0.00002969,-0.0000
 0541,-0.00003558,0.00058595,0.00063554,-0.00008453,0.01255065,0.011940
 90,-0.07224108,-0.02323577,-0.00861528,0.00443482,-0.01936493,0.027079
 03,0.47166105,0.00250397,0.02487503,0.00144410,-0.00302920,0.00448376,
 -0.00290538,0.00001990,0.00000259,0.00001011,-0.00021305,-0.00011521,0
 .00003545,0.00045457,0.00000967,0.00009202,-0.00498595,0.00134211,0.00
 196752,-0.00146617,-0.00069614,-0.00101991,0.00003114,-0.00113191,0.00
 025796,0.00025164,-0.00007070,0.00016646,-0.00064399,-0.00203786,-0.00
 050578,-0.00004782,0.00015659,0.00023162,0.00014650,-0.00004294,0.0000
 0600,0.00021118,0.00007803,0.00006558,0.00005686,-0.00013468,0.0000013
 7,-0.00003297,0.00002343,-0.00001945,-0.00011866,0.00020875,-0.0000145
 9,0.00089415,-0.00060474,0.00011279,0.00013255,-0.00105068,-0.00003110
 ,-0.00005452,-0.00021360,-0.00016764,-0.00006347,0.00020608,0.00015806
 ,0.00002169,-0.00000624,-0.00001876,0.00029439,-0.00005676,-0.00007739
 ,-0.00240173,-0.03372884,-0.00039793,0.00122933,0.00065062,-0.00029222
 ,-0.05531122,-0.00620139,-0.00211954,0.05500983,-0.00334366,-0.0152626
 9,-0.00068577,0.00244873,-0.00068382,0.00179231,-0.00002171,-0.0000298
 5,-0.00000772,0.00023452,0.00011573,0.00003185,-0.00040752,0.00001094,
 -0.00014443,-0.00138369,0.00152154,-0.00016723,0.00025425,0.00111040,0
 .00008692,-0.00007870,-0.00032185,0.00015520,-0.00004352,0.00021145,0.
 00000336,-0.00061454,-0.00077488,-0.00022744,0.00011524,0.00007235,0.0
 0012479,0.00001571,0.00016361,0.00001842,-0.00005736,-0.00018231,-0.00
 000947,0.00001496,-0.00000762,0.00001183,-0.00000500,-0.00002590,0.000
 03381,0.00001276,0.00011922,-0.00001710,0.00039906,0.00069641,0.000626
 94,0.00033228,0.00124236,0.00013356,0.00023314,0.00003198,0.00012613,0
 .00003527,0.00023899,0.00013186,0.00004056,-0.00001203,-0.00000716,0.0
 0024099,-0.00010814,-0.00013033,-0.00066240,-0.01389483,-0.00053747,-0
 .00007858,0.00062289,-0.00018112,-0.00673292,-0.30066268,-0.02038809,0
 .00677583,0.32307968,0.00137942,0.01711519,0.00335798,-0.00265817,0.00
 469098,-0.00171227,0.00000803,-0.00000202,0.00000707,-0.00020125,-0.00
 010006,0.00003756,0.00040347,0.00001170,0.00007387,0.00143268,-0.00030
 445,-0.00056607,-0.00084793,-0.00131742,-0.00141653,-0.00009817,0.0002
 9947,0.00001102,-0.00007920,0.00045248,0.00017600,0.00022060,0.0005036
 2,0.00018624,0.00015483,0.00004263,-0.00010027,0.00002205,-0.00000017,
 0.00026170,0.00007720,0.00014870,0.00008514,0.00001800,-0.00002842,-0.
 00001307,-0.00002019,-0.00006408,0.00006223,0.00000323,-0.00000734,-0.
 00002478,0.00047123,0.00039834,0.00031202,-0.00005770,-0.00047900,0.00
 046109,-0.00019172,0.00000331,-0.00003153,0.00000485,-0.00004721,-0.00
 003689,-0.00000646,0.00000183,0.00000573,-0.00006177,0.00000740,0.0000
 0638,0.00020551,0.00699237,0.00181596,0.00014830,-0.00036266,0.0002172
 5,-0.00285089,-0.02174749,-0.04803807,0.00200010,0.03322957,0.06835072
 ,-0.00362572,-0.00975402,-0.02107015,0.00318373,0.00156108,0.00102994,
 0.00016612,-0.00003194,0.00011523,-0.00061561,0.00143557,-0.00089023,-
 0.00028420,-0.00054284,0.00018611,0.00065558,0.00165746,-0.00131085,-0
 .00126838,-0.00048952,0.00005130,0.00017834,0.00013962,-0.00002830,-0.
 00017091,-0.00039652,0.00001974,0.00025791,-0.00130673,0.00009753,0.00
 063261,0.00107998,0.00015374,0.00029824,-0.00021882,-0.00000705,0.0004
 1183,0.00012207,0.00010158,0.00010902,-0.00024557,0.00002323,0.0000562
 6,0.00007643,-0.00006696,-0.00021444,0.00036971,-0.00003301,-0.0030863
 8,0.00271340,-0.00293116,-0.00710959,0.00262153,-0.01113501,0.00292877
 ,-0.00281102,-0.00200797,-0.00085853,-0.00052073,-0.00020079,0.0000855
 5,-0.00003285,-0.00007234,0.00011346,0.00018742,0.00007870,-0.00401504
 ,0.01133422,0.03854793,0.00264055,0.00139079,0.00197758,-0.09910963,0.
 00667604,0.03666853,0.00499469,0.00205735,0.00251300,0.57386486,-0.002
 62061,0.00215740,0.00914988,0.00012997,0.00523426,-0.00046838,-0.00009
 171,-0.00004401,-0.00002585,0.00032997,0.00006812,0.00016898,-0.000298
 39,0.00004062,-0.00029282,0.00276357,-0.00107263,-0.00059603,0.0003716
 5,-0.00704060,-0.00412390,-0.00048541,0.00042732,0.00001981,-0.0017427
 0,-0.00169464,0.00486185,-0.00065810,0.00140820,0.00047382,0.00104075,
 -0.00026496,-0.00007895,-0.00053841,0.00150162,0.00277784,-0.00045115,
 -0.00039335,-0.00016771,0.00006516,0.00005249,-0.00005422,-0.00006432,
 -0.00117078,0.00051650,0.00038432,0.00009519,-0.00010605,0.00200142,0.
 00026449,0.00168626,0.00168399,0.00364450,0.00161333,-0.00016845,0.000
 36195,0.00011230,-0.00006091,0.00041329,0.00009508,0.00009190,-0.00003
 779,-0.00000741,0.00032115,-0.00032939,-0.00019379,0.00070964,0.003680
 60,0.00534916,-0.00017332,-0.00000334,-0.00009142,-0.00161658,-0.07929
 207,-0.03799971,0.00533951,0.00086996,-0.03901139,-0.01619025,0.080278
 98,-0.00039121,-0.01144091,-0.04665620,-0.00087137,0.00485483,0.002776
 24,0.00031830,-0.00023940,0.00013885,-0.00087968,0.00056674,0.00012977
 ,0.00077929,-0.00054097,0.00011709,-0.00131945,-0.00180495,0.00082031,
 -0.00116877,0.00057213,-0.00229009,-0.00026250,-0.00016379,0.00012052,
 0.00025110,0.00254290,-0.00100231,0.00128460,0.00156307,0.00108445,0.0
 0043948,-0.00000198,-0.00082895,0.00001324,-0.00054613,-0.00020418,0.0
 0032073,0.00064177,0.00056969,-0.00003227,0.00004124,-0.00004649,-0.00
 002802,0.00001627,0.00006532,-0.00002904,-0.00018291,-0.00018517,-0.00
 531960,0.00302371,-0.00127289,0.00092859,0.00074965,0.00181408,0.00136
 887,-0.00025710,-0.00005889,0.00090837,0.00041114,0.00029807,-0.000127
 69,0.00001190,0.00001353,-0.00021107,-0.00016712,-0.00021145,0.0076671
 1,-0.00467163,-0.02575903,-0.00089565,-0.00029599,0.00136649,-0.010577
 23,-0.03969057,-0.20756578,0.00287640,-0.01341617,-0.02352648,-0.07597
 518,0.06664502,0.35091568,0.00617840,0.00128787,-0.00509544,-0.0023866
 3,-0.00150377,0.00028536,-0.00003630,-0.00006277,-0.00001672,0.0002140
 9,-0.00091635,0.00080319,0.00042678,0.00028007,-0.00009989,-0.00006814
 ,-0.00041111,0.00005286,0.00073531,0.00060365,0.00140933,0.00006797,0.
 00002081,-0.00005325,0.00018458,-0.00093831,-0.00017308,0.00004048,0.0
 0033226,-0.00005347,-0.00018012,-0.00016028,0.00000638,0.00008349,-0.0
 0019108,-0.00032351,-0.00010585,0.00003138,-0.00007778,-0.00006212,0.0
 0009983,-0.00000548,-0.00000421,0.00013904,-0.00007384,0.00001158,-0.0
 0014402,0.00004291,-0.00183193,0.00006659,0.00100292,-0.00257947,-0.00
 158671,-0.00067192,-0.00227206,0.00181368,0.00056579,0.00015711,0.0000
 2608,-0.00004608,-0.00002363,0.00001138,0.00002053,-0.00010509,-0.0000
 1544,0.00003771,-0.00056333,0.00171633,0.00044441,0.00014419,-0.000026
 86,0.00009064,-0.00671861,-0.00052173,0.00693356,-0.00009524,-0.001056
 39,-0.00179997,-0.46011827,0.01084617,0.07680905,0.46846766,-0.0014600
 0,0.00303206,0.00188787,0.00031049,-0.00065918,-0.00039453,0.00007095,
 0.00001885,0.00000763,-0.00019788,-0.00004202,-0.00015989,0.00016503,-
 0.00005715,0.00024715,-0.00028149,0.00079785,-0.00083606,-0.00045483,-
 0.00008745,0.00155840,0.00020170,-0.00007454,-0.00003722,-0.00072998,-
 0.00094166,-0.00014991,0.00028199,-0.00050107,0.00006450,0.00006609,0.
 00042620,0.00003096,0.00007772,-0.00033714,-0.00027723,0.00025547,0.00
 019724,-0.00001813,0.00003041,-0.00008274,0.00004250,0.00005141,0.0001
 8169,-0.00012518,-0.00015198,0.00004490,0.00001669,0.00014753,-0.00005
 772,-0.00062605,0.00027274,-0.00265650,-0.00126555,-0.00015552,-0.0009
 1179,0.00035553,0.00004552,-0.00011229,0.00000280,-0.00003193,0.000013
 33,0.00000048,-0.00007372,0.00008556,0.00001648,-0.00062931,0.00025133
 ,0.00070509,0.00014496,-0.00003284,0.00011335,0.01001375,-0.00063407,-
 0.00408425,0.00080769,-0.00044224,-0.00115831,0.00095794,-0.01077716,-
 0.00998300,-0.00940903,0.01338503,0.00623514,0.00311362,-0.00695817,-0
 .00206700,-0.00226006,0.00023460,-0.00019388,0.00000057,-0.00008331,0.
 00089949,-0.00147562,0.00096373,-0.00004388,0.00059847,-0.00023223,0.0
 0047636,-0.00034013,0.00016029,0.00121344,0.00075175,0.00085890,-0.000
 03118,-0.00005475,-0.00000586,-0.00002887,0.00036961,0.00004866,-0.000
 50962,0.00014654,-0.00011592,0.00016196,0.00010693,0.00010241,-0.00004
 701,0.00036257,0.00003603,-0.00027478,-0.00039933,-0.00023775,-0.00001
 394,0.00006503,0.00002481,0.00000751,-0.00005694,0.00000312,0.00009642
 ,0.00003418,0.00004744,0.00007977,-0.00044525,0.00118353,0.00177517,-0
 .00209706,0.00059460,-0.00261500,0.00241886,0.00139355,-0.00002492,0.0
 0013554,0.00006169,0.00003658,-0.00000378,0.00001180,0.00014159,-0.000
 06035,-0.00005595,-0.00156995,-0.00301671,-0.00700543,-0.00021256,-0.0
 0035775,0.00010554,0.04697270,-0.00110166,-0.01468024,-0.00001264,-0.0
 0047605,-0.00043662,0.02637012,-0.01033200,-0.04985777,-0.07947064,0.0
 1379552,0.07530486,0.00178269,-0.00145938,-0.00122937,-0.00015608,0.00
 181734,0.00053789,0.00015052,-0.00006801,0.00006823,-0.00051832,0.0004
 5066,-0.00030600,0.00036479,-0.00030319,0.00019802,0.00098946,0.004331
 66,0.00319473,-0.00003584,-0.00003906,-0.00143051,0.00072921,-0.000168
 40,-0.00049495,0.00034223,-0.00039280,0.00004198,0.00260980,0.00087132
 ,0.00169179,-0.00009610,0.00015386,0.00004387,-0.00058384,-0.00060476,
 -0.00005990,0.00049059,0.00045078,0.00013480,-0.00001482,0.00015641,-0
 .00003681,0.00000495,0.00010735,-0.00008717,-0.00025777,-0.00008150,0.
 00007081,-0.00017565,0.00067292,0.00040429,-0.00101108,0.00044564,0.00
 013642,0.00054203,-0.00043534,0.00019502,-0.01099292,-0.00923363,-0.00
 122426,-0.00131509,-0.00097266,-0.00228879,-0.00274420,0.00122795,0.00
 256563,-0.10686460,0.01827401,0.05278725,0.01306537,-0.00866065,-0.008
 07954,-0.00786842,0.01979691,0.03558618,0.00232581,0.00146429,-0.00015
 833,-0.01080224,-0.00067277,0.00541018,0.00044603,-0.00034281,0.002643
 33,0.53221759,-0.00076513,-0.00275272,0.00104326,0.00201906,0.00300290
 ,0.00044754,-0.00006807,-0.00006471,-0.00001906,0.00039262,0.00020020,
 0.00006327,-0.00049155,-0.00004662,-0.00019598,0.01708218,-0.02460497,
 -0.03460937,-0.00479820,-0.00601008,-0.00105062,0.00041037,0.00451500,
 -0.00326533,0.00064633,-0.00036669,-0.00010767,-0.00369442,-0.00579080
 ,-0.00360784,-0.00006731,-0.00067083,0.00083905,0.00204460,0.00074007,
 -0.00026969,-0.00012310,-0.00040648,-0.00016054,0.00021192,-0.00078356
 ,0.00029663,-0.00012057,-0.00000533,0.00007721,-0.00007287,0.00073137,
 -0.00004327,0.00047813,0.00029153,0.00016418,0.00040085,0.00093473,-0.
 00035715,-0.00013561,-0.00035407,0.00003529,-0.00664813,0.00036103,-0.
 00031414,0.00016219,-0.00001801,-0.00061352,0.00131955,-0.00016373,0.0
 0028729,-0.00247335,-0.10538132,-0.06323530,-0.00195700,0.00414203,-0.
 00517427,0.00159037,0.00489518,0.00370373,0.00119283,0.00204280,0.0007
 1249,-0.00311170,0.00145794,0.00246699,-0.00021755,-0.00030712,0.00087
 666,0.08828139,0.17527399,0.00002132,0.00064685,-0.00243061,0.00036272
 ,0.00024200,0.00158410,0.00000530,-0.00002685,-0.00007110,0.00032292,-
 0.00019886,0.00038630,-0.00026980,0.00008892,-0.00029245,0.00762064,-0
 .01165102,-0.00767611,-0.00306824,-0.00274090,0.00041361,-0.00061778,-
 0.00074969,0.00230600,-0.00020558,0.00035708,0.00011930,-0.00173860,-0
 .00306176,0.00158305,0.00007736,0.00243295,0.00083969,0.00143685,0.000
 21362,-0.00058285,-0.00000463,-0.00032981,0.00026469,0.00011089,-0.000
 54896,0.00013474,-0.00002630,-0.00010455,0.00023565,-0.00001528,0.0005
 9561,-0.00016543,0.00066602,0.00013710,0.00067017,0.00121981,-0.000248
 50,0.00135528,-0.00024880,0.00020151,-0.00029918,0.00092866,0.00150918
 ,0.00530228,-0.00115406,-0.00076463,-0.00058641,0.00165699,-0.00025409
 ,-0.00183955,0.01510586,-0.06981878,-0.19054377,0.01169611,-0.02271873
 ,-0.03908546,0.00929156,-0.00839245,-0.01642081,-0.00145213,-0.0000924
 9,0.00056199,0.00565911,-0.00008189,0.00013508,-0.00063249,0.00022863,
 -0.00080060,-0.10654757,0.11522218,0.28452877,-0.00078200,0.00046389,-
 0.00012368,0.00021801,-0.00043054,-0.00011470,-0.00009530,0.00003540,-
 0.00003300,0.00031981,-0.00021557,0.00015209,-0.00025375,0.00014888,-0
 .00010852,0.00333950,0.00042739,-0.00028773,-0.00060133,-0.00070926,0.
 00002688,0.00022915,0.00118635,-0.00004957,0.00011328,-0.00003368,-0.0
 0008295,-0.00354869,-0.00085135,-0.00046334,0.00006771,0.00033169,0.00
 008814,0.00068522,0.00045906,0.00007987,-0.00038290,-0.00035199,-0.000
 17428,0.00002539,-0.00020335,0.00003495,-0.00002574,-0.00001397,0.0000
 0676,0.00019811,0.00012652,-0.00000276,-0.00010334,-0.00004537,-0.0000
 4128,0.00084407,-0.00025326,0.00000364,-0.00023026,0.00016780,-0.00016
 901,-0.00469523,0.00328679,0.00172593,0.00019454,0.00089425,0.00221814
 ,0.00528412,-0.00060199,-0.00291833,-0.01524719,0.00008446,0.00796377,
 0.00146791,-0.00129222,-0.00328863,0.00089837,0.00045871,0.00140302,-0
 .00011420,-0.00018895,-0.00003076,0.00070142,-0.00024608,-0.00128657,-
 0.00000665,0.00001707,0.00000630,-0.41262410,-0.09148784,0.05979913,0.
 42412406,-0.00029224,0.00099243,-0.00019577,-0.00042879,-0.00087156,-0
 .00019343,0.00000810,0.00002970,-0.00000489,-0.00004166,-0.00011848,0.
 00003260,0.00008153,0.00005538,0.00001595,0.00215656,0.00061489,-0.001
 80469,0.00049508,0.00008535,0.00106474,0.00050858,-0.00174965,0.000791
 56,-0.00041843,0.00023057,0.00002909,-0.00104236,0.00025204,0.00068462
 ,-0.00003038,0.00040813,-0.00003757,0.00012059,-0.00001037,-0.00001579
 ,-0.00019336,0.00006743,0.00001259,-0.00006340,0.00003609,0.00001153,0
 .00003384,-0.00005715,0.00005751,0.00013038,-0.00023944,-0.00005622,-0
 .00001059,-0.00015356,-0.00002275,0.00007315,-0.00032778,0.00016018,-0
 .00001653,0.00013320,-0.00004188,0.00529476,-0.00123768,0.00176483,-0.
 00099712,-0.00035998,0.00100599,-0.00095523,-0.00235038,-0.00318642,0.
 02296671,0.00478654,-0.00537704,-0.00121294,0.00005751,-0.00160179,-0.
 00103316,-0.00224686,-0.00189521,-0.00006085,0.00025853,0.00001993,0.0
 0127190,0.00016379,-0.00070475,-0.00011375,0.00028062,-0.00029839,-0.1
 1506753,-0.05086175,-0.00009165,0.08883715,0.05213245,0.00008702,-0.00
 007129,-0.00035751,-0.00019328,-0.00003160,-0.00008924,0.00000156,-0.0
 0000599,0.00001842,-0.00006463,0.00003692,-0.00005726,0.00006491,-0.00
 002738,0.00005483,0.00027200,-0.00070312,0.00121744,0.00027886,0.00025
 752,-0.00014463,-0.00019979,0.00036203,0.00031361,0.00000995,0.0000313
 9,0.00000446,-0.00064530,0.00069993,-0.00043606,0.00013091,-0.00040992
 ,-0.00023565,-0.00007123,0.00000463,0.00024972,-0.00010043,0.00010602,
 -0.00011843,-0.00001624,0.00004479,-0.00003009,0.00001076,-0.00000162,
 -0.00006384,0.00005912,-0.00019533,0.00006072,0.00026978,-0.00000227,0
 .00020195,-0.00014234,0.00006516,0.00012928,0.00006362,-0.00002922,0.0
 0004901,0.00197659,-0.00029395,-0.00876642,0.00288155,0.00246445,0.002
 13688,-0.00248153,-0.00194239,-0.00063606,0.04386174,0.00583610,-0.012
 93712,0.00031899,0.00115220,0.00087874,-0.00010535,-0.00419707,-0.0051
 8595,-0.00039107,-0.00001848,-0.00008736,0.00213564,0.00016168,-0.0008
 9947,0.00008893,0.00004171,-0.00066569,0.01623277,-0.01321204,-0.03962
 638,-0.06433350,0.00987713,0.06502209\\-0.00002012,0.00000509,-0.00000
 168,0.00001094,0.00000991,0.00001833,-0.00000395,0.00000745,0.00000392
 ,0.00002170,-0.00000795,0.00000664,-0.00002299,-0.00001113,-0.00000358
 ,0.00001420,0.00000172,-0.00000162,-0.00000309,-0.00000833,-0.00000555
 ,-0.00000093,-0.00000400,-0.00000281,0.00000026,0.00000676,-0.00000136
 ,-0.00001348,0.00000061,0.00000369,0.00000194,0.00000423,-0.00000139,-
 0.00000623,-0.00000047,-0.00001250,0.00000531,-0.00000422,0.00001185,0
 .00000184,0.00000373,-0.00000428,0.00000081,-0.00000131,0.00000049,0.0
 0000312,0.00000716,-0.00000950,0.00000307,-0.00000408,0.00000509,0.000
 00706,-0.00000046,-0.00001912,-0.00000072,0.00000965,0.00001966,-0.000
 02497,0.00000261,-0.00000572,0.00000485,-0.00000040,0.00000155,0.00001
 802,-0.00000507,-0.00000614,-0.00001061,0.00000496,0.00000866,0.000004
 62,0.00000022,-0.00000226,0.00002091,-0.00000619,0.00000240,-0.0000079
 7,0.00000240,0.00000302,-0.00000349,0.00000695,-0.00000053,0.00000018,
 -0.00000463,-0.00000056,-0.00000296,0.00000030,0.00001199,0.00000269,-
 0.00001552,-0.00001867\\\@


 ASKING FOR EFFICIENCY AND ADAPTABILITY IN THE SAME PROGRAM IS LIKE
 ASKING FOR A BEAUTIFUL AND MODEST WIFE ...
 WE'LL PROBABLY HAVE TO SETTLE FOR ONE OR THE OTHER.

             -- THE PSYCHOLOGY OF COMPUTER PROGRAMMING
                GERALD M. WEINBERG
 Job cpu time:       0 days  0 hours 35 minutes  7.0 seconds.
 File lengths (MBytes):  RWF=    221 Int=      0 D2E=      0 Chk=      6 Scr=      1
 Normal termination of Gaussian 09 at Sun Jan 15 13:17:13 2017.
