 Entering Gaussian System, Link 0=g09
 Initial command:
 /global/software/gaussian/g09.e01/l1.exe "/scratch/10462962.yak.local/Gau-15339.inp" -scrdir="/scratch/10462962.yak.local/"
 Entering Link 1 = /global/software/gaussian/g09.e01/l1.exe PID=     15340.
  
 Copyright (c) 1988,1990,1992,1993,1995,1998,2003,2009,2015,
            Gaussian, Inc.  All Rights Reserved.
  
 This is part of the Gaussian(R) 09 program.  It is based on
 the Gaussian(R) 03 system (copyright 2003, Gaussian, Inc.),
 the Gaussian(R) 98 system (copyright 1998, Gaussian, Inc.),
 the Gaussian(R) 94 system (copyright 1995, Gaussian, Inc.),
 the Gaussian 92(TM) system (copyright 1992, Gaussian, Inc.),
 the Gaussian 90(TM) system (copyright 1990, Gaussian, Inc.),
 the Gaussian 88(TM) system (copyright 1988, Gaussian, Inc.),
 the Gaussian 86(TM) system (copyright 1986, Carnegie Mellon
 University), and the Gaussian 82(TM) system (copyright 1983,
 Carnegie Mellon University). Gaussian is a federally registered
 trademark of Gaussian, Inc.
  
 This software contains proprietary and confidential information,
 including trade secrets, belonging to Gaussian, Inc.
  
 This software is provided under written license and may be
 used, copied, transmitted, or stored only in accord with that
 written license.
  
 The following legend is applicable only to US Government
 contracts under FAR:
  
                    RESTRICTED RIGHTS LEGEND
  
 Use, reproduction and disclosure by the US Government is
 subject to restrictions as set forth in subparagraphs (a)
 and (c) of the Commercial Computer Software - Restricted
 Rights clause in FAR 52.227-19.
  
 Gaussian, Inc.
 340 Quinnipiac St., Bldg. 40, Wallingford CT 06492
  
  
 ---------------------------------------------------------------
 Warning -- This program may not be used in any manner that
 competes with the business of Gaussian, Inc. or will provide
 assistance to any competitor of Gaussian, Inc.  The licensee
 of this program is prohibited from giving any competitor of
 Gaussian, Inc. access to this program.  By using this program,
 the user acknowledges that Gaussian, Inc. is engaged in the
 business of creating and licensing software in the field of
 computational chemistry and represents and warrants to the
 licensee that it is not a competitor of Gaussian, Inc. and that
 it will not use this program in any manner prohibited above.
 ---------------------------------------------------------------
  

 Cite this work as:
 Gaussian 09, Revision E.01,
 M. J. Frisch, G. W. Trucks, H. B. Schlegel, G. E. Scuseria, 
 M. A. Robb, J. R. Cheeseman, G. Scalmani, V. Barone, B. Mennucci, 
 G. A. Petersson, H. Nakatsuji, M. Caricato, X. Li, H. P. Hratchian, 
 A. F. Izmaylov, J. Bloino, G. Zheng, J. L. Sonnenberg, M. Hada, 
 M. Ehara, K. Toyota, R. Fukuda, J. Hasegawa, M. Ishida, T. Nakajima, 
 Y. Honda, O. Kitao, H. Nakai, T. Vreven, J. A. Montgomery, Jr., 
 J. E. Peralta, F. Ogliaro, M. Bearpark, J. J. Heyd, E. Brothers, 
 K. N. Kudin, V. N. Staroverov, T. Keith, R. Kobayashi, J. Normand, 
 K. Raghavachari, A. Rendell, J. C. Burant, S. S. Iyengar, J. Tomasi, 
 M. Cossi, N. Rega, J. M. Millam, M. Klene, J. E. Knox, J. B. Cross, 
 V. Bakken, C. Adamo, J. Jaramillo, R. Gomperts, R. E. Stratmann, 
 O. Yazyev, A. J. Austin, R. Cammi, C. Pomelli, J. W. Ochterski, 
 R. L. Martin, K. Morokuma, V. G. Zakrzewski, G. A. Voth, 
 P. Salvador, J. J. Dannenberg, S. Dapprich, A. D. Daniels, 
 O. Farkas, J. B. Foresman, J. V. Ortiz, J. Cioslowski, 
 and D. J. Fox, Gaussian, Inc., Wallingford CT, 2013.
 
 ******************************************
 Gaussian 09:  ES64L-G09RevE.01 30-Nov-2015
                15-Jan-2017 
 ******************************************
 %NPROCS=4
 Will use up to    4 processors via shared memory.
 -----------------------------------------
 # opt=(MaxCycle=1000) freq B3LYP/6-31G(d)
 -----------------------------------------
 1/6=1000,14=-1,18=20,19=15,26=3,38=1/1,3;
 2/9=110,12=2,17=6,18=5,40=1/2;
 3/5=1,6=6,7=1,11=2,16=1,25=1,30=1,71=1,74=-5/1,2,3;
 4//1;
 5/5=2,38=5/2;
 6/7=2,8=2,9=2,10=2,28=1/1;
 7//1,2,3,16;
 1/6=1000,14=-1,18=20,19=15,26=3/3(2);
 2/9=110/2;
 99//99;
 2/9=110/2;
 3/5=1,6=6,7=1,11=2,16=1,25=1,30=1,71=1,74=-5/1,2,3;
 4/5=5,16=3,69=1/1;
 5/5=2,38=5/2;
 7//1,2,3,16;
 1/6=1000,14=-1,18=20,19=15,26=3/3(-5);
 2/9=110/2;
 6/7=2,8=2,9=2,10=2,19=2,28=1/1;
 99/9=1/99;
 -------------------------------------------------
 ./boats/2/glo_1w_alpha_ts_boat2_B3LYP_631Gd_r.out
 -------------------------------------------------
 Symbolic Z-matrix:
 Charge =  0 Multiplicity = 1
 C                    -1.50708  -1.39381  -0.36008 
 O                    -1.14106   0.32392  -0.8543 
 H                    -4.04525   0.59795  -1.50996 
 O                    -3.56692   0.69706  -0.67232 
 H                    -2.10455   0.68825  -0.85437 
 C                     1.06228   0.36246  -0.08854 
 C                    -0.30671   1.03534   0.06426 
 H                     1.39969   0.54382  -1.11295 
 H                    -0.6801    0.9313    1.08905 
 O                     2.05324   1.01131   0.74402 
 H                     1.8569    0.77525   1.66764 
 C                    -0.30885   2.51048  -0.33835 
 O                     0.40228   3.30696   0.58461 
 H                    -1.34146   2.87728  -0.34444 
 H                     0.08286   2.60157  -1.36612 
 H                     1.28662   2.90826   0.66293 
 H                    -1.45208  -1.71955  -1.40815 
 O                    -2.60983  -1.37708   0.25968 
 H                    -3.50985  -0.22517  -0.26927 
 O                     4.01167  -0.57631  -0.62733 
 H                     4.4249   -0.06406  -1.33823 
 H                     3.60223   0.09082  -0.03998 
 C                     1.06153  -1.18174   0.1179 
 H                     1.71461  -1.38843   0.98183 
 C                    -0.30055  -1.75955   0.50384 
 H                    -0.21249  -2.85572   0.40971 
 O                    -0.57252  -1.38108   1.83956 
 H                    -1.55431  -1.36169   1.8724 
 O                     1.52569  -1.86016  -1.02985 
 H                     2.47197  -1.61245  -1.11188 
 
 Add virtual bond connecting atoms H5         and O4         Dist= 2.78D+00.
 Add virtual bond connecting atoms O18        and H19        Dist= 2.94D+00.
 Add virtual bond connecting atoms O10        and H22        Dist= 3.71D+00.
 Add virtual bond connecting atoms H30        and O20        Dist= 3.62D+00.

 GradGradGradGradGradGradGradGradGradGradGradGradGradGradGradGradGradGrad
 Berny optimization.
 Initialization pass.
                           ----------------------------
                           !    Initial Parameters    !
                           ! (Angstroms and Degrees)  !
 --------------------------                            --------------------------
 ! Name  Definition              Value          Derivative Info.                !
 --------------------------------------------------------------------------------
 ! R1    R(1,17)                 1.0989         estimate D2E/DX2                !
 ! R2    R(1,18)                 1.2651         estimate D2E/DX2                !
 ! R3    R(1,25)                 1.5283         estimate D2E/DX2                !
 ! R4    R(2,5)                  1.0301         estimate D2E/DX2                !
 ! R5    R(2,7)                  1.4304         estimate D2E/DX2                !
 ! R6    R(3,4)                  0.9697         estimate D2E/DX2                !
 ! R7    R(4,5)                  1.4737         estimate D2E/DX2                !
 ! R8    R(4,19)                 1.0081         estimate D2E/DX2                !
 ! R9    R(6,7)                  1.5331         estimate D2E/DX2                !
 ! R10   R(6,8)                  1.0937         estimate D2E/DX2                !
 ! R11   R(6,10)                 1.4478         estimate D2E/DX2                !
 ! R12   R(6,23)                 1.5579         estimate D2E/DX2                !
 ! R13   R(7,9)                  1.0956         estimate D2E/DX2                !
 ! R14   R(7,12)                 1.5291         estimate D2E/DX2                !
 ! R15   R(10,11)                0.9733         estimate D2E/DX2                !
 ! R16   R(10,22)                1.965          estimate D2E/DX2                !
 ! R17   R(12,13)                1.4114         estimate D2E/DX2                !
 ! R18   R(12,14)                1.0958         estimate D2E/DX2                !
 ! R19   R(12,15)                1.1037         estimate D2E/DX2                !
 ! R20   R(13,16)                0.9732         estimate D2E/DX2                !
 ! R21   R(18,19)                1.5546         estimate D2E/DX2                !
 ! R22   R(20,21)                0.9688         estimate D2E/DX2                !
 ! R23   R(20,22)                0.9786         estimate D2E/DX2                !
 ! R24   R(20,30)                1.9181         estimate D2E/DX2                !
 ! R25   R(23,24)                1.1025         estimate D2E/DX2                !
 ! R26   R(23,25)                1.5291         estimate D2E/DX2                !
 ! R27   R(23,29)                1.4117         estimate D2E/DX2                !
 ! R28   R(25,26)                1.1037         estimate D2E/DX2                !
 ! R29   R(25,27)                1.4147         estimate D2E/DX2                !
 ! R30   R(27,28)                0.9825         estimate D2E/DX2                !
 ! R31   R(29,30)                0.9816         estimate D2E/DX2                !
 ! A1    A(17,1,18)            120.983          estimate D2E/DX2                !
 ! A2    A(17,1,25)            115.3833         estimate D2E/DX2                !
 ! A3    A(18,1,25)            114.4802         estimate D2E/DX2                !
 ! A4    A(5,2,7)              111.6989         estimate D2E/DX2                !
 ! A5    A(3,4,5)              112.4687         estimate D2E/DX2                !
 ! A6    A(3,4,19)             106.2484         estimate D2E/DX2                !
 ! A7    A(5,4,19)              89.2978         estimate D2E/DX2                !
 ! A8    A(2,5,4)              158.4794         estimate D2E/DX2                !
 ! A9    A(7,6,8)              107.2214         estimate D2E/DX2                !
 ! A10   A(7,6,10)             110.9275         estimate D2E/DX2                !
 ! A11   A(7,6,23)             114.9235         estimate D2E/DX2                !
 ! A12   A(8,6,10)             104.6638         estimate D2E/DX2                !
 ! A13   A(8,6,23)             106.7757         estimate D2E/DX2                !
 ! A14   A(10,6,23)            111.6131         estimate D2E/DX2                !
 ! A15   A(2,7,6)              103.8024         estimate D2E/DX2                !
 ! A16   A(2,7,9)              110.7708         estimate D2E/DX2                !
 ! A17   A(2,7,12)             108.0538         estimate D2E/DX2                !
 ! A18   A(6,7,9)              110.8468         estimate D2E/DX2                !
 ! A19   A(6,7,12)             113.4803         estimate D2E/DX2                !
 ! A20   A(9,7,12)             109.7186         estimate D2E/DX2                !
 ! A21   A(6,10,11)            107.3929         estimate D2E/DX2                !
 ! A22   A(6,10,22)             95.7493         estimate D2E/DX2                !
 ! A23   A(11,10,22)           115.0879         estimate D2E/DX2                !
 ! A24   A(7,12,13)            111.8101         estimate D2E/DX2                !
 ! A25   A(7,12,14)            109.0075         estimate D2E/DX2                !
 ! A26   A(7,12,15)            108.9245         estimate D2E/DX2                !
 ! A27   A(13,12,14)           106.8297         estimate D2E/DX2                !
 ! A28   A(13,12,15)           112.5556         estimate D2E/DX2                !
 ! A29   A(14,12,15)           107.5562         estimate D2E/DX2                !
 ! A30   A(12,13,16)           106.2173         estimate D2E/DX2                !
 ! A31   A(1,18,19)            110.3508         estimate D2E/DX2                !
 ! A32   A(4,19,18)            147.854          estimate D2E/DX2                !
 ! A33   A(21,20,22)           104.9766         estimate D2E/DX2                !
 ! A34   A(21,20,30)           116.2735         estimate D2E/DX2                !
 ! A35   A(22,20,30)           100.6043         estimate D2E/DX2                !
 ! A36   A(10,22,20)           152.6984         estimate D2E/DX2                !
 ! A37   A(6,23,24)            106.8195         estimate D2E/DX2                !
 ! A38   A(6,23,25)            114.1058         estimate D2E/DX2                !
 ! A39   A(6,23,29)            111.6187         estimate D2E/DX2                !
 ! A40   A(24,23,25)           105.0126         estimate D2E/DX2                !
 ! A41   A(24,23,29)           110.6225         estimate D2E/DX2                !
 ! A42   A(25,23,29)           108.4505         estimate D2E/DX2                !
 ! A43   A(1,25,23)            118.0418         estimate D2E/DX2                !
 ! A44   A(1,25,26)            104.6222         estimate D2E/DX2                !
 ! A45   A(1,25,27)            108.5374         estimate D2E/DX2                !
 ! A46   A(23,25,26)           106.4214         estimate D2E/DX2                !
 ! A47   A(23,25,27)           107.9669         estimate D2E/DX2                !
 ! A48   A(26,25,27)           111.196          estimate D2E/DX2                !
 ! A49   A(25,27,28)           103.2346         estimate D2E/DX2                !
 ! A50   A(23,29,30)           105.2853         estimate D2E/DX2                !
 ! A51   A(20,30,29)           152.7547         estimate D2E/DX2                !
 ! D1    D(17,1,18,19)         -71.51           estimate D2E/DX2                !
 ! D2    D(25,1,18,19)         143.1244         estimate D2E/DX2                !
 ! D3    D(17,1,25,23)          61.9621         estimate D2E/DX2                !
 ! D4    D(17,1,25,26)         -56.0713         estimate D2E/DX2                !
 ! D5    D(17,1,25,27)        -174.8608         estimate D2E/DX2                !
 ! D6    D(18,1,25,23)        -150.6748         estimate D2E/DX2                !
 ! D7    D(18,1,25,26)          91.2918         estimate D2E/DX2                !
 ! D8    D(18,1,25,27)         -27.4976         estimate D2E/DX2                !
 ! D9    D(7,2,5,4)           -116.591          estimate D2E/DX2                !
 ! D10   D(5,2,7,6)           -179.6086         estimate D2E/DX2                !
 ! D11   D(5,2,7,9)             61.3722         estimate D2E/DX2                !
 ! D12   D(5,2,7,12)           -58.8378         estimate D2E/DX2                !
 ! D13   D(3,4,5,2)           -101.8786         estimate D2E/DX2                !
 ! D14   D(19,4,5,2)             5.4433         estimate D2E/DX2                !
 ! D15   D(3,4,19,18)          121.4953         estimate D2E/DX2                !
 ! D16   D(5,4,19,18)            8.2582         estimate D2E/DX2                !
 ! D17   D(8,6,7,2)             63.7884         estimate D2E/DX2                !
 ! D18   D(8,6,7,9)           -177.2446         estimate D2E/DX2                !
 ! D19   D(8,6,7,12)           -53.2544         estimate D2E/DX2                !
 ! D20   D(10,6,7,2)           177.5092         estimate D2E/DX2                !
 ! D21   D(10,6,7,9)           -63.5238         estimate D2E/DX2                !
 ! D22   D(10,6,7,12)           60.4664         estimate D2E/DX2                !
 ! D23   D(23,6,7,2)           -54.7168         estimate D2E/DX2                !
 ! D24   D(23,6,7,9)            64.2503         estimate D2E/DX2                !
 ! D25   D(23,6,7,12)         -171.7595         estimate D2E/DX2                !
 ! D26   D(7,6,10,11)           72.027          estimate D2E/DX2                !
 ! D27   D(7,6,10,22)         -169.4111         estimate D2E/DX2                !
 ! D28   D(8,6,10,11)         -172.6505         estimate D2E/DX2                !
 ! D29   D(8,6,10,22)          -54.0886         estimate D2E/DX2                !
 ! D30   D(23,6,10,11)         -57.5266         estimate D2E/DX2                !
 ! D31   D(23,6,10,22)          61.0354         estimate D2E/DX2                !
 ! D32   D(7,6,23,24)         -118.2736         estimate D2E/DX2                !
 ! D33   D(7,6,23,25)           -2.6969         estimate D2E/DX2                !
 ! D34   D(7,6,23,29)          120.6895         estimate D2E/DX2                !
 ! D35   D(8,6,23,24)          122.9717         estimate D2E/DX2                !
 ! D36   D(8,6,23,25)         -121.4517         estimate D2E/DX2                !
 ! D37   D(8,6,23,29)            1.9347         estimate D2E/DX2                !
 ! D38   D(10,6,23,24)           9.1539         estimate D2E/DX2                !
 ! D39   D(10,6,23,25)         124.7306         estimate D2E/DX2                !
 ! D40   D(10,6,23,29)        -111.883          estimate D2E/DX2                !
 ! D41   D(2,7,12,13)          175.0296         estimate D2E/DX2                !
 ! D42   D(2,7,12,14)           57.1455         estimate D2E/DX2                !
 ! D43   D(2,7,12,15)          -59.9433         estimate D2E/DX2                !
 ! D44   D(6,7,12,13)          -70.4397         estimate D2E/DX2                !
 ! D45   D(6,7,12,14)          171.6762         estimate D2E/DX2                !
 ! D46   D(6,7,12,15)           54.5873         estimate D2E/DX2                !
 ! D47   D(9,7,12,13)           54.1618         estimate D2E/DX2                !
 ! D48   D(9,7,12,14)          -63.7223         estimate D2E/DX2                !
 ! D49   D(9,7,12,15)          179.1888         estimate D2E/DX2                !
 ! D50   D(6,10,22,20)          -6.6467         estimate D2E/DX2                !
 ! D51   D(11,10,22,20)        105.6168         estimate D2E/DX2                !
 ! D52   D(7,12,13,16)          54.203          estimate D2E/DX2                !
 ! D53   D(14,12,13,16)        173.3825         estimate D2E/DX2                !
 ! D54   D(15,12,13,16)        -68.7857         estimate D2E/DX2                !
 ! D55   D(1,18,19,4)          -30.7168         estimate D2E/DX2                !
 ! D56   D(21,20,22,10)        110.0188         estimate D2E/DX2                !
 ! D57   D(30,20,22,10)        -11.0633         estimate D2E/DX2                !
 ! D58   D(21,20,30,29)       -121.1602         estimate D2E/DX2                !
 ! D59   D(22,20,30,29)         -8.4775         estimate D2E/DX2                !
 ! D60   D(6,23,25,1)           51.2995         estimate D2E/DX2                !
 ! D61   D(6,23,25,26)         168.3751         estimate D2E/DX2                !
 ! D62   D(6,23,25,27)         -72.1639         estimate D2E/DX2                !
 ! D63   D(24,23,25,1)         167.9279         estimate D2E/DX2                !
 ! D64   D(24,23,25,26)        -74.9964         estimate D2E/DX2                !
 ! D65   D(24,23,25,27)         44.4645         estimate D2E/DX2                !
 ! D66   D(29,23,25,1)         -73.7849         estimate D2E/DX2                !
 ! D67   D(29,23,25,26)         43.2907         estimate D2E/DX2                !
 ! D68   D(29,23,25,27)        162.7517         estimate D2E/DX2                !
 ! D69   D(6,23,29,30)          66.4159         estimate D2E/DX2                !
 ! D70   D(24,23,29,30)        -52.3808         estimate D2E/DX2                !
 ! D71   D(25,23,29,30)       -167.0461         estimate D2E/DX2                !
 ! D72   D(1,25,27,28)          23.3331         estimate D2E/DX2                !
 ! D73   D(23,25,27,28)        152.3832         estimate D2E/DX2                !
 ! D74   D(26,25,27,28)        -91.2248         estimate D2E/DX2                !
 ! D75   D(23,29,30,20)         -9.5962         estimate D2E/DX2                !
 --------------------------------------------------------------------------------
 Trust Radius=3.00D-01 FncErr=1.00D-07 GrdErr=1.00D-06
 Number of steps in this run=    180 maximum allowed number of steps=    180.
 GradGradGradGradGradGradGradGradGradGradGradGradGradGradGradGradGradGrad

                          Input orientation:                          
 ---------------------------------------------------------------------
 Center     Atomic      Atomic             Coordinates (Angstroms)
 Number     Number       Type             X           Y           Z
 ---------------------------------------------------------------------
      1          6           0       -1.507080   -1.393810   -0.360080
      2          8           0       -1.141060    0.323920   -0.854300
      3          1           0       -4.045250    0.597950   -1.509960
      4          8           0       -3.566920    0.697060   -0.672320
      5          1           0       -2.104550    0.688250   -0.854370
      6          6           0        1.062280    0.362460   -0.088540
      7          6           0       -0.306710    1.035340    0.064260
      8          1           0        1.399690    0.543820   -1.112950
      9          1           0       -0.680100    0.931300    1.089050
     10          8           0        2.053240    1.011310    0.744020
     11          1           0        1.856900    0.775250    1.667640
     12          6           0       -0.308850    2.510480   -0.338350
     13          8           0        0.402280    3.306960    0.584610
     14          1           0       -1.341460    2.877280   -0.344440
     15          1           0        0.082860    2.601570   -1.366120
     16          1           0        1.286620    2.908260    0.662930
     17          1           0       -1.452080   -1.719550   -1.408150
     18          8           0       -2.609830   -1.377080    0.259680
     19          1           0       -3.509850   -0.225170   -0.269270
     20          8           0        4.011670   -0.576310   -0.627330
     21          1           0        4.424900   -0.064060   -1.338230
     22          1           0        3.602230    0.090820   -0.039980
     23          6           0        1.061530   -1.181740    0.117900
     24          1           0        1.714610   -1.388430    0.981830
     25          6           0       -0.300550   -1.759550    0.503840
     26          1           0       -0.212490   -2.855720    0.409710
     27          8           0       -0.572520   -1.381080    1.839560
     28          1           0       -1.554310   -1.361690    1.872400
     29          8           0        1.525690   -1.860160   -1.029850
     30          1           0        2.471970   -1.612450   -1.111880
 ---------------------------------------------------------------------
                    Distance matrix (angstroms):
                    1          2          3          4          5
     1  C    0.000000
     2  O    1.824506   0.000000
     3  H    3.425148   2.989867   0.000000
     4  O    2.951639   2.461127   0.969672   0.000000
     5  H    2.221771   1.030072   2.050431   1.473684   0.000000
     6  C    3.124073   2.332934   5.306859   4.677847   3.274362
     7  C    2.742576   1.430388   4.079971   3.359457   2.048556
     8  H    3.573589   2.563331   5.459663   4.988472   3.516735
     9  H    2.861819   2.087583   4.264998   3.389841   2.421779
    10  O    4.436160   3.637401   6.514819   5.804392   4.466143
    11  H    4.486962   3.943557   6.705517   5.907567   4.696934
    12  C    4.084080   2.395793   4.357881   3.743668   2.609854
    13  O    5.160943   3.653887   5.613063   4.913858   3.900321
    14  H    4.274329   2.611468   3.723475   3.132657   2.373644
    15  H    4.416230   2.635836   4.590912   4.174855   2.950838
    16  H    5.230594   3.856738   6.203855   5.498104   4.327895
    17  H    1.098900   2.139919   3.479325   3.294541   2.555365
    18  O    1.265085   2.508314   3.015427   2.467124   2.400417
    19  H    2.320572   2.500985   1.582243   1.008075   1.775259
    20  O    5.585368   5.235700   8.189742   7.684954   6.249704
    21  H    6.157386   5.600413   8.497717   8.055553   6.590433
    22  H    5.330257   4.818325   7.803972   7.222471   5.795472
    23  C    2.621297   2.839646   5.647692   5.057360   3.803450
    24  H    3.489991   3.802416   6.582607   5.914393   4.719133
    25  C    1.528345   2.625233   4.861684   4.252935   3.330297
    26  H    2.098981   3.545430   5.504818   5.004521   4.211593
    27  O    2.389975   3.238386   5.214949   4.426583   3.726460
    28  H    2.233211   3.232174   4.635227   3.842480   3.455473
    29  O    3.140664   3.451460   6.108042   5.709805   4.438900
    30  H    4.055348   4.107294   6.893366   6.480374   5.128749
                    6          7          8          9         10
     6  C    0.000000
     7  C    1.533052   0.000000
     8  H    1.093688   2.130544   0.000000
     9  H    2.178574   1.095645   3.053600   0.000000
    10  O    1.447814   2.456016   2.023367   2.756192   0.000000
    11  H    1.971290   2.705491   2.827416   2.606815   0.973318
    12  C    2.560545   1.529097   2.717879   2.160812   2.999751
    13  O    3.091733   2.435916   3.392857   2.658903   2.832153
    14  H    3.488233   2.151856   3.680971   2.505819   4.023752
    15  H    2.757732   2.156578   2.456109   3.065904   3.296061
    16  H    2.663857   2.530797   2.959242   2.820982   2.047609
    17  H    3.521100   3.327053   3.652750   3.722763   4.937277
    18  O    4.078192   3.341006   4.652980   3.120950   5.261484
    19  H    4.613279   3.458357   5.040508   3.345137   5.788230
    20  O    3.141733   4.660914   2.883220   5.218386   2.869945
    21  H    3.612597   5.056065   3.093892   5.739639   3.334210
    22  H    2.554896   4.022785   2.491517   4.507712   1.965026
    23  C    1.557938   2.605840   2.146369   2.905399   2.486963
    24  H    2.153333   3.286690   2.867206   3.335758   2.435154
    25  C    2.590588   2.829254   3.287908   2.779785   3.643581
    26  H    3.497138   3.907501   4.058878   3.875782   4.494354
    27  O    3.070842   3.010221   4.038832   2.433504   3.717305
    28  H    3.696555   3.251404   4.611876   2.575982   4.463047
    29  O    2.457815   3.597039   2.408714   4.140953   3.416177
    30  H    2.633386   4.014369   2.408171   4.609805   3.240959
                   11         12         13         14         15
    11  H    0.000000
    12  C    3.424251   0.000000
    13  O    3.114230   1.411362   0.000000
    14  H    4.323945   1.095839   2.021976   0.000000
    15  H    3.960601   1.103651   2.098798   1.774411   0.000000
    16  H    2.425777   1.925179   0.973218   2.814704   2.379105
    17  H    5.160800   4.510499   5.716253   4.719593   4.585835
    18  O    5.154275   4.556893   5.578406   4.480324   5.071830
    19  H    5.792622   4.211289   5.339458   3.785863   4.701181
    20  O    3.425877   5.317770   5.438408   6.376779   5.106886
    21  H    4.041574   5.480548   5.589505   6.549046   5.095064
    22  H    2.535860   4.608723   4.579667   5.683056   4.521999
    23  C    2.619946   3.964668   4.560796   4.739595   4.180137
    24  H    2.274224   4.586803   4.891491   5.412471   4.908725
    25  C    3.526221   4.352299   5.115664   4.827346   4.760580
    26  H    4.364482   5.418947   6.195737   5.891571   5.746548
    27  O    3.252906   4.467332   4.950036   4.847139   5.154358
    28  H    4.030483   4.629502   5.223307   4.788377   5.373618
    29  O    3.785702   4.790220   5.528803   5.579756   4.701263
    30  H    3.715529   5.032878   5.600204   5.940445   4.850819
                   16         17         18         19         20
    16  H    0.000000
    17  H    5.762506   0.000000
    18  O    5.805951   2.058963   0.000000
    19  H    5.804611   2.786510   1.554581   0.000000
    20  O    4.607917   5.636421   6.728468   7.538221   0.000000
    21  H    4.763206   6.106098   7.332446   8.008052   0.968782
    22  H    3.714041   5.540341   6.390166   7.122788   0.978613
    23  C    4.132290   2.989365   3.679286   4.686410   3.102457
    24  H    4.329713   3.981152   4.384337   5.496672   2.919832
    25  C    4.932836   2.232337   2.353438   3.640278   4.612466
    26  H    5.961117   2.476304   2.820660   4.272399   4.910671
    27  O    4.820715   3.381687   2.578113   3.796209   5.267637
    28  H    5.269362   3.301594   1.927492   3.114894   6.151878
    29  O    5.065618   3.004995   4.358759   5.348676   2.826728
    30  H    4.999182   3.936676   5.268896   6.198121   1.918085
                   21         22         23         24         25
    21  H    0.000000
    22  H    1.544742   0.000000
    23  C    3.831681   2.845961   0.000000
    24  H    3.805563   2.606796   1.102547   0.000000
    25  C    5.347690   4.353309   1.529077   2.104061   0.000000
    26  H    5.688062   4.841116   2.123791   2.488770   1.103723
    27  O    6.066885   4.809127   2.382009   2.442687   1.414693
    28  H    6.909627   5.688311   3.154881   3.388166   1.898200
    29  O    3.424397   3.016320   1.411747   2.074868   2.386939
    30  H    2.502535   2.308156   1.920211   2.237722   3.212329
                   26         27         28         29         30
    26  H    0.000000
    27  O    2.085343   0.000000
    28  H    2.484365   0.982530   0.000000
    29  O    2.466727   3.586853   4.261212   0.000000
    30  H    3.326752   4.246581   5.017942   0.981598   0.000000
 Stoichiometry    C6H16O8
 Framework group  C1[X(C6H16O8)]
 Deg. of freedom    84
 Full point group                 C1      NOp   1
 Largest Abelian subgroup         C1      NOp   1
 Largest concise Abelian subgroup C1      NOp   1
                         Standard orientation:                         
 ---------------------------------------------------------------------
 Center     Atomic      Atomic             Coordinates (Angstroms)
 Number     Number       Type             X           Y           Z
 ---------------------------------------------------------------------
      1          6           0       -1.513837   -1.406759   -0.351266
      2          8           0       -1.150557    0.312856   -0.840934
      3          1           0       -4.055711    0.584877   -1.493152
      4          8           0       -3.576743    0.682243   -0.655672
      5          1           0       -2.114531    0.675900   -0.839085
      6          6           0        1.053433    0.352156   -0.077085
      7          6           0       -0.316310    1.022773    0.078882
      8          1           0        1.389659    0.536877   -1.101284
      9          1           0       -0.688619    0.915323    1.103713
     10          8           0        2.044294    0.999957    0.756409
     11          1           0        1.849117    0.761011    1.679534
     12          6           0       -0.320783    2.499048   -0.319529
     13          8           0        0.390135    3.293848    0.605041
     14          1           0       -1.353886    2.864487   -0.323630
     15          1           0        0.069860    2.593581   -1.347394
     16          1           0        1.275076    2.896106    0.681417
     17          1           0       -1.459367   -1.729444   -1.400308
     18          8           0       -2.616038   -1.393261    0.269549
     19          1           0       -3.518076   -0.241053   -0.255299
     20          8           0        4.003572   -0.581145   -0.621243
     21          1           0        4.415467   -0.066326   -1.331062
     22          1           0        3.593785    0.083766   -0.031624
     23          6           0        1.054927   -1.192624    0.124963
     24          1           0        1.709076   -1.400899    0.987703
     25          6           0       -0.306027   -1.773344    0.510505
     26          1           0       -0.216596   -2.869124    0.413177
     27          8           0       -0.577272   -1.399036    1.847545
     28          1           0       -1.559057   -1.381049    1.881339
     29          8           0        1.518934   -1.867159   -1.025137
     30          1           0        2.464808   -1.617955   -1.107328
 ---------------------------------------------------------------------
 Rotational constants (GHZ):      0.7520573      0.5111705      0.3652364
 Standard basis: 6-31G(d) (6D, 7F)
 There are   242 symmetry adapted cartesian basis functions of A   symmetry.
 There are   242 symmetry adapted basis functions of A   symmetry.
   242 basis functions,   456 primitive gaussians,   242 cartesian basis functions
    58 alpha electrons       58 beta electrons
       nuclear repulsion energy      1112.0495306330 Hartrees.
 NAtoms=   30 NActive=   30 NUniq=   30 SFac= 1.00D+00 NAtFMM=   60 NAOKFM=F Big=F
 Integral buffers will be    131072 words long.
 Raffenetti 2 integral format.
 Two-electron integral symmetry is turned on.
 One-electron integrals computed using PRISM.
 NBasis=   242 RedAO= T EigKep=  1.43D-03  NBF=   242
 NBsUse=   242 1.00D-06 EigRej= -1.00D+00 NBFU=   242
 ExpMin= 1.61D-01 ExpMax= 5.48D+03 ExpMxC= 8.25D+02 IAcc=1 IRadAn=         1 AccDes= 0.00D+00
 Harris functional with IExCor=  402 and IRadAn=       1 diagonalized for initial guess.
 HarFok:  IExCor=  402 AccDes= 0.00D+00 IRadAn=         1 IDoV= 1 UseB2=F ITyADJ=14
 ICtDFT=  3500011 ScaDFX=  1.000000  1.000000  1.000000  1.000000
 FoFCou: FMM=F IPFlag=           0 FMFlag=      100000 FMFlg1=           0
         NFxFlg=           0 DoJE=T BraDBF=F KetDBF=T FulRan=T
         wScrn=  0.000000 ICntrl=     500 IOpCl=  0 I1Cent=   200000004 NGrid=           0
         NMat0=    1 NMatS0=      1 NMatT0=    0 NMatD0=    1 NMtDS0=    0 NMtDT0=    0
 Petite list used in FoFCou.
 Requested convergence on RMS density matrix=1.00D-08 within 128 cycles.
 Requested convergence on MAX density matrix=1.00D-06.
 Requested convergence on             energy=1.00D-06.
 No special actions if energy rises.
 Integral accuracy reduced to 1.0D-05 until final iterations.
 Initial convergence to 1.0D-05 achieved.  Increase integral accuracy.
 SCF Done:  E(RB3LYP) =  -839.969133705     A.U. after   14 cycles
            NFock= 14  Conv=0.58D-08     -V/T= 2.0083

 **********************************************************************

            Population analysis using the SCF density.

 **********************************************************************

 Orbital symmetries:
       Occupied  (A) (A) (A) (A) (A) (A) (A) (A) (A) (A) (A) (A)
                 (A) (A) (A) (A) (A) (A) (A) (A) (A) (A) (A) (A)
                 (A) (A) (A) (A) (A) (A) (A) (A) (A) (A) (A) (A)
                 (A) (A) (A) (A) (A) (A) (A) (A) (A) (A) (A) (A)
                 (A) (A) (A) (A) (A) (A) (A) (A) (A) (A)
       Virtual   (A) (A) (A) (A) (A) (A) (A) (A) (A) (A) (A) (A)
                 (A) (A) (A) (A) (A) (A) (A) (A) (A) (A) (A) (A)
                 (A) (A) (A) (A) (A) (A) (A) (A) (A) (A) (A) (A)
                 (A) (A) (A) (A) (A) (A) (A) (A) (A) (A) (A) (A)
                 (A) (A) (A) (A) (A) (A) (A) (A) (A) (A) (A) (A)
                 (A) (A) (A) (A) (A) (A) (A) (A) (A) (A) (A) (A)
                 (A) (A) (A) (A) (A) (A) (A) (A) (A) (A) (A) (A)
                 (A) (A) (A) (A) (A) (A) (A) (A) (A) (A) (A) (A)
                 (A) (A) (A) (A) (A) (A) (A) (A) (A) (A) (A) (A)
                 (A) (A) (A) (A) (A) (A) (A) (A) (A) (A) (A) (A)
                 (A) (A) (A) (A) (A) (A) (A) (A) (A) (A) (A) (A)
                 (A) (A) (A) (A) (A) (A) (A) (A) (A) (A) (A) (A)
                 (A) (A) (A) (A) (A) (A) (A) (A) (A) (A) (A) (A)
                 (A) (A) (A) (A) (A) (A) (A) (A) (A) (A) (A) (A)
                 (A) (A) (A) (A) (A) (A) (A) (A) (A) (A) (A) (A)
                 (A) (A) (A) (A)
 The electronic state is 1-A.
 Alpha  occ. eigenvalues --  -19.19828 -19.18926 -19.16552 -19.16324 -19.14215
 Alpha  occ. eigenvalues --  -19.14192 -19.13546 -19.12424 -10.28834 -10.25750
 Alpha  occ. eigenvalues --  -10.25252 -10.24569 -10.23883 -10.23796  -1.07907
 Alpha  occ. eigenvalues --   -1.06243  -1.03504  -1.02366  -1.02244  -1.01673
 Alpha  occ. eigenvalues --   -1.01140  -0.99632  -0.78740  -0.75433  -0.69501
 Alpha  occ. eigenvalues --   -0.65132  -0.62989  -0.57792  -0.56351  -0.54691
 Alpha  occ. eigenvalues --   -0.54395  -0.53649  -0.52292  -0.50851  -0.49777
 Alpha  occ. eigenvalues --   -0.48228  -0.47319  -0.44758  -0.44355  -0.42653
 Alpha  occ. eigenvalues --   -0.42192  -0.41556  -0.40323  -0.39651  -0.38747
 Alpha  occ. eigenvalues --   -0.37891  -0.36083  -0.35824  -0.35009  -0.33915
 Alpha  occ. eigenvalues --   -0.32409  -0.31273  -0.30628  -0.29081  -0.27840
 Alpha  occ. eigenvalues --   -0.26491  -0.25986  -0.24994
 Alpha virt. eigenvalues --    0.02262   0.03740   0.06079   0.06243   0.09263
 Alpha virt. eigenvalues --    0.09516   0.11108   0.12152   0.13388   0.14285
 Alpha virt. eigenvalues --    0.15542   0.16661   0.17506   0.18351   0.18721
 Alpha virt. eigenvalues --    0.19528   0.20540   0.21355   0.21883   0.23821
 Alpha virt. eigenvalues --    0.24233   0.25383   0.26774   0.28241   0.29397
 Alpha virt. eigenvalues --    0.30472   0.33255   0.35762   0.51893   0.53267
 Alpha virt. eigenvalues --    0.53769   0.54784   0.56694   0.57471   0.59833
 Alpha virt. eigenvalues --    0.61278   0.62449   0.63281   0.64589   0.67013
 Alpha virt. eigenvalues --    0.68872   0.70964   0.71905   0.72097   0.74630
 Alpha virt. eigenvalues --    0.75600   0.77022   0.78269   0.78750   0.79197
 Alpha virt. eigenvalues --    0.81569   0.82356   0.83967   0.84701   0.85730
 Alpha virt. eigenvalues --    0.85854   0.86644   0.87536   0.88191   0.88788
 Alpha virt. eigenvalues --    0.90654   0.91913   0.92652   0.93104   0.94426
 Alpha virt. eigenvalues --    0.96907   0.97477   0.98363   1.01032   1.02096
 Alpha virt. eigenvalues --    1.03012   1.04398   1.06168   1.08373   1.09441
 Alpha virt. eigenvalues --    1.10913   1.12407   1.13220   1.14331   1.15156
 Alpha virt. eigenvalues --    1.16297   1.18673   1.19189   1.22733   1.22896
 Alpha virt. eigenvalues --    1.26907   1.29541   1.30800   1.33579   1.35967
 Alpha virt. eigenvalues --    1.39699   1.42045   1.43558   1.44454   1.47728
 Alpha virt. eigenvalues --    1.48353   1.52783   1.56548   1.58393   1.58894
 Alpha virt. eigenvalues --    1.61745   1.62282   1.63470   1.66177   1.68183
 Alpha virt. eigenvalues --    1.69521   1.70344   1.70925   1.72011   1.74411
 Alpha virt. eigenvalues --    1.74576   1.75734   1.77833   1.78092   1.79793
 Alpha virt. eigenvalues --    1.80144   1.82524   1.84024   1.85353   1.86431
 Alpha virt. eigenvalues --    1.88718   1.89204   1.91315   1.92175   1.93640
 Alpha virt. eigenvalues --    1.94929   1.98811   1.99209   2.04813   2.05482
 Alpha virt. eigenvalues --    2.08122   2.09078   2.10119   2.11426   2.14495
 Alpha virt. eigenvalues --    2.18022   2.21682   2.23616   2.25000   2.28324
 Alpha virt. eigenvalues --    2.30796   2.31759   2.35272   2.37404   2.38313
 Alpha virt. eigenvalues --    2.39709   2.42946   2.47291   2.49277   2.50321
 Alpha virt. eigenvalues --    2.52149   2.52694   2.54847   2.56631   2.57847
 Alpha virt. eigenvalues --    2.59379   2.60623   2.62450   2.66671   2.68305
 Alpha virt. eigenvalues --    2.72065   2.74553   2.83335   2.86954   2.89588
 Alpha virt. eigenvalues --    2.90730   2.94013   2.97916   3.00541   3.04578
 Alpha virt. eigenvalues --    3.69112   3.73519   3.77788   3.81778   3.90454
 Alpha virt. eigenvalues --    3.95910   4.08988   4.13621   4.28052   4.34311
 Alpha virt. eigenvalues --    4.37967   4.51023   4.61620   4.78581
          Condensed to atoms (all electrons):
               1          2          3          4          5          6
     1  C    4.767229   0.037206   0.000644   0.009331  -0.007998  -0.016805
     2  O    0.037206   8.571188   0.002929  -0.069275   0.150635  -0.044696
     3  H    0.000644   0.002929   0.366936   0.234804  -0.004765   0.000002
     4  O    0.009331  -0.069275   0.234804   8.398718   0.113173  -0.000079
     5  H   -0.007998   0.150635  -0.004765   0.113173   0.297620   0.002493
     6  C   -0.016805  -0.044696   0.000002  -0.000079   0.002493   5.129774
     7  C   -0.005931   0.135131  -0.000108   0.002747  -0.014474   0.303985
     8  H    0.001217   0.003947  -0.000000   0.000000  -0.000021   0.345180
     9  H    0.000877  -0.033658  -0.000015   0.000277   0.001178  -0.053474
    10  O    0.000099   0.001420  -0.000000   0.000000  -0.000020   0.164912
    11  H    0.000100  -0.000035   0.000000  -0.000000   0.000002  -0.026052
    12  C    0.000561  -0.028550   0.000070  -0.001123  -0.003317  -0.027170
    13  O   -0.000010   0.001581   0.000000   0.000001   0.000084  -0.000961
    14  H   -0.000088  -0.000187  -0.000067   0.001657   0.005076   0.005228
    15  H   -0.000049   0.005651  -0.000002   0.000018   0.000239  -0.014642
    16  H   -0.000003   0.000032   0.000000  -0.000000   0.000023   0.000500
    17  H    0.356076  -0.036207   0.000067   0.000520   0.001204   0.000774
    18  O    0.385622  -0.045716   0.002595  -0.059982   0.007641   0.000394
    19  H   -0.012031   0.006146  -0.007161   0.181331  -0.015790   0.000010
    20  O   -0.000000   0.000000  -0.000000  -0.000000   0.000000   0.006396
    21  H    0.000000  -0.000000   0.000000  -0.000000   0.000000   0.000119
    22  H   -0.000003  -0.000010   0.000000  -0.000000   0.000000  -0.006966
    23  C   -0.028039   0.003744  -0.000002   0.000024  -0.000053   0.293259
    24  H    0.006319   0.000097   0.000000  -0.000000   0.000006  -0.075654
    25  C    0.277550  -0.013534   0.000028  -0.000193   0.001662  -0.031910
    26  H   -0.044019   0.001775   0.000000   0.000001  -0.000103   0.006257
    27  O   -0.025250  -0.000821   0.000000  -0.000008  -0.000236   0.003825
    28  H   -0.013742   0.000192  -0.000004   0.000203  -0.000019  -0.000187
    29  O    0.003967  -0.000304   0.000000  -0.000000   0.000016  -0.050038
    30  H   -0.000155  -0.000013  -0.000000   0.000000   0.000001   0.000756
               7          8          9         10         11         12
     1  C   -0.005931   0.001217   0.000877   0.000099   0.000100   0.000561
     2  O    0.135131   0.003947  -0.033658   0.001420  -0.000035  -0.028550
     3  H   -0.000108  -0.000000  -0.000015  -0.000000   0.000000   0.000070
     4  O    0.002747   0.000000   0.000277   0.000000  -0.000000  -0.001123
     5  H   -0.014474  -0.000021   0.001178  -0.000020   0.000002  -0.003317
     6  C    0.303985   0.345180  -0.053474   0.164912  -0.026052  -0.027170
     7  C    5.044372  -0.034288   0.351951  -0.028523  -0.001973   0.326905
     8  H   -0.034288   0.582829   0.006028  -0.037739   0.006864  -0.010386
     9  H    0.351951   0.006028   0.589687   0.000982   0.004559  -0.045942
    10  O   -0.028523  -0.037739   0.000982   8.287029   0.232364  -0.000000
    11  H   -0.001973   0.006864   0.004559   0.232364   0.365420  -0.000935
    12  C    0.326905  -0.010386  -0.045942  -0.000000  -0.000935   4.879313
    13  O   -0.038391   0.000084   0.006395  -0.011748   0.001785   0.265259
    14  H   -0.035108  -0.000007  -0.006272  -0.000091   0.000008   0.373717
    15  H   -0.047967   0.007757   0.006946   0.000455   0.000124   0.344266
    16  H   -0.008967  -0.000534  -0.000722   0.037584  -0.001921  -0.031988
    17  H    0.002766   0.000122   0.000341   0.000000  -0.000000  -0.000084
    18  O    0.000713  -0.000001   0.002339   0.000000  -0.000001  -0.000062
    19  H   -0.000268   0.000001  -0.000062  -0.000000   0.000000   0.000024
    20  O    0.000188   0.004226  -0.000000  -0.014709   0.000528  -0.000003
    21  H    0.000003   0.000583   0.000000   0.000369   0.000004  -0.000000
    22  H    0.000589  -0.002795  -0.000023   0.048001  -0.002158  -0.000011
    23  C   -0.039215  -0.045572  -0.007520  -0.025971  -0.005497   0.003462
    24  H    0.003965   0.005230   0.000173   0.001275   0.006821  -0.000181
    25  C   -0.000997   0.000787  -0.005510   0.001856  -0.000286   0.000237
    26  H    0.000190  -0.000257   0.000293  -0.000086  -0.000005   0.000014
    27  O   -0.005240   0.000039   0.018383  -0.000426   0.001630   0.000398
    28  H    0.000705   0.000010  -0.000073   0.000015  -0.000038  -0.000031
    29  O    0.003276   0.005418   0.000009   0.001563  -0.000024  -0.000052
    30  H    0.000100   0.001763  -0.000002   0.000097  -0.000034  -0.000002
              13         14         15         16         17         18
     1  C   -0.000010  -0.000088  -0.000049  -0.000003   0.356076   0.385622
     2  O    0.001581  -0.000187   0.005651   0.000032  -0.036207  -0.045716
     3  H    0.000000  -0.000067  -0.000002   0.000000   0.000067   0.002595
     4  O    0.000001   0.001657   0.000018  -0.000000   0.000520  -0.059982
     5  H    0.000084   0.005076   0.000239   0.000023   0.001204   0.007641
     6  C   -0.000961   0.005228  -0.014642   0.000500   0.000774   0.000394
     7  C   -0.038391  -0.035108  -0.047967  -0.008967   0.002766   0.000713
     8  H    0.000084  -0.000007   0.007757  -0.000534   0.000122  -0.000001
     9  H    0.006395  -0.006272   0.006946  -0.000722   0.000341   0.002339
    10  O   -0.011748  -0.000091   0.000455   0.037584   0.000000   0.000000
    11  H    0.001785   0.000008   0.000124  -0.001921  -0.000000  -0.000001
    12  C    0.265259   0.373717   0.344266  -0.031988  -0.000084  -0.000062
    13  O    8.247769  -0.035271  -0.035212   0.230632   0.000001   0.000000
    14  H   -0.035271   0.572015  -0.046581   0.006111  -0.000002   0.000014
    15  H   -0.035212  -0.046581   0.661062  -0.004213   0.000009   0.000002
    16  H    0.230632   0.006111  -0.004213   0.366712  -0.000000   0.000000
    17  H    0.000001  -0.000002   0.000009  -0.000000   0.649491  -0.051267
    18  O    0.000000   0.000014   0.000002   0.000000  -0.051267   8.296328
    19  H    0.000000   0.000001   0.000000   0.000000  -0.001675   0.084133
    20  O   -0.000000  -0.000000  -0.000001   0.000005   0.000000   0.000000
    21  H    0.000000   0.000000   0.000000  -0.000003  -0.000000  -0.000000
    22  H    0.000012   0.000001  -0.000006   0.000032  -0.000000  -0.000000
    23  C    0.000007  -0.000140  -0.000021   0.000300  -0.001281   0.002491
    24  H    0.000001   0.000005  -0.000004  -0.000001  -0.000167  -0.000093
    25  C    0.000008   0.000021   0.000004  -0.000020  -0.076012  -0.062094
    26  H   -0.000000  -0.000000  -0.000001   0.000000   0.003198  -0.001664
    27  O   -0.000002   0.000001  -0.000007  -0.000001   0.002797  -0.024883
    28  H   -0.000000  -0.000001  -0.000000  -0.000000   0.002620   0.059464
    29  O    0.000000   0.000001  -0.000016  -0.000004   0.003601   0.000014
    30  H    0.000000  -0.000000   0.000000  -0.000001  -0.000034   0.000001
              19         20         21         22         23         24
     1  C   -0.012031  -0.000000   0.000000  -0.000003  -0.028039   0.006319
     2  O    0.006146   0.000000  -0.000000  -0.000010   0.003744   0.000097
     3  H   -0.007161  -0.000000   0.000000   0.000000  -0.000002   0.000000
     4  O    0.181331  -0.000000  -0.000000  -0.000000   0.000024  -0.000000
     5  H   -0.015790   0.000000   0.000000   0.000000  -0.000053   0.000006
     6  C    0.000010   0.006396   0.000119  -0.006966   0.293259  -0.075654
     7  C   -0.000268   0.000188   0.000003   0.000589  -0.039215   0.003965
     8  H    0.000001   0.004226   0.000583  -0.002795  -0.045572   0.005230
     9  H   -0.000062  -0.000000   0.000000  -0.000023  -0.007520   0.000173
    10  O   -0.000000  -0.014709   0.000369   0.048001  -0.025971   0.001275
    11  H    0.000000   0.000528   0.000004  -0.002158  -0.005497   0.006821
    12  C    0.000024  -0.000003  -0.000000  -0.000011   0.003462  -0.000181
    13  O    0.000000  -0.000000   0.000000   0.000012   0.000007   0.000001
    14  H    0.000001  -0.000000   0.000000   0.000001  -0.000140   0.000005
    15  H    0.000000  -0.000001   0.000000  -0.000006  -0.000021  -0.000004
    16  H    0.000000   0.000005  -0.000003   0.000032   0.000300  -0.000001
    17  H   -0.001675   0.000000  -0.000000  -0.000000  -0.001281  -0.000167
    18  O    0.084133   0.000000  -0.000000  -0.000000   0.002491  -0.000093
    19  H    0.315447  -0.000000   0.000000   0.000000  -0.000077   0.000002
    20  O   -0.000000   8.310821   0.242595   0.217675   0.000477   0.001025
    21  H    0.000000   0.242595   0.374170  -0.015893  -0.000211  -0.000041
    22  H    0.000000   0.217675  -0.015893   0.337657   0.000220   0.000551
    23  C   -0.000077   0.000477  -0.000211   0.000220   4.947694   0.358175
    24  H    0.000002   0.001025  -0.000041   0.000551   0.358175   0.646271
    25  C    0.002376   0.000053  -0.000004   0.000025   0.307822  -0.043517
    26  H   -0.000056   0.000002  -0.000000  -0.000003  -0.049222  -0.007722
    27  O    0.000073   0.000000  -0.000000  -0.000004  -0.048165   0.003489
    28  H   -0.000729  -0.000000   0.000000   0.000000   0.007471  -0.000393
    29  O    0.000000  -0.017907   0.000910   0.002151   0.228174  -0.032760
    30  H   -0.000000   0.054411  -0.002262  -0.005358  -0.025066  -0.005224
              25         26         27         28         29         30
     1  C    0.277550  -0.044019  -0.025250  -0.013742   0.003967  -0.000155
     2  O   -0.013534   0.001775  -0.000821   0.000192  -0.000304  -0.000013
     3  H    0.000028   0.000000   0.000000  -0.000004   0.000000  -0.000000
     4  O   -0.000193   0.000001  -0.000008   0.000203  -0.000000   0.000000
     5  H    0.001662  -0.000103  -0.000236  -0.000019   0.000016   0.000001
     6  C   -0.031910   0.006257   0.003825  -0.000187  -0.050038   0.000756
     7  C   -0.000997   0.000190  -0.005240   0.000705   0.003276   0.000100
     8  H    0.000787  -0.000257   0.000039   0.000010   0.005418   0.001763
     9  H   -0.005510   0.000293   0.018383  -0.000073   0.000009  -0.000002
    10  O    0.001856  -0.000086  -0.000426   0.000015   0.001563   0.000097
    11  H   -0.000286  -0.000005   0.001630  -0.000038  -0.000024  -0.000034
    12  C    0.000237   0.000014   0.000398  -0.000031  -0.000052  -0.000002
    13  O    0.000008  -0.000000  -0.000002  -0.000000   0.000000   0.000000
    14  H    0.000021  -0.000000   0.000001  -0.000001   0.000001  -0.000000
    15  H    0.000004  -0.000001  -0.000007  -0.000000  -0.000016   0.000000
    16  H   -0.000020   0.000000  -0.000001  -0.000000  -0.000004  -0.000001
    17  H   -0.076012   0.003198   0.002797   0.002620   0.003601  -0.000034
    18  O   -0.062094  -0.001664  -0.024883   0.059464   0.000014   0.000001
    19  H    0.002376  -0.000056   0.000073  -0.000729   0.000000  -0.000000
    20  O    0.000053   0.000002   0.000000  -0.000000  -0.017907   0.054411
    21  H   -0.000004  -0.000000  -0.000000   0.000000   0.000910  -0.002262
    22  H    0.000025  -0.000003  -0.000004   0.000000   0.002151  -0.005358
    23  C    0.307822  -0.049222  -0.048165   0.007471   0.228174  -0.025066
    24  H   -0.043517  -0.007722   0.003489  -0.000393  -0.032760  -0.005224
    25  C    5.078996   0.350071   0.223905  -0.052112  -0.046201   0.005383
    26  H    0.350071   0.609149  -0.033350   0.001392   0.007513  -0.000135
    27  O    0.223905  -0.033350   8.325826   0.221357   0.001259  -0.000105
    28  H   -0.052112   0.001392   0.221357   0.359931  -0.000110   0.000008
    29  O   -0.046201   0.007513   0.001259  -0.000110   8.336541   0.221020
    30  H    0.005383  -0.000135  -0.000105   0.000008   0.221020   0.325070
 Mulliken charges:
               1
     1  C    0.307324
     2  O   -0.648670
     3  H    0.404050
     4  O   -0.812145
     5  H    0.465741
     6  C    0.084769
     7  C    0.083863
     8  H    0.159515
     9  H    0.162857
    10  O   -0.658706
    11  H    0.418753
    12  C   -0.044391
    13  O   -0.632025
    14  H    0.159961
    15  H    0.122188
    16  H    0.406448
    17  H    0.143144
    18  O   -0.595989
    19  H    0.448302
    20  O   -0.805780
    21  H    0.399661
    22  H    0.426318
    23  C    0.122733
    24  H    0.132355
    25  C    0.081607
    26  H    0.156767
    27  O   -0.664484
    28  H    0.414071
    29  O   -0.668019
    30  H    0.429780
 Sum of Mulliken charges =  -0.00000
 Mulliken charges with hydrogens summed into heavy atoms:
               1
     1  C    0.450468
     2  O   -0.182929
     4  O    0.040207
     6  C    0.244285
     7  C    0.246720
    10  O   -0.239953
    12  C    0.237759
    13  O   -0.225577
    18  O   -0.595989
    20  O    0.020200
    23  C    0.255088
    25  C    0.238374
    27  O   -0.250413
    29  O   -0.238239
 Electronic spatial extent (au):  <R**2>=           3176.2822
 Charge=              0.0000 electrons
 Dipole moment (field-independent basis, Debye):
    X=              0.9644    Y=              1.1339    Z=             -2.2958  Tot=              2.7361
 Quadrupole moment (field-independent basis, Debye-Ang):
   XX=            -74.5682   YY=            -98.0251   ZZ=            -79.5461
   XY=              5.9084   XZ=              5.3734   YZ=             -3.0902
 Traceless Quadrupole moment (field-independent basis, Debye-Ang):
   XX=              9.4782   YY=            -13.9786   ZZ=              4.5004
   XY=              5.9084   XZ=              5.3734   YZ=             -3.0902
 Octapole moment (field-independent basis, Debye-Ang**2):
  XXX=              5.8462  YYY=            -34.1772  ZZZ=             -6.8528  XYY=             -1.3434
  XXY=             29.0059  XXZ=            -45.9510  XZZ=              1.3984  YZZ=              9.9625
  YYZ=            -10.0671  XYZ=             -1.5663
 Hexadecapole moment (field-independent basis, Debye-Ang**3):
 XXXX=          -1767.9461 YYYY=          -1510.5815 ZZZZ=           -373.8297 XXXY=             93.6943
 XXXZ=             17.5474 YYYX=              3.6532 YYYZ=            -41.1955 ZZZX=             11.4796
 ZZZY=             15.9013 XXYY=           -578.0115 XXZZ=           -257.4219 YYZZ=           -301.1317
 XXYZ=            -13.7705 YYXZ=             14.5494 ZZXY=              7.8207
 N-N= 1.112049530633D+03 E-N=-4.196256840548D+03  KE= 8.330212115202D+02
 Calling FoFJK, ICntrl=      2127 FMM=F ISym2X=0 I1Cent= 0 IOpClX= 0 NMat=1 NMatS=1 NMatT=0.
 ***** Axes restored to original set *****
 -------------------------------------------------------------------
 Center     Atomic                   Forces (Hartrees/Bohr)
 Number     Number              X              Y              Z
 -------------------------------------------------------------------
      1        6          -0.002854453   -0.016433265    0.003551955
      2        8           0.007881903    0.008575167   -0.007067081
      3        1          -0.000863776    0.000590958   -0.000111941
      4        8          -0.012901245    0.008722092   -0.002851523
      5        1           0.001384140    0.000094740   -0.000213024
      6        6           0.000231083    0.000935535    0.000091701
      7        6           0.001397221    0.002356362   -0.000705937
      8        1           0.000031114    0.000052905    0.000011089
      9        1          -0.000045554    0.000040433   -0.000116361
     10        8           0.000591818   -0.000020894    0.000215386
     11        1          -0.000003490    0.000034130    0.000012084
     12        6           0.001604186    0.002030244    0.001038698
     13        8           0.001227965    0.002574940    0.001210716
     14        1           0.000099972    0.000094811    0.000076298
     15        1           0.000095358    0.000171605    0.000068830
     16        1           0.000064617    0.000144979    0.000088620
     17        1          -0.000263618   -0.000460330    0.000096848
     18        8           0.001148581   -0.007990476    0.002698586
     19        1          -0.001204090    0.000754082   -0.000271483
     20        8           0.000016987    0.000007071    0.000002636
     21        1          -0.000002726   -0.000010736   -0.000006381
     22        1          -0.000011900    0.000007967   -0.000014764
     23        6          -0.000346412    0.000691949   -0.000488019
     24        1          -0.000011202    0.000079065   -0.000041981
     25        6           0.001342355   -0.002995092    0.001704508
     26        1           0.000677505   -0.000235266    0.000457650
     27        8           0.000690483   -0.000147276    0.000567047
     28        1           0.000073564    0.000044843    0.000118364
     29        8          -0.000038858    0.000255618   -0.000117822
     30        1          -0.000011528    0.000033838   -0.000004699
 -------------------------------------------------------------------
 Cartesian Forces:  Max     0.016433265 RMS     0.003069540

 GradGradGradGradGradGradGradGradGradGradGradGradGradGradGradGradGradGrad
 Berny optimization.
 FormGI is forming the generalized inverse of G from B-inverse, IUseBI=4.
 Internal  Forces:  Max     0.016322699 RMS     0.004058883
 Search for a local minimum.
 Step number   1 out of a maximum of  180
 All quantities printed in internal units (Hartrees-Bohrs-Radians)
 Mixed Optimization -- RFO/linear search
 Second derivative matrix not updated -- first step.
 ITU=  0
     Eigenvalues ---    0.00339   0.00381   0.00447   0.00485   0.00587
     Eigenvalues ---    0.00592   0.00742   0.00780   0.01428   0.01497
     Eigenvalues ---    0.01541   0.01635   0.02372   0.02715   0.03366
     Eigenvalues ---    0.03842   0.04151   0.04430   0.04611   0.04766
     Eigenvalues ---    0.04910   0.04997   0.05104   0.05291   0.05808
     Eigenvalues ---    0.05982   0.06115   0.06316   0.06706   0.07206
     Eigenvalues ---    0.07898   0.08311   0.08701   0.08897   0.09444
     Eigenvalues ---    0.10127   0.11104   0.11533   0.11728   0.12597
     Eigenvalues ---    0.13935   0.14592   0.15197   0.15941   0.16000
     Eigenvalues ---    0.16000   0.16131   0.17124   0.18026   0.18531
     Eigenvalues ---    0.18945   0.20281   0.20429   0.21055   0.21970
     Eigenvalues ---    0.22040   0.22765   0.25881   0.28328   0.29220
     Eigenvalues ---    0.29378   0.29507   0.33274   0.33282   0.33402
     Eigenvalues ---    0.33804   0.34147   0.34168   0.34390   0.37452
     Eigenvalues ---    0.39922   0.41924   0.42670   0.43270   0.43788
     Eigenvalues ---    0.45753   0.49807   0.50562   0.50896   0.52705
     Eigenvalues ---    0.52725   0.53444   0.53627   0.76071
 RFO step:  Lambda=-2.12628260D-02 EMin= 3.39188803D-03
 Linear search not attempted -- first point.
 Iteration  1 RMS(Cart)=  0.12072043 RMS(Int)=  0.00422328
 Iteration  2 RMS(Cart)=  0.01157253 RMS(Int)=  0.00069704
 Iteration  3 RMS(Cart)=  0.00009145 RMS(Int)=  0.00069567
 Iteration  4 RMS(Cart)=  0.00000007 RMS(Int)=  0.00069567
 Variable       Old X    -DE/DX   Delta X   Delta X   Delta X     New X
                                 (Linear)    (Quad)   (Total)
    R1        2.07662   0.00003   0.00000   0.00009   0.00009   2.07671
    R2        2.39066   0.00057   0.00000   0.00080   0.00042   2.39108
    R3        2.88815   0.00179   0.00000   0.00839   0.00843   2.89658
    R4        1.94655   0.00744   0.00000   0.01532   0.01558   1.96213
    R5        2.70304   0.00310   0.00000   0.00578   0.00552   2.70856
    R6        1.83241   0.00047   0.00000   0.00084   0.00084   1.83325
    R7        2.78486   0.01175   0.00000   0.08019   0.08041   2.86527
    R8        1.90498   0.01632   0.00000   0.03494   0.03488   1.93986
    R9        2.89705   0.00219   0.00000   0.00544   0.00577   2.90281
   R10        2.06677   0.00001   0.00000   0.00002   0.00002   2.06679
   R11        2.73597   0.00064   0.00000   0.00212   0.00220   2.73817
   R12        2.94408   0.01249   0.00000   0.03995   0.04013   2.98420
   R13        2.07047  -0.00010   0.00000  -0.00027  -0.00027   2.07020
   R14        2.88957   0.00418   0.00000   0.01323   0.01323   2.90280
   R15        1.83930   0.00001   0.00000   0.00001   0.00001   1.83932
   R16        3.71336  -0.00044   0.00000  -0.00511  -0.00510   3.70826
   R17        2.66709   0.00303   0.00000   0.00661   0.00661   2.67370
   R18        2.07084  -0.00006   0.00000  -0.00018  -0.00018   2.07066
   R19        2.08560  -0.00001   0.00000  -0.00004  -0.00004   2.08556
   R20        1.83912   0.00001   0.00000   0.00001   0.00001   1.83913
   R21        2.93773   0.01583   0.00000   0.13642   0.13629   3.07402
   R22        1.83073  -0.00001   0.00000  -0.00002  -0.00002   1.83072
   R23        1.84931  -0.00051   0.00000  -0.00091  -0.00093   1.84838
   R24        3.62466  -0.00033   0.00000  -0.00521  -0.00527   3.61938
   R25        2.08351  -0.00005   0.00000  -0.00015  -0.00015   2.08336
   R26        2.88954   0.00777   0.00000   0.02496   0.02479   2.91432
   R27        2.66781   0.00012   0.00000   0.00066   0.00070   2.66852
   R28        2.08573   0.00025   0.00000   0.00070   0.00070   2.08643
   R29        2.67338   0.00047   0.00000   0.00105   0.00105   2.67443
   R30        1.85671  -0.00006   0.00000  -0.00012  -0.00012   1.85659
   R31        1.85495  -0.00016   0.00000  -0.00030  -0.00034   1.85461
    A1        2.11155  -0.00481   0.00000   0.00893   0.00522   2.11677
    A2        2.01382  -0.00279   0.00000   0.01081   0.00753   2.02135
    A3        1.99806   0.01280   0.00000   0.05448   0.05219   2.05024
    A4        1.94951   0.01448   0.00000   0.07187   0.07193   2.02144
    A5        1.96295   0.00003   0.00000   0.00097  -0.00029   1.96266
    A6        1.85438  -0.00064   0.00000   0.00965   0.00996   1.86434
    A7        1.55854   0.00911   0.00000   0.09060   0.08917   1.64771
    A8        2.76599  -0.00714   0.00000  -0.00905  -0.00997   2.75602
    A9        1.87137  -0.00207   0.00000  -0.00873  -0.00920   1.86217
   A10        1.93605  -0.00244   0.00000  -0.02023  -0.02036   1.91569
   A11        2.00579   0.00611   0.00000   0.04550   0.04539   2.05118
   A12        1.82673   0.00066   0.00000  -0.00671  -0.00670   1.82003
   A13        1.86359   0.00091   0.00000   0.01248   0.01186   1.87544
   A14        1.94802  -0.00344   0.00000  -0.02495  -0.02442   1.92359
   A15        1.81169  -0.00360   0.00000  -0.01602  -0.01598   1.79572
   A16        1.93332   0.00160   0.00000   0.01143   0.01082   1.94414
   A17        1.88590   0.00203   0.00000   0.01857   0.01893   1.90482
   A18        1.93464  -0.00181   0.00000  -0.01683  -0.01688   1.91776
   A19        1.98061   0.00306   0.00000   0.00802   0.00794   1.98855
   A20        1.91495  -0.00119   0.00000  -0.00403  -0.00403   1.91092
   A21        1.87436   0.00044   0.00000   0.00215   0.00191   1.87627
   A22        1.67114   0.00078   0.00000   0.00901   0.00908   1.68022
   A23        2.00866   0.00133   0.00000   0.00547   0.00542   2.01408
   A24        1.95145   0.00238   0.00000   0.01030   0.01030   1.96175
   A25        1.90254  -0.00046   0.00000  -0.00170  -0.00170   1.90084
   A26        1.90109  -0.00045   0.00000  -0.00099  -0.00100   1.90009
   A27        1.86453  -0.00084   0.00000  -0.00369  -0.00369   1.86084
   A28        1.96447  -0.00090   0.00000  -0.00347  -0.00348   1.96098
   A29        1.87721   0.00020   0.00000  -0.00089  -0.00090   1.87631
   A30        1.85384   0.00033   0.00000   0.00180   0.00180   1.85564
   A31        1.92599  -0.00405   0.00000   0.01533   0.01372   1.93971
   A32        2.58054   0.01175   0.00000   0.06869   0.06686   2.64739
   A33        1.83219  -0.00050   0.00000   0.00017   0.00010   1.83229
   A34        2.02936   0.00091   0.00000   0.00206   0.00194   2.03129
   A35        1.75588   0.00030   0.00000  -0.00164  -0.00186   1.75402
   A36        2.66509   0.00019   0.00000   0.00001  -0.00010   2.66499
   A37        1.86435  -0.00385   0.00000  -0.03883  -0.03797   1.82639
   A38        1.99152   0.01138   0.00000   0.07844   0.07801   2.06953
   A39        1.94811  -0.00105   0.00000   0.00459   0.00366   1.95177
   A40        1.83281  -0.00386   0.00000  -0.03428  -0.03283   1.79998
   A41        1.93073   0.00180   0.00000  -0.00432  -0.00489   1.92584
   A42        1.89282  -0.00454   0.00000  -0.00942  -0.01160   1.88122
   A43        2.06022   0.00142   0.00000   0.01860   0.01719   2.07741
   A44        1.82600  -0.00173   0.00000  -0.01482  -0.01453   1.81147
   A45        1.89433   0.00233   0.00000   0.01203   0.01263   1.90697
   A46        1.85740   0.00136   0.00000   0.00065   0.00106   1.85846
   A47        1.88438  -0.00342   0.00000  -0.01331  -0.01308   1.87129
   A48        1.94074   0.00009   0.00000  -0.00410  -0.00431   1.93643
   A49        1.80178   0.00024   0.00000   0.00131   0.00131   1.80310
   A50        1.83758   0.00021   0.00000   0.00681   0.00699   1.84456
   A51        2.66607   0.00098   0.00000   0.00316   0.00316   2.66924
    D1       -1.24808  -0.00162   0.00000  -0.01516  -0.01521  -1.26330
    D2        2.49799  -0.00987   0.00000  -0.14557  -0.14664   2.35135
    D3        1.08144  -0.00001   0.00000   0.01286   0.01220   1.09365
    D4       -0.97863  -0.00127   0.00000   0.01225   0.01185  -0.96678
    D5       -3.05190  -0.00160   0.00000   0.01901   0.01851  -3.03338
    D6       -2.62977   0.00663   0.00000   0.13392   0.13452  -2.49525
    D7        1.59334   0.00537   0.00000   0.13332   0.13417   1.72751
    D8       -0.47992   0.00504   0.00000   0.14007   0.14083  -0.33910
    D9       -2.03490  -0.00042   0.00000   0.05299   0.05536  -1.97954
   D10       -3.13476  -0.00860   0.00000  -0.16319  -0.16320   2.98522
   D11        1.07115  -0.00520   0.00000  -0.13986  -0.13952   0.93163
   D12       -1.02691  -0.00598   0.00000  -0.15343  -0.15348  -1.18039
   D13       -1.77812  -0.00150   0.00000   0.03007   0.03061  -1.74750
   D14        0.09500   0.00172   0.00000   0.07958   0.08144   0.17645
   D15        2.12049   0.00118   0.00000   0.04211   0.04340   2.16390
   D16        0.14413  -0.00163   0.00000   0.01175   0.01171   0.15584
   D17        1.11332   0.00054   0.00000  -0.04383  -0.04345   1.06986
   D18       -3.09350  -0.00052   0.00000  -0.04779  -0.04769  -3.14119
   D19       -0.92946  -0.00121   0.00000  -0.06025  -0.06022  -0.98968
   D20        3.09812  -0.00106   0.00000  -0.06685  -0.06618   3.03194
   D21       -1.10870  -0.00213   0.00000  -0.07082  -0.07042  -1.17912
   D22        1.05534  -0.00281   0.00000  -0.08327  -0.08294   0.97240
   D23       -0.95499  -0.00285   0.00000  -0.08098  -0.08044  -1.03543
   D24        1.12138  -0.00392   0.00000  -0.08494  -0.08468   1.03670
   D25       -2.99777  -0.00460   0.00000  -0.09739  -0.09720  -3.09497
   D26        1.25711   0.00259   0.00000   0.02460   0.02470   1.28181
   D27       -2.95678   0.00449   0.00000   0.03486   0.03494  -2.92184
   D28       -3.01332  -0.00062   0.00000   0.00121   0.00126  -3.01206
   D29       -0.94402   0.00128   0.00000   0.01147   0.01150  -0.93252
   D30       -1.00403  -0.00082   0.00000   0.00028   0.00013  -1.00390
   D31        1.06527   0.00108   0.00000   0.01054   0.01037   1.07564
   D32       -2.06426   0.00083   0.00000  -0.00731  -0.00646  -2.07072
   D33       -0.04707  -0.00012   0.00000  -0.03111  -0.03072  -0.07779
   D34        2.10643   0.00172   0.00000   0.02030   0.02118   2.12761
   D35        2.14626  -0.00086   0.00000  -0.03228  -0.03215   2.11411
   D36       -2.11973  -0.00181   0.00000  -0.05609  -0.05641  -2.17614
   D37        0.03377   0.00003   0.00000  -0.00467  -0.00451   0.02926
   D38        0.15977  -0.00042   0.00000  -0.01880  -0.01851   0.14126
   D39        2.17696  -0.00137   0.00000  -0.04260  -0.04277   2.13419
   D40       -1.95273   0.00047   0.00000   0.00881   0.00913  -1.94360
   D41        3.05484   0.00126   0.00000   0.00734   0.00712   3.06196
   D42        0.99738   0.00115   0.00000   0.00678   0.00655   1.00393
   D43       -1.04621   0.00143   0.00000   0.00936   0.00914  -1.03707
   D44       -1.22941  -0.00017   0.00000   0.00382   0.00398  -1.22542
   D45        2.99631  -0.00028   0.00000   0.00326   0.00342   2.99974
   D46        0.95273  -0.00000   0.00000   0.00583   0.00600   0.95873
   D47        0.94530  -0.00122   0.00000  -0.01555  -0.01550   0.92981
   D48       -1.11216  -0.00133   0.00000  -0.01611  -0.01606  -1.12822
   D49        3.12743  -0.00105   0.00000  -0.01353  -0.01347   3.11396
   D50       -0.11601  -0.00138   0.00000  -0.01281  -0.01247  -0.12848
   D51        1.84336  -0.00005   0.00000  -0.00378  -0.00357   1.83979
   D52        0.94602   0.00011   0.00000   0.00142   0.00142   0.94744
   D53        3.02609   0.00037   0.00000   0.00290   0.00289   3.02898
   D54       -1.20054  -0.00041   0.00000  -0.00245  -0.00244  -1.20298
   D55       -0.53611  -0.00296   0.00000  -0.10088  -0.10035  -0.63646
   D56        1.92019  -0.00112   0.00000  -0.01111  -0.01101   1.90918
   D57       -0.19309  -0.00206   0.00000  -0.01275  -0.01239  -0.20548
   D58       -2.11465  -0.00079   0.00000  -0.00477  -0.00480  -2.11945
   D59       -0.14796  -0.00083   0.00000  -0.00473  -0.00503  -0.15299
   D60        0.89534   0.00355   0.00000   0.10012   0.10058   0.99592
   D61        2.93870   0.00320   0.00000   0.09281   0.09307   3.03177
   D62       -1.25950   0.00226   0.00000   0.08141   0.08186  -1.17764
   D63        2.93089   0.00238   0.00000   0.07233   0.07222   3.00311
   D64       -1.30893   0.00204   0.00000   0.06501   0.06471  -1.24422
   D65        0.77605   0.00109   0.00000   0.05361   0.05350   0.82955
   D66       -1.28779   0.00026   0.00000   0.04483   0.04496  -1.24283
   D67        0.75557  -0.00009   0.00000   0.03751   0.03745   0.79302
   D68        2.84055  -0.00103   0.00000   0.02611   0.02624   2.86680
   D69        1.15918  -0.00188   0.00000  -0.01875  -0.01840   1.14078
   D70       -0.91422   0.00245   0.00000   0.02987   0.02976  -0.88446
   D71       -2.91551   0.00867   0.00000   0.07858   0.07758  -2.83792
   D72        0.40724  -0.00057   0.00000  -0.01211  -0.01153   0.39571
   D73        2.65959   0.00044   0.00000   0.01038   0.00976   2.66935
   D74       -1.59217   0.00010   0.00000   0.00099   0.00104  -1.59113
   D75       -0.16748   0.00174   0.00000   0.02524   0.02460  -0.14288
         Item               Value     Threshold  Converged?
 Maximum Force            0.016323     0.000450     NO 
 RMS     Force            0.004059     0.000300     NO 
 Maximum Displacement     0.654136     0.001800     NO 
 RMS     Displacement     0.124438     0.001200     NO 
 Predicted change in Energy=-1.437732D-02
 GradGradGradGradGradGradGradGradGradGradGradGradGradGradGradGradGradGrad

                          Input orientation:                          
 ---------------------------------------------------------------------
 Center     Atomic      Atomic             Coordinates (Angstroms)
 Number     Number       Type             X           Y           Z
 ---------------------------------------------------------------------
      1          6           0       -1.558856   -1.651279   -0.305187
      2          8           0       -1.130653    0.529607   -0.969537
      3          1           0       -4.095623    0.495747   -1.604373
      4          8           0       -3.629518    0.613622   -0.761771
      5          1           0       -2.135139    0.791482   -0.946599
      6          6           0        1.030779    0.400608   -0.128325
      7          6           0       -0.300163    1.153441    0.018129
      8          1           0        1.382915    0.580457   -1.148045
      9          1           0       -0.701315    1.008054    1.027120
     10          8           0        2.037574    1.017546    0.711492
     11          1           0        1.833274    0.782990    1.633775
     12          6           0       -0.202297    2.656600   -0.282752
     13          8           0        0.519304    3.359466    0.710776
     14          1           0       -1.211839    3.082369   -0.297000
     15          1           0        0.229192    2.791700   -1.289513
     16          1           0        1.379269    2.911240    0.792739
     17          1           0       -1.506816   -2.065704   -1.321666
     18          8           0       -2.664172   -1.527591    0.298115
     19          1           0       -3.546148   -0.316616   -0.335777
     20          8           0        3.975438   -0.587077   -0.662658
     21          1           0        4.385055   -0.078611   -1.378339
     22          1           0        3.573904    0.083050   -0.074085
     23          6           0        1.014035   -1.162125    0.098321
     24          1           0        1.687311   -1.326647    0.955681
     25          6           0       -0.300915   -1.827550    0.552718
     26          1           0       -0.122337   -2.916995    0.537228
     27          8           0       -0.565818   -1.376858    1.867869
     28          1           0       -1.544084   -1.437812    1.935105
     29          8           0        1.482483   -1.862117   -1.035103
     30          1           0        2.428020   -1.615769   -1.127028
 ---------------------------------------------------------------------
                    Distance matrix (angstroms):
                    1          2          3          4          5
     1  C    0.000000
     2  O    2.319695   0.000000
     3  H    3.568304   3.032360   0.000000
     4  O    3.102561   2.508894   0.970117   0.000000
     5  H    2.590481   1.038315   2.088928   1.516233   0.000000
     6  C    3.308736   2.322944   5.335519   4.707971   3.293234
     7  C    3.091165   1.433307   4.179784   3.461828   2.104484
     8  H    3.787489   2.520411   5.498162   5.027404   3.530130
     9  H    3.095557   2.097590   4.325337   3.453995   2.449147
    10  O    4.592448   3.619614   6.576595   5.869377   4.495765
    11  H    4.603453   3.953011   6.761651   5.967362   4.733571
    12  C    4.516479   2.420252   4.644777   4.018590   2.766810
    13  O    5.518922   3.681564   5.904096   5.188523   4.048148
    14  H    4.746358   2.641116   4.088526   3.486531   2.553943
    15  H    4.889385   2.658690   4.906583   4.462307   3.115851
    16  H    5.536660   3.882976   6.446332   5.725688   4.457548
    17  H    1.098947   2.645965   3.652790   3.463832   2.949403
    18  O    1.265305   2.861937   3.124485   2.576827   2.684639
    19  H    2.394075   2.636733   1.603493   1.026530   1.895239
    20  O    5.647010   5.235774   8.197644   7.699796   6.270582
    21  H    6.241396   5.564179   8.503110   8.068006   6.592147
    22  H    5.422778   4.809792   7.831586   7.255598   5.818619
    23  C    2.649878   2.932910   5.635273   5.045356   3.850420
    24  H    3.497538   3.884980   6.581590   5.914639   4.766159
    25  C    1.532804   2.926074   4.944750   4.332066   3.531523
    26  H    2.091718   3.894368   5.658645   5.143245   4.472797
    27  O    2.404912   3.464754   5.293641   4.501475   3.884031
    28  H    2.250487   3.532507   4.772515   3.978763   3.690977
    29  O    3.134800   3.543038   6.082668   5.686523   4.487383
    30  H    4.070855   4.158316   6.873446   6.465087   5.162347
                    6          7          8          9         10
     6  C    0.000000
     7  C    1.536103   0.000000
     8  H    1.093697   2.126270   0.000000
     9  H    2.168916   1.095502   3.042729   0.000000
    10  O    1.448980   2.442178   2.019283   2.757032   0.000000
    11  H    1.973628   2.701684   2.825308   2.615879   0.973324
    12  C    2.575621   1.536097   2.751726   2.163906   2.948227
    13  O    3.117778   2.453126   3.453104   2.668168   2.791009
    14  H    3.499947   2.156669   3.703591   2.513307   3.979854
    15  H    2.776368   2.161952   2.498136   3.068229   3.228295
    16  H    2.696864   2.551542   3.033019   2.829467   2.006500
    17  H    3.734454   3.689710   3.922098   3.951407   5.118873
    18  O    4.189566   3.585368   4.786873   3.288427   5.362371
    19  H    4.637425   3.580886   5.075449   3.421303   5.835642
    20  O    3.151516   4.666223   2.884426   5.222242   2.866779
    21  H    3.611559   5.041760   3.082248   5.730466   3.328607
    22  H    2.563448   4.020277   2.490228   4.510630   1.962326
    23  C    1.579172   2.663718   2.173958   2.918008   2.484870
    24  H    2.142316   3.313593   2.855761   3.340879   2.382763
    25  C    2.683639   3.028547   3.395051   2.902762   3.686233
    26  H    3.574791   4.107255   4.163905   3.997652   4.491793
    27  O    3.113407   3.145557   4.089546   2.532395   3.721294
    28  H    3.777228   3.454957   4.706011   2.741707   4.511572
    29  O    2.479155   3.657966   2.447210   4.154470   3.413383
    30  H    2.648673   4.052517   2.432303   4.617092   3.235268
                   11         12         13         14         15
    11  H    0.000000
    12  C    3.365567   0.000000
    13  O    3.035897   1.414859   0.000000
    14  H    4.276418   1.095745   2.022189   0.000000
    15  H    3.892763   1.103632   2.099447   1.773737   0.000000
    16  H    2.333005   1.929475   0.973224   2.816142   2.381751
    17  H    5.292058   5.008120   6.137463   5.257339   5.158404
    18  O    5.229703   4.889345   5.847062   4.869822   5.435843
    19  H    5.833219   4.474837   5.580031   4.123543   4.982413
    20  O    3.426303   5.302758   5.422766   6.364463   5.083645
    21  H    4.040640   5.452109   5.579320   6.518153   5.051512
    22  H    2.537024   4.574538   4.547691   5.652339   4.472264
    23  C    2.610027   4.025834   4.589624   4.809004   4.263191
    24  H    2.220740   4.579367   4.835688   5.423441   4.912006
    25  C    3.540955   4.562383   5.253844   5.065482   5.001230
    26  H    4.326282   5.634157   6.311560   6.154293   6.004145
    27  O    3.236570   4.585424   4.994910   4.998871   5.289422
    28  H    4.053308   4.845977   5.363807   5.052199   5.606375
    29  O    3.773930   4.880914   5.589341   5.679094   4.826332
    30  H    3.705374   5.087682   5.636815   6.000835   4.928187
                   16         17         18         19         20
    16  H    0.000000
    17  H    6.129451   0.000000
    18  O    6.024723   2.062214   0.000000
    19  H    5.996027   2.861846   1.626702   0.000000
    20  O    4.593092   5.716270   6.774369   7.533543   0.000000
    21  H    4.763144   6.218190   7.389293   8.002973   0.968774
    22  H    3.683268   5.655733   6.453393   7.136060   0.978120
    23  C    4.148243   3.031089   3.701714   4.658175   3.111219
    24  H    4.252192   3.991862   4.405472   5.484262   2.898536
    25  C    5.033563   2.241479   2.395785   3.688344   4.615529
    26  H    6.023989   2.469203   2.906638   4.387094   4.864156
    27  O    4.829810   3.396045   2.624869   3.855196   5.258359
    28  H    5.363324   3.316955   1.985547   3.228351   6.159322
    29  O    5.112396   3.009895   4.368538   5.307048   2.824760
    30  H    5.027842   3.965256   5.288594   6.164784   1.915294
                   21         22         23         24         25
    21  H    0.000000
    22  H    1.544403   0.000000
    23  C    3.836445   2.851861   0.000000
    24  H    3.779295   2.570388   1.102468   0.000000
    25  C    5.361537   4.365489   1.542193   2.089576   0.000000
    26  H    5.660601   4.799601   2.136247   2.445228   1.104093
    27  O    6.060896   4.799981   2.381879   2.431296   1.415246
    28  H    6.926834   5.704705   3.161289   3.378393   1.899568
    29  O    3.423979   3.013515   1.412120   2.071691   2.388069
    30  H    2.501200   2.303850   1.925260   2.229332   3.211461
                   26         27         28         29         30
    26  H    0.000000
    27  O    2.083100   0.000000
    28  H    2.482621   0.982466   0.000000
    29  O    2.482023   3.585841   4.261721   0.000000
    30  H    3.311685   4.241409   5.018559   0.981416   0.000000
 Stoichiometry    C6H16O8
 Framework group  C1[X(C6H16O8)]
 Deg. of freedom    84
[...]
 .00030740,-0.00016797,0.00070640,0.00052236,0.00019442,-0.00009486,-0.
 00007596,0.00003698,0.00001649,-0.00027681,-0.00009464,0.00001886,-0.0
 4975463,0.00079820,0.00277561,0.06500280,0.00158598,-0.00040784,0.0008
 6096,0.00034475,0.00011371,0.00048773,-0.00000618,-0.00001291,-0.00002
 003,-0.00001155,0.00007571,0.00019085,0.00004864,0.00004530,-0.0000102
 7,-0.00823917,0.00120986,-0.01600610,0.00097272,0.00104241,-0.00092222
 ,0.00002508,0.00190544,-0.00016236,-0.00049471,0.00028709,0.00033317,0
 .00032070,-0.00276425,0.00433179,0.00117193,0.00290117,-0.00018141,-0.
 00091005,-0.00003713,-0.00002863,0.00037015,-0.00007230,0.00031881,0.0
 0003238,0.00021847,0.00000671,0.00003413,-0.00011809,0.00008236,-0.000
 04476,0.00019886,-0.00007847,0.00011719,0.00023231,0.00022718,-0.00068
 013,0.00018476,0.00024942,0.00014707,-0.00016014,-0.00014983,0.0008637
 2,0.00083255,0.00065074,-0.00025219,-0.00009981,0.00001999,0.00035644,
 -0.00020091,-0.00064155,-0.07088467,-0.00104012,-0.25772490,0.06923653
 ,0.00906635,0.28803321,-0.08703159,-0.00848671,-0.00680182,-0.00241614
 ,-0.00041004,0.00188138,-0.00030072,0.00016395,0.00022428,0.00247095,-
 0.00059430,0.00278102,0.00009264,0.00189368,-0.00156954,0.00209595,-0.
 00953273,0.00163157,0.00237389,-0.00061141,-0.00171612,-0.00008196,0.0
 0051401,-0.00032830,-0.00009769,0.00136325,0.00083439,0.00392555,0.005
 89847,0.00082279,0.00014476,-0.00046912,-0.00035167,-0.00046594,0.0003
 7633,0.00083129,-0.00046172,0.00024505,-0.00001100,-0.00004698,0.00032
 807,-0.00003939,-0.00007421,-0.00035092,0.00013591,0.00020288,-0.00063
 884,-0.00005934,0.01079937,0.00510265,0.02044660,-0.04286803,-0.000075
 15,-0.04448225,0.00041274,-0.00205523,-0.00404992,0.00054137,-0.000072
 91,-0.00014459,-0.00012113,0.00003252,0.00005102,-0.00060272,0.0000620
 4,0.00009112,-0.11899276,-0.03716791,-0.01998871,-0.01526042,-0.009712
 10,-0.00135243,0.49927945,-0.00982760,-0.08350239,-0.02222456,0.001638
 12,-0.00188928,-0.00104887,0.00029459,-0.00035309,-0.00021782,-0.00102
 685,0.00000701,-0.00212615,0.00070779,-0.00111274,0.00089693,-0.023504
 55,-0.00587662,-0.00375326,-0.00123384,-0.00122946,0.00135041,0.000892
 94,0.00041397,0.00064915,0.00051617,-0.00121378,-0.00108751,-0.0029095
 6,-0.00706006,0.00142599,-0.00007067,0.00045971,0.00079677,-0.00061228
 ,-0.00066896,-0.00104583,0.00057217,0.00004004,0.00025431,0.00007615,0
 .00009288,0.00002572,0.00008883,0.00036386,-0.00013386,-0.00023967,0.0
 0042380,0.00006138,-0.00157382,0.01543386,-0.01224279,0.00380673,0.020
 39155,-0.00404914,-0.00162049,0.00171020,0.00260080,0.00083746,0.00076
 608,0.00025421,-0.00014351,0.00000174,0.00003075,0.00032442,-0.0003754
 1,-0.00015963,-0.04951571,-0.09727412,-0.00674416,-0.00651459,-0.00263
 600,-0.00044049,-0.05749179,0.50548754,-0.02417283,-0.01784203,-0.1700
 1750,0.00146270,0.00072579,-0.00112766,0.00052980,-0.00013290,-0.00023
 735,-0.00405820,0.00233665,-0.00350011,-0.00079406,-0.00122565,0.00130
 528,0.00634113,0.00585197,-0.00072761,-0.00171236,0.00044134,0.0022588
 7,0.00009466,-0.00057638,-0.00020582,-0.00006621,-0.00125178,-0.000892
 74,-0.00050559,-0.00281750,0.00151703,0.00005353,0.00180813,0.00033460
 ,0.00039429,-0.00037208,-0.00100937,0.00045188,-0.00024613,0.00013040,
 0.00004801,-0.00028213,0.00002963,0.00007207,0.00036490,-0.00012637,-0
 .00013646,0.00052725,0.00004564,-0.00632238,-0.00528526,-0.01211117,-0
 .02075536,-0.00292291,-0.00030090,0.00029453,0.00041449,0.00188723,-0.
 00019825,0.00024425,0.00029639,0.00009394,-0.00001499,-0.00002240,0.00
 060051,0.00006204,-0.00031104,-0.00606162,-0.00265725,-0.07286689,-0.0
 2972055,-0.01583405,-0.00334566,-0.00754866,0.02237925,0.49688105,-0.0
 0604080,0.01646588,-0.00967703,0.00041451,0.00012024,-0.00013858,-0.00
 001494,0.00007442,-0.00004677,-0.00071299,0.00029966,-0.00036890,-0.00
 009246,-0.00029907,0.00019834,-0.00396576,0.00158873,-0.00028488,-0.00
 030582,0.00044473,0.00013443,0.00014302,-0.00027732,0.00025676,0.00005
 385,-0.00013343,-0.00012507,-0.00142537,-0.00218123,-0.00010104,0.0000
 0604,0.00002308,0.00018231,-0.00001030,-0.00003976,-0.00013074,0.00009
 767,-0.00007507,0.00000222,0.00001931,-0.00003222,0.00000786,0.0000056
 5,0.00004548,-0.00001669,-0.00004045,0.00016411,0.00001288,0.00010074,
 -0.00253407,0.00009189,0.00003098,-0.00273889,-0.00051870,0.00027441,0
 .00007340,0.00011625,0.00023134,0.00033274,0.00005066,-0.00002461,-0.0
 0001230,0.00000428,0.00022134,-0.00023597,-0.00008368,-0.00185177,-0.0
 3066958,0.01100798,0.00171940,0.00043595,0.00022845,-0.05228078,0.0560
 5242,-0.02075717,0.07585483,0.00165592,0.00070033,0.00349529,0.0003717
 8,0.00000795,0.00035580,-0.00004175,0.00003604,0.00005376,0.00053186,0
 .00006388,0.00066883,-0.00013009,0.00000879,-0.00014369,-0.00250527,0.
 00188369,-0.00151228,-0.00023678,0.00025273,-0.00027959,-0.00005414,-0
 .00019503,0.00023685,0.00007023,0.00010420,0.00012458,-0.00141777,-0.0
 0169763,0.00002280,0.00007657,0.00004224,0.00017090,0.00008130,0.00008
 769,0.00004413,-0.00001171,-0.00015716,-0.00002889,0.00002403,-0.00005
 141,0.00000862,-0.00002326,-0.00003001,0.00003101,0.00000216,0.0001698
 9,0.00000603,0.00059383,-0.00010158,0.00137796,-0.00281325,-0.00068900
 ,-0.00011699,0.00037244,-0.00051886,-0.00063671,0.00021005,0.00036952,
 0.00008877,-0.00001833,-0.00002304,0.00000442,0.00028795,-0.00027774,-
 0.00012338,-0.00191501,-0.02653603,0.01051763,0.00098523,0.00104896,-0
 .00027155,0.05091629,-0.24007465,0.06551586,-0.06268338,0.27239038,-0.
 00918106,0.03035568,-0.00764184,-0.00016637,0.00121176,0.00011658,-0.0
 0003107,0.00005404,0.00006607,0.00048727,0.00005494,0.00099676,0.00017
 198,0.00005916,-0.00021358,-0.00040519,-0.00016308,0.00052996,-0.00047
 782,-0.00039936,-0.00065506,-0.00010711,-0.00020742,0.00009818,0.00007
 497,0.00010755,0.00016878,-0.00004897,-0.00017765,0.00004592,0.0000207
 4,0.00007418,0.00000719,0.00006988,0.00000444,0.00012698,0.00008285,0.
 00007505,0.00003332,0.00000071,-0.00005233,-0.00000249,-0.00001737,-0.
 00001895,0.00000897,-0.00001203,0.00004458,0.00000157,0.00078689,-0.00
 374355,0.00091798,-0.00235357,-0.00448200,-0.00172175,0.00077299,-0.00
 057527,-0.00078275,-0.00014917,-0.00008470,-0.00001031,0.00002175,0.00
 000850,-0.00000391,0.00001724,0.00005582,0.00002374,-0.00090841,-0.001
 57227,0.00284845,0.00037380,-0.00082970,0.00075425,-0.02496958,0.08002
 730,-0.07394567,0.01568271,-0.06814765,0.07935973,-0.00485003,-0.00202
 446,-0.00528169,0.00280604,0.00108667,-0.00029587,0.00109233,0.0000346
 8,-0.00157354,-0.01127380,0.00661467,-0.00830458,-0.00226659,-0.001779
 68,0.00141940,0.00098627,0.00223340,-0.00083052,-0.00193283,-0.0016042
 4,-0.00083421,-0.00008717,0.00000415,0.00004067,-0.00070023,-0.0006418
 8,0.00079047,-0.00036011,-0.00200991,-0.00026557,0.00005176,0.00067448
 ,0.00007744,0.00025821,0.00025071,0.00037018,0.00031533,-0.00025579,-0
 .00003721,0.00011619,-0.00036007,0.00003039,-0.00002021,-0.00009987,0.
 00001051,-0.00004011,0.00049985,0.00001310,-0.00028164,0.00101256,-0.0
 0256285,0.01099337,-0.00215346,-0.00214194,-0.00074661,0.00194291,0.00
 496588,-0.00192429,-0.00098438,-0.00014778,0.00030189,-0.00000008,-0.0
 0008475,0.00033702,0.00049073,0.00010098,-0.01942999,0.01925024,0.0282
 5333,0.00257553,0.00172075,0.00061099,-0.14488292,0.05187557,0.0867696
 8,-0.01397998,0.01601179,0.02017521,0.47548626,0.00920507,-0.00531614,
 -0.00669262,-0.00131759,-0.00173964,0.00275283,0.00012632,-0.00036298,
 0.00139596,0.00650358,0.00033172,0.00284734,-0.00078410,0.00131292,-0.
 00163655,0.00391419,-0.00181977,0.00033035,0.00134382,-0.00264423,-0.0
 0291361,-0.00042586,0.00017677,0.00005624,-0.00104819,0.00034738,0.003
 35019,-0.00006957,0.00260528,-0.00024308,0.00041968,-0.00059632,-0.000
 08394,-0.00014771,0.00135975,0.00217939,-0.00081053,-0.00042156,-0.000
 40994,0.00001230,0.00013132,-0.00003892,-0.00022190,-0.00090005,0.0002
 9262,0.00031183,-0.00017964,-0.00005170,-0.00103009,0.00148734,-0.0016
 2016,-0.00258196,0.00176483,0.00145339,0.00143576,-0.00273009,-0.00114
 744,0.00023007,0.00044719,0.00006021,-0.00003306,-0.00006484,0.0000031
 8,0.00020051,-0.00035152,-0.00010500,0.00101866,0.00880158,0.00161928,
 0.00024950,0.00021049,0.00080567,0.04857227,-0.09020124,-0.05358295,0.
 02348285,-0.00791843,-0.02839443,-0.25401189,0.18949179,0.03401422,-0.
 01907597,-0.03467040,0.00073239,0.00167723,0.00005583,-0.00099514,0.00
 075722,-0.00169991,-0.00291348,0.00142339,0.00490415,0.00032953,-0.000
 23892,-0.00055055,0.00000985,-0.00166865,0.00056312,-0.00046643,-0.000
 56498,-0.00230723,-0.00022411,-0.00013784,0.00023321,0.00027488,0.0013
 6085,0.00039925,0.00077461,0.00161836,0.00030044,0.00016307,-0.0002319
 8,-0.00018698,-0.00020255,0.00000263,0.00027302,0.00001957,0.00022012,
 0.00025104,-0.00002692,0.00009912,-0.00004378,-0.00005299,-0.00013856,
 0.00014583,0.00004807,-0.00019089,-0.00007324,-0.00411849,-0.00178454,
 -0.00644858,-0.00153601,0.00367300,0.00691712,0.00174443,-0.00106156,-
 0.00068519,0.00058072,0.00030076,0.00011823,-0.00013785,-0.00003327,0.
 00000114,-0.00016192,-0.00016013,-0.00007626,0.01065344,-0.00158968,-0
 .01027067,-0.00008767,0.00082078,0.00221746,0.04212332,-0.03280987,-0.
 17119520,0.00277939,-0.00788432,0.00278244,0.03397468,-0.01143710,0.33
 059409,0.00880878,0.00000404,0.00088727,-0.00172126,0.00163185,-0.0016
 0379,-0.00276513,0.00018331,0.00134225,0.00248664,-0.00396217,0.005931
 60,0.00481662,0.00096851,-0.00075259,-0.00101562,-0.00083273,0.0001189
 6,-0.00032855,-0.00040835,0.00177840,0.00017813,-0.00000050,-0.0001222
 1,-0.00020551,-0.00129142,-0.00092350,0.00056699,0.00062346,0.00000546
 ,-0.00016993,-0.00020093,-0.00005855,0.00005314,-0.00061869,-0.0006497
 7,0.00005035,0.00036567,0.00009102,-0.00008037,0.00018247,-0.00000251,
 0.00006199,0.00029253,-0.00009065,-0.00006915,-0.00024344,0.00001206,-
 0.00118745,-0.00069256,-0.00111957,-0.00542701,0.00169193,0.00057417,-
 0.00048969,-0.00333240,-0.00944319,0.00044511,0.00004601,-0.00003613,-
 0.00009478,0.00001105,0.00001786,-0.00028966,0.00001541,0.00005959,-0.
 00169767,0.00155091,0.00076020,-0.00004008,0.00008577,0.00000727,-0.02
 448346,0.01083772,-0.00278298,0.00067562,-0.00328794,-0.00101558,-0.28
 071703,0.16677735,-0.11764048,0.30268160,0.00102721,0.00236814,-0.0004
 1225,0.00206905,0.00067202,-0.00105628,-0.00065678,0.00033860,-0.00232
 789,-0.00190640,-0.00459985,0.00025565,-0.00049343,-0.00270194,0.00335
 544,-0.00074119,0.00116117,-0.00031123,-0.00221907,-0.00115506,0.00047
 625,0.00010783,-0.00014878,0.00002236,-0.00070569,-0.00052088,-0.00064
 900,0.00037806,-0.00103591,0.00015125,-0.00010610,0.00039891,-0.000025
 64,-0.00000986,-0.00043534,-0.00035220,0.00050354,0.00027767,0.0001807
 9,0.00003247,-0.00018691,0.00003470,0.00008373,0.00018436,-0.00009073,
 -0.00013423,0.00013049,0.00001035,0.00021965,0.00025095,0.00137550,0.0
 0004956,-0.00158907,0.00246282,-0.00334123,0.00469568,-0.00009251,-0.0
 0024538,-0.00029308,-0.00002978,0.00003933,0.00002841,-0.00000602,-0.0
 0008352,0.00020677,0.00004594,-0.00122589,0.00117948,0.00167249,0.0003
 2369,0.00008443,0.00020224,0.01110582,-0.01397134,0.00170342,0.0030526
 4,-0.00193129,-0.00362194,0.16457215,-0.09507743,0.06660281,-0.1700462
 0,0.11170507,0.00649453,-0.00306840,-0.00002192,-0.00241181,-0.0023584
 0,0.00024359,0.00171065,-0.00119551,0.00362715,0.00133682,-0.00025976,
 -0.00890167,0.00041457,0.00297700,-0.00093346,0.00036183,-0.00035483,0
 .00011052,0.00205432,0.00122071,0.00208248,0.00012415,-0.00004482,-0.0
 0008744,-0.00028538,-0.00031026,-0.00041120,-0.00031264,0.00038153,-0.
 00012325,-0.00000943,-0.00010362,0.00003515,-0.00002767,0.00012639,-0.
 00029731,-0.00029362,-0.00028297,-0.00019708,-0.00000927,0.00007606,0.
 00002131,0.00004129,0.00008663,-0.00004412,0.00004361,-0.00004768,0.00
 001361,-0.00043891,0.00017324,0.00055638,-0.00284465,0.00230175,0.0014
 4178,-0.00648669,0.00025217,-0.00446005,0.00019013,0.00016607,0.000007
 89,-0.00001209,-0.00000077,0.00001669,0.00003916,-0.00010331,-0.000017
 56,0.00045978,-0.00236820,-0.00239257,-0.00008006,-0.00007163,-0.00002
 590,0.02979428,-0.01660146,0.01099629,0.00266853,-0.00213942,-0.003381
 25,-0.15931384,0.09153963,-0.12373019,0.12477092,-0.07042572,0.1266655
 2,0.00341380,0.00054667,0.00002788,0.00072033,0.00121819,-0.00027441,0
 .00023312,-0.00013467,-0.00004924,-0.00150991,0.00117272,-0.00055262,0
 .00019070,-0.00055411,0.00035214,-0.00996105,0.01084069,0.00414392,0.0
 0187876,0.00151108,-0.00093650,0.00000103,-0.00097546,-0.00030951,0.00
 006436,-0.00052128,-0.00001466,0.00716252,0.00081342,0.00059812,-0.000
 74523,-0.00035526,0.00013856,-0.00186933,-0.00051887,-0.00004622,0.000
 96065,0.00045688,0.00039143,0.00008847,0.00046699,-0.00008660,0.000086
 64,0.00013613,-0.00011684,-0.00028896,0.00001500,0.00007514,-0.0019259
 2,0.00075472,0.00011083,-0.00365276,0.00007039,-0.00015715,0.00085277,
 -0.00055627,0.00018241,-0.01984544,-0.01299869,0.00002545,0.00015731,-
 0.00122858,-0.00166788,-0.00307435,0.00509786,0.00241383,-0.14195745,0
 .05702455,0.05314164,0.00517174,0.00269389,0.00893038,-0.03158253,0.02
 583824,0.02608588,0.00124039,0.00338529,0.00085346,-0.01353444,-0.0007
 1276,0.00130261,0.00040453,-0.00184138,0.00211744,0.58903653,0.0006245
 0,0.00009034,-0.00208891,0.00161411,0.00178344,0.00070917,0.00003625,0
 .00004873,0.00000743,0.00007660,0.00066004,-0.00020692,-0.00075340,-0.
 00062294,0.00038157,0.03502768,-0.03501351,-0.02076137,-0.00757788,-0.
 00770390,0.00149010,0.00041302,0.00382223,-0.00231265,0.00017175,-0.00
 011636,-0.00011055,-0.00187184,0.00235033,-0.00029150,0.00058279,-0.00
 018048,0.00023683,0.00401264,0.00026576,-0.00041381,-0.00071715,-0.000
 54554,-0.00041290,-0.00006960,-0.00130612,0.00029505,-0.00016722,-0.00
 002426,0.00013023,0.00024211,0.00048707,-0.00002178,-0.00009147,-0.000
 04771,0.00071767,-0.00079446,0.00032921,0.00087793,0.00021863,-0.00047
 437,-0.00008514,-0.00643376,0.00268417,0.00083749,-0.00046278,-0.00104
 274,-0.00054471,0.00209347,0.00067563,0.00014070,0.02909682,-0.1354306
 9,-0.05931605,0.00808745,-0.00649088,-0.01218951,0.00056858,0.00563755
 ,0.00360237,-0.00044093,0.00273870,0.00054882,-0.00415153,0.00153600,0
 .00137375,-0.00019356,-0.00046939,0.00061498,0.03662141,0.23844797,0.0
 0101835,-0.00108458,-0.00543901,0.00041842,-0.00040039,0.00060054,-0.0
 0006387,0.00003282,-0.00002394,0.00037444,-0.00011665,0.00047088,-0.00
 001351,0.00018910,-0.00009297,-0.00089515,0.00064282,0.00498669,-0.000
 64382,0.00142116,0.00113483,-0.00125507,-0.00167200,0.00331702,-0.0005
 4574,0.00057864,0.00017127,-0.00065233,0.00005806,0.00212891,0.0007892
 5,0.00189856,-0.00074825,-0.00000413,0.00005503,-0.00008044,0.00000386
 ,-0.00015975,0.00020381,0.00001953,-0.00002909,-0.00003894,0.00001076,
 -0.00009751,0.00007018,0.00005201,0.00012069,-0.00012733,-0.00096352,0
 .00041936,0.00145731,-0.00066762,0.00049205,0.00229669,0.00004233,-0.0
 0018570,-0.00032418,0.00157366,0.00249204,0.00568869,-0.00225934,-0.00
 145861,-0.00025470,0.00035054,-0.00092787,-0.00141747,0.02889140,-0.06
 038136,-0.11669194,0.02853405,-0.02935684,-0.02024407,0.00950897,-0.00
 261550,-0.00127209,-0.00112003,-0.00102967,-0.00034937,0.00206992,-0.0
 0032480,0.00238980,-0.00029543,0.00074045,-0.00049021,-0.03410639,0.12
 387767,0.15239493,-0.00157748,0.00021706,-0.00125397,-0.00008655,-0.00
 045473,0.00018656,-0.00008898,0.00006949,0.00002547,0.00060352,-0.0004
 5327,-0.00002403,-0.00021882,0.00013828,-0.00009380,0.00402658,0.00156
 363,-0.00001993,-0.00122817,-0.00121231,0.00001657,-0.00015787,0.00056
 170,-0.00033098,0.00004204,0.00004099,0.00000093,-0.00495868,-0.000300
 79,-0.00016968,0.00066602,0.00032068,-0.00008408,0.00121046,0.00040289
 ,0.00012758,-0.00061441,-0.00043421,-0.00027339,-0.00004110,-0.0003193
 8,0.00004029,-0.00005685,-0.00006198,0.00006116,0.00026184,0.00014392,
 -0.00002882,-0.00042715,-0.00018736,-0.00052902,0.00193234,-0.00022542
 ,0.00053157,-0.00050728,0.00037632,0.00011626,0.00175994,0.00647494,0.
 00068948,-0.00123652,0.00105411,0.00201898,0.00525830,-0.00625675,-0.0
 0304271,-0.02604803,0.00059921,0.00296783,0.00233639,-0.00255017,-0.00
 252867,-0.00028786,0.00192560,0.00230007,-0.00034306,-0.00043807,0.000
 25084,0.00170777,-0.00060856,-0.00096075,-0.00044718,0.00019164,-0.000
 09595,-0.38171628,-0.09576223,-0.03017156,0.40023705,-0.00049494,-0.00
 004963,-0.00085238,-0.00069436,-0.00047510,-0.00003810,-0.00003787,0.0
 0001233,-0.00000017,0.00013657,-0.00024917,0.00011188,0.00008077,0.000
 20199,-0.00015230,0.00478837,0.00038678,-0.00000065,0.00026144,-0.0003
 5712,0.00023356,0.00017287,-0.00034380,0.00045873,-0.00016728,0.000199
 88,0.00006168,-0.00312302,0.00109723,-0.00009747,0.00023123,-0.0001598
 2,-0.00042878,0.00038058,0.00004786,0.00020311,-0.00038957,0.00024411,
 -0.00009768,-0.00007070,-0.00000408,0.00000230,0.00000299,-0.00007037,
 0.00002405,0.00007798,-0.00047360,-0.00004328,-0.00002288,-0.00007224,
 0.00019162,0.00046605,-0.00010149,0.00027471,-0.00013248,0.00014178,-0
 .00001716,0.00601307,-0.00524258,-0.00156323,0.00002874,0.00149421,0.0
 0142197,-0.00553086,-0.00829575,-0.00158018,0.02969794,0.00723170,0.00
 443236,-0.00046049,-0.00017324,-0.00150687,0.00052617,-0.00379064,-0.0
 0093374,-0.00030310,0.00029686,-0.00021154,0.00180193,0.00031953,-0.00
 092174,-0.00015710,0.00043413,-0.00017939,-0.12826681,-0.07208827,-0.0
 3317812,0.09518478,0.07983849,0.00006426,-0.00000795,-0.00057132,-0.00
 004021,0.00009939,-0.00004070,0.00000026,0.00000578,0.00001559,0.00005
 778,0.00001993,0.00005798,-0.00003153,-0.00002678,-0.00001060,0.000166
 71,-0.00006776,0.00134896,-0.00016365,0.00004338,-0.00022797,-0.000423
 42,0.00048015,-0.00049221,0.00014527,-0.00008414,-0.00004811,-0.000580
 16,0.00069888,-0.00097555,0.00033937,-0.00095065,-0.00010447,0.0001188
 9,0.00003456,0.00012792,-0.00009383,0.00004474,-0.00012410,0.00000286,
 -0.00002596,-0.00000915,-0.00001119,0.00001410,-0.00004597,0.00000301,
 -0.00007925,0.00006047,0.00005773,0.00021252,0.00064950,-0.00042851,0.
 00003283,0.00020783,0.00004412,-0.00009056,-0.00005477,-0.00229200,-0.
 00472388,-0.01032444,0.00517703,0.00413894,0.00020623,-0.00129544,-0.0
 0022932,0.00214339,0.02657855,0.00578401,-0.00146706,0.00052236,0.0011
 3269,0.00077680,0.00225538,-0.00345209,-0.00246684,-0.00005565,-0.0004
 0910,-0.00017888,0.00200149,-0.00000402,-0.00020800,0.00017989,0.00010
 871,-0.00030320,-0.06257310,-0.03708597,-0.02971662,0.03027374,0.03438
 682,0.04177527\\0.00001917,-0.00000320,-0.00000124,-0.00000742,0.00000
 157,-0.00000257,0.00000204,-0.00000186,0.00001428,-0.00001380,-0.00000
 980,-0.00000654,0.00000253,-0.00000102,0.00000249,-0.00000573,-0.00000
 345,-0.00000056,0.00000425,0.00000011,0.00000296,-0.00000365,0.0000013
 4,-0.00000209,-0.00000286,0.00000143,-0.00000127,0.00001053,-0.0000014
 8,0.00000206,-0.00000693,0.00000900,-0.00000181,-0.00001052,0.00000103
 ,-0.00000691,-0.00000258,0.00000087,-0.00000245,-0.00000649,-0.0000026
 2,-0.00000365,-0.00000563,-0.00000219,-0.00000236,-0.00000352,0.000006
 54,-0.00000552,0.00000191,-0.00000214,0.00000220,-0.00001881,-0.000004
 50,0.00000766,0.00001481,-0.00001256,-0.00000638,0.00001118,0.00001725
 ,0.00000247,-0.00000842,0.00000185,-0.00000620,-0.00000446,0.00000757,
 -0.00000362,0.00002526,-0.00000070,-0.00001747,-0.00000024,0.00000536,
 0.00000408,-0.00000063,-0.00001186,0.00001094,0.00000679,0.00000338,0.
 00000540,0.00001163,-0.00000771,0.00000304,-0.00000927,-0.00000134,0.0
 0000347,-0.00000777,0.00001483,0.00001276,0.00000863,-0.00000570,-0.00
 000319\\\@


 IT WAS AN ACT OF DESPARATION. FOR SIX YEARS I HAD STRUGGLED WITH THE
 BLACKBODY THEORY. I KNEW THE PROBLEM WAS FUNDAMENTAL, AND I KNEW
 THE ANSWER. I HAD TO FIND A THEORETICAL EXPLANATION AT ANY COST,
 EXCEPT FOR THE INVIOLABLITY OF THE TWO LAWS OF THERMODYNAMICS.
   -- MAX PLANCK, 1931
 Job cpu time:       0 days  0 hours 34 minutes 37.0 seconds.
 File lengths (MBytes):  RWF=    221 Int=      0 D2E=      0 Chk=      6 Scr=      1
 Normal termination of Gaussian 09 at Sun Jan 15 15:05:02 2017.
