 Entering Gaussian System, Link 0=g09
 Initial command:
 /global/software/gaussian/g09.e01/l1.exe "/scratch/10461011.yak.local/Gau-21101.inp" -scrdir="/scratch/10461011.yak.local/"
 Entering Link 1 = /global/software/gaussian/g09.e01/l1.exe PID=     21102.
  
 Copyright (c) 1988,1990,1992,1993,1995,1998,2003,2009,2015,
            Gaussian, Inc.  All Rights Reserved.
  
 This is part of the Gaussian(R) 09 program.  It is based on
 the Gaussian(R) 03 system (copyright 2003, Gaussian, Inc.),
 the Gaussian(R) 98 system (copyright 1998, Gaussian, Inc.),
 the Gaussian(R) 94 system (copyright 1995, Gaussian, Inc.),
 the Gaussian 92(TM) system (copyright 1992, Gaussian, Inc.),
 the Gaussian 90(TM) system (copyright 1990, Gaussian, Inc.),
 the Gaussian 88(TM) system (copyright 1988, Gaussian, Inc.),
 the Gaussian 86(TM) system (copyright 1986, Carnegie Mellon
 University), and the Gaussian 82(TM) system (copyright 1983,
 Carnegie Mellon University). Gaussian is a federally registered
 trademark of Gaussian, Inc.
  
 This software contains proprietary and confidential information,
 including trade secrets, belonging to Gaussian, Inc.
  
 This software is provided under written license and may be
 used, copied, transmitted, or stored only in accord with that
 written license.
  
 The following legend is applicable only to US Government
 contracts under FAR:
  
                    RESTRICTED RIGHTS LEGEND
  
 Use, reproduction and disclosure by the US Government is
 subject to restrictions as set forth in subparagraphs (a)
 and (c) of the Commercial Computer Software - Restricted
 Rights clause in FAR 52.227-19.
  
 Gaussian, Inc.
 340 Quinnipiac St., Bldg. 40, Wallingford CT 06492
  
  
 ---------------------------------------------------------------
 Warning -- This program may not be used in any manner that
 competes with the business of Gaussian, Inc. or will provide
 assistance to any competitor of Gaussian, Inc.  The licensee
 of this program is prohibited from giving any competitor of
 Gaussian, Inc. access to this program.  By using this program,
 the user acknowledges that Gaussian, Inc. is engaged in the
 business of creating and licensing software in the field of
 computational chemistry and represents and warrants to the
 licensee that it is not a competitor of Gaussian, Inc. and that
 it will not use this program in any manner prohibited above.
 ---------------------------------------------------------------
  

 Cite this work as:
 Gaussian 09, Revision E.01,
 M. J. Frisch, G. W. Trucks, H. B. Schlegel, G. E. Scuseria, 
 M. A. Robb, J. R. Cheeseman, G. Scalmani, V. Barone, B. Mennucci, 
 G. A. Petersson, H. Nakatsuji, M. Caricato, X. Li, H. P. Hratchian, 
 A. F. Izmaylov, J. Bloino, G. Zheng, J. L. Sonnenberg, M. Hada, 
 M. Ehara, K. Toyota, R. Fukuda, J. Hasegawa, M. Ishida, T. Nakajima, 
 Y. Honda, O. Kitao, H. Nakai, T. Vreven, J. A. Montgomery, Jr., 
 J. E. Peralta, F. Ogliaro, M. Bearpark, J. J. Heyd, E. Brothers, 
 K. N. Kudin, V. N. Staroverov, T. Keith, R. Kobayashi, J. Normand, 
 K. Raghavachari, A. Rendell, J. C. Burant, S. S. Iyengar, J. Tomasi, 
 M. Cossi, N. Rega, J. M. Millam, M. Klene, J. E. Knox, J. B. Cross, 
 V. Bakken, C. Adamo, J. Jaramillo, R. Gomperts, R. E. Stratmann, 
 O. Yazyev, A. J. Austin, R. Cammi, C. Pomelli, J. W. Ochterski, 
 R. L. Martin, K. Morokuma, V. G. Zakrzewski, G. A. Voth, 
 P. Salvador, J. J. Dannenberg, S. Dapprich, A. D. Daniels, 
 O. Farkas, J. B. Foresman, J. V. Ortiz, J. Cioslowski, 
 and D. J. Fox, Gaussian, Inc., Wallingford CT, 2013.
 
 ******************************************
 Gaussian 09:  ES64L-G09RevE.01 30-Nov-2015
                13-Jan-2017 
 ******************************************
 -------------------------------------
 # b3lyp/6-31g(d) irc=(calcfc,reverse)
 -------------------------------------
 1/10=4,14=-1,18=10,22=2,26=3,38=1,44=3/1,23;
 2/12=2,17=6,18=5,29=1,40=1/2;
 3/5=1,6=6,7=1,11=2,16=1,25=1,30=1,71=2,74=-5,140=1/1,2,3;
 4//1;
 5/5=2,38=5/2;
 8/6=4,10=90,11=11/1;
 11/6=1,8=1,9=11,15=111,16=1/1,2,10;
 10/6=1,13=1/2;
 6/7=2,8=2,9=2,10=2,28=1/1;
 7/10=1,18=20,25=1/1,2,3,16;
 1/10=4,14=-1,18=10,22=2,26=3,44=3/23(2);
 2/29=1/2;
 99/5=20/99;
 2/29=1/2;
 3/5=1,6=6,7=1,11=2,16=1,25=1,30=1,71=2,74=-5,140=1/1,2,3;
 4/5=5,16=3,69=1/1;
 5/5=2,38=5/2;
 8/6=4,10=90,11=11/1;
 11/6=1,8=1,9=11,15=111,16=1/1,2,10;
 10/6=1,13=1/2;
 7/10=1,18=20,25=1/1,2,3,16;
 1/14=-1,18=10,22=2,26=3,44=3/23(-8);
 2/29=1/2;
 6/7=2,8=2,9=2,10=2,19=2,28=1/1;
 99/5=20,9=1/99;
 --------------------------------
 glo_2w_beta_ts_boat4_B3LYP_631Gd
 --------------------------------
 Symbolic Z-matrix:
 Charge =  0 Multiplicity = 1
 8                     0.61238  -0.21093  -0.99014 
 6                    -1.23452   0.82569   0.23569 
 6                    -1.13337  -1.69976   0.11872 
 6                    -1.97455  -0.44905  -0.16596 
 6                     0.38413  -1.42614   0.18232 
 6                    -0.00853   1.04466  -0.66887 
 1                    -2.15957  -0.4213   -1.25177 
 1                    -0.3855    1.46058  -1.61503 
 1                    -0.9199    0.73527   1.2826 
 1                     0.9512   -2.18038  -0.38902 
 6                     0.98427   2.03123  -0.03741 
 1                     1.3432    1.62595   0.91192 
 1                     1.8529    2.18824  -0.69493 
 1                    -1.41307  -2.05819   1.11799 
 8                     0.85428  -1.04208   1.32653 
 8                     0.35466   3.27869   0.26906 
 1                     0.16498   3.72623  -0.57154 
 8                    -1.44636  -2.65838  -0.88494 
 1                    -1.21118  -3.53522  -0.54564 
 8                    -3.19424  -0.54997   0.54893 
 1                    -3.58162   0.34235   0.51994 
 8                    -2.15462   1.90773   0.08884 
 1                    -1.71288   2.67965   0.48316 
 8                     3.28036  -1.01002   1.12392 
 1                     3.27921  -0.59693  -0.08822 
 1                     2.15505  -1.06716   1.31509 
 1                     3.63517  -0.34476   1.73353 
 8                     3.0201   -0.31828  -1.18018 
 1                     1.81     -0.18216  -1.16295 
 1                     3.47492   0.49402  -1.44825 
 
 IRC-IRC-IRC-IRC-IRC-IRC-IRC-IRC-IRC-IRC-IRC-IRC-IRC-IRC-IRC-IRC-IRC-IRC
 ------------------------------------------------------------------------
 INPUT DATA FOR L123
 ------------------------------------------------------------------------
 GENERAL PARAMETERS:
 Rxn path following direction = Reverse
 Maximum points per path      =  10
 Step size                    =   0.100 bohr
 Integration scheme           = HPC                                 
    Redo corrector integration= Yes                                 
    DWI Weight Power          =  2
    DWI will use Hessian update vectors when possible.
    Max correction cycles     =  20
 Initial Hessian              = CalcFC
 Hessian evaluation           = All updating
 Hessian updating method      = Bofill                              
 ------------------------------------------------------------------------
 IRC-IRC-IRC-IRC-IRC-IRC-IRC-IRC-IRC-IRC-IRC-IRC-IRC-IRC-IRC-IRC-IRC-IRC
                          Input orientation:                          
 ---------------------------------------------------------------------
 Center     Atomic      Atomic             Coordinates (Angstroms)
 Number     Number       Type             X           Y           Z
 ---------------------------------------------------------------------
      1          8           0        0.612378   -0.210934   -0.990135
      2          6           0       -1.234521    0.825689    0.235694
      3          6           0       -1.133372   -1.699761    0.118722
      4          6           0       -1.974549   -0.449051   -0.165955
      5          6           0        0.384127   -1.426143    0.182315
      6          6           0       -0.008527    1.044664   -0.668871
      7          1           0       -2.159568   -0.421297   -1.251773
      8          1           0       -0.385503    1.460582   -1.615033
      9          1           0       -0.919903    0.735269    1.282604
     10          1           0        0.951197   -2.180376   -0.389020
     11          6           0        0.984270    2.031233   -0.037409
     12          1           0        1.343198    1.625945    0.911924
     13          1           0        1.852895    2.188240   -0.694931
     14          1           0       -1.413073   -2.058189    1.117994
     15          8           0        0.854284   -1.042084    1.326525
     16          8           0        0.354658    3.278694    0.269062
     17          1           0        0.164981    3.726228   -0.571536
     18          8           0       -1.446355   -2.658383   -0.884937
     19          1           0       -1.211181   -3.535221   -0.545642
     20          8           0       -3.194241   -0.549966    0.548925
     21          1           0       -3.581619    0.342347    0.519936
     22          8           0       -2.154622    1.907726    0.088842
     23          1           0       -1.712876    2.679646    0.483162
     24          8           0        3.280361   -1.010017    1.123919
     25          1           0        3.279206   -0.596934   -0.088222
     26          1           0        2.155055   -1.067164    1.315093
     27          1           0        3.635166   -0.344762    1.733531
     28          8           0        3.020103   -0.318282   -1.180183
     29          1           0        1.810000   -0.182163   -1.162950
     30          1           0        3.474919    0.494018   -1.448252
 ---------------------------------------------------------------------
                    Distance matrix (angstroms):
                    1          2          3          4          5
     1  O    0.000000
     2  C    2.447096   0.000000
     3  C    2.548296   2.530180   0.000000
     4  C    2.725466   1.527719   1.533915   0.000000
     5  C    1.703957   2.773737   1.543280   2.576694   0.000000
     6  C    1.437101   1.539237   3.068786   2.519792   2.642647
     7  H    2.792202   2.150173   2.136774   1.101818   3.088156
     8  H    2.044561   2.132865   3.681438   2.876038   3.486541
     9  H    2.899746   1.096896   2.707316   2.147840   2.753694
    10  H    2.086825   3.768827   2.198686   3.406939   1.103114
    11  C    2.464407   2.539873   4.292913   3.863022   3.515949
    12  H    2.743365   2.782505   4.221716   4.058926   3.281370
    13  H    2.716995   3.500678   4.969545   4.678082   3.998825
    14  H    3.458180   3.021107   1.097838   2.133801   2.122476
    15  O    2.473104   3.006924   2.417044   3.252919   1.295286
    16  O    3.718804   2.922984   5.198254   4.417072   4.705729
    17  H    3.984549   3.320143   5.621702   4.709038   5.211837
    18  O    3.199915   3.665985   1.422760   2.382661   2.451144
    19  H    3.817568   4.430414   1.953547   3.201771   2.742834
    20  O    4.119951   2.414755   2.398809   1.417352   3.702270
    21  H    4.491775   2.413148   3.213268   1.918184   4.355306
    22  O    3.648178   1.427920   3.749374   2.377340   4.191499
    23  H    3.991599   1.930601   4.432589   3.206021   4.620112
    24  O    3.496554   4.954081   4.578996   5.439902   3.073752
    25  H    2.841551   4.743681   4.553010   5.256411   3.023617
    26  H    2.902940   4.029543   3.556014   4.430485   2.132660
    27  H    4.071058   5.227554   5.213692   5.923498   3.760972
    28  O    2.417598   4.627656   4.565851   5.098265   3.167353
    29  H    1.210368   3.498725   3.550947   3.922759   2.321710
    30  H    2.983449   5.012435   5.338953   5.677179   3.987325
                    6          7          8          9         10
     6  C    0.000000
     7  H    2.667545   0.000000
     8  H    1.100146   2.611653   0.000000
     9  H    2.175910   3.049177   3.034462   0.000000
    10  H    3.376429   3.676352   4.067733   3.846600   0.000000
    11  C    1.535483   4.168129   2.165830   2.654775   4.226390
    12  H    2.159621   4.598060   3.066148   2.460149   4.041559
    13  H    2.184797   4.818674   2.527152   3.702726   4.471180
    14  H    3.846210   2.975309   4.572427   2.841429   2.806384
    15  O    3.013398   4.014511   4.056251   2.511703   2.061115
    16  O    2.450002   4.724850   2.720879   3.020064   5.530857
    17  H    2.688934   4.802938   2.554422   3.682478   5.961495
    18  O    3.978265   2.376509   4.315590   4.061066   2.494530
    19  H    4.736761   3.330853   5.175267   4.654504   2.556563
    20  O    3.764923   2.080773   4.076031   2.713435   4.552212
    21  H    3.830600   2.396734   4.002961   2.796566   5.266569
    22  O    2.434077   2.687307   2.496580   2.079484   5.156262
    23  H    2.627766   3.581254   2.765946   2.246890   5.610508
    24  O    4.272305   5.965177   5.200411   4.551200   3.013923
    25  H    3.720374   5.564617   4.471534   4.613724   2.831500
    26  H    3.616216   5.061810   4.629209   3.564434   2.364850
    27  H    4.580233   6.518960   5.535154   4.703026   3.883090
    28  O    3.360307   5.181190   3.866730   4.764340   2.893735
    29  H    2.248613   3.977756   2.779069   3.778199   2.308542
    30  H    3.611792   5.711729   3.983079   5.179791   3.826686
                   11         12         13         14         15
    11  C    0.000000
    12  H    1.092850   0.000000
    13  H    1.100680   1.777062   0.000000
    14  H    4.879096   4.605685   5.655564   0.000000
    15  O    3.364891   2.743959   3.939353   2.493364   0.000000
    16  O    1.430557   2.030286   2.088800   5.685761   4.476268
    17  H    1.956920   2.828434   2.286851   6.229305   5.178279
    18  O    5.349649   5.419020   5.866081   2.091189   3.577139
    19  H    6.005307   5.940285   6.493755   2.233846   3.739905
    20  O    4.946345   5.045266   5.875247   2.402319   4.151794
    21  H    4.900032   5.104420   5.866614   3.289808   4.716404
    22  O    3.143857   3.604388   4.093065   4.163836   4.391669
    23  H    2.822416   3.260937   3.787361   4.789569   4.599222
    24  O    3.983707   3.278085   3.946482   4.809056   2.434733
    25  H    3.489495   3.112814   3.187421   5.060406   2.842519
    26  H    3.577718   2.841565   3.837858   3.708438   1.301063
    27  H    3.976032   3.132386   3.935736   5.366510   2.895724
    28  O    3.312215   3.311939   2.807222   5.287905   3.390906
    29  H    2.616829   2.791462   2.416545   4.371542   2.801846
    30  H    3.249129   3.375785   2.463502   6.082092   4.114210
                   16         17         18         19         20
    16  O    0.000000
    17  H    0.971014   0.000000
    18  O    6.310645   6.592259   0.000000
    19  H    7.038823   7.390747   0.969161   0.000000
    20  O    5.227968   5.552084   3.091357   3.747313   0.000000
    21  H    4.917250   5.165169   3.941751   4.667972   0.973203
    22  O    2.865051   3.020531   4.722207   5.560425   2.707902
    23  H    2.163191   2.394592   5.516999   6.319391   3.553753
    24  O    5.261517   5.917109   5.393928   5.416460   6.516344
    25  H    4.868380   5.349927   5.216824   5.385753   6.504896
    26  H    4.818931   5.522352   4.510240   4.570031   5.428579
    27  H    5.102532   5.824816   6.166934   6.233838   6.934421
    28  O    4.705650   4.988009   5.050989   5.353046   6.454577
    29  H    4.018235   4.281516   4.100342   4.555393   5.301719
    30  H    4.521019   4.708662   5.871447   6.245719   7.039625
                   21         22         23         24         25
    21  H    0.000000
    22  O    2.161614   0.000000
    23  H    2.992744   0.972876   0.000000
    24  O    7.020004   6.254890   6.241522   0.000000
    25  H    6.951476   5.985913   5.998611   1.280595   0.000000
    26  H    5.960572   5.378381   5.448998   1.142859   1.858528
    27  H    7.350300   6.426535   6.269930   0.969576   1.873254
    28  O    6.849056   5.774367   5.844260   2.419735   1.156356
    29  H    5.672457   4.653262   4.828073   2.842019   1.866987
    30  H    7.327448   6.004412   5.951516   2.985974   1.754469
                   26         27         28         29         30
    26  H    0.000000
    27  H    1.699319   0.000000
    28  O    2.745093   2.978042   0.000000
    29  H    2.653863   3.427429   1.217857   0.000000
    30  H    3.437354   3.294385   0.968788   1.819498   0.000000
 Symmetry turned off by external request.
 Stoichiometry    C6H16O8
 Framework group  C1[X(C6H16O8)]
 Deg. of freedom    84
 Full point group                 C1      NOp   1
 Rotational constants (GHZ):      0.7204891      0.5567535      0.3745076
 Standard basis: 6-31G(d) (6D, 7F)
   242 basis functions,   456 primitive gaussians,   242 cartesian basis functions
    58 alpha electrons       58 beta electrons
       nuclear repulsion energy      1117.8615316256 Hartrees.
 NAtoms=   30 NActive=   30 NUniq=   30 SFac= 1.00D+00 NAtFMM=   60 NAOKFM=F Big=F
 Integral buffers will be    131072 words long.
 Raffenetti 2 integral format.
 Two-electron integral symmetry is turned off.
 One-electron integrals computed using PRISM.
 NBasis=   242 RedAO= T EigKep=  1.30D-03  NBF=   242
 NBsUse=   242 1.00D-06 EigRej= -1.00D+00 NBFU=   242
 ExpMin= 1.61D-01 ExpMax= 5.48D+03 ExpMxC= 8.25D+02 IAcc=1 IRadAn=         1 AccDes= 0.00D+00
 Harris functional with IExCor=  402 and IRadAn=       1 diagonalized for initial guess.
 HarFok:  IExCor=  402 AccDes= 0.00D+00 IRadAn=         1 IDoV= 1 UseB2=F ITyADJ=14
 ICtDFT=  3500011 ScaDFX=  1.000000  1.000000  1.000000  1.000000
 FoFCou: FMM=F IPFlag=           0 FMFlag=      100000 FMFlg1=           0
         NFxFlg=           0 DoJE=T BraDBF=F KetDBF=T FulRan=T
         wScrn=  0.000000 ICntrl=     500 IOpCl=  0 I1Cent=   200000004 NGrid=           0
         NMat0=    1 NMatS0=      1 NMatT0=    0 NMatD0=    1 NMtDS0=    0 NMtDT0=    0
 Symmetry not used in FoFCou.
 Requested convergence on RMS density matrix=1.00D-08 within 128 cycles.
 Requested convergence on MAX density matrix=1.00D-06.
 Requested convergence on             energy=1.00D-06.
 No special actions if energy rises.
 Integral accuracy reduced to 1.0D-05 until final iterations.
 Initial convergence to 1.0D-05 achieved.  Increase integral accuracy.
 SCF Done:  E(RB3LYP) =  -839.954485455     A.U. after   14 cycles
            NFock= 14  Conv=0.71D-08     -V/T= 2.0086
 DoSCS=F DFT=T ScalE2(SS,OS)=  1.000000  1.000000
 Range of M.O.s used for correlation:     1   242
 NBasis=   242 NAE=    58 NBE=    58 NFC=     0 NFV=     0
 NROrb=    242 NOA=    58 NOB=    58 NVA=   184 NVB=   184
 Symmetrizing basis deriv contribution to polar:
 IMax=3 JMax=2 DiffMx= 0.00D+00
 G2DrvN: will do    31 centers at a time, making    1 passes.
 Calling FoFCou, ICntrl=  3107 FMM=F I1Cent=   0 AccDes= 0.00D+00.
 End of G2Drv F.D. properties file   721 does not exist.
 End of G2Drv F.D. properties file   722 does not exist.
 End of G2Drv F.D. properties file   788 does not exist.
          IDoAtm=111111111111111111111111111111
          Differentiating once with respect to nuclear coordinates.
          There are    93 degrees of freedom in the 1st order CPHF.  IDoFFX=6 NUNeed=     0.
     87 vectors produced by pass  0 Test12= 1.15D-14 1.08D-09 XBig12= 1.23D-01 6.26D-02.
 AX will form    87 AO Fock derivatives at one time.
     87 vectors produced by pass  1 Test12= 1.15D-14 1.08D-09 XBig12= 1.29D-02 1.63D-02.
     87 vectors produced by pass  2 Test12= 1.15D-14 1.08D-09 XBig12= 1.32D-04 1.81D-03.
     87 vectors produced by pass  3 Test12= 1.15D-14 1.08D-09 XBig12= 3.21D-07 5.44D-05.
     87 vectors produced by pass  4 Test12= 1.15D-14 1.08D-09 XBig12= 4.65D-10 1.68D-06.
     68 vectors produced by pass  5 Test12= 1.15D-14 1.08D-09 XBig12= 3.90D-13 5.73D-08.
      1 vectors produced by pass  6 Test12= 1.15D-14 1.08D-09 XBig12= 3.65D-16 1.88D-09.
 InvSVY:  IOpt=1 It=  1 EMax= 4.16D-16
 Solved reduced A of dimension   504 with    93 vectors.
 End of Minotr F.D. properties file   721 does not exist.
 End of Minotr F.D. properties file   722 does not exist.
 End of Minotr F.D. properties file   788 does not exist.

 **********************************************************************

            Population analysis using the SCF density.

 **********************************************************************

 Alpha  occ. eigenvalues --  -19.18187 -19.17386 -19.17047 -19.15239 -19.14882
 Alpha  occ. eigenvalues --  -19.14283 -19.12926 -19.11261 -10.28207 -10.25555
 Alpha  occ. eigenvalues --  -10.25160 -10.23579 -10.23256 -10.22863  -1.05946
 Alpha  occ. eigenvalues --   -1.04872  -1.03270  -1.02190  -1.01509  -1.00642
 Alpha  occ. eigenvalues --   -0.99719  -0.97488  -0.78001  -0.75527  -0.69138
 Alpha  occ. eigenvalues --   -0.63363  -0.62824  -0.56743  -0.56104  -0.55122
 Alpha  occ. eigenvalues --   -0.53818  -0.53443  -0.52464  -0.51375  -0.48842
 Alpha  occ. eigenvalues --   -0.46781  -0.45901  -0.44884  -0.43482  -0.42736
 Alpha  occ. eigenvalues --   -0.42132  -0.41362  -0.39511  -0.38542  -0.38127
 Alpha  occ. eigenvalues --   -0.36318  -0.36028  -0.34676  -0.34090  -0.32566
 Alpha  occ. eigenvalues --   -0.31346  -0.30975  -0.29714  -0.28374  -0.27059
 Alpha  occ. eigenvalues --   -0.25967  -0.25661  -0.24071
 Alpha virt. eigenvalues --    0.03293   0.03721   0.05577   0.07724   0.08387
 Alpha virt. eigenvalues --    0.09111   0.11227   0.12890   0.13315   0.14121
 Alpha virt. eigenvalues --    0.15266   0.16616   0.17597   0.17976   0.19796
 Alpha virt. eigenvalues --    0.20087   0.21038   0.22448   0.24052   0.25292
 Alpha virt. eigenvalues --    0.26215   0.27751   0.28327   0.30250   0.31211
 Alpha virt. eigenvalues --    0.31733   0.32407   0.37166   0.51300   0.52381
 Alpha virt. eigenvalues --    0.53869   0.54993   0.57109   0.58126   0.59617
 Alpha virt. eigenvalues --    0.60815   0.62232   0.63109   0.65313   0.65737
 Alpha virt. eigenvalues --    0.67773   0.69957   0.70973   0.71939   0.73435
 Alpha virt. eigenvalues --    0.75451   0.77206   0.77562   0.78813   0.80604
 Alpha virt. eigenvalues --    0.81941   0.82246   0.83601   0.83828   0.85018
 Alpha virt. eigenvalues --    0.85406   0.85735   0.86876   0.88508   0.89439
 Alpha virt. eigenvalues --    0.90629   0.92103   0.94312   0.94467   0.96593
 Alpha virt. eigenvalues --    0.97481   0.98427   0.99936   1.02200   1.02670
 Alpha virt. eigenvalues --    1.02846   1.04962   1.06316   1.07743   1.08763
 Alpha virt. eigenvalues --    1.10866   1.12417   1.13903   1.14578   1.15351
 Alpha virt. eigenvalues --    1.18543   1.19847   1.21665   1.24815   1.27330
 Alpha virt. eigenvalues --    1.29012   1.31749   1.32547   1.36516   1.39779
 Alpha virt. eigenvalues --    1.41346   1.45283   1.46789   1.47923   1.53320
 Alpha virt. eigenvalues --    1.55506   1.56142   1.57314   1.58565   1.60756
 Alpha virt. eigenvalues --    1.61809   1.62642   1.67566   1.68163   1.69780
 Alpha virt. eigenvalues --    1.70512   1.72263   1.72839   1.72925   1.73859
 Alpha virt. eigenvalues --    1.75849   1.77502   1.78383   1.79632   1.80256
 Alpha virt. eigenvalues --    1.82260   1.83630   1.84262   1.85664   1.86706
 Alpha virt. eigenvalues --    1.89165   1.90537   1.90948   1.92633   1.95789
 Alpha virt. eigenvalues --    1.99179   2.00627   2.01354   2.04277   2.05078
 Alpha virt. eigenvalues --    2.08454   2.09439   2.10654   2.12841   2.15267
 Alpha virt. eigenvalues --    2.18311   2.20820   2.24699   2.27049   2.27773
 Alpha virt. eigenvalues --    2.32236   2.32400   2.37482   2.39047   2.40513
 Alpha virt. eigenvalues --    2.42608   2.46581   2.48724   2.50165   2.52705
 Alpha virt. eigenvalues --    2.54630   2.55955   2.56417   2.58022   2.61565
 Alpha virt. eigenvalues --    2.62132   2.65751   2.68394   2.71100   2.75029
 Alpha virt. eigenvalues --    2.75870   2.81624   2.84229   2.86876   2.91291
 Alpha virt. eigenvalues --    2.95543   2.96433   3.00532   3.06610   3.09646
 Alpha virt. eigenvalues --    3.73118   3.75606   3.79971   3.86975   3.89631
 Alpha virt. eigenvalues --    3.94732   4.07597   4.12112   4.25137   4.39225
 Alpha virt. eigenvalues --    4.45405   4.52246   4.65759   4.85429
          Condensed to atoms (all electrons):
               1          2          3          4          5          6
     1  O    8.613658  -0.029716  -0.018804  -0.002302   0.058472   0.129945
     2  C   -0.029716   5.033846  -0.025359   0.312890   0.007328   0.287867
     3  C   -0.018804  -0.025359   4.968813   0.328953   0.303813  -0.014410
     4  C   -0.002302   0.312890   0.328953   4.853612  -0.042554  -0.031187
     5  C    0.058472   0.007328   0.303813  -0.042554   4.883744  -0.016494
     6  C    0.129945   0.287867  -0.014410  -0.031187  -0.016494   5.017560
     7  H    0.001407  -0.057348  -0.052781   0.354658  -0.000155  -0.001387
     8  H   -0.032756  -0.047175   0.000380  -0.006952   0.001793   0.360186
     9  H    0.001750   0.347354  -0.008567  -0.037450  -0.002145  -0.048937
    10  H   -0.037313   0.000361  -0.066400   0.003233   0.350171   0.004444
    11  C   -0.023313  -0.029997  -0.000173   0.003573  -0.000456   0.330277
    12  H    0.000357  -0.009957  -0.000023  -0.000068   0.001226  -0.035198
    13  H    0.000425   0.005387  -0.000017  -0.000093  -0.000103  -0.048877
    14  H    0.002567  -0.002870   0.346609  -0.028357  -0.059575   0.000637
    15  O   -0.056120  -0.005016  -0.045959   0.001558   0.277765   0.008745
    16  O    0.001469   0.001949  -0.000005   0.000165   0.000030  -0.041313
    17  H    0.000025  -0.002096   0.000001  -0.000011  -0.000001  -0.000981
    18  O    0.001851   0.002478   0.214358  -0.038626  -0.040877   0.000238
    19  H   -0.000106  -0.000299  -0.022415   0.006874  -0.000883  -0.000003
    20  O    0.000047  -0.030441  -0.039343   0.242163   0.002365   0.003302
    21  H   -0.000016  -0.014514   0.006713  -0.033433  -0.000285   0.000961
    22  O    0.001350   0.210354   0.002476  -0.037896   0.000101  -0.041957
    23  H    0.000002  -0.022112  -0.000240   0.005611   0.000037  -0.003768
    24  O   -0.000993  -0.000010  -0.000091   0.000001   0.009533  -0.000020
    25  H    0.004789   0.000019   0.000107  -0.000003  -0.000089  -0.000387
    26  H    0.003074   0.000069   0.002129  -0.000098  -0.015706  -0.000507
    27  H    0.000012   0.000002   0.000000   0.000000  -0.000342  -0.000031
    28  O   -0.095886  -0.000094  -0.000043   0.000009   0.004701   0.001889
    29  H    0.115872   0.002060   0.001367   0.000029  -0.004262  -0.009222
    30  H    0.004613   0.000023  -0.000002  -0.000000  -0.000085  -0.000729
               7          8          9         10         11         12
     1  O    0.001407  -0.032756   0.001750  -0.037313  -0.023313   0.000357
     2  C   -0.057348  -0.047175   0.347354   0.000361  -0.029997  -0.009957
     3  C   -0.052781   0.000380  -0.008567  -0.066400  -0.000173  -0.000023
     4  C    0.354658  -0.006952  -0.037450   0.003233   0.003573  -0.000068
     5  C   -0.000155   0.001793  -0.002145   0.350171  -0.000456   0.001226
     6  C   -0.001387   0.360186  -0.048937   0.004444   0.330277  -0.035198
     7  H    0.638554   0.004836   0.007178  -0.000244   0.000097   0.000008
     8  H    0.004836   0.625267   0.006826  -0.000207  -0.057540   0.005317
     9  H    0.007178   0.006826   0.603604   0.000403  -0.008701   0.004995
    10  H   -0.000244  -0.000207   0.000403   0.650476  -0.000192   0.000112
    11  C    0.000097  -0.057540  -0.008701  -0.000192   4.976889   0.361695
    12  H    0.000008   0.005317   0.004995   0.000112   0.361695   0.550772
    13  H    0.000008  -0.005792   0.000121   0.000011   0.349676  -0.040782
    14  H    0.006852   0.000018   0.003642   0.003972   0.000019  -0.000001
    15  O    0.000024  -0.000157   0.012157  -0.042942  -0.003624   0.008437
    16  O   -0.000012   0.001047   0.000160   0.000001   0.218793  -0.030409
    17  H    0.000002   0.005545   0.000189  -0.000000  -0.029712   0.006591
    18  O    0.001920   0.000020   0.000029   0.009145  -0.000003   0.000000
    19  H   -0.000073  -0.000000   0.000010   0.002642  -0.000000   0.000000
    20  O   -0.042007  -0.000063   0.001038  -0.000069  -0.000049  -0.000002
    21  H   -0.001018   0.000012   0.000317   0.000006  -0.000017  -0.000000
    22  O   -0.001495   0.005005  -0.036612   0.000003  -0.000895   0.000149
    23  H   -0.000271  -0.000455  -0.005190  -0.000000  -0.003520  -0.000125
    24  O   -0.000000  -0.000001   0.000011   0.003505  -0.000586   0.002356
    25  H   -0.000000   0.000009  -0.000010  -0.001227   0.000197   0.000340
    26  H    0.000002   0.000008  -0.000059  -0.006575   0.000410  -0.000033
    27  H    0.000000   0.000000  -0.000008  -0.000160   0.000070   0.000639
    28  O    0.000002  -0.000097   0.000005   0.001664   0.002921  -0.000392
    29  H   -0.000058  -0.001222  -0.000206  -0.001909  -0.000884  -0.000089
    30  H   -0.000000   0.000033  -0.000001  -0.000024  -0.000029   0.000126
              13         14         15         16         17         18
     1  O    0.000425   0.002567  -0.056120   0.001469   0.000025   0.001851
     2  C    0.005387  -0.002870  -0.005016   0.001949  -0.002096   0.002478
     3  C   -0.000017   0.346609  -0.045959  -0.000005   0.000001   0.214358
     4  C   -0.000093  -0.028357   0.001558   0.000165  -0.000011  -0.038626
     5  C   -0.000103  -0.059575   0.277765   0.000030  -0.000001  -0.040877
     6  C   -0.048877   0.000637   0.008745  -0.041313  -0.000981   0.000238
     7  H    0.000008   0.006852   0.000024  -0.000012   0.000002   0.001920
     8  H   -0.005792   0.000018  -0.000157   0.001047   0.005545   0.000020
     9  H    0.000121   0.003642   0.012157   0.000160   0.000189   0.000029
    10  H    0.000011   0.003972  -0.042942   0.000001  -0.000000   0.009145
    11  C    0.349676   0.000019  -0.003624   0.218793  -0.029712  -0.000003
    12  H   -0.040782  -0.000001   0.008437  -0.030409   0.006591   0.000000
    13  H    0.654598  -0.000000   0.000138  -0.028357  -0.008526  -0.000000
    14  H   -0.000000   0.597428   0.006566  -0.000000   0.000000  -0.031247
    15  O    0.000138   0.006566   8.416933   0.000021  -0.000003   0.001539
    16  O   -0.028357  -0.000000   0.000021   8.232117   0.233360   0.000000
    17  H   -0.008526   0.000000  -0.000003   0.233360   0.394143   0.000000
    18  O   -0.000000  -0.031247   0.001539   0.000000   0.000000   8.274494
    19  H    0.000000  -0.007707  -0.000052   0.000000  -0.000000   0.231188
    20  O    0.000000   0.001424  -0.000035  -0.000000   0.000000   0.001308
    21  H    0.000001  -0.000046   0.000005   0.000006  -0.000001  -0.000177
    22  O   -0.000228  -0.000104   0.000059  -0.009825   0.002584  -0.000007
    23  H    0.000411   0.000006  -0.000001   0.036633  -0.002156   0.000001
    24  O   -0.000070   0.000004  -0.095763   0.000001  -0.000000   0.000000
    25  H    0.000012  -0.000003   0.005387   0.000000   0.000000  -0.000001
    26  H   -0.000024  -0.000028   0.128163  -0.000000   0.000000  -0.000043
    27  H    0.000005  -0.000001   0.004788   0.000000   0.000000  -0.000000
    28  O    0.002958   0.000003  -0.001598   0.000021   0.000002   0.000001
    29  H    0.003855  -0.000078   0.004247  -0.000028  -0.000023  -0.000085
    30  H    0.004565  -0.000000   0.000028  -0.000003  -0.000002  -0.000000
              19         20         21         22         23         24
     1  O   -0.000106   0.000047  -0.000016   0.001350   0.000002  -0.000993
     2  C   -0.000299  -0.030441  -0.014514   0.210354  -0.022112  -0.000010
     3  C   -0.022415  -0.039343   0.006713   0.002476  -0.000240  -0.000091
     4  C    0.006874   0.242163  -0.033433  -0.037896   0.005611   0.000001
     5  C   -0.000883   0.002365  -0.000285   0.000101   0.000037   0.009533
     6  C   -0.000003   0.003302   0.000961  -0.041957  -0.003768  -0.000020
     7  H   -0.000073  -0.042007  -0.001018  -0.001495  -0.000271  -0.000000
     8  H   -0.000000  -0.000063   0.000012   0.005005  -0.000455  -0.000001
     9  H    0.000010   0.001038   0.000317  -0.036612  -0.005190   0.000011
    10  H    0.002642  -0.000069   0.000006   0.000003  -0.000000   0.003505
    11  C   -0.000000  -0.000049  -0.000017  -0.000895  -0.003520  -0.000586
    12  H    0.000000  -0.000002  -0.000000   0.000149  -0.000125   0.002356
    13  H    0.000000   0.000000   0.000001  -0.000228   0.000411  -0.000070
    14  H   -0.007707   0.001424  -0.000046  -0.000104   0.000006   0.000004
    15  O   -0.000052  -0.000035   0.000005   0.000059  -0.000001  -0.095763
    16  O    0.000000  -0.000000   0.000006  -0.009825   0.036633   0.000001
    17  H   -0.000000   0.000000  -0.000001   0.002584  -0.002156  -0.000000
    18  O    0.231188   0.001308  -0.000177  -0.000007   0.000001   0.000000
    19  H    0.396173  -0.000218   0.000024   0.000001  -0.000000   0.000000
    20  O   -0.000218   8.284061   0.235083  -0.008204   0.000149  -0.000000
    21  H    0.000024   0.235083   0.371221   0.027692  -0.000696   0.000000
    22  O    0.000001  -0.008204   0.027692   8.330215   0.225544   0.000000
    23  H   -0.000000   0.000149  -0.000696   0.225544   0.361737  -0.000000
    24  O    0.000000  -0.000000   0.000000   0.000000  -0.000000   8.524737
    25  H   -0.000000   0.000000  -0.000000  -0.000000   0.000000   0.130662
    26  H   -0.000006   0.000001  -0.000000  -0.000000   0.000000   0.133345
    27  H    0.000000   0.000000  -0.000000  -0.000000   0.000000   0.227581
    28  O   -0.000000   0.000000  -0.000000   0.000000  -0.000000  -0.100569
    29  H    0.000001   0.000001   0.000000  -0.000015   0.000003   0.004943
    30  H    0.000000   0.000000   0.000000  -0.000000   0.000000   0.004340
              25         26         27         28         29         30
     1  O    0.004789   0.003074   0.000012  -0.095886   0.115872   0.004613
     2  C    0.000019   0.000069   0.000002  -0.000094   0.002060   0.000023
     3  C    0.000107   0.002129   0.000000  -0.000043   0.001367  -0.000002
     4  C   -0.000003  -0.000098   0.000000   0.000009   0.000029  -0.000000
     5  C   -0.000089  -0.015706  -0.000342   0.004701  -0.004262  -0.000085
     6  C   -0.000387  -0.000507  -0.000031   0.001889  -0.009222  -0.000729
     7  H   -0.000000   0.000002   0.000000   0.000002  -0.000058  -0.000000
     8  H    0.000009   0.000008   0.000000  -0.000097  -0.001222   0.000033
     9  H   -0.000010  -0.000059  -0.000008   0.000005  -0.000206  -0.000001
    10  H   -0.001227  -0.006575  -0.000160   0.001664  -0.001909  -0.000024
    11  C    0.000197   0.000410   0.000070   0.002921  -0.000884  -0.000029
    12  H    0.000340  -0.000033   0.000639  -0.000392  -0.000089   0.000126
    13  H    0.000012  -0.000024   0.000005   0.002958   0.003855   0.004565
    14  H   -0.000003  -0.000028  -0.000001   0.000003  -0.000078  -0.000000
    15  O    0.005387   0.128163   0.004788  -0.001598   0.004247   0.000028
    16  O    0.000000  -0.000000   0.000000   0.000021  -0.000028  -0.000003
    17  H    0.000000   0.000000   0.000000   0.000002  -0.000023  -0.000002
    18  O   -0.000001  -0.000043  -0.000000   0.000001  -0.000085  -0.000000
    19  H   -0.000000  -0.000006   0.000000  -0.000000   0.000001   0.000000
    20  O    0.000000   0.000001   0.000000   0.000000   0.000001   0.000000
    21  H   -0.000000  -0.000000  -0.000000  -0.000000   0.000000   0.000000
    22  O   -0.000000  -0.000000  -0.000000   0.000000  -0.000015  -0.000000
    23  H    0.000000   0.000000   0.000000  -0.000000   0.000003   0.000000
    24  O    0.130662   0.133345   0.227581  -0.100569   0.004943   0.004340
    25  H    0.294576  -0.010651  -0.004846   0.127041  -0.007335  -0.002217
    26  H   -0.010651   0.302433  -0.006308   0.006208  -0.000838  -0.000205
    27  H   -0.004846  -0.006308   0.379635   0.004282  -0.000118  -0.000376
    28  O    0.127041   0.006208   0.004282   8.527470   0.129276   0.229291
    29  H   -0.007335  -0.000838  -0.000118   0.129276   0.282098  -0.006300
    30  H   -0.002217  -0.000205  -0.000376   0.229291  -0.006300   0.363201
 Mulliken charges:
               1
     1  O   -0.644358
     2  C    0.065019
     3  C    0.118913
     4  C    0.145701
     5  C    0.282934
     6  C    0.149360
     7  H    0.141301
     8  H    0.136114
     9  H    0.158097
    10  H    0.127116
    11  C   -0.084926
    12  H    0.173961
    13  H    0.110695
    14  H    0.160271
    15  O   -0.625290
    16  O   -0.615821
    17  H    0.401072
    18  O   -0.627504
    19  H    0.394850
    20  O   -0.650510
    21  H    0.408163
    22  O   -0.668295
    23  H    0.408398
    24  O   -0.842915
    25  H    0.463630
    26  H    0.465239
    27  H    0.395176
    28  O   -0.839064
    29  H    0.488918
    30  H    0.403754
 Sum of Mulliken charges =  -0.00000
 Mulliken charges with hydrogens summed into heavy atoms:
               1
     1  O   -0.155440
     2  C    0.223116
     3  C    0.279184
     4  C    0.287002
     5  C    0.410050
     6  C    0.285474
    11  C    0.199731
    15  O   -0.625290
    16  O   -0.214748
    18  O   -0.232654
    20  O   -0.242347
    22  O   -0.259896
    24  O    0.017499
    28  O    0.028320
 APT charges:
               1
     1  O   -0.399970
     2  C   -0.103346
     3  C   -0.266090
     4  C   -0.252575
     5  C   -0.245083
     6  C   -0.286902
     7  H    0.369249
     8  H    0.416121
     9  H    0.290091
    10  H    0.428950
    11  C   -0.549160
    12  H    0.276403
    13  H    0.422420
    14  H    0.435842
    15  O   -0.440997
    16  O   -0.848256
    17  H    0.732961
    18  O   -0.922560
    19  H    0.803930
    20  O   -0.748963
    21  H    0.648884
    22  O   -0.813380
    23  H    0.608031
    24  O   -1.079801
    25  H    0.388401
    26  H    0.347100
    27  H    0.724954
    28  O   -1.115914
    29  H    0.414221
    30  H    0.765437
 Sum of APT charges =  -0.00000
 APT charges with hydrogens summed into heavy atoms:
               1
     1  O    0.014251
     2  C    0.186745
     3  C    0.169753
     4  C    0.116674
     5  C    0.183867
     6  C    0.129219
    11  C    0.149662
    15  O   -0.440997
    16  O   -0.115294
    18  O   -0.118630
    20  O   -0.100079
    22  O   -0.205348
    24  O   -0.007746
    28  O    0.037925
 Electronic spatial extent (au):  <R**2>=           3086.8549
 Charge=              0.0000 electrons
 Dipole moment (field-independent basis, Debye):
    X=              3.5749    Y=              3.9008    Z=             -0.9371  Tot=              5.3735
 Quadrupole moment (field-independent basis, Debye-Ang):
   XX=            -85.2188   YY=            -74.3285   ZZ=            -86.1765
   XY=              5.3542   XZ=             -1.2962   YZ=             -5.8196
 Traceless Quadrupole moment (field-independent basis, Debye-Ang):
   XX=             -3.3109   YY=              7.5795   ZZ=             -4.2686
   XY=              5.3542   XZ=             -1.2962   YZ=             -5.8196
 Octapole moment (field-independent basis, Debye-Ang**2):
  XXX=             57.8924  YYY=            -15.2250  ZZZ=              4.3682  XYY=             -8.1890
  XXY=             49.6263  XXZ=              5.6590  XZZ=             13.4959  YZZ=             18.0083
  YYZ=            -16.8348  XYZ=             -2.9293
 Hexadecapole moment (field-independent basis, Debye-Ang**3):
 XXXX=          -1744.1220 YYYY=          -1122.2779 ZZZZ=           -369.1461 XXXY=             56.0852
 XXXZ=             13.6805 YYYX=             -1.7995 YYYZ=            -68.0526 ZZZX=             16.8453
 ZZZY=             -5.0053 XXYY=           -583.6287 XXZZ=           -333.1920 YYZZ=           -299.6270
 XXYZ=              4.7100 YYXZ=            -40.1127 ZZXY=              9.3807
 N-N= 1.117861531626D+03 E-N=-4.208449028857D+03  KE= 8.328135149162D+02
  Exact polarizability:   0.000   0.000   0.000   0.000   0.000   0.000
 Approx polarizability: 135.776  -2.648 135.662   0.980  -4.116 133.473
 Calling FoFJK, ICntrl=    100147 FMM=F ISym2X=0 I1Cent= 0 IOpClX= 0 NMat=1 NMatS=1 NMatT=0.
 -------------------------------------------------------------------
 Center     Atomic                   Forces (Hartrees/Bohr)
 Number     Number              X              Y              Z
 -------------------------------------------------------------------
      1        8          -0.000000982    0.000002096   -0.000000105
      2        6           0.000000334   -0.000001404    0.000000722
      3        6           0.000001076   -0.000000632   -0.000001533
      4        6           0.000000471   -0.000002354   -0.000000636
      5        6           0.000003064   -0.000000628   -0.000000920
      6        6          -0.000001356    0.000000517    0.000000717
      7        1           0.000000432   -0.000000756    0.000000019
      8        1          -0.000000593    0.000000218    0.000001080
      9        1          -0.000000739   -0.000000956   -0.000000322
     10        1           0.000000924    0.000000687   -0.000000943
     11        6          -0.000001756    0.000000780    0.000001136
     12        1          -0.000001123    0.000000676   -0.000000287
     13        1          -0.000001926    0.000000760    0.000001533
     14        1           0.000000811   -0.000001152   -0.000000717
     15        8           0.000000362   -0.000000032   -0.000001159
     16        8          -0.000004121    0.000000410    0.000002198
     17        1          -0.000001449   -0.000000284    0.000002014
     18        8           0.000001694    0.000009905   -0.000007249
     19        1           0.000003795   -0.000011572    0.000003354
     20        8           0.000000718   -0.000004773   -0.000000707
     21        1          -0.000000177   -0.000001739   -0.000000211
     22        8          -0.000001798   -0.000002552    0.000002162
     23        1          -0.000001785   -0.000001400    0.000000605
     24        8           0.000002337    0.000002243   -0.000001697
     25        1           0.000000425    0.000001531    0.000000105
     26        1          -0.000000169    0.000000486   -0.000000148
     27        1           0.000000537    0.000002009    0.000000867
     28        8          -0.000002064   -0.000002664    0.000001616
     29        1          -0.000000188    0.000000548    0.000000164
     30        1           0.000003247    0.000010030   -0.000001655
 -------------------------------------------------------------------
 Cartesian Forces:  Max     0.000011572 RMS     0.000002566
 IRC-IRC-IRC-IRC-IRC-IRC-IRC-IRC-IRC-IRC-IRC-IRC-IRC-IRC-IRC-IRC-IRC-IRC
          ******** Start new reaction path calculation ********
 Supplied step size of   0.1000 bohr.
    Integration on MW PES will use step size of   0.1053 sqrt(amu)*bohr.
 Point Number:   0          Path Number:   1
 Calculating another point on the path.
 IRC-IRC-IRC-IRC-IRC-IRC-IRC-IRC-IRC-IRC-IRC-IRC-IRC-IRC-IRC-IRC-IRC-IRC
                          Input orientation:                          
 ---------------------------------------------------------------------
 Center     Atomic      Atomic             Coordinates (Angstroms)
 Number     Number       Type             X           Y           Z
 ---------------------------------------------------------------------
      1          8           0        0.645140   -0.198576   -0.990741
      2          6           0       -1.201081    0.838995    0.233802
      3          6           0       -1.099773   -1.686616    0.117128
      4          6           0       -1.941053   -0.435853   -0.167776
      5          6           0        0.417490   -1.411180    0.177500
      6          6           0        0.024879    1.057021   -0.670520
      7          1           0       -2.125948   -0.408233   -1.253562
      8          1           0       -0.351785    1.473189   -1.616911
      9          1           0       -0.886743    0.748632    1.280943
     10          1           0        0.984263   -2.167579   -0.390042
     11          6           0        1.017645    2.044284   -0.039287
     12          1           0        1.376686    1.639323    0.910182
     13          1           0        1.886306    2.201377   -0.696837
     14          1           0       -1.379566   -2.045230    1.116372
     15          8           0        0.889415   -1.028913    1.325403
     16          8           0        0.388147    3.291899    0.267239
     17          1           0        0.198299    3.739198   -0.573430
     18          8           0       -1.412833   -2.645207   -0.886708
     19          1           0       -1.177814   -3.522120   -0.547455
     20          8           0       -3.160780   -0.536848    0.547089
     21          1           0       -3.547962    0.355556    0.518137
     22          8           0       -2.121279    1.920905    0.087074
     23          1           0       -1.679266    2.692827    0.481062
     24          8           0        3.313647   -0.996525    1.120527
     25          1           0        3.314363   -0.592188   -0.060105
     26          1           0        2.161919   -1.053796    1.312813
     27          1           0        3.669467   -0.330037    1.728466
     28          8           0        3.052733   -0.305131   -1.182007
     29          1           0        1.875750   -0.171165   -1.168966
     30          1           0        3.504626    0.508213   -1.452150
 ---------------------------------------------------------------------
                    Distance matrix (angstroms):
                    1          2          3          4          5
     1  O    0.000000
     2  C    2.446342   0.000000
     3  C    2.546833   2.530333   0.000000
     4  C    2.724329   1.527764   1.534057   0.000000
     5  C    1.699124   2.772405   1.543243   2.575501   0.000000
     6  C    1.436590   1.538932   3.068025   2.519189   2.639185
     7  H    2.791408   2.150165   2.136841   1.101762   3.085923
     8  H    2.044687   2.132755   3.681133   2.875797   3.482999
     9  H    2.899038   1.097031   2.707449   2.147874   2.753797
    10  H    2.086341   3.768873   2.198126   3.406722   1.102487
    11  C    2.464640   2.539694   4.292732   3.862835   3.513889
    12  H    2.743454   2.782606   4.221807   4.059032   3.280617
    13  H    2.717839   3.500590   4.969477   4.677988   3.996555
    14  H    3.456803   3.021513   1.097896   2.134103   2.124361
    15  O    2.472580   3.008463   2.418547   3.254667   1.298661
    16  O    3.719136   2.922926   5.198273   4.417074   4.704026
    17  H    3.984957   3.319799   5.621505   4.708762   5.209446
    18  O    3.198762   3.666067   1.422881   2.382672   2.450601
    19  H    3.816492   4.430602   1.953673   3.201833   2.743470
    20  O    4.118783   2.414853   2.398871   1.417380   3.702036
    21  H    4.490644   2.412968   3.213239   1.918062   4.354561
    22  O    3.647871   1.427874   3.749478   2.377339   4.190026
    23  H    3.991150   1.930412   4.432581   3.205957   4.618593
    24  O    3.495013   4.953604   4.578353   5.439298   3.073917
    25  H    2.854079   4.745935   4.551240   5.258844   3.019781
    26  H    2.887626   4.007080   3.531113   4.405494   2.111798
    27  H    4.069143   5.227131   5.213671   5.923248   3.761611
    28  O    2.417528   4.626929   4.565036   5.097416   3.164823
    29  H    1.243752   3.529174   3.578320   3.954798   2.340327
    30  H    2.981462   5.009544   5.336703   5.674179   3.983747
                    6          7          8          9         10
     6  C    0.000000
     7  H    2.667014   0.000000
     8  H    1.100330   2.611403   0.000000
     9  H    2.175860   3.049210   3.034587   0.000000
    10  H    3.375965   3.676191   4.067607   3.846706   0.000000
    11  C    1.535816   4.167912   2.165730   2.654886   4.226575
    12  H    2.159879   4.598121   3.066172   2.460469   4.041916
    13  H    2.185213   4.818526   2.527024   3.702956   4.471642
    14  H    3.845700   2.975471   4.572356   2.841764   2.805698
    15  O    3.013678   4.016058   4.056883   2.513241   2.061142
    16  O    2.450721   4.724879   2.721254   3.020123   5.531119
    17  H    2.689530   4.802696   2.554651   3.682323   5.961660
    18  O    3.977467   2.376377   4.315113   4.061235   2.494169
    19  H    4.736048   3.330741   5.174860   4.654792   2.556196
    20  O    3.764494   2.080807   4.075978   2.713346   4.551800
    21  H    3.830164   2.396751   4.002884   2.796152   5.266125
    22  O    2.434387   2.687417   2.497023   2.079333   5.156330
    23  H    2.627948   3.581204   2.766083   2.246730   5.610415
    24  O    4.270937   5.964192   5.198890   4.551328   3.013174
    25  H    3.730041   5.572716   4.486655   4.609284   2.831975
    26  H    3.599458   5.038734   4.613854   3.541766   2.350979
    27  H    4.578437   6.518086   5.532960   4.703494   3.882648
    28  O    3.359312   5.180201   3.865528   4.764033   2.893871
    29  H    2.276535   4.009607   2.804722   3.805187   2.321022
    30  H    3.608432   5.708124   3.978723   5.178004   3.826247
                   11         12         13         14         15
    11  C    0.000000
    12  H    1.092884   0.000000
    13  H    1.100737   1.777112   0.000000
    14  H    4.879170   4.606014   5.655733   0.000000
    15  O    3.365021   2.743961   3.939292   2.494969   0.000000
    16  O    1.430653   2.030170   2.088818   5.686016   4.476650
    17  H    1.956878   2.828281   2.286808   6.229341   5.178619
    18  O    5.349456   5.419172   5.865982   2.091270   3.578573
    19  H    6.005259   5.940595   6.493810   2.233882   3.741272
    20  O    4.946243   5.045409   5.875229   2.402503   4.153551
    21  H    4.899725   5.104304   5.866387   3.289924   4.717918
    22  O    3.143889   3.604519   4.093155   4.164111   4.393082
    23  H    2.822180   3.260806   3.787119   4.789845   4.600259
    24  O    3.982878   3.277768   3.945465   4.808956   2.433090
    25  H    3.496617   3.110577   3.201372   5.052564   2.826788
    26  H    3.568703   2.834006   3.835467   3.682886   1.272810
    27  H    3.974231   3.131264   3.933168   5.367428   2.894750
    28  O    3.311667   3.311689   2.806871   5.287321   3.389824
    29  H    2.630728   2.801747   2.419085   4.396814   2.816108
    30  H    3.246655   3.374633   2.460948   6.080519   4.113014
                   16         17         18         19         20
    16  O    0.000000
    17  H    0.971001   0.000000
    18  O    6.310653   6.592004   0.000000
    19  H    7.038950   7.390609   0.969177   0.000000
    20  O    5.228050   5.551896   3.091321   3.747269   0.000000
    21  H    4.917114   5.164787   3.941693   4.667918   0.973208
    22  O    2.865188   3.020413   4.722238   5.560511   2.707901
    23  H    2.163054   2.394179   5.516918   6.319404   3.553878
    24  O    5.260916   5.916246   5.393215   5.416089   6.516007
    25  H    4.874015   5.360435   5.219630   5.385320   6.503785
    26  H    4.808800   5.512396   4.488801   4.550499   5.402286
    27  H    5.101045   5.822921   6.166760   6.234208   6.934746
    28  O    4.705205   4.987460   5.050191   5.352495   6.453774
    29  H    4.033417   4.296445   4.124965   4.575963   5.333405
    30  H    4.518589   4.705658   5.869002   6.243982   7.036814
                   21         22         23         24         25
    21  H    0.000000
    22  O    2.161379   0.000000
    23  H    2.992697   0.972865   0.000000
    24  O    7.019451   6.254427   6.240947   0.000000
    25  H    6.951553   5.990284   6.001709   1.247951   0.000000
    26  H    5.934689   5.356965   5.429889   1.169073   1.850976
    27  H    7.350253   6.426014   6.269184   0.969744   1.842229
    28  O    6.848078   5.773751   5.843403   2.418216   1.187231
    29  H    5.704420   4.683016   4.854192   2.826756   1.864522
    30  H    7.324230   6.001310   5.948326   2.986533   1.784621
                   26         27         28         29         30
    26  H    0.000000
    27  H    1.723164   0.000000
    28  O    2.752848   2.975203   0.000000
    29  H    2.649558   3.411418   1.184654   0.000000
    30  H    3.447862   3.293349   0.968872   1.787452   0.000000
 Symmetry turned off by external request.
 Stoichiometry    C6H16O8
 Framework group  C1[X(C6H16O8)]
 Deg. of freedom    84
 Full point group                 C1      NOp   1
 Rotational constants (GHZ):      0.7206493      0.5568517      0.3745488
 Standard basis: 6-31G(d) (6D, 7F)
   242 basis functions,   456 primitive gaussians,   242 cartesian basis functions
    58 alpha electrons       58 beta electrons
       nuclear repulsion energy      1117.8927272989 Hartrees.
 NAtoms=   30 NActive=   30 NUniq=   30 SFac= 1.00D+00 NAtFMM=   60 NAOKFM=F Big=F
 Integral buffers will be    131072 words long.
 Raffenetti 2 integral format.
 Two-electron integral symmetry is turned off.
 One-electron integrals computed using PRISM.
 NBasis=   242 RedAO= T EigKep=  1.30D-03  NBF=   242
 NBsUse=   242 1.00D-06 EigRej= -1.00D+00 NBFU=   242
 Initial guess from the checkpoint file:  "/scratch/10461011.yak.local/Gau-21102.chk"
 B after Tr=     0.063286    0.024774   -0.003314
         Rot=    1.000000    0.000017    0.000068    0.000014 Ang=   0.01 deg.
 ExpMin= 1.61D-01 ExpMax= 5.48D+03 ExpMxC= 8.25D+02 IAcc=1 IRadAn=         1 AccDes= 0.00D+00
 Harris functional with IExCor=  402 and IRadAn=       1 diagonalized for initial guess.
 HarFok:  IExCor=  402 AccDes= 0.00D+00 IRadAn=         1 IDoV= 1 UseB2=F ITyADJ=14
 ICtDFT=  3500011 ScaDFX=  1.000000  1.000000  1.000000  1.000000
 FoFCou: FMM=F IPFlag=           0 FMFlag=      100000 FMFlg1=           0
         NFxFlg=           0 DoJE=T BraDBF=F KetDBF=T FulRan=T
         wScrn=  0.000000 ICntrl=     500 IOpCl=  0 I1Cent=   200000004 NGrid=           0
         NMat0=    1 NMatS0=      1 NMatT0=    0 NMatD0=    1 NMtDS0=    0 NMtDT0=    0
 Symmetry not used in FoFCou.
 Requested convergence on RMS density matrix=1.00D-08 within 128 cycles.
 Requested convergence on MAX density matrix=1.00D-06.
 Requested convergence on             energy=1.00D-06.
 No special actions if energy rises.
 Integral accuracy reduced to 1.0D-05 until final iterations.
 Initial convergence to 1.0D-05 achieved.  Increase integral accuracy.
 SCF Done:  E(RB3LYP) =  -839.954870614     A.U. after   11 cycles
            NFock= 11  Conv=0.74D-08     -V/T= 2.0086
 DoSCS=F DFT=T ScalE2(SS,OS)=  1.000000  1.000000
 Range of M.O.s used for correlation:     1   242
 NBasis=   242 NAE=    58 NBE=    58 NFC=     0 NFV=     0
 NROrb=    242 NOA=    58 NOB=    58 NVA=   184 NVB=   184
 Symmetrizing basis deriv contribution to polar:
 IMax=3 JMax=2 DiffMx= 0.00D+00
 Calling FoFJK, ICntrl=      2147 FMM=F ISym2X=0 I1Cent= 0 IOpClX= 0 NMat=1 NMatS=1 NMatT=0.
 -------------------------------------------------------------------
 Center     Atomic                   Forces (Hartrees/Bohr)
 Number     Number              X              Y              Z
 -------------------------------------------------------------------
      1        8          -0.001900066   -0.001560786    0.002522602
      2        6          -0.000047479    0.000239851   -0.000074415
      3        6           0.000188206   -0.000004186    0.000378032
      4        6           0.000036552    0.000073326    0.000032342
      5        6          -0.000194181    0.002675090   -0.004452083
      6        6          -0.000113666   -0.001174531    0.000297163
      7        1           0.000018785   -0.000010733    0.000006522
      8        1           0.000031089   -0.000070062   -0.000003185
      9        1          -0.000039844    0.000026756    0.000024119
     10        1          -0.000049332   -0.000039068    0.000108459
     11        6          -0.000135182   -0.000142883   -0.000052955
     12        1           0.000002299    0.000030402    0.000012056
     13        1          -0.000010507   -0.000003764   -0.000005100
     14        1           0.000000572   -0.000025649    0.000027771
     15        8           0.003228738    0.000061145    0.001451417
     16        8           0.000028028    0.000115129    0.000042124
     17        1          -0.000019883   -0.000021762   -0.000004253
     18        8           0.000103269    0.000071488    0.000138420
     19        1          -0.000009006   -0.000017612    0.000006866
     20        8          -0.000020262   -0.000059556    0.000013306
     21        1           0.000022527    0.000006275    0.000005221
     22        8          -0.000256192    0.000063226    0.000151980
     23        1           0.000015690    0.000003359   -0.000031548
     24        8           0.000265226    0.000703334   -0.002956119
     25        1           0.000391597   -0.001206824    0.004278440
     26        1          -0.003892404   -0.000021301    0.000046201
     27        1           0.000112372    0.000174161   -0.000418125
     28        8          -0.001280967    0.000217644   -0.000678540
     29        1           0.004000679   -0.000197663   -0.000590512
     30        1          -0.000476659    0.000095194   -0.000276209
 -------------------------------------------------------------------
 Cartesian Forces:  Max     0.004452083 RMS     0.001141909
 IRC-IRC-IRC-IRC-IRC-IRC-IRC-IRC-IRC-IRC-IRC-IRC-IRC-IRC-IRC-IRC-IRC-IRC
 Pt  1 Step number   1 out of a maximum of  20
 Modified Bulirsch-Stoer Extrapolation Cycles:
    EPS =    0.000010000000000
 Maximum DWI energy   std dev =  0.000003009 at pt    53
 Maximum DWI gradient std dev =  0.045074410 at pt     2
 CORRECTOR INTEGRATION CONVERGENCE:
   Recorrection delta-x convergence threshold:    0.010000
   Delta-x Convergence Met
 Point Number:   1          Path Number:   1
   CHANGE IN THE REACTION COORDINATE =    0.10521
   NET REACTION COORDINATE UP TO THIS POINT =    0.10521
  # OF POINTS ALONG THE PATH =   1
  # OF STEPS =   1

 Calculating another point on the path.
 IRC-IRC-IRC-IRC-IRC-IRC-IRC-IRC-IRC-IRC-IRC-IRC-IRC-IRC-IRC-IRC-IRC-IRC
                          Input orientation:                          
 ---------------------------------------------------------------------
 Center     Atomic      Atomic             Coordinates (Angstroms)
 Number     Number       Type             X           Y           Z
 ---------------------------------------------------------------------
      1          8           0        0.644186   -0.199289   -0.989599
      2          6           0       -1.201111    0.839146    0.233754
      3          6           0       -1.099667   -1.686631    0.117368
      4          6           0       -1.941035   -0.435803   -0.167759
      5          6           0        0.417341   -1.409612    0.174740
      6          6           0        0.024789    1.056348   -0.670336
      7          1           0       -2.125806   -0.408322   -1.253511
      8          1           0       -0.351578    1.472711   -1.616944
      9          1           0       -0.887042    0.748844    1.281127
     10          1           0        0.983976   -2.167837   -0.389151
     11          6           0        1.017577    2.044201   -0.039322
     12          1           0        1.376727    1.639560    0.910274
     13          1           0        1.886246    2.201319   -0.696865
     14          1           0       -1.379612   -2.045420    1.116577
     15          8           0        0.890911   -1.028877    1.326116
     16          8           0        0.388153    3.291947    0.267258
     17          1           0        0.198185    3.739062   -0.573464
     18          8           0       -1.412779   -2.645174   -0.886640
     19          1           0       -1.177908   -3.522191   -0.547453
     20          8           0       -3.160785   -0.536877    0.547095
     21          1           0       -3.547803    0.355603    0.518170
     22          8           0       -2.121392    1.920929    0.087144
     23          1           0       -1.679143    2.692857    0.480836
     24          8           0        3.313793   -0.996230    1.119211
     25          1           0        3.317091   -0.601064   -0.028678
     26          1           0        2.133111   -1.053855    1.312904
     27          1           0        3.670484   -0.328569    1.725517
     28          8           0        3.052187   -0.305020   -1.182365
     29          1           0        1.905418   -0.172648   -1.173270
     30          1           0        3.501450    0.509131   -1.454360
 ---------------------------------------------------------------------
                    Distance matrix (angstroms):
                    1          2          3          4          5
     1  O    0.000000
     2  C    2.445417   0.000000
     3  C    2.545307   2.530491   0.000000
     4  C    2.723001   1.527808   1.534199   0.000000
     5  C    1.694706   2.771243   1.543160   2.574402   0.000000
     6  C    1.436038   1.538632   3.067378   2.518643   2.636136
     7  H    2.790377   2.150161   2.136900   1.101705   3.083842
     8  H    2.044674   2.132649   3.680885   2.875576   3.479821
     9  H    2.898243   1.097171   2.707597   2.147920   2.753987
    10  H    2.085947   3.768894   2.197655   3.406559   1.101795
    11  C    2.464892   2.539548   4.292596   3.862681   3.512112
    12  H    2.743629   2.782731   4.221939   4.059166   3.280073
    13  H    2.718699   3.500478   4.969387   4.677869   3.994522
    14  H    3.455421   3.021913   1.097961   2.134380   2.126110
    15  O    2.472171   3.009871   2.419941   3.256274   1.301882
    16  O    3.719405   2.922861   5.198299   4.417067   4.702560
    17  H    3.985310   3.319510   5.621371   4.708542   5.207369
    18  O    3.197509   3.666139   1.422982   2.382680   2.449996
    19  H    3.815390   4.430810   1.953814   3.201924   2.743969
    20  O    4.117427   2.414942   2.398918   1.417399   3.701797
    21  H    4.489326   2.412813   3.213212   1.917948   4.353883
    22  O    3.647345   1.427818   3.749576   2.377329   4.188717
    23  H    3.990557   1.930235   4.432586   3.205897   4.617271
    24  O    3.494137   4.953483   4.578097   5.439079   3.074466
    25  H    2.868660   4.749445   4.550553   5.262561   3.017230
    26  H    2.872055   3.983097   3.504364   4.378701   2.089462
    27  H    4.067806   5.226983   5.213906   5.923271   3.762513
    28  O    2.418016   4.626559   4.564651   5.096940   3.162953
    29  H    1.274813   3.557241   3.603945   3.984408   2.358301
    30  H    2.980238   5.007267   5.334977   5.671763   3.980864
                    6          7          8          9         10
     6  C    0.000000
     7  H    2.666535   0.000000
     8  H    1.100489   2.611179   0.000000
     9  H    2.175822   3.049255   3.034719   0.000000
    10  H    3.375570   3.676106   4.067526   3.846761   0.000000
    11  C    1.536119   4.167731   2.165658   2.655016   4.226674
    12  H    2.160139   4.598208   3.066220   2.460804   4.042156
    13  H    2.185563   4.818366   2.526909   3.703143   4.471946
    14  H    3.845303   2.975602   4.572333   2.842114   2.805129
    15  O    3.013992   4.017480   4.057502   2.514644   2.061076
    16  O    2.451331   4.724905   2.721588   3.020170   5.531285
    17  H    2.690058   4.802520   2.554885   3.682205   5.961786
    18  O    3.976764   2.376239   4.314681   4.061401   2.493949
    19  H    4.735461   3.330646   5.174521   4.655109   2.555989
    20  O    3.764092   2.080838   4.075923   2.713261   4.551443
    21  H    3.829752   2.396770   4.002811   2.795781   5.265739
    22  O    2.434619   2.687524   2.497410   2.079182   5.156372
    23  H    2.628069   3.581170   2.766200   2.246570   5.610296
    24  O    4.270023   5.963613   5.197802   4.551760   3.012617
    25  H    3.741389   5.582338   4.503583   4.605711   2.833397
    26  H    3.582069   5.014138   4.597958   3.517394   2.336335
    27  H    4.577029   6.517511   5.531151   4.704184   3.882274
    28  O    3.358665   5.179512   3.864556   4.764131   2.894265
    29  H    2.302203   4.038904   2.828088   3.830280   2.333382
    30  H    3.605734   5.705093   3.975015   5.176796   3.826030
                   11         12         13         14         15
    11  C    0.000000
    12  H    1.092912   0.000000
    13  H    1.100743   1.777099   0.000000
    14  H    4.879304   4.606412   5.655899   0.000000
    15  O    3.365156   2.743992   3.939202   2.496505   0.000000
    16  O    1.430747   2.030057   2.088848   5.686283   4.476992
    17  H    1.956851   2.828136   2.286795   6.229439   5.178949
    18  O    5.349282   5.419335   5.865840   2.091335   3.579902
    19  H    6.005253   5.940942   6.493838   2.233950   3.742578
    20  O    4.946166   5.045571   5.875175   2.402621   4.155139
    21  H    4.899475   5.104242   5.866163   3.289993   4.719295
    22  O    3.143933   3.604656   4.093221   4.164360   4.394357
    23  H    2.821988   3.260704   3.786897   4.790110   4.601193
    24  O    3.982339   3.277692   3.944660   4.809246   2.431919
    25  H    3.505040   3.109186   3.216698   5.045471   2.811554
    26  H    3.559618   2.826430   3.833572   3.655266   1.242522
    27  H    3.972733   3.130411   3.930874   5.368598   2.894128
    28  O    3.311347   3.311751   2.806575   5.287245   3.389330
    29  H    2.643581   2.811542   2.421374   4.420643   2.830067
    30  H    3.244749   3.373991   2.458899   6.079491   4.112352
                   16         17         18         19         20
    16  O    0.000000
    17  H    0.970986   0.000000
    18  O    6.310646   6.591795   0.000000
    19  H    7.039089   7.390542   0.969211   0.000000
    20  O    5.228113   5.551756   3.091284   3.747256   0.000000
    21  H    4.916993   5.164483   3.941635   4.667894   0.973212
    22  O    2.865301   3.020340   4.722255   5.560614   2.707897
    23  H    2.162923   2.393837   5.516840   6.319449   3.553989
    24  O    5.260575   5.915670   5.392860   5.416052   6.516017
    25  H    4.880757   5.372249   5.223615   5.385826   6.503730
    26  H    4.798359   5.502216   4.465829   4.529510   5.373925
    27  H    5.099838   5.821323   6.166813   6.234782   6.935294
    28  O    4.704960   4.987052   5.049722   5.352289   6.453356
    29  H    4.047299   4.309976   4.148008   4.595430   5.362716
    30  H    4.516708   4.703190   5.866993   6.242630   7.034582
                   21         22         23         24         25
    21  H    0.000000
    22  O    2.161175   0.000000
    23  H    2.992664   0.972857   0.000000
    24  O    7.019273   6.254296   6.240696   0.000000
    25  H    6.952771   5.995912   6.005986   1.214008   0.000000
    26  H    5.906857   5.334100   5.409572   1.197850   1.845716
    27  H    7.350472   6.425756   6.268712   0.969849   1.810066
    28  O    6.847489   5.773424   5.842857   2.417325   1.220168
    29  H    5.733902   4.710298   4.878141   2.813765   1.867204
    30  H    7.321641   5.998814   5.945771   2.987406   1.816341
                   26         27         28         29         30
    26  H    0.000000
    27  H    1.749229   0.000000
    28  O    2.762575   2.972982   0.000000
    29  H    2.647533   3.397460   1.154419   0.000000
    30  H    3.460206   3.292709   0.968846   1.758168   0.000000
 Symmetry turned off by external request.
 Stoichiometry    C6H16O8
 Framework group  C1[X(C6H16O8)]
 Deg. of freedom    84
 Full point group                 C1      NOp   1
 Rotational constants (GHZ):      0.7207654      0.5568993      0.3745727
 Standard basis: 6-31G(d) (6D, 7F)
   242 basis functions,   456 primitive gaussians,   242 cartesian basis functions
    58 alpha electrons       58 beta electrons
       nuclear repulsion energy      1117.9239235768 Hartrees.
 NAtoms=   30 NActive=   30 NUniq=   30 SFac= 1.00D+00 NAtFMM=   60 NAOKFM=F Big=F
 Integral buffers will be    131072 words long.
 Raffenetti 2 integral format.
 Two-electron integral symmetry is turned off.
 One-electron integrals computed using PRISM.
 NBasis=   242 RedAO= T EigKep=  1.30D-03  NBF=   242
 NBsUse=   242 1.00D-06 EigRej= -1.00D+00 NBFU=   242
 Initial guess from the checkpoint file:  "/scratch/10461011.yak.local/Gau-21102.chk"
 B after Tr=     0.000009   -0.000069    0.000179
         Rot=    1.000000    0.000017    0.000072    0.000015 Ang=   0.01 deg.
 ExpMin= 1.61D-01 ExpMax= 5.48D+03 ExpMxC= 8.25D+02 IAcc=1 IRadAn=         1 AccDes= 0.00D+00
 Harris functional with IExCor=  402 and IRadAn=       1 diagonalized for initial guess.
 HarFok:  IExCor=  402 AccDes= 0.00D+00 IRadAn=         1 IDoV= 1 UseB2=F ITyADJ=14
 ICtDFT=  3500011 ScaDFX=  1.000000  1.000000  1.000000  1.000000
 FoFCou: FMM=F IPFlag=           0 FMFlag=      100000 FMFlg1=           0
         NFxFlg=           0 DoJE=T BraDBF=F KetDBF=T FulRan=T
         wScrn=  0.000000 ICntrl=     500 IOpCl=  0 I1Cent=   200000004 NGrid=           0
         NMat0=    1 NMatS0=      1 NMatT0=    0 NMatD0=    1 NMtDS0=    0 NMtDT0=    0
 Symmetry not used in FoFCou.
 Requested convergence on RMS density matrix=1.00D-08 within 128 cycles.
 Requested convergence on MAX density matrix=1.00D-06.
 Requested convergence on             energy=1.00D-06.
 No special actions if energy rises.
 Integral accuracy reduced to 1.0D-05 until final iterations.
 Initial convergence to 1.0D-05 achieved.  Increase integral accuracy.
 SCF Done:  E(RB3LYP) =  -839.956084138     A.U. after   11 cycles
            NFock= 11  Conv=0.54D-08     -V/T= 2.0086
 DoSCS=F DFT=T ScalE2(SS,OS)=  1.000000  1.000000
 Range of M.O.s used for correlation:     1   242
 NBasis=   242 NAE=    58 NBE=    58 NFC=     0 NFV=     0
 NROrb=    242 NOA=    58 NOB=    58 NVA=   184 NVB=   184
 Symmetrizing basis deriv contribution to polar:
 IMax=3 JMax=2 DiffMx= 0.00D+00
 Calling FoFJK, ICntrl=      2147 FMM=F ISym2X=0 I1Cent= 0 IOpClX= 0 NMat=1 NMatS=1 NMatT=0.
 -------------------------------------------------------------------
 Center     Atomic                   Forces (Hartrees/Bohr)
 Number     Number              X              Y              Z
 -------------------------------------------------------------------
      1        8          -0.004373057   -0.003185261    0.005104432
      2        6          -0.000105335    0.000505582   -0.000162100
      3        6           0.000354275   -0.000049530    0.000802666
      4        6           0.000061457    0.000162400    0.000058749
      5        6          -0.000522324    0.005245629   -0.009183130
      6        6          -0.000298784   -0.002257660    0.000621462
      7        1           0.000038621   -0.000022495    0.000013959
      8        1           0.000061893   -0.000139554   -0.000009517
      9        1          -0.000081381    0.000060454    0.000051798
     10        1          -0.000079947   -0.000073424    0.000248433
     11        6          -0.000223250   -0.000282177   -0.000118324
     12        1           0.000013818    0.000065035    0.000024814
     13        1          -0.000017358   -0.000020959   -0.000009565
     14        1          -0.000016240   -0.000051444    0.000058878
     15        8           0.006374870    0.000163439    0.003135959
     16        8           0.000032141    0.000215415    0.000085182
     17        1          -0.000028503   -0.000037950   -0.000012179
     18        8           0.000235207    0.000140999    0.000305527
     19        1          -0.000028841   -0.000015260    0.000001777
     20        8          -0.000023220   -0.000123206    0.000026566
     21        1           0.000044134    0.000016828    0.000009335
     22        8          -0.000502847    0.000108853    0.000309271
     23        1           0.000037165    0.000011137   -0.000065078
     24        8           0.001355328    0.001281482   -0.005452132
     25        1           0.000943887   -0.002532680    0.008970995
     26        1          -0.008478634   -0.000078087    0.000151379
     27        1           0.000272422    0.000345077   -0.000853590
     28        8          -0.001868748    0.000699856   -0.002265300
     29        1           0.007738378   -0.000320450   -0.001234311
     30        1          -0.000915127    0.000167951   -0.000615954
 -------------------------------------------------------------------
 Cartesian Forces:  Max     0.009183130 RMS     0.002336163
 IRC-IRC-IRC-IRC-IRC-IRC-IRC-IRC-IRC-IRC-IRC-IRC-IRC-IRC-IRC-IRC-IRC-IRC
 Pt  2 Step number   1 out of a maximum of  20
 Modified Bulirsch-Stoer Extrapolation Cycles:
    EPS =    0.000010000000000
 Maximum DWI energy   std dev =  0.000006200 at pt    63
 Maximum DWI gradient std dev =  0.030326291 at pt    55
 CORRECTOR INTEGRATION CONVERGENCE:
   Recorrection delta-x convergence threshold:    0.010000
   Delta-x Convergence Met
 Point Number:   2          Path Number:   1
   CHANGE IN THE REACTION COORDINATE =    0.10519
   NET REACTION COORDINATE UP TO THIS POINT =    0.21040
  # OF POINTS ALONG THE PATH =   2
  # OF STEPS =   1

 Calculating another point on the path.
 IRC-IRC-IRC-IRC-IRC-IRC-IRC-IRC-IRC-IRC-IRC-IRC-IRC-IRC-IRC-IRC-IRC-IRC
                          Input orientation:                          
 ---------------------------------------------------------------------
 Center     Atomic      Atomic             Coordinates (Angstroms)
 Number     Number       Type             X           Y           Z
 ---------------------------------------------------------------------
      1          8           0        0.643138   -0.199997   -0.988474
      2          6           0       -1.201145    0.839296    0.233705
      3          6           0       -1.099568   -1.686650    0.117607
      4          6           0       -1.941023   -0.435754   -0.167742
      5          6           0        0.417168   -1.408117    0.172012
      6          6           0        0.024686    1.055721   -0.670150
      7          1           0       -2.125669   -0.408405   -1.253461
      8          1           0       -0.351360    1.472203   -1.616987
      9          1           0       -0.887331    0.749073    1.281312
     10          1           0        0.983743   -2.168041   -0.388201
     11          6           0        1.017525    2.044120   -0.039359
     12          1           0        1.376799    1.639799    0.910355
     13          1           0        1.886180    2.201208   -0.696882
     14          1           0       -1.379687   -2.045595    1.116785
     15          8           0        0.892298   -1.028833    1.326833
     16          8           0        0.388154    3.291990    0.267276
     17          1           0        0.198117    3.738949   -0.573503
     18          8           0       -1.412722   -2.645139   -0.886569
     19          1           0       -1.178023   -3.522257   -0.547457
     20          8           0       -3.160787   -0.536905    0.547101
     21          1           0       -3.547651    0.355656    0.518202
     22          8           0       -2.121499    1.920949    0.087212
     23          1           0       -1.679009    2.692900    0.480601
     24          8           0        3.314181   -0.995978    1.118073
     25          1           0        3.320653   -0.610166    0.003525
     26          1           0        2.102200   -1.054154    1.313452
     27          1           0        3.671636   -0.327196    1.722653
     28          8           0        3.051858   -0.304842   -1.182980
     29          1           0        1.932142   -0.173651   -1.177641
     30          1           0        3.498525    0.509914   -1.456730
 ---------------------------------------------------------------------
                    Distance matrix (angstroms):
                    1          2          3          4          5
     1  O    0.000000
     2  C    2.444429   0.000000
     3  C    2.543733   2.530652   0.000000
     4  C    2.721593   1.527851   1.534344   0.000000
     5  C    1.690368   2.770127   1.543058   2.573322   0.000000
     6  C    1.435493   1.538329   3.066775   2.518119   2.633206
     7  H    2.789255   2.150154   2.136965   1.101648   3.081787
     8  H    2.044580   2.132549   3.680622   2.875350   3.476693
     9  H    2.897412   1.097314   2.707766   2.147984   2.754220
    10  H    2.085555   3.768897   2.197218   3.406417   1.101059
    11  C    2.465166   2.539422   4.292477   3.862545   3.510419
    12  H    2.743840   2.782886   4.222097   4.059329   3.279609
    13  H    2.719552   3.500339   4.969258   4.677717   3.992518
    14  H    3.454008   3.022301   1.098028   2.134642   2.127830
    15  O    2.471780   3.011202   2.421256   3.257791   1.305074
    16  O    3.719664   2.922792   5.198324   4.417055   4.701162
    17  H    3.985666   3.319263   5.621276   4.708365   5.205387
    18  O    3.196196   3.666206   1.423073   2.382688   2.449350
    19  H    3.814254   4.431014   1.953949   3.202008   2.744423
    20  O    4.115986   2.415024   2.398958   1.417411   3.701548
    21  H    4.487932   2.412661   3.213192   1.917838   4.353220
    22  O    3.646742   1.427755   3.749672   2.377314   4.187445
    23  H    3.989912   1.930067   4.432603   3.205849   4.616007
    24  O    3.493651   4.953636   4.578116   5.439149   3.075318
    25  H    2.884681   4.754007   4.550844   5.267350   3.015848
    26  H    2.856101   3.957663   3.475833   4.350173   2.065796
    27  H    4.066717   5.227013   5.214276   5.923455   3.763568
    28  O    2.418833   4.626455   4.564565   5.096734   3.161457
    29  H    1.303077   3.582659   3.627409   4.011234   2.374998
    30  H    2.979341   5.005293   5.333468   5.669608   3.978241
                    6          7          8          9         10
     6  C    0.000000
     7  H    2.666073   0.000000
     8  H    1.100622   2.610941   0.000000
     9  H    2.175778   3.049313   3.034850   0.000000
    10  H    3.375193   3.676063   4.067406   3.846784   0.000000
    11  C    1.536410   4.167564   2.165605   2.655145   4.226716
    12  H    2.160405   4.598317   3.066281   2.461155   4.042325
    13  H    2.185866   4.818173   2.526782   3.703284   4.472138
    14  H    3.844940   2.975726   4.572293   2.842473   2.804600
    15  O    3.014309   4.018827   4.058072   2.515969   2.060946
    16  O    2.451892   4.724920   2.721939   3.020192   5.531394
    17  H    2.690562   4.802382   2.555175   3.682105   5.961885
    18  O    3.976098   2.376106   4.314222   4.061578   2.493801
    19  H    4.734918   3.330547   5.174157   4.655443   2.555875
    20  O    3.763694   2.080866   4.075864   2.713191   4.551101
    21  H    3.829343   2.396792   4.002747   2.795428   5.265372
    22  O    2.434815   2.687622   2.497810   2.079023   5.156393
    23  H    2.628147   3.581141   2.766338   2.246409   5.610153
    24  O    4.269424   5.963337   5.196986   4.552423   3.012231
    25  H    3.753986   5.593133   4.521725   4.602977   2.835766
    26  H    3.564030   4.988077   4.581475   3.491412   2.321059
    27  H    4.575829   6.517100   5.529515   4.705031   3.881905
    28  O    3.358258   5.179042   3.863695   4.764523   2.894872
    29  H    2.325358   4.065303   2.848902   3.853219   2.345265
    30  H    3.603355   5.702297   3.971561   5.175886   3.825876
                   11         12         13         14         15
    11  C    0.000000
    12  H    1.092937   0.000000
    13  H    1.100716   1.777037   0.000000
    14  H    4.879453   4.606838   5.656024   0.000000
    15  O    3.365294   2.744047   3.939086   2.497967   0.000000
    16  O    1.430843   2.029952   2.088896   5.686541   4.477314
    17  H    1.956830   2.827995   2.286793   6.229565   5.179277
    18  O    5.349114   5.419508   5.865648   2.091405   3.581161
    19  H    6.005260   5.941309   6.493822   2.234032   3.743842
    20  O    4.946100   5.045758   5.875085   2.402707   4.156618
[...]
 Alpha  occ. eigenvalues --  -19.14581 -19.14262 -19.13043 -10.29310 -10.25194
 Alpha  occ. eigenvalues --  -10.24649 -10.23901 -10.23469 -10.22961  -1.06288
 Alpha  occ. eigenvalues --   -1.04887  -1.03264  -1.02413  -1.01902  -1.01113
 Alpha  occ. eigenvalues --   -0.99838  -0.98377  -0.77622  -0.76172  -0.69619
 Alpha  occ. eigenvalues --   -0.64359  -0.62546  -0.56501  -0.56047  -0.55221
 Alpha  occ. eigenvalues --   -0.54638  -0.53680  -0.52474  -0.51521  -0.49564
 Alpha  occ. eigenvalues --   -0.46779  -0.46207  -0.44443  -0.43532  -0.42633
 Alpha  occ. eigenvalues --   -0.42016  -0.41197  -0.39662  -0.38605  -0.37754
 Alpha  occ. eigenvalues --   -0.36310  -0.35831  -0.34746  -0.33519  -0.32114
 Alpha  occ. eigenvalues --   -0.31652  -0.30953  -0.29913  -0.29697  -0.27593
 Alpha  occ. eigenvalues --   -0.26695  -0.26334  -0.24890
 Alpha virt. eigenvalues --    0.03635   0.04304   0.06489   0.07583   0.08543
 Alpha virt. eigenvalues --    0.09309   0.11326   0.12826   0.13101   0.14275
 Alpha virt. eigenvalues --    0.15636   0.16448   0.17453   0.18087   0.20075
 Alpha virt. eigenvalues --    0.20259   0.20973   0.21697   0.24029   0.25329
 Alpha virt. eigenvalues --    0.26906   0.28251   0.28755   0.30041   0.31490
 Alpha virt. eigenvalues --    0.32453   0.32642   0.35979   0.51871   0.52467
 Alpha virt. eigenvalues --    0.53963   0.54505   0.55622   0.57455   0.59331
 Alpha virt. eigenvalues --    0.61090   0.62745   0.62782   0.65472   0.67616
 Alpha virt. eigenvalues --    0.69545   0.70113   0.72411   0.72844   0.74098
 Alpha virt. eigenvalues --    0.76440   0.77363   0.78155   0.79312   0.80669
 Alpha virt. eigenvalues --    0.82035   0.82452   0.83534   0.83999   0.84954
 Alpha virt. eigenvalues --    0.85514   0.86580   0.87039   0.88274   0.89611
 Alpha virt. eigenvalues --    0.90517   0.91915   0.93238   0.94494   0.96154
 Alpha virt. eigenvalues --    0.97386   0.99130   0.99888   1.02243   1.02723
 Alpha virt. eigenvalues --    1.03518   1.05160   1.06701   1.07858   1.08841
 Alpha virt. eigenvalues --    1.10983   1.12521   1.14223   1.14517   1.15097
 Alpha virt. eigenvalues --    1.19161   1.20227   1.21153   1.24393   1.26452
 Alpha virt. eigenvalues --    1.29454   1.31650   1.32873   1.37092   1.39592
 Alpha virt. eigenvalues --    1.41946   1.45305   1.47314   1.49307   1.53495
 Alpha virt. eigenvalues --    1.55058   1.56038   1.57201   1.58239   1.60275
 Alpha virt. eigenvalues --    1.62046   1.62790   1.66586   1.67662   1.69739
 Alpha virt. eigenvalues --    1.70820   1.72087   1.72598   1.72724   1.74471
 Alpha virt. eigenvalues --    1.75401   1.77151   1.77962   1.79404   1.80348
 Alpha virt. eigenvalues --    1.82128   1.83621   1.83707   1.85559   1.86625
 Alpha virt. eigenvalues --    1.88485   1.90133   1.90886   1.92917   1.95060
 Alpha virt. eigenvalues --    1.98049   2.00355   2.01316   2.04542   2.05001
 Alpha virt. eigenvalues --    2.07949   2.08819   2.10174   2.11945   2.15366
 Alpha virt. eigenvalues --    2.18514   2.19941   2.24703   2.27693   2.28374
 Alpha virt. eigenvalues --    2.29978   2.32690   2.37245   2.39442   2.41058
 Alpha virt. eigenvalues --    2.41851   2.46943   2.48608   2.50272   2.52286
 Alpha virt. eigenvalues --    2.53028   2.55202   2.55291   2.58788   2.61487
 Alpha virt. eigenvalues --    2.62455   2.67090   2.70082   2.71519   2.75115
 Alpha virt. eigenvalues --    2.75571   2.82601   2.86588   2.88266   2.91156
 Alpha virt. eigenvalues --    2.95183   2.98114   3.01014   3.06209   3.10460
 Alpha virt. eigenvalues --    3.72904   3.76589   3.80520   3.87266   3.89517
 Alpha virt. eigenvalues --    3.95002   4.05062   4.10148   4.25042   4.39375
 Alpha virt. eigenvalues --    4.45743   4.52892   4.65727   4.86636
          Condensed to atoms (all electrons):
               1          2          3          4          5          6
     1  O    8.528482  -0.029725  -0.024392  -0.002690   0.120879   0.141638
     2  C   -0.029725   5.038359  -0.023815   0.311399   0.006105   0.286271
     3  C   -0.024392  -0.023815   4.946461   0.328501   0.301314  -0.015746
     4  C   -0.002690   0.311399   0.328501   4.857590  -0.043713  -0.030165
     5  C    0.120879   0.006105   0.301314  -0.043713   4.868617  -0.021188
     6  C    0.141638   0.286271  -0.015746  -0.030165  -0.021188   5.010739
     7  H    0.001650  -0.056408  -0.051997   0.354352  -0.000530  -0.001148
     8  H   -0.033206  -0.044295   0.000400  -0.007625   0.002607   0.358883
     9  H    0.001800   0.348562  -0.007684  -0.039495  -0.001799  -0.049710
    10  H   -0.038020   0.000168  -0.051670   0.003231   0.361721   0.004527
    11  C   -0.027634  -0.033469  -0.000228   0.003873  -0.000749   0.327727
    12  H    0.000858  -0.009990  -0.000008  -0.000067   0.001225  -0.035202
    13  H    0.001277   0.005415  -0.000015  -0.000096  -0.000154  -0.047737
    14  H    0.002803  -0.002624   0.346266  -0.030575  -0.059045   0.000708
    15  O   -0.052866  -0.005622  -0.041602   0.002350   0.243201   0.007867
    16  O    0.001439   0.002207  -0.000005   0.000158   0.000032  -0.040007
    17  H    0.000025  -0.002064   0.000001  -0.000012   0.000001  -0.001031
    18  O    0.001753   0.002413   0.222235  -0.039596  -0.041524   0.000241
    19  H   -0.000095  -0.000305  -0.021343   0.006786  -0.000943  -0.000003
    20  O    0.000076  -0.030884  -0.039758   0.243330   0.002446   0.003331
    21  H   -0.000018  -0.014485   0.006775  -0.033910  -0.000302   0.000965
    22  O    0.001460   0.210279   0.002468  -0.037088   0.000066  -0.042035
    23  H    0.000003  -0.021825  -0.000240   0.005615   0.000043  -0.003916
    24  O   -0.000832  -0.000006  -0.000018   0.000001   0.005704  -0.000033
    25  H    0.002099   0.000010   0.000094  -0.000002   0.000149  -0.000276
    26  H    0.004066   0.000120   0.002621  -0.000193  -0.016738  -0.000723
    27  H    0.000035   0.000002   0.000000   0.000000  -0.000138  -0.000035
    28  O   -0.075514  -0.000078  -0.000040   0.000010   0.006018   0.001809
    29  H    0.083927   0.001464   0.000888  -0.000000  -0.006436  -0.006806
    30  H    0.003654   0.000023  -0.000004  -0.000001  -0.000122  -0.000549
               7          8          9         10         11         12
     1  O    0.001650  -0.033206   0.001800  -0.038020  -0.027634   0.000858
     2  C   -0.056408  -0.044295   0.348562   0.000168  -0.033469  -0.009990
     3  C   -0.051997   0.000400  -0.007684  -0.051670  -0.000228  -0.000008
     4  C    0.354352  -0.007625  -0.039495   0.003231   0.003873  -0.000067
     5  C   -0.000530   0.002607  -0.001799   0.361721  -0.000749   0.001225
     6  C   -0.001148   0.358883  -0.049710   0.004527   0.327727  -0.035202
     7  H    0.634385   0.004908   0.007257  -0.000256   0.000091   0.000006
     8  H    0.004908   0.628814   0.006953  -0.000203  -0.060364   0.005400
     9  H    0.007257   0.006953   0.613123   0.000278  -0.008668   0.004900
    10  H   -0.000256  -0.000203   0.000278   0.600316  -0.000147   0.000092
    11  C    0.000091  -0.060364  -0.008668  -0.000147   4.989689   0.361369
    12  H    0.000006   0.005400   0.004900   0.000092   0.361369   0.558960
    13  H    0.000007  -0.005519   0.000113   0.000008   0.349663  -0.040644
    14  H    0.006843   0.000015   0.003514   0.002962   0.000026  -0.000005
    15  O    0.000029  -0.000177   0.008942  -0.036819  -0.002980   0.007970
    16  O   -0.000012   0.001399   0.000172   0.000001   0.214783  -0.030985
    17  H    0.000002   0.005364   0.000197  -0.000000  -0.030086   0.006691
    18  O    0.001767   0.000022   0.000009   0.006330  -0.000002   0.000000
    19  H   -0.000045  -0.000000   0.000009   0.002630  -0.000000   0.000000
    20  O   -0.041735  -0.000065   0.001270  -0.000061  -0.000049  -0.000002
    21  H   -0.000978   0.000013   0.000276   0.000005  -0.000018  -0.000000
    22  O   -0.001349   0.004466  -0.037273   0.000002  -0.000315   0.000123
    23  H   -0.000272  -0.000401  -0.005248  -0.000000  -0.003600  -0.000115
    24  O   -0.000000  -0.000001  -0.000002   0.002189  -0.000579   0.002285
    25  H    0.000000   0.000002  -0.000008  -0.000929   0.000443   0.000049
    26  H    0.000004   0.000014   0.000072  -0.004383   0.000319   0.000284
    27  H   -0.000000   0.000000  -0.000005  -0.000104   0.000089   0.000656
    28  O    0.000002  -0.000075   0.000004   0.001962   0.003386  -0.000219
    29  H   -0.000039  -0.000687  -0.000124  -0.002296  -0.001964  -0.000184
    30  H   -0.000000   0.000048  -0.000000  -0.000045  -0.000437   0.000101
              13         14         15         16         17         18
     1  O    0.001277   0.002803  -0.052866   0.001439   0.000025   0.001753
     2  C    0.005415  -0.002624  -0.005622   0.002207  -0.002064   0.002413
     3  C   -0.000015   0.346266  -0.041602  -0.000005   0.000001   0.222235
     4  C   -0.000096  -0.030575   0.002350   0.000158  -0.000012  -0.039596
     5  C   -0.000154  -0.059045   0.243201   0.000032   0.000001  -0.041524
     6  C   -0.047737   0.000708   0.007867  -0.040007  -0.001031   0.000241
     7  H    0.000007   0.006843   0.000029  -0.000012   0.000002   0.001767
     8  H   -0.005519   0.000015  -0.000177   0.001399   0.005364   0.000022
     9  H    0.000113   0.003514   0.008942   0.000172   0.000197   0.000009
    10  H    0.000008   0.002962  -0.036819   0.000001  -0.000000   0.006330
    11  C    0.349663   0.000026  -0.002980   0.214783  -0.030086  -0.000002
    12  H   -0.040644  -0.000005   0.007970  -0.030985   0.006691   0.000000
    13  H    0.651747  -0.000000   0.000120  -0.028242  -0.008342  -0.000000
    14  H   -0.000000   0.598830   0.006729  -0.000000   0.000000  -0.030750
    15  O    0.000120   0.006729   8.381353   0.000018  -0.000003   0.001404
    16  O   -0.028242  -0.000000   0.000018   8.235725   0.233408   0.000000
    17  H   -0.008342   0.000000  -0.000003   0.233408   0.394715   0.000000
    18  O   -0.000000  -0.030750   0.001404   0.000000   0.000000   8.269702
    19  H    0.000000  -0.007708  -0.000082   0.000000  -0.000000   0.230408
    20  O    0.000000   0.002175  -0.000026  -0.000000   0.000000   0.001371
    21  H    0.000001  -0.000085   0.000003   0.000006  -0.000001  -0.000179
    22  O   -0.000232  -0.000100   0.000047  -0.010008   0.002569  -0.000008
    23  H    0.000418   0.000005  -0.000002   0.037191  -0.002179   0.000001
    24  O   -0.000086   0.000001  -0.083202   0.000001  -0.000000   0.000000
    25  H    0.000045  -0.000003   0.007409   0.000001   0.000000  -0.000001
    26  H   -0.000028   0.000060   0.173257   0.000001   0.000001  -0.000053
    27  H    0.000014  -0.000001   0.004266   0.000000   0.000000  -0.000000
    28  O    0.003057   0.000003  -0.001356   0.000021   0.000002   0.000001
    29  H    0.003403  -0.000053   0.002716  -0.000042  -0.000017  -0.000055
    30  H    0.004904  -0.000000   0.000011  -0.000002  -0.000002   0.000000
              19         20         21         22         23         24
     1  O   -0.000095   0.000076  -0.000018   0.001460   0.000003  -0.000832
     2  C   -0.000305  -0.030884  -0.014485   0.210279  -0.021825  -0.000006
     3  C   -0.021343  -0.039758   0.006775   0.002468  -0.000240  -0.000018
     4  C    0.006786   0.243330  -0.033910  -0.037088   0.005615   0.000001
     5  C   -0.000943   0.002446  -0.000302   0.000066   0.000043   0.005704
     6  C   -0.000003   0.003331   0.000965  -0.042035  -0.003916  -0.000033
     7  H   -0.000045  -0.041735  -0.000978  -0.001349  -0.000272  -0.000000
     8  H   -0.000000  -0.000065   0.000013   0.004466  -0.000401  -0.000001
     9  H    0.000009   0.001270   0.000276  -0.037273  -0.005248  -0.000002
    10  H    0.002630  -0.000061   0.000005   0.000002  -0.000000   0.002189
    11  C   -0.000000  -0.000049  -0.000018  -0.000315  -0.003600  -0.000579
    12  H    0.000000  -0.000002  -0.000000   0.000123  -0.000115   0.002285
    13  H    0.000000   0.000000   0.000001  -0.000232   0.000418  -0.000086
    14  H   -0.007708   0.002175  -0.000085  -0.000100   0.000005   0.000001
    15  O   -0.000082  -0.000026   0.000003   0.000047  -0.000002  -0.083202
    16  O    0.000000  -0.000000   0.000006  -0.010008   0.037191   0.000001
    17  H   -0.000000   0.000000  -0.000001   0.002569  -0.002179  -0.000000
    18  O    0.230408   0.001371  -0.000179  -0.000008   0.000001   0.000000
    19  H    0.395613  -0.000218   0.000023   0.000001  -0.000000  -0.000000
    20  O   -0.000218   8.282700   0.235670  -0.008293   0.000147  -0.000000
    21  H    0.000023   0.235670   0.369934   0.027969  -0.000701   0.000000
    22  O    0.000001  -0.008293   0.027969   8.331110   0.225305   0.000000
    23  H   -0.000000   0.000147  -0.000701   0.225305   0.361657  -0.000000
    24  O   -0.000000  -0.000000   0.000000   0.000000  -0.000000   8.451183
    25  H   -0.000000   0.000000  -0.000000  -0.000000   0.000000   0.174443
    26  H   -0.000010   0.000001  -0.000000  -0.000000   0.000000   0.117339
    27  H    0.000000   0.000000   0.000000  -0.000000   0.000000   0.232930
    28  O   -0.000000   0.000000  -0.000000   0.000000  -0.000000  -0.082733
    29  H    0.000001   0.000000   0.000000  -0.000010   0.000002   0.006587
    30  H    0.000000  -0.000000   0.000000  -0.000000   0.000000   0.003664
              25         26         27         28         29         30
     1  O    0.002099   0.004066   0.000035  -0.075514   0.083927   0.003654
     2  C    0.000010   0.000120   0.000002  -0.000078   0.001464   0.000023
     3  C    0.000094   0.002621   0.000000  -0.000040   0.000888  -0.000004
     4  C   -0.000002  -0.000193   0.000000   0.000010  -0.000000  -0.000001
     5  C    0.000149  -0.016738  -0.000138   0.006018  -0.006436  -0.000122
     6  C   -0.000276  -0.000723  -0.000035   0.001809  -0.006806  -0.000549
     7  H    0.000000   0.000004  -0.000000   0.000002  -0.000039  -0.000000
     8  H    0.000002   0.000014   0.000000  -0.000075  -0.000687   0.000048
     9  H   -0.000008   0.000072  -0.000005   0.000004  -0.000124  -0.000000
    10  H   -0.000929  -0.004383  -0.000104   0.001962  -0.002296  -0.000045
    11  C    0.000443   0.000319   0.000089   0.003386  -0.001964  -0.000437
    12  H    0.000049   0.000284   0.000656  -0.000219  -0.000184   0.000101
    13  H    0.000045  -0.000028   0.000014   0.003057   0.003403   0.004904
    14  H   -0.000003   0.000060  -0.000001   0.000003  -0.000053  -0.000000
    15  O    0.007409   0.173257   0.004266  -0.001356   0.002716   0.000011
    16  O    0.000001   0.000001   0.000000   0.000021  -0.000042  -0.000002
    17  H    0.000000   0.000001   0.000000   0.000002  -0.000017  -0.000002
    18  O   -0.000001  -0.000053  -0.000000   0.000001  -0.000055   0.000000
    19  H   -0.000000  -0.000010   0.000000  -0.000000   0.000001   0.000000
    20  O    0.000000   0.000001   0.000000   0.000000   0.000000  -0.000000
    21  H   -0.000000  -0.000000   0.000000  -0.000000   0.000000   0.000000
    22  O   -0.000000  -0.000000  -0.000000   0.000000  -0.000010  -0.000000
    23  H    0.000000   0.000000   0.000000  -0.000000   0.000002   0.000000
    24  O    0.174443   0.117339   0.232930  -0.082733   0.006587   0.003664
    25  H    0.299382  -0.010605  -0.004810   0.097091  -0.007749  -0.004552
    26  H   -0.010605   0.281897  -0.007613   0.002811  -0.000647  -0.000039
    27  H   -0.004810  -0.007613   0.377526   0.003655  -0.000246  -0.000325
    28  O    0.097091   0.002811   0.003655   8.475312   0.168874   0.233475
    29  H   -0.007749  -0.000647  -0.000246   0.168874   0.299852  -0.007197
    30  H   -0.004552  -0.000039  -0.000325   0.233475  -0.007197   0.373133
 Mulliken charges:
               1
     1  O   -0.612934
     2  C    0.062798
     3  C    0.120542
     4  C    0.148032
     5  C    0.273253
     6  C    0.151602
     7  H    0.143465
     8  H    0.133309
     9  H    0.152562
    10  H    0.148512
    11  C   -0.080167
    12  H    0.166449
    13  H    0.110904
    14  H    0.160009
    15  O   -0.622957
    16  O   -0.617260
    17  H    0.400761
    18  O   -0.625492
    19  H    0.395281
    20  O   -0.651428
    21  H    0.409037
    22  O   -0.669154
    23  H    0.408110
    24  O   -0.828837
    25  H    0.447717
    26  H    0.458164
    27  H    0.394103
    28  O   -0.837476
    29  H    0.466836
    30  H    0.394261
 Sum of Mulliken charges =  -0.00000
 Mulliken charges with hydrogens summed into heavy atoms:
               1
     1  O   -0.612934
     2  C    0.215360
     3  C    0.280551
     4  C    0.291497
     5  C    0.421765
     6  C    0.284911
    11  C    0.197186
    15  O   -0.164793
    16  O   -0.216499
    18  O   -0.230211
    20  O   -0.242391
    22  O   -0.261045
    24  O    0.012982
    28  O    0.023621
 APT charges:
               1
     1  O   -0.402718
     2  C   -0.111521
     3  C   -0.270984
     4  C   -0.246677
     5  C   -0.253259
     6  C   -0.265750
     7  H    0.371156
     8  H    0.413165
     9  H    0.289043
    10  H    0.473915
    11  C   -0.547495
    12  H    0.273805
    13  H    0.424869
    14  H    0.435193
    15  O   -0.513135
    16  O   -0.849288
    17  H    0.731882
    18  O   -0.921514
    19  H    0.805058
    20  O   -0.751147
    21  H    0.648438
    22  O   -0.818041
    23  H    0.609112
    24  O   -1.084526
    25  H    0.311225
    26  H    0.545119
    27  H    0.721131
    28  O   -0.986584
    29  H    0.206164
    30  H    0.763363
 Sum of APT charges =  -0.00000
 APT charges with hydrogens summed into heavy atoms:
               1
     1  O   -0.402718
     2  C    0.177522
     3  C    0.164209
     4  C    0.124479
     5  C    0.220656
     6  C    0.147415
    11  C    0.151179
    15  O    0.031983
    16  O   -0.117407
    18  O   -0.116456
    20  O   -0.102709
    22  O   -0.208929
    24  O   -0.052169
    28  O   -0.017056
 Electronic spatial extent (au):  <R**2>=           3090.6916
 Charge=             -0.0000 electrons
 Dipole moment (field-independent basis, Debye):
    X=              3.1880    Y=              3.4626    Z=             -0.4904  Tot=              4.7322
 Quadrupole moment (field-independent basis, Debye-Ang):
   XX=            -86.5694   YY=            -73.5866   ZZ=            -85.7513
   XY=              5.4486   XZ=             -0.4598   YZ=             -6.1661
 Traceless Quadrupole moment (field-independent basis, Debye-Ang):
   XX=             -4.6003   YY=              8.3825   ZZ=             -3.7822
   XY=              5.4486   XZ=             -0.4598   YZ=             -6.1661
 Octapole moment (field-independent basis, Debye-Ang**2):
  XXX=             44.2694  YYY=            -20.7785  ZZZ=              5.1520  XYY=             -9.9574
  XXY=             48.6980  XXZ=              7.7323  XZZ=             10.6416  YZZ=             16.3627
  YYZ=            -17.1835  XYZ=             -3.5710
 Hexadecapole moment (field-independent basis, Debye-Ang**3):
 XXXX=          -1756.8275 YYYY=          -1117.7459 ZZZZ=           -368.4118 XXXY=             63.1421
 XXXZ=             23.2462 YYYX=             -3.7367 YYYZ=            -68.8898 ZZZX=             17.5263
 ZZZY=             -6.8648 XXYY=           -582.1316 XXZZ=           -334.6315 YYZZ=           -297.7964
 XXYZ=              4.1411 YYXZ=            -40.0970 ZZXY=             10.6619
 N-N= 1.118176549445D+03 E-N=-4.209102232936D+03  KE= 8.330077381058D+02
  Exact polarizability:   0.000   0.000   0.000   0.000   0.000   0.000
 Approx polarizability: 129.342  -2.574 135.489  -0.110  -4.551 127.921

 This type of calculation cannot be archived.


 You can't act like a skunk without someone's getting wind of it.
 -- Lorene Workman
 Job cpu time:       0 days  1 hours  6 minutes 54.0 seconds.
 File lengths (MBytes):  RWF=    220 Int=      0 D2E=      0 Chk=      9 Scr=      1
 Normal termination of Gaussian 09 at Sat Jan 14 00:50:19 2017.
