 Entering Gaussian System, Link 0=g09
 Initial command:
 /global/software/gaussian/g09.e01/l1.exe "/scratch/10461028.yak.local/Gau-6499.inp" -scrdir="/scratch/10461028.yak.local/"
 Entering Link 1 = /global/software/gaussian/g09.e01/l1.exe PID=      6502.
  
 Copyright (c) 1988,1990,1992,1993,1995,1998,2003,2009,2015,
            Gaussian, Inc.  All Rights Reserved.
  
 This is part of the Gaussian(R) 09 program.  It is based on
 the Gaussian(R) 03 system (copyright 2003, Gaussian, Inc.),
 the Gaussian(R) 98 system (copyright 1998, Gaussian, Inc.),
 the Gaussian(R) 94 system (copyright 1995, Gaussian, Inc.),
 the Gaussian 92(TM) system (copyright 1992, Gaussian, Inc.),
 the Gaussian 90(TM) system (copyright 1990, Gaussian, Inc.),
 the Gaussian 88(TM) system (copyright 1988, Gaussian, Inc.),
 the Gaussian 86(TM) system (copyright 1986, Carnegie Mellon
 University), and the Gaussian 82(TM) system (copyright 1983,
 Carnegie Mellon University). Gaussian is a federally registered
 trademark of Gaussian, Inc.
  
 This software contains proprietary and confidential information,
 including trade secrets, belonging to Gaussian, Inc.
  
 This software is provided under written license and may be
 used, copied, transmitted, or stored only in accord with that
 written license.
  
 The following legend is applicable only to US Government
 contracts under FAR:
  
                    RESTRICTED RIGHTS LEGEND
  
 Use, reproduction and disclosure by the US Government is
 subject to restrictions as set forth in subparagraphs (a)
 and (c) of the Commercial Computer Software - Restricted
 Rights clause in FAR 52.227-19.
  
 Gaussian, Inc.
 340 Quinnipiac St., Bldg. 40, Wallingford CT 06492
  
  
 ---------------------------------------------------------------
 Warning -- This program may not be used in any manner that
 competes with the business of Gaussian, Inc. or will provide
 assistance to any competitor of Gaussian, Inc.  The licensee
 of this program is prohibited from giving any competitor of
 Gaussian, Inc. access to this program.  By using this program,
 the user acknowledges that Gaussian, Inc. is engaged in the
 business of creating and licensing software in the field of
 computational chemistry and represents and warrants to the
 licensee that it is not a competitor of Gaussian, Inc. and that
 it will not use this program in any manner prohibited above.
 ---------------------------------------------------------------
  

 Cite this work as:
 Gaussian 09, Revision E.01,
 M. J. Frisch, G. W. Trucks, H. B. Schlegel, G. E. Scuseria, 
 M. A. Robb, J. R. Cheeseman, G. Scalmani, V. Barone, B. Mennucci, 
 G. A. Petersson, H. Nakatsuji, M. Caricato, X. Li, H. P. Hratchian, 
 A. F. Izmaylov, J. Bloino, G. Zheng, J. L. Sonnenberg, M. Hada, 
 M. Ehara, K. Toyota, R. Fukuda, J. Hasegawa, M. Ishida, T. Nakajima, 
 Y. Honda, O. Kitao, H. Nakai, T. Vreven, J. A. Montgomery, Jr., 
 J. E. Peralta, F. Ogliaro, M. Bearpark, J. J. Heyd, E. Brothers, 
 K. N. Kudin, V. N. Staroverov, T. Keith, R. Kobayashi, J. Normand, 
 K. Raghavachari, A. Rendell, J. C. Burant, S. S. Iyengar, J. Tomasi, 
 M. Cossi, N. Rega, J. M. Millam, M. Klene, J. E. Knox, J. B. Cross, 
 V. Bakken, C. Adamo, J. Jaramillo, R. Gomperts, R. E. Stratmann, 
 O. Yazyev, A. J. Austin, R. Cammi, C. Pomelli, J. W. Ochterski, 
 R. L. Martin, K. Morokuma, V. G. Zakrzewski, G. A. Voth, 
 P. Salvador, J. J. Dannenberg, S. Dapprich, A. D. Daniels, 
 O. Farkas, J. B. Foresman, J. V. Ortiz, J. Cioslowski, 
 and D. J. Fox, Gaussian, Inc., Wallingford CT, 2013.
 
 ******************************************
 Gaussian 09:  ES64L-G09RevE.01 30-Nov-2015
                13-Jan-2017 
 ******************************************
 -------------------------------------
 # b3lyp/6-31g(d) irc=(calcfc,reverse)
 -------------------------------------
 1/10=4,14=-1,18=10,22=2,26=3,38=1,44=3/1,23;
 2/12=2,17=6,18=5,29=1,40=1/2;
 3/5=1,6=6,7=1,11=2,16=1,25=1,30=1,71=2,74=-5,140=1/1,2,3;
 4//1;
 5/5=2,38=5/2;
 8/6=4,10=90,11=11/1;
 11/6=1,8=1,9=11,15=111,16=1/1,2,10;
 10/6=1,13=1/2;
 6/7=2,8=2,9=2,10=2,28=1/1;
 7/10=1,18=20,25=1/1,2,3,16;
 1/10=4,14=-1,18=10,22=2,26=3,44=3/23(2);
 2/29=1/2;
 99/5=20/99;
 2/29=1/2;
 3/5=1,6=6,7=1,11=2,16=1,25=1,30=1,71=2,74=-5,140=1/1,2,3;
 4/5=5,16=3,69=1/1;
 5/5=2,38=5/2;
 8/6=4,10=90,11=11/1;
 11/6=1,8=1,9=11,15=111,16=1/1,2,10;
 10/6=1,13=1/2;
 7/10=1,18=20,25=1/1,2,3,16;
 1/14=-1,18=10,22=2,26=3,44=3/23(-8);
 2/29=1/2;
 6/7=2,8=2,9=2,10=2,19=2,28=1/1;
 99/5=20,9=1/99;
 ---------------------------------
 glo_1w_alpha_ts_boat5_B3LYP_631Gd
 ---------------------------------
 Symbolic Z-matrix:
 Charge =  0 Multiplicity = 1
 8                    -1.23336  -0.50111  -1.16113 
 6                    -0.47466   0.5036    1.00591 
 6                     1.32143  -0.5361   -0.5718 
 6                     0.97384   0.51622   0.5294 
 6                     0.18991  -1.49173  -0.91155 
 6                    -1.44664   0.54633  -0.17955 
 1                     1.60638   0.34897   1.40933 
 1                    -2.45414   0.35798   0.22389 
 1                    -0.62643   1.41482   1.59534 
 1                     1.69316   0.02263  -1.43281 
 6                    -1.48395   1.89266  -0.9159 
 1                    -2.31424   1.88273  -1.63071 
 1                    -0.56159   2.04517  -1.47531 
 8                    -1.61031   2.98274  -0.00246 
 1                    -2.53015   2.99857   0.30811 
 8                     2.38044  -1.42657  -0.22238 
 1                     1.97017  -2.12755   0.33075 
 8                     1.26733   1.7983   -0.04379 
 1                     0.92868   2.50171   0.53471 
 8                    -0.70206  -0.60033   1.88869 
 1                    -1.57883  -0.46089   2.31273 
 1                     0.30321  -1.90409  -1.92831 
 8                    -0.05578  -2.37862   0.0223 
 1                    -1.32582  -2.52656   0.2286 
 8                    -2.39812  -2.17576   0.08895 
 1                    -2.53236  -1.64686   0.89984 
 1                    -2.04496  -1.34004  -0.71519 
 8                     3.47935   0.84675   0.04048 
 1                     2.93078   1.4945    0.54008 
 1                     3.03663  -0.01026   0.17475 
 
 IRC-IRC-IRC-IRC-IRC-IRC-IRC-IRC-IRC-IRC-IRC-IRC-IRC-IRC-IRC-IRC-IRC-IRC
 ------------------------------------------------------------------------
 INPUT DATA FOR L123
 ------------------------------------------------------------------------
 GENERAL PARAMETERS:
 Rxn path following direction = Reverse
 Maximum points per path      =  10
 Step size                    =   0.100 bohr
 Integration scheme           = HPC                                 
    Redo corrector integration= Yes                                 
    DWI Weight Power          =  2
    DWI will use Hessian update vectors when possible.
    Max correction cycles     =  20
 Initial Hessian              = CalcFC
 Hessian evaluation           = All updating
 Hessian updating method      = Bofill                              
 ------------------------------------------------------------------------
 IRC-IRC-IRC-IRC-IRC-IRC-IRC-IRC-IRC-IRC-IRC-IRC-IRC-IRC-IRC-IRC-IRC-IRC
                          Input orientation:                          
 ---------------------------------------------------------------------
 Center     Atomic      Atomic             Coordinates (Angstroms)
 Number     Number       Type             X           Y           Z
 ---------------------------------------------------------------------
      1          8           0       -1.233358   -0.501112   -1.161133
      2          6           0       -0.474660    0.503600    1.005908
      3          6           0        1.321427   -0.536101   -0.571798
      4          6           0        0.973836    0.516218    0.529399
      5          6           0        0.189909   -1.491727   -0.911554
      6          6           0       -1.446644    0.546334   -0.179552
      7          1           0        1.606384    0.348972    1.409327
      8          1           0       -2.454138    0.357983    0.223892
      9          1           0       -0.626425    1.414817    1.595341
     10          1           0        1.693156    0.022631   -1.432812
     11          6           0       -1.483946    1.892660   -0.915898
     12          1           0       -2.314238    1.882734   -1.630712
     13          1           0       -0.561593    2.045174   -1.475310
     14          8           0       -1.610306    2.982739   -0.002458
     15          1           0       -2.530152    2.998572    0.308112
     16          8           0        2.380442   -1.426566   -0.222381
     17          1           0        1.970167   -2.127552    0.330754
     18          8           0        1.267325    1.798300   -0.043791
     19          1           0        0.928677    2.501711    0.534713
     20          8           0       -0.702059   -0.600328    1.888687
     21          1           0       -1.578829   -0.460890    2.312727
     22          1           0        0.303212   -1.904091   -1.928313
     23          8           0       -0.055780   -2.378616    0.022298
     24          1           0       -1.325816   -2.526562    0.228595
     25          8           0       -2.398121   -2.175758    0.088947
     26          1           0       -2.532360   -1.646862    0.899837
     27          1           0       -2.044958   -1.340042   -0.715189
     28          8           0        3.479354    0.846750    0.040478
     29          1           0        2.930775    1.494504    0.540076
     30          1           0        3.036632   -0.010256    0.174752
 ---------------------------------------------------------------------
                    Distance matrix (angstroms):
                    1          2          3          4          5
     1  O    0.000000
     2  C    2.506219   0.000000
     3  C    2.622111   2.606926   0.000000
     4  C    2.960501   1.524913   1.562315   0.000000
     5  C    1.751941   2.845987   1.519536   2.592823   0.000000
     6  C    1.451253   1.533589   2.997956   2.522348   2.714374
     7  H    3.923524   2.125418   2.188472   1.096522   3.283453
     8  H    2.036331   2.133328   3.960732   3.445196   3.420767
     9  H    3.411349   1.095801   3.506665   2.122392   3.924146
    10  H    2.985398   3.298198   1.091654   2.147399   2.196529
    11  C    2.419314   2.577108   3.726581   3.166097   3.775697
    12  H    2.659234   3.498260   4.493342   4.164718   4.263206
    13  H    2.652084   2.922405   3.320403   2.951967   3.659542
    14  O    3.690777   2.907340   4.615348   3.611701   4.907960
    15  H    4.011003   3.307091   5.301209   4.299882   5.389722
    16  O    3.846722   3.658667   1.427071   2.513588   2.297312
    17  H    3.890194   3.654582   1.941180   2.832253   2.262061
    18  O    3.576194   2.410939   2.393981   1.434718   3.569050
    19  H    4.070287   2.486730   3.256827   1.986014   4.311034
    20  O    3.097342   1.431665   3.186316   2.429601   3.071083
    21  H    3.491228   1.963977   4.091164   3.263602   3.819299
    22  H    2.217648   3.874495   2.179057   3.513969   1.103032
    23  O    2.512413   3.074104   2.375818   3.114053   1.311112
    24  H    2.458117   3.242000   3.407412   3.825885   2.160612
    25  O    2.392449   3.423372   4.118264   4.337145   2.857761
    26  H    2.692164   2.978232   4.272139   4.136369   3.273523
    27  H    1.249546   2.971031   3.464019   3.756037   2.248599
    28  O    5.046806   4.084609   2.635111   2.574085   4.146720
    29  H    4.921036   3.577133   2.819507   2.187868   4.305479
    30  H    4.500927   3.644728   1.943136   2.158258   3.388015
                    6          7          8          9         10
     6  C    0.000000
     7  H    3.447386   0.000000
     8  H    1.101493   4.230033   0.000000
     9  H    2.139455   2.481141   2.517599   0.000000
    10  H    3.421004   2.862129   4.478524   4.060585   0.000000
    11  C    1.534989   4.164107   2.143741   2.696293   3.722658
    12  H    2.155122   5.192835   2.404993   3.670841   4.422483
    13  H    2.169983   3.987274   3.052151   3.135355   3.029254
    14  O    2.448309   4.390554   2.766339   2.445274   4.660581
    15  H    2.724936   5.034281   2.643025   2.790952   5.451914
    16  O    4.305898   2.532622   5.172711   4.518719   2.009397
    17  H    4.368601   2.725588   5.075803   4.570541   2.794671
    18  O    2.991902   2.080160   3.999432   2.533792   2.294278
    19  H    3.158453   2.420438   4.016916   2.173617   3.255982
    20  O    2.479285   2.541627   2.599939   2.037788   4.142160
    21  H    2.691362   3.408459   2.408309   2.222609   4.996873
    22  H    3.482060   4.232540   4.165566   4.929048   2.426875
    23  O    3.245085   3.482294   3.644412   4.146111   3.307886
    24  H    3.102237   4.273245   3.097375   4.229848   4.286356
    25  O    2.896064   4.914644   2.537950   4.277892   4.887455
    26  H    2.674690   4.623001   2.117174   3.672900   5.107195
    27  H    2.050195   4.549575   1.983076   3.865234   4.042939
    28  O    4.940053   2.372667   5.956413   4.426931   2.457694
    29  H    4.536374   1.954956   5.512616   3.711281   2.755068
    30  H    4.531566   1.923234   5.503324   4.179341   2.095297
                   11         12         13         14         15
    11  C    0.000000
    12  H    1.095647   0.000000
    13  H    1.089467   1.767003   0.000000
    14  O    1.427800   2.087281   2.036693   0.000000
    15  H    1.953404   2.247388   2.822195   0.970990   0.000000
    16  O    5.141179   5.913957   4.719998   5.951168   6.631531
    17  H    5.444919   6.187558   5.204164   6.248671   6.821329
    18  O    2.887727   3.918296   2.335623   3.112132   3.998165
    19  H    2.880272   3.948252   2.543526   2.639389   3.501673
    20  O    3.833019   4.599009   4.281926   4.152073   4.335000
    21  H    3.996526   4.645870   4.654498   4.149657   4.109912
    22  H    4.316739   4.612988   4.068144   5.590311   6.088157
    23  O    4.600399   5.098252   4.697722   5.582230   5.926074
    24  H    4.567756   4.886296   4.938431   5.521478   5.655427
    25  O    4.289225   4.408585   4.861687   5.219109   5.180652
    26  H    4.113913   4.348483   4.812107   4.805988   4.682969
    27  H    3.287154   3.361098   3.773307   4.402652   4.483986
    28  O    5.161679   6.118157   4.479184   5.519867   6.388750
    29  H    4.665635   5.689746   4.069601   4.809429   5.669017
    30  H    5.024563   5.956083   4.460350   5.530231   6.329290
                   16         17         18         19         20
    16  O    0.000000
    17  H    0.982683   0.000000
    18  O    3.416238   4.005819   0.000000
    19  H    4.255840   4.749355   0.971667   0.000000
    20  O    3.826368   3.449690   3.656003   3.757019   0.000000
    21  H    4.799493   4.393330   4.331017   4.269183   0.983859
    22  H    2.730040   2.816391   4.264814   5.086138   4.156905
    23  O    2.627060   2.064616   4.381963   5.004929   2.657704
    24  H    3.892264   3.321618   5.050050   5.519056   2.618273
    25  O    4.846945   4.375241   5.407980   5.757170   2.932178
    26  H    5.044158   4.563734   5.215092   5.415049   2.328746
    27  H    4.453595   4.223198   4.612069   5.016356   3.021709
    28  O    2.538635   3.347892   2.409486   3.080441   4.795219
    29  H    3.068690   3.753115   1.788927   2.241181   4.405060
    30  H    1.610663   2.375842   2.539505   3.298943   4.154945
                   21         22         23         24         25
    21  H    0.000000
    22  H    4.859149   0.000000
    23  O    3.353120   2.039346   0.000000
    24  H    2.945271   2.773708   1.295159   0.000000
    25  O    2.925271   3.382357   2.352053   1.136839   0.000000
    26  H    2.076538   4.013112   2.727451   1.637127   0.977391
    27  H    3.187234   2.702540   2.362065   1.678012   1.212345
    28  O    5.697215   4.640166   4.785446   5.874034   6.609283
    29  H    5.225168   4.954541   4.918197   5.863835   6.486253
    30  H    5.106514   3.934600   3.898126   5.036432   5.850923
                   26         27         28         29         30
    26  H    0.000000
    27  H    1.714645   0.000000
    28  O    6.564854   5.989250   0.000000
    29  H    6.312167   5.862445   0.984948   0.000000
    30  H    5.849607   5.327559   0.973905   1.552086   0.000000
 Symmetry turned off by external request.
 Stoichiometry    C6H16O8
 Framework group  C1[X(C6H16O8)]
 Deg. of freedom    84
 Full point group                 C1      NOp   1
 Rotational constants (GHZ):      0.7363053      0.6589739      0.4324678
 Standard basis: 6-31G(d) (6D, 7F)
   242 basis functions,   456 primitive gaussians,   242 cartesian basis functions
    58 alpha electrons       58 beta electrons
       nuclear repulsion energy      1159.0903232843 Hartrees.
 NAtoms=   30 NActive=   30 NUniq=   30 SFac= 1.00D+00 NAtFMM=   60 NAOKFM=F Big=F
 Integral buffers will be    131072 words long.
 Raffenetti 2 integral format.
 Two-electron integral symmetry is turned off.
 One-electron integrals computed using PRISM.
 NBasis=   242 RedAO= T EigKep=  1.23D-03  NBF=   242
 NBsUse=   242 1.00D-06 EigRej= -1.00D+00 NBFU=   242
 ExpMin= 1.61D-01 ExpMax= 5.48D+03 ExpMxC= 8.25D+02 IAcc=1 IRadAn=         1 AccDes= 0.00D+00
 Harris functional with IExCor=  402 and IRadAn=       1 diagonalized for initial guess.
 HarFok:  IExCor=  402 AccDes= 0.00D+00 IRadAn=         1 IDoV= 1 UseB2=F ITyADJ=14
 ICtDFT=  3500011 ScaDFX=  1.000000  1.000000  1.000000  1.000000
 FoFCou: FMM=F IPFlag=           0 FMFlag=      100000 FMFlg1=           0
         NFxFlg=           0 DoJE=T BraDBF=F KetDBF=T FulRan=T
         wScrn=  0.000000 ICntrl=     500 IOpCl=  0 I1Cent=   200000004 NGrid=           0
         NMat0=    1 NMatS0=      1 NMatT0=    0 NMatD0=    1 NMtDS0=    0 NMtDT0=    0
 Symmetry not used in FoFCou.
 Requested convergence on RMS density matrix=1.00D-08 within 128 cycles.
 Requested convergence on MAX density matrix=1.00D-06.
 Requested convergence on             energy=1.00D-06.
 No special actions if energy rises.
 Integral accuracy reduced to 1.0D-05 until final iterations.
 Initial convergence to 1.0D-05 achieved.  Increase integral accuracy.
 SCF Done:  E(RB3LYP) =  -839.878536467     A.U. after   14 cycles
            NFock= 14  Conv=0.80D-08     -V/T= 2.0082
 DoSCS=F DFT=T ScalE2(SS,OS)=  1.000000  1.000000
 Range of M.O.s used for correlation:     1   242
 NBasis=   242 NAE=    58 NBE=    58 NFC=     0 NFV=     0
 NROrb=    242 NOA=    58 NOB=    58 NVA=   184 NVB=   184
 Symmetrizing basis deriv contribution to polar:
 IMax=3 JMax=2 DiffMx= 0.00D+00
 G2DrvN: will do    31 centers at a time, making    1 passes.
 Calling FoFCou, ICntrl=  3107 FMM=F I1Cent=   0 AccDes= 0.00D+00.
 End of G2Drv F.D. properties file   721 does not exist.
 End of G2Drv F.D. properties file   722 does not exist.
 End of G2Drv F.D. properties file   788 does not exist.
          IDoAtm=111111111111111111111111111111
          Differentiating once with respect to nuclear coordinates.
          There are    93 degrees of freedom in the 1st order CPHF.  IDoFFX=6 NUNeed=     0.
     87 vectors produced by pass  0 Test12= 1.15D-14 1.08D-09 XBig12= 1.14D-01 5.89D-02.
 AX will form    87 AO Fock derivatives at one time.
     87 vectors produced by pass  1 Test12= 1.15D-14 1.08D-09 XBig12= 9.20D-03 1.10D-02.
     87 vectors produced by pass  2 Test12= 1.15D-14 1.08D-09 XBig12= 8.87D-05 1.43D-03.
     87 vectors produced by pass  3 Test12= 1.15D-14 1.08D-09 XBig12= 2.35D-07 6.11D-05.
     87 vectors produced by pass  4 Test12= 1.15D-14 1.08D-09 XBig12= 3.09D-10 1.88D-06.
     73 vectors produced by pass  5 Test12= 1.15D-14 1.08D-09 XBig12= 2.48D-13 4.49D-08.
      3 vectors produced by pass  6 Test12= 1.15D-14 1.08D-09 XBig12= 3.10D-16 1.34D-09.
 InvSVY:  IOpt=1 It=  1 EMax= 5.55D-16
 Solved reduced A of dimension   511 with    93 vectors.
 End of Minotr F.D. properties file   721 does not exist.
 End of Minotr F.D. properties file   722 does not exist.
 End of Minotr F.D. properties file   788 does not exist.

 **********************************************************************

            Population analysis using the SCF density.

 **********************************************************************

 Alpha  occ. eigenvalues --  -19.19276 -19.18564 -19.18400 -19.17858 -19.17187
 Alpha  occ. eigenvalues --  -19.16303 -19.11725 -19.07096 -10.29761 -10.27193
 Alpha  occ. eigenvalues --  -10.26813 -10.26114 -10.25246 -10.24846  -1.08133
 Alpha  occ. eigenvalues --   -1.05666  -1.05068  -1.04798  -1.03949  -1.01882
 Alpha  occ. eigenvalues --   -0.99152  -0.93785  -0.79981  -0.76691  -0.71083
 Alpha  occ. eigenvalues --   -0.66341  -0.64086  -0.58744  -0.56688  -0.56056
 Alpha  occ. eigenvalues --   -0.54332  -0.54073  -0.52519  -0.51030  -0.50015
 Alpha  occ. eigenvalues --   -0.48910  -0.46767  -0.46665  -0.45734  -0.44926
 Alpha  occ. eigenvalues --   -0.42904  -0.41941  -0.41325  -0.39664  -0.38303
 Alpha  occ. eigenvalues --   -0.37208  -0.36905  -0.36257  -0.34486  -0.32540
 Alpha  occ. eigenvalues --   -0.31806  -0.31023  -0.29801  -0.29369  -0.28740
 Alpha  occ. eigenvalues --   -0.27405  -0.24912  -0.22915
 Alpha virt. eigenvalues --    0.00112   0.01561   0.03260   0.06101   0.07255
 Alpha virt. eigenvalues --    0.10195   0.10735   0.11734   0.12315   0.13615
 Alpha virt. eigenvalues --    0.15358   0.15734   0.16779   0.17237   0.18325
 Alpha virt. eigenvalues --    0.19593   0.20278   0.21292   0.21425   0.21895
 Alpha virt. eigenvalues --    0.22855   0.24969   0.25862   0.27983   0.29980
 Alpha virt. eigenvalues --    0.31235   0.33744   0.33816   0.51050   0.51682
 Alpha virt. eigenvalues --    0.52751   0.54089   0.56358   0.56767   0.58980
 Alpha virt. eigenvalues --    0.59630   0.60280   0.62974   0.63629   0.64739
 Alpha virt. eigenvalues --    0.65675   0.66806   0.68435   0.71165   0.71839
 Alpha virt. eigenvalues --    0.73313   0.75269   0.76544   0.78260   0.79501
 Alpha virt. eigenvalues --    0.80124   0.81528   0.81965   0.83253   0.84566
 Alpha virt. eigenvalues --    0.85029   0.85609   0.86709   0.87487   0.88309
 Alpha virt. eigenvalues --    0.89458   0.90938   0.92901   0.93988   0.94176
 Alpha virt. eigenvalues --    0.96881   0.97912   0.99714   1.01185   1.02275
 Alpha virt. eigenvalues --    1.03285   1.04181   1.07034   1.08615   1.09419
 Alpha virt. eigenvalues --    1.12186   1.12809   1.14031   1.15514   1.16282
 Alpha virt. eigenvalues --    1.19672   1.20470   1.22315   1.25091   1.28623
 Alpha virt. eigenvalues --    1.29966   1.31158   1.33551   1.35048   1.36783
 Alpha virt. eigenvalues --    1.38231   1.39777   1.42750   1.44555   1.47560
 Alpha virt. eigenvalues --    1.49877   1.52769   1.55270   1.56222   1.57663
 Alpha virt. eigenvalues --    1.59958   1.62575   1.63858   1.66645   1.67260
 Alpha virt. eigenvalues --    1.67675   1.69549   1.72660   1.74516   1.75593
 Alpha virt. eigenvalues --    1.77953   1.78520   1.79589   1.80429   1.80731
 Alpha virt. eigenvalues --    1.82815   1.85524   1.86071   1.87085   1.88162
 Alpha virt. eigenvalues --    1.90361   1.90686   1.92254   1.94180   1.95551
 Alpha virt. eigenvalues --    1.96987   1.99296   2.01022   2.02793   2.04825
 Alpha virt. eigenvalues --    2.07889   2.08816   2.11097   2.13097   2.15201
 Alpha virt. eigenvalues --    2.16669   2.20891   2.22664   2.25437   2.28523
 Alpha virt. eigenvalues --    2.30355   2.33755   2.36227   2.38124   2.41135
 Alpha virt. eigenvalues --    2.42683   2.44380   2.46546   2.47229   2.49144
 Alpha virt. eigenvalues --    2.50007   2.52719   2.53796   2.57681   2.58741
 Alpha virt. eigenvalues --    2.61787   2.64811   2.68978   2.73432   2.74469
 Alpha virt. eigenvalues --    2.74962   2.79485   2.82940   2.84613   2.87547
 Alpha virt. eigenvalues --    2.90934   2.94786   2.98525   2.99966   3.09743
 Alpha virt. eigenvalues --    3.72535   3.75092   3.79164   3.82101   3.94018
 Alpha virt. eigenvalues --    3.98134   4.06567   4.14332   4.26822   4.30024
 Alpha virt. eigenvalues --    4.51607   4.60530   4.72495   4.93895
          Condensed to atoms (all electrons):
               1          2          3          4          5          6
     1  O    8.557360  -0.029434  -0.006674  -0.006780   0.084421   0.124969
     2  C   -0.029434   5.083779  -0.028578   0.264831  -0.005607   0.272004
     3  C   -0.006674  -0.028578   5.119200   0.260094   0.263906  -0.023778
     4  C   -0.006780   0.264831   0.260094   5.143097  -0.018671  -0.024649
     5  C    0.084421  -0.005607   0.263906  -0.018671   4.794500  -0.006190
     6  C    0.124969   0.272004  -0.023778  -0.024649  -0.006190   5.149646
     7  H    0.000004  -0.039053  -0.056784   0.354312  -0.000777   0.005679
     8  H   -0.046365  -0.062042   0.000492   0.006054   0.001833   0.345416
     9  H    0.003155   0.357019   0.004756  -0.040764   0.000291  -0.057721
    10  H    0.000719   0.002363   0.366991  -0.059234  -0.021686   0.000668
    11  C   -0.030026  -0.041409  -0.000187  -0.003497   0.000457   0.311751
    12  H    0.004649   0.005791  -0.000046  -0.000423  -0.000085  -0.044313
    13  H    0.003081  -0.008849  -0.000429   0.001093   0.000238  -0.039424
    14  O    0.001391  -0.006751   0.000015  -0.001257  -0.000007  -0.045965
    15  H   -0.000013  -0.001180   0.000003   0.000136  -0.000001  -0.002347
    16  O    0.000652   0.001723   0.216300  -0.045020  -0.027445   0.000077
    17  H    0.000425   0.000402  -0.031942  -0.001769  -0.016365   0.000074
    18  O   -0.000231  -0.030476  -0.037483   0.164988   0.001257  -0.003760
    19  H    0.000032  -0.002157   0.006366  -0.020902  -0.000105  -0.002033
    20  O    0.001439   0.186737   0.002216  -0.042755   0.001988  -0.037428
    21  H   -0.000294  -0.016231  -0.000428   0.006883   0.000032  -0.003073
    22  H   -0.030204   0.000180  -0.075353   0.006070   0.366345   0.002762
    23  O   -0.043212   0.009146  -0.051911  -0.002180   0.293181  -0.001154
    24  H    0.006214   0.000830   0.003622  -0.000427  -0.022234  -0.001631
    25  O   -0.098352  -0.007973  -0.001001   0.000244   0.013540   0.017195
    26  H    0.005549  -0.002803   0.000114   0.000009   0.000478   0.000875
    27  H    0.122160   0.005855   0.002245  -0.000156  -0.011585  -0.015145
    28  O   -0.000000   0.001904   0.013417   0.020465   0.001548  -0.000026
    29  H   -0.000001   0.001707  -0.005300   0.002202  -0.000297  -0.000038
    30  H   -0.000012   0.000330  -0.032615   0.004848  -0.000246  -0.000046
               7          8          9         10         11         12
     1  O    0.000004  -0.046365   0.003155   0.000719  -0.030026   0.004649
     2  C   -0.039053  -0.062042   0.357019   0.002363  -0.041409   0.005791
     3  C   -0.056784   0.000492   0.004756   0.366991  -0.000187  -0.000046
     4  C    0.354312   0.006054  -0.040764  -0.059234  -0.003497  -0.000423
     5  C   -0.000777   0.001833   0.000291  -0.021686   0.000457  -0.000085
     6  C    0.005679   0.345416  -0.057721   0.000668   0.311751  -0.044313
     7  H    0.607469  -0.000226  -0.006699   0.003583   0.000126   0.000013
     8  H   -0.000226   0.703088  -0.000955   0.000010  -0.043436  -0.009271
     9  H   -0.006699  -0.000955   0.629187  -0.000256  -0.004231   0.000280
    10  H    0.003583   0.000010  -0.000256   0.525223  -0.000038   0.000004
    11  C    0.000126  -0.043436  -0.004231  -0.000038   4.944117   0.354985
    12  H    0.000013  -0.009271   0.000280   0.000004   0.354985   0.613396
    13  H    0.000133   0.005854  -0.000023   0.001066   0.375434  -0.032649
    14  O   -0.000025   0.003558   0.018613   0.000000   0.226748  -0.029422
    15  H   -0.000000   0.003969   0.000326   0.000000  -0.028081  -0.008628
    16  O    0.001941   0.000004  -0.000064  -0.039487   0.000003  -0.000000
    17  H    0.000743   0.000001  -0.000002   0.006473   0.000001  -0.000000
    18  O   -0.040959  -0.000039  -0.003216   0.004589  -0.002315   0.000630
    19  H   -0.003355  -0.000046   0.009307  -0.000104  -0.000686   0.000103
    20  O    0.006255  -0.003973  -0.034381  -0.000028   0.003011  -0.000045
    21  H   -0.000325   0.005922  -0.008278   0.000008  -0.000122  -0.000003
    22  H   -0.000169  -0.000163   0.000006  -0.001215  -0.000028   0.000003
    23  O    0.000186  -0.000287   0.000025   0.003182  -0.000010   0.000003
    24  H    0.000017  -0.000797   0.000040  -0.000078  -0.000065   0.000002
    25  O   -0.000001   0.008927  -0.000041   0.000006   0.000442   0.000003
    26  H   -0.000019   0.001749   0.000293  -0.000001   0.000348  -0.000027
    27  H    0.000008  -0.010181  -0.000216  -0.000029   0.000128   0.000216
    28  O    0.003239   0.000000  -0.000011   0.007184   0.000005   0.000000
    29  H   -0.001180   0.000001   0.000007  -0.000657   0.000006  -0.000001
    30  H    0.009145  -0.000000  -0.000006  -0.007158  -0.000003  -0.000000
              13         14         15         16         17         18
     1  O    0.003081   0.001391  -0.000013   0.000652   0.000425  -0.000231
     2  C   -0.008849  -0.006751  -0.001180   0.001723   0.000402  -0.030476
     3  C   -0.000429   0.000015   0.000003   0.216300  -0.031942  -0.037483
     4  C    0.001093  -0.001257   0.000136  -0.045020  -0.001769   0.164988
     5  C    0.000238  -0.000007  -0.000001  -0.027445  -0.016365   0.001257
     6  C   -0.039424  -0.045965  -0.002347   0.000077   0.000074  -0.003760
     7  H    0.000133  -0.000025  -0.000000   0.001941   0.000743  -0.040959
     8  H    0.005854   0.003558   0.003969   0.000004   0.000001  -0.000039
     9  H   -0.000023   0.018613   0.000326  -0.000064  -0.000002  -0.003216
    10  H    0.001066   0.000000   0.000000  -0.039487   0.006473   0.004589
    11  C    0.375434   0.226748  -0.028081   0.000003   0.000001  -0.002315
    12  H   -0.032649  -0.029422  -0.008628  -0.000000  -0.000000   0.000630
    13  H    0.506955  -0.031666   0.006486   0.000006   0.000001   0.014690
    14  O   -0.031666   8.243093   0.234030   0.000000  -0.000000  -0.001432
    15  H    0.006486   0.234030   0.400239  -0.000000   0.000000   0.000045
    16  O    0.000006   0.000000  -0.000000   8.303470   0.225013   0.001590
    17  H    0.000001  -0.000000   0.000000   0.225013   0.351613  -0.000065
    18  O    0.014690  -0.001432   0.000045   0.001590  -0.000065   8.340618
    19  H   -0.002948   0.006885  -0.000181  -0.000127   0.000012   0.222895
    20  O   -0.000026   0.000051  -0.000027  -0.000021   0.000319   0.001279
    21  H    0.000012   0.000055  -0.000008   0.000006   0.000009  -0.000108
    22  H   -0.000070   0.000000  -0.000000   0.002090   0.002024  -0.000081
    23  O    0.000003   0.000000  -0.000000  -0.019087   0.041287   0.000026
    24  H    0.000001  -0.000000   0.000000   0.000072  -0.000145   0.000002
    25  O    0.000002   0.000001  -0.000001  -0.000002   0.000081   0.000000
    26  H    0.000001  -0.000005  -0.000001   0.000002  -0.000016  -0.000002
    27  H   -0.000102  -0.000006  -0.000001  -0.000029  -0.000056  -0.000009
    28  O    0.000007  -0.000000   0.000000  -0.040995   0.001010  -0.050327
    29  H    0.000012  -0.000000   0.000000   0.002747  -0.000133   0.028897
    30  H    0.000005   0.000000  -0.000000   0.057934  -0.001710   0.002373
              19         20         21         22         23         24
     1  O    0.000032   0.001439  -0.000294  -0.030204  -0.043212   0.006214
     2  C   -0.002157   0.186737  -0.016231   0.000180   0.009146   0.000830
     3  C    0.006366   0.002216  -0.000428  -0.075353  -0.051911   0.003622
     4  C   -0.020902  -0.042755   0.006883   0.006070  -0.002180  -0.000427
     5  C   -0.000105   0.001988   0.000032   0.366345   0.293181  -0.022234
     6  C   -0.002033  -0.037428  -0.003073   0.002762  -0.001154  -0.001631
     7  H   -0.003355   0.006255  -0.000325  -0.000169   0.000186   0.000017
     8  H   -0.000046  -0.003973   0.005922  -0.000163  -0.000287  -0.000797
     9  H    0.009307  -0.034381  -0.008278   0.000006   0.000025   0.000040
    10  H   -0.000104  -0.000028   0.000008  -0.001215   0.003182  -0.000078
    11  C   -0.000686   0.003011  -0.000122  -0.000028  -0.000010  -0.000065
    12  H    0.000103  -0.000045  -0.000003   0.000003   0.000003   0.000002
    13  H   -0.002948  -0.000026   0.000012  -0.000070   0.000003   0.000001
    14  O    0.006885   0.000051   0.000055   0.000000   0.000000  -0.000000
    15  H   -0.000181  -0.000027  -0.000008  -0.000000  -0.000000   0.000000
    16  O   -0.000127  -0.000021   0.000006   0.002090  -0.019087   0.000072
    17  H    0.000012   0.000319   0.000009   0.002024   0.041287  -0.000145
    18  O    0.222895   0.001279  -0.000108  -0.000081   0.000026   0.000002
    19  H    0.377269   0.000019  -0.000019   0.000009   0.000001  -0.000000
    20  O    0.000019   8.307614   0.214011  -0.000026  -0.010971   0.002211
    21  H   -0.000019   0.214011   0.414264   0.000014   0.001147  -0.000781
    22  H    0.000009  -0.000026   0.000014   0.634055  -0.051829  -0.000271
    23  O    0.000001  -0.010971   0.001147  -0.051829   8.445667   0.123025
    24  H   -0.000000   0.002211  -0.000781  -0.000271   0.123025   0.287301
    25  O    0.000000  -0.004806   0.001064   0.000098  -0.102263   0.145089
    26  H    0.000000   0.022866   0.003110  -0.000057   0.004789  -0.009304
    27  H   -0.000001  -0.001335  -0.000273  -0.000044   0.013047  -0.012788
    28  O    0.001974   0.000001   0.000000  -0.000008  -0.000008   0.000000
    29  H   -0.000344  -0.000036   0.000002   0.000002   0.000005  -0.000000
    30  H   -0.000530  -0.000062   0.000001  -0.000196  -0.000004   0.000001
              25         26         27         28         29         30
     1  O   -0.098352   0.005549   0.122160  -0.000000  -0.000001  -0.000012
     2  C   -0.007973  -0.002803   0.005855   0.001904   0.001707   0.000330
     3  C   -0.001001   0.000114   0.002245   0.013417  -0.005300  -0.032615
     4  C    0.000244   0.000009  -0.000156   0.020465   0.002202   0.004848
     5  C    0.013540   0.000478  -0.011585   0.001548  -0.000297  -0.000246
     6  C    0.017195   0.000875  -0.015145  -0.000026  -0.000038  -0.000046
     7  H   -0.000001  -0.000019   0.000008   0.003239  -0.001180   0.009145
     8  H    0.008927   0.001749  -0.010181   0.000000   0.000001  -0.000000
     9  H   -0.000041   0.000293  -0.000216  -0.000011   0.000007  -0.000006
    10  H    0.000006  -0.000001  -0.000029   0.007184  -0.000657  -0.007158
    11  C    0.000442   0.000348   0.000128   0.000005   0.000006  -0.000003
    12  H    0.000003  -0.000027   0.000216   0.000000  -0.000001  -0.000000
    13  H    0.000002   0.000001  -0.000102   0.000007   0.000012   0.000005
    14  O    0.000001  -0.000005  -0.000006  -0.000000  -0.000000   0.000000
    15  H   -0.000001  -0.000001  -0.000001   0.000000   0.000000  -0.000000
    16  O   -0.000002   0.000002  -0.000029  -0.040995   0.002747   0.057934
    17  H    0.000081  -0.000016  -0.000056   0.001010  -0.000133  -0.001710
    18  O    0.000000  -0.000002  -0.000009  -0.050327   0.028897   0.002373
    19  H    0.000000   0.000000  -0.000001   0.001974  -0.000344  -0.000530
    20  O   -0.004806   0.022866  -0.001335   0.000001  -0.000036  -0.000062
    21  H    0.001064   0.003110  -0.000273   0.000000   0.000002   0.000001
    22  H    0.000098  -0.000057  -0.000044  -0.000008   0.000002  -0.000196
    23  O   -0.102263   0.004789   0.013047  -0.000008   0.000005  -0.000004
    24  H    0.145089  -0.009304  -0.012788   0.000000  -0.000000   0.000001
    25  O    8.481076   0.216619   0.134056  -0.000000   0.000000   0.000000
    26  H    0.216619   0.378385  -0.015835  -0.000000   0.000000   0.000000
    27  H    0.134056  -0.015835   0.316416   0.000000   0.000000   0.000001
    28  O   -0.000000  -0.000000   0.000000   8.421292   0.228317   0.214519
    29  H    0.000000   0.000000   0.000000   0.228317   0.389827  -0.025660
    30  H    0.000000   0.000000   0.000001   0.214519  -0.025660   0.341414
 Mulliken charges:
               1
     1  O   -0.624624
     2  C    0.087940
     3  C    0.092772
     4  C    0.033158
     5  C    0.307285
     6  C    0.077604
     7  H    0.156719
     8  H    0.090901
     9  H    0.133561
    10  H    0.207899
    11  C   -0.063425
    12  H    0.144833
    13  H    0.201108
    14  O   -0.617903
    15  H    0.395235
    16  O   -0.641354
    17  H    0.422716
    18  O   -0.613377
    19  H    0.408667
    20  O   -0.614097
    21  H    0.383403
    22  H    0.146060
    23  O   -0.651803
    24  H    0.480096
    25  O   -0.804003
    26  H    0.392884
    27  H    0.473661
    28  O   -0.823509
    29  H    0.379915
    30  H    0.437678
 Sum of Mulliken charges =  -0.00000
 Mulliken charges with hydrogens summed into heavy atoms:
               1
     1  O   -0.624624
     2  C    0.221501
     3  C    0.300671
     4  C    0.189878
     5  C    0.453345
     6  C    0.168505
    11  C    0.282516
    14  O   -0.222668
    16  O   -0.218638
    18  O   -0.204710
    20  O   -0.230695
    23  O   -0.651803
    25  O    0.542637
    28  O   -0.005916
 APT charges:
               1
     1  O   -0.472050
     2  C   -0.290853
     3  C   -0.157000
     4  C   -0.329772
     5  C   -0.373065
     6  C   -0.280558
     7  H    0.418221
     8  H    0.387079
     9  H    0.416957
    10  H    0.463869
    11  C   -0.664583
    12  H    0.545338
    13  H    0.302202
    14  O   -0.884856
    15  H    0.779372
    16  O   -0.664558
    17  H    0.545533
    18  O   -0.741260
    19  H    0.673881
    20  O   -0.868744
    21  H    0.709997
    22  H    0.540280
    23  O   -0.427711
    24  H    0.364993
    25  O   -0.681559
    26  H    0.420050
    27  H    0.370522
    28  O   -0.469578
    29  H    0.278176
    30  H    0.089678
 Sum of APT charges =  -0.00000
 APT charges with hydrogens summed into heavy atoms:
               1
     1  O   -0.472050
     2  C    0.126104
     3  C    0.306869
     4  C    0.088449
     5  C    0.167215
     6  C    0.106521
    11  C    0.182958
    14  O   -0.105484
    16  O   -0.119025
    18  O   -0.067379
    20  O   -0.158747
    23  O   -0.427711
    25  O    0.474005
    28  O   -0.101724
 Electronic spatial extent (au):  <R**2>=           2768.7566
 Charge=             -0.0000 electrons
 Dipole moment (field-independent basis, Debye):
    X=             -7.4387    Y=              2.1369    Z=              2.9868  Tot=              8.2959
 Quadrupole moment (field-independent basis, Debye-Ang):
   XX=            -95.1995   YY=            -88.9764   ZZ=            -78.7043
   XY=             -9.1007   XZ=             -2.5662   YZ=              3.5600
 Traceless Quadrupole moment (field-independent basis, Debye-Ang):
   XX=             -7.5727   YY=             -1.3497   ZZ=              8.9224
   XY=             -9.1007   XZ=             -2.5662   YZ=              3.5600
 Octapole moment (field-independent basis, Debye-Ang**2):
  XXX=           -115.7443  YYY=              9.3983  ZZZ=              9.3796  XYY=              5.9879
  XXY=              9.3558  XXZ=             29.3583  XZZ=             -8.0060  YZZ=              0.2346
  YYZ=             12.0928  XYZ=              6.3754
 Hexadecapole moment (field-independent basis, Debye-Ang**3):
 XXXX=          -1809.1137 YYYY=          -1358.7970 ZZZZ=           -404.4748 XXXY=           -142.0021
 XXXZ=            -16.1466 YYYX=            -23.7261 YYYZ=             19.1078 ZZZX=            -35.0394
 ZZZY=              1.3081 XXYY=           -449.4628 XXZZ=           -286.0913 YYZZ=           -264.3871
 XXYZ=             -5.1501 YYXZ=              4.9042 ZZXY=              9.9130
 N-N= 1.159090323284D+03 E-N=-4.289809880341D+03  KE= 8.330483761720D+02
  Exact polarizability:   0.000   0.000   0.000   0.000   0.000   0.000
 Approx polarizability: 144.562  -3.523 145.669  -8.050  -5.313 127.134
 Calling FoFJK, ICntrl=    100147 FMM=F ISym2X=0 I1Cent= 0 IOpClX= 0 NMat=1 NMatS=1 NMatT=0.
 -------------------------------------------------------------------
 Center     Atomic                   Forces (Hartrees/Bohr)
 Number     Number              X              Y              Z
 -------------------------------------------------------------------
      1        8           0.006335207   -0.004530450    0.005087180
      2        6          -0.004469839    0.004837876    0.000929271
      3        6          -0.010514019   -0.003938754   -0.003650941
      4        6          -0.004929574   -0.003736678    0.003990796
      5        6          -0.007695375   -0.012359297    0.001985497
      6        6          -0.003879724   -0.000351416   -0.003919303
      7        1          -0.002367297   -0.004103269    0.001193860
      8        1          -0.001818787    0.004205993    0.002110582
      9        1          -0.001230003    0.004215181   -0.003449618
     10        1          -0.005620500   -0.000691962   -0.001138983
     11        6          -0.001616992    0.001198851   -0.001490798
     12        1          -0.001153531   -0.001144826   -0.001318502
     13        1           0.000073663    0.000025591    0.001799597
     14        8          -0.000472105    0.000371040   -0.000676127
     15        1           0.001354197    0.001430716   -0.000045859
     16        8          -0.004596407   -0.009457901    0.005476573
     17        1           0.000448101    0.004269589   -0.001482481
     18        8          -0.017480180    0.007119104    0.004052165
     19        1          -0.005551666   -0.000331597    0.000075622
     20        8          -0.012848961    0.001350017    0.004350561
     21        1           0.013589000    0.003073601   -0.000301497
     22        1          -0.009368557    0.007543710   -0.002318323
     23        8           0.009160215    0.002072470   -0.006856718
     24        1           0.002667965    0.005536879   -0.011003014
     25        8          -0.012030978    0.001267280    0.003186426
     26        1          -0.001191651   -0.008128157   -0.004991661
     27        1           0.007692887   -0.007773955    0.005721625
     28        8           0.022714156    0.013546183    0.014178267
     29        1           0.018650381   -0.011087182   -0.017240635
     30        1           0.026150374    0.005571361    0.005746438
 -------------------------------------------------------------------
 Cartesian Forces:  Max     0.026150374 RMS     0.007386062
 IRC-IRC-IRC-IRC-IRC-IRC-IRC-IRC-IRC-IRC-IRC-IRC-IRC-IRC-IRC-IRC-IRC-IRC
          ******** Start new reaction path calculation ********
 WARNING: TS HAS MORE THAN 1 IMAGINARY FREQUENCY!
 Supplied step size of   0.1000 bohr.
    Integration on MW PES will use step size of   0.1072 sqrt(amu)*bohr.
 Point Number:   0          Path Number:   1
 Calculating another point on the path.
 IRC-IRC-IRC-IRC-IRC-IRC-IRC-IRC-IRC-IRC-IRC-IRC-IRC-IRC-IRC-IRC-IRC-IRC
                          Input orientation:                          
 ---------------------------------------------------------------------
 Center     Atomic      Atomic             Coordinates (Angstroms)
 Number     Number       Type             X           Y           Z
 ---------------------------------------------------------------------
      1          8           0       -1.246942   -0.487125   -1.155027
      2          6           0       -0.490745    0.517764    1.012216
      3          6           0        1.305286   -0.522392   -0.565407
      4          6           0        0.957750    0.530207    0.535733
      5          6           0        0.171373   -1.474527   -0.906574
      6          6           0       -1.462225    0.559639   -0.173650
      7          1           0        1.590412    0.362884    1.415598
      8          1           0       -2.470151    0.371708    0.230310
      9          1           0       -0.642257    1.428753    1.602031
     10          1           0        1.676808    0.036324   -1.426494
     11          6           0       -1.499983    1.906554   -0.909507
     12          1           0       -2.330274    1.896673   -1.624335
     13          1           0       -0.577691    2.059012   -1.468957
     14          8           0       -1.626382    2.996764    0.003909
     15          1           0       -2.546199    3.012470    0.314516
     16          8           0        2.364344   -1.412721   -0.216042
     17          1           0        1.955034   -2.113688    0.337581
     18          8           0        1.251319    1.812249   -0.037444
     19          1           0        0.912320    2.515623    0.540892
     20          8           0       -0.718114   -0.586429    1.895021
     21          1           0       -1.594796   -0.446681    2.319128
     22          1           0        0.288213   -1.890627   -1.921012
     23          8           0       -0.073313   -2.365558    0.029792
     24          1           0       -1.309492   -2.510492    0.231058
     25          8           0       -2.414168   -2.160948    0.094343
     26          1           0       -2.547483   -1.632101    0.905587
     27          1           0       -2.083524   -1.352603   -0.686846
     28          8           0        3.463308    0.860719    0.046786
     29          1           0        2.914610    1.508531    0.546237
     30          1           0        3.020568    0.003820    0.181204
 ---------------------------------------------------------------------
                    Distance matrix (angstroms):
                    1          2          3          4          5
     1  O    0.000000
     2  C    2.505709   0.000000
     3  C    2.619687   2.607018   0.000000
     4  C    2.958766   1.524902   1.562452   0.000000
     5  C    1.745941   2.844183   1.519445   2.591833   0.000000
     6  C    1.450918   1.533560   2.997229   2.521977   2.709918
     7  H    3.921888   2.125540   2.188467   1.096549   3.283631
     8  H    2.037890   2.133250   3.960619   3.445128   3.417417
     9  H    3.411392   1.095782   3.506804   2.122356   3.922260
    10  H    2.982617   3.298086   1.091633   2.147394   2.195295
    11  C    2.419506   2.576881   3.726622   3.165991   3.771624
    12  H    2.660141   3.498093   4.493383   4.164640   4.258921
    13  H    2.651276   2.922195   3.320489   2.951882   3.655581
    14  O    3.691151   2.907198   4.615545   3.611714   4.904422
    15  H    4.011832   3.306847   5.301268   4.299793   5.386038
    16  O    3.844451   3.658814   1.427006   2.513691   2.299951
    17  H    3.889246   3.655339   1.941593   2.832670   2.266693
    18  O    3.574552   2.410864   2.394202   1.434694   3.567151
    19  H    4.068790   2.486399   3.256970   1.985943   4.308766
    20  O    3.097146   1.431881   3.186213   2.429621   3.070642
    21  H    3.491760   1.963951   4.091057   3.263479   3.818505
    22  H    2.216585   3.874396   2.178111   3.513447   1.102667
    23  O    2.511914   3.074565   2.377406   3.115208   1.315519
    24  H    2.453397   3.232783   3.379935   3.805136   2.135507
    25  O    2.392702   3.423090   4.117581   4.336700   2.856227
    26  H    2.692305   2.977156   4.270726   4.135096   3.271228
    27  H    1.291555   2.986976   3.491135   3.780082   2.268855
    28  O    5.044551   4.084631   2.635306   2.574127   4.147181
    29  H    4.918887   3.577038   2.819632   2.187814   4.305188
    30  H    4.498687   3.644727   1.943327   2.158239   3.389201
                    6          7          8          9         10
     6  C    0.000000
     7  H    3.447175   0.000000
     8  H    1.102006   4.230030   0.000000
     9  H    2.140269   2.481057   2.517967   0.000000
    10  H    3.420088   2.862095   4.478253   4.060650   0.000000
    11  C    1.535281   4.164081   2.143866   2.696629   3.722504
    12  H    2.155378   5.192830   2.405160   3.671211   4.422300
    13  H    2.169870   3.987252   3.052197   3.135659   3.029164
    14  O    2.449092   4.390667   2.766609   2.445640   4.660614
    15  H    2.725744   5.034306   2.643198   2.791209   5.451820
    16  O    4.305187   2.532586   5.172597   4.518740   2.009386
    17  H    4.368718   2.725523   5.076511   4.570956   2.794981
    18  O    2.991807   2.080138   3.999524   2.533885   2.294430
    19  H    3.158308   2.420580   4.016708   2.173479   3.256068
    20  O    2.479229   2.541719   2.599793   2.037782   4.141973
    21  H    2.691505   3.408418   2.408146   2.222344   4.996636
    22  H    3.481538   4.231665   4.165923   4.929085   2.426083
    23  O    3.244572   3.483222   3.643853   4.146375   3.309491
    24  H    3.100455   4.250749   3.107122   4.224029   4.260485
    25  O    2.894756   4.914479   2.536921   4.277703   4.886413
    26  H    2.673250   4.621931   2.115946   3.672022   5.105573
    27  H    2.075103   4.567381   1.990956   3.879710   4.076308
    28  O    4.939648   2.372598   5.956404   4.426862   2.458000
    29  H    4.536002   1.954942   5.512515   3.711114   2.755216
    30  H    4.531037   1.923019   5.503249   4.179171   2.095577
                   11         12         13         14         15
    11  C    0.000000
    12  H    1.095655   0.000000
    13  H    1.089427   1.766931   0.000000
    14  O    1.427888   2.087306   2.036778   0.000000
    15  H    1.953420   2.247392   2.822212   0.970972   0.000000
    16  O    5.141158   5.913951   4.719989   5.951288   6.631534
    17  H    5.445615   6.188374   5.204777   6.249368   6.821959
    18  O    2.887742   3.918311   2.335680   3.112226   3.998193
    19  H    2.879900   3.947876   2.543249   2.639101   3.501350
    20  O    3.832970   4.598992   4.281872   4.152172   4.334970
    21  H    3.996347   4.645766   4.654308   4.149524   4.109667
    22  H    4.317333   4.613906   4.068635   5.590848   6.088664
    23  O    4.600936   5.098688   4.698667   5.582759   5.926164
    24  H    4.565903   4.889538   4.930106   5.521041   5.660346
    25  O    4.288126   4.407401   4.860516   5.218312   5.179784
    26  H    4.112651   4.347405   4.810702   4.804981   4.682030
    27  H    3.318464   3.390806   3.810295   4.427541   4.502295
    28  O    5.161640   6.118123   4.479180   5.519916   6.388731
    29  H    4.665430   5.689538   4.069422   4.809320   5.668858
    30  H    5.024483   5.956037   4.460304   5.530216   6.329189
                   16         17         18         19         20
    16  O    0.000000
    17  H    0.982541   0.000000
    18  O    3.416307   4.006100   0.000000
    19  H    4.255962   4.749643   0.971663   0.000000
    20  O    3.826342   3.450197   3.656056   3.756955   0.000000
    21  H    4.799491   4.393943   4.330885   4.268840   0.983853
    22  H    2.728669   2.815900   4.264585   5.085815   4.156409
    23  O    2.628784   2.066971   4.383291   5.005860   2.657094
    24  H    3.860320   3.290279   5.031494   5.504024   2.611613
    25  O    4.846685   4.376223   5.407352   5.756322   2.932261
    26  H    5.043037   4.563685   5.213804   5.413581   2.327875
    27  H    4.473119   4.235405   4.643187   5.044363   3.019504
    28  O    2.538766   3.347618   2.409439   3.080647   4.795258
    29  H    3.068807   3.752971   1.788704   2.241301   4.405084
    30  H    1.610908   2.375638   2.539382   3.298976   4.154914
                   21         22         23         24         25
    21  H    0.000000
    22  H    4.858960   0.000000
    23  O    3.352321   2.040073   0.000000
    24  H    2.949704   2.751054   1.260814   0.000000
    25  O    2.925706   3.381951   2.350666   1.166696   0.000000
    26  H    2.076279   4.012190   2.725159   1.661078   0.977532
    27  H    3.177331   2.727227   2.362328   1.668046   1.171752
    28  O    5.697126   4.639328   4.787154   5.846250   6.608892
    29  H    5.225011   4.953741   4.919651   5.839086   6.485766
    30  H    5.106394   3.933701   3.899869   5.007362   5.850651
                   26         27         28         29         30
    26  H    0.000000
    27  H    1.682029   0.000000
    28  O    6.563635   6.017005   0.000000
    29  H    6.310876   5.889645   0.984977   0.000000
    30  H    5.848432   5.352116   0.973839   1.551977   0.000000
 Symmetry turned off by external request.
 Stoichiometry    C6H16O8
 Framework group  C1[X(C6H16O8)]
 Deg. of freedom    84
 Full point group                 C1      NOp   1
 Rotational constants (GHZ):      0.7363518      0.6590777      0.4325276
 Standard basis: 6-31G(d) (6D, 7F)
   242 basis functions,   456 primitive gaussians,   242 cartesian basis functions
    58 alpha electrons       58 beta electrons
       nuclear repulsion energy      1159.1110218091 Hartrees.
 NAtoms=   30 NActive=   30 NUniq=   30 SFac= 1.00D+00 NAtFMM=   60 NAOKFM=F Big=F
 Integral buffers will be    131072 words long.
 Raffenetti 2 integral format.
 Two-electron integral symmetry is turned off.
 One-electron integrals computed using PRISM.
 NBasis=   242 RedAO= T EigKep=  1.23D-03  NBF=   242
 NBsUse=   242 1.00D-06 EigRej= -1.00D+00 NBFU=   242
 Initial guess from the checkpoint file:  "/scratch/10461028.yak.local/Gau-6502.chk"
 B after Tr=    -0.030215    0.026206    0.012122
         Rot=    1.000000    0.000029   -0.000036   -0.000042 Ang=   0.01 deg.
 ExpMin= 1.61D-01 ExpMax= 5.48D+03 ExpMxC= 8.25D+02 IAcc=1 IRadAn=         1 AccDes= 0.00D+00
 Harris functional with IExCor=  402 and IRadAn=       1 diagonalized for initial guess.
 HarFok:  IExCor=  402 AccDes= 0.00D+00 IRadAn=         1 IDoV= 1 UseB2=F ITyADJ=14
 ICtDFT=  3500011 ScaDFX=  1.000000  1.000000  1.000000  1.000000
 FoFCou: FMM=F IPFlag=           0 FMFlag=      100000 FMFlg1=           0
         NFxFlg=           0 DoJE=T BraDBF=F KetDBF=T FulRan=T
         wScrn=  0.000000 ICntrl=     500 IOpCl=  0 I1Cent=   200000004 NGrid=           0
         NMat0=    1 NMatS0=      1 NMatT0=    0 NMatD0=    1 NMtDS0=    0 NMtDT0=    0
 Symmetry not used in FoFCou.
 Requested convergence on RMS density matrix=1.00D-08 within 128 cycles.
 Requested convergence on MAX density matrix=1.00D-06.
 Requested convergence on             energy=1.00D-06.
 No special actions if energy rises.
 Integral accuracy reduced to 1.0D-05 until final iterations.
 Initial convergence to 1.0D-05 achieved.  Increase integral accuracy.
 SCF Done:  E(RB3LYP) =  -839.879452519     A.U. after   12 cycles
            NFock= 12  Conv=0.52D-08     -V/T= 2.0082
 DoSCS=F DFT=T ScalE2(SS,OS)=  1.000000  1.000000
 Range of M.O.s used for correlation:     1   242
 NBasis=   242 NAE=    58 NBE=    58 NFC=     0 NFV=     0
 NROrb=    242 NOA=    58 NOB=    58 NVA=   184 NVB=   184
 Symmetrizing basis deriv contribution to polar:
 IMax=3 JMax=2 DiffMx= 0.00D+00
 Calling FoFJK, ICntrl=      2147 FMM=F ISym2X=0 I1Cent= 0 IOpClX= 0 NMat=1 NMatS=1 NMatT=0.
 -------------------------------------------------------------------
 Center     Atomic                   Forces (Hartrees/Bohr)
 Number     Number              X              Y              Z
 -------------------------------------------------------------------
      1        8           0.012313848   -0.004181059    0.004397592
      2        6          -0.004552466    0.005160084    0.000884556
      3        6          -0.010695795   -0.004407451   -0.003528868
      4        6          -0.005006158   -0.003711847    0.004001808
      5        6          -0.011972646   -0.006750620   -0.000381344
      6        6          -0.003086894   -0.001514791   -0.004657544
      7        1          -0.002358309   -0.004112277    0.001186380
      8        1          -0.001812285    0.004154992    0.002111548
      9        1          -0.001200898    0.004210882   -0.003400506
     10        1          -0.005665769   -0.000735128   -0.001141017
     11        6          -0.001591567    0.001067591   -0.001410879
     12        1          -0.001151028   -0.001148910   -0.001314066
     13        1           0.000067705    0.000006246    0.001801781
     14        8          -0.000531471    0.000494438   -0.000625434
     15        1           0.001353952    0.001421075   -0.000037610
     16        8          -0.004729182   -0.009780880    0.005530494
     17        1           0.000596090    0.004260049   -0.001407243
     18        8          -0.017384604    0.007052971    0.004094133
     19        1          -0.005596712   -0.000340631    0.000053356
     20        8          -0.012892175    0.001197911    0.004354105
     21        1           0.013597534    0.003102097   -0.000298820
     22        1          -0.009217541    0.007461718   -0.002160442
     23        8           0.005822477   -0.000045742   -0.004192723
     24        1           0.008025121    0.005596206   -0.011453616
     25        8          -0.013141607    0.002876726    0.001615885
     26        1          -0.001063795   -0.008057216   -0.005113521
     27        1           0.004385952   -0.011295859    0.008431363
     28        8           0.022707159    0.013512414    0.014157395
     29        1           0.018632752   -0.011080198   -0.017263799
     30        1           0.026148311    0.005587210    0.005767037
 -------------------------------------------------------------------
 Cartesian Forces:  Max     0.026148311 RMS     0.007508983
 IRC-IRC-IRC-IRC-IRC-IRC-IRC-IRC-IRC-IRC-IRC-IRC-IRC-IRC-IRC-IRC-IRC-IRC
 Pt  1 Step number   1 out of a maximum of  20
 Modified Bulirsch-Stoer Extrapolation Cycles:
    EPS =    0.000010000000000
 Maximum DWI energy   std dev =  0.001137586 at pt    -1
 Maximum DWI gradient std dev =  1.502391779 at pt     3
 CORRECTOR INTEGRATION CONVERGENCE:
   Recorrection delta-x convergence threshold:    0.010000
   Delta-x Convergence NOT Met
 IRC-IRC-IRC-IRC-IRC-IRC-IRC-IRC-IRC-IRC-IRC-IRC-IRC-IRC-IRC-IRC-IRC-IRC
                          Input orientation:                          
 ---------------------------------------------------------------------
 Center     Atomic      Atomic             Coordinates (Angstroms)
 Number     Number       Type             X           Y           Z
 ---------------------------------------------------------------------
      1          8           0       -1.247095   -0.487220   -1.154884
      2          6           0       -0.490873    0.517888    1.012245
      3          6           0        1.304989   -0.522481   -0.565515
      4          6           0        0.957610    0.530093    0.535849
      5          6           0        0.171455   -1.475274   -0.906353
      6          6           0       -1.462404    0.559710   -0.173711
      7          1           0        1.589597    0.361473    1.416005
      8          1           0       -2.470733    0.373188    0.230994
      9          1           0       -0.642712    1.430162    1.600767
     10          1           0        1.674909    0.036134   -1.426929
     11          6           0       -1.500038    1.906598   -0.909562
     12          1           0       -2.330615    1.896285   -1.624758
     13          1           0       -0.577629    2.059047   -1.468357
     14          8           0       -1.626382    2.996767    0.003886
     15          1           0       -2.545812    3.012985    0.314517
     16          8           0        2.364256   -1.412896   -0.215930
     17          1           0        1.954971   -2.112409    0.337178
     18          8           0        1.250925    1.812411   -0.037349
     19          1           0        0.910425    2.515465    0.540894
     20          8           0       -0.718352   -0.586391    1.895093
     21          1           0       -1.590776   -0.445516    2.319407
     22          1           0        0.284800   -1.887979   -1.921994
     23          8           0       -0.072927   -2.365404    0.029496
     24          1           0       -1.312256   -2.509026    0.227845
     25          8           0       -2.414453   -2.161054    0.094503
     26          1           0       -2.548090   -1.634738    0.904418
     27          1           0       -2.078231   -1.351834   -0.687734
     28          8           0        3.463922    0.861007    0.047035
     29          1           0        2.920106    1.505734    0.541097
     30          1           0        3.029177    0.004839    0.183357
 ---------------------------------------------------------------------
                    Distance matrix (angstroms):
                    1          2          3          4          5
     1  O    0.000000
     2  C    2.505707   0.000000
     3  C    2.619491   2.607071   0.000000
     4  C    2.958755   1.524863   1.562558   0.000000
     5  C    1.746511   2.844713   1.519501   2.592196   0.000000
     6  C    1.450904   1.533660   2.997185   2.522067   2.710612
     7  H    3.921298   2.125052   2.188333   1.096593   3.283003
     8  H    2.039180   2.133340   3.961405   3.445445   3.419288
     9  H    3.411048   1.096201   3.507013   2.122547   3.923019
    10  H    2.980942   3.297312   1.091295   2.147326   2.194476
    11  C    2.419614   2.576873   3.726523   3.166072   3.772394
    12  H    2.660056   3.498345   4.493333   4.164989   4.259562
    13  H    2.651401   2.921659   3.320190   2.951525   3.656282
    14  O    3.691175   2.907062   4.615437   3.611714   4.905089
    15  H    4.012136   3.306827   5.301193   4.299733   5.386884
    16  O    3.844525   3.658976   1.427269   2.513769   2.299772
    17  H    3.888536   3.654631   1.940413   2.831433   2.265665
    18  O    3.574534   2.410664   2.394494   1.434897   3.567813
    19  H    4.067760   2.485181   3.257136   1.985939   4.308897
    20  O    3.097057   1.431991   3.186312   2.429594   3.070825
    21  H    3.491497   1.961276   4.088295   3.259933   3.817248
    22  H    2.212981   3.872935   2.178395   3.512939   1.102135
    23  O    2.511773   3.074711   2.376774   3.114852   1.314484
    24  H    2.450282   3.232980   3.380200   3.805706   2.134583
    25  O    2.392783   3.423322   4.117619   4.336803   2.856383
    26  H    2.692603   2.979525   4.271304   4.136698   3.271123
    27  H    1.287080   2.984208   3.485534   3.775598   2.263652
    28  O    5.045395   4.085311   2.636332   2.574887   4.148191
    29  H    4.920751   3.582262   2.819016   2.191642   4.305415
    30  H    4.507717   3.652538   1.952358   2.165995   3.397760
                    6          7          8          9         10
     6  C    0.000000
     7  H    3.446913   0.000000
     8  H    1.102408   4.229737   0.000000
     9  H    2.139709   2.481822   2.516969   0.000000
    10  H    3.418687   2.862760   4.477573   4.059757   0.000000
    11  C    1.535253   4.164315   2.143470   2.695135   3.721101
    12  H    2.155403   5.193261   2.404844   3.670191   4.420805
    13  H    2.169551   3.987251   3.051846   3.133570   3.027841
    14  O    2.449015   4.391056   2.765442   2.443744   4.659517
    15  H    2.725930   5.034421   2.642184   2.789544   5.450574
    16  O    4.305379   2.532133   5.173680   4.519428   2.010325
    17  H    4.368029   2.723501   5.077039   4.571042   2.794055
    18  O    2.991657   2.081383   3.999264   2.532864   2.294745
    19  H    3.156890   2.422142   4.014676   2.171048   3.256354
    20  O    2.479336   2.540591   2.600165   2.039322   4.141384
    21  H    2.691206   3.403254   2.409578   2.221134   4.993167
    22  H    3.478563   4.231403   4.164277   4.927493   2.424810
    23  O    3.244724   3.481703   3.645541   4.147273   3.308094
    24  H    3.098537   4.251146   3.106323   4.224974   4.259022
    25  O    2.894977   4.913443   2.538539   4.278402   4.885208
    26  H    2.675197   4.622450   2.119257   3.675457   5.104969
    27  H    2.073033   4.562248   1.993445   3.877816   4.069266
    28  O    4.940465   2.374174   5.957511   4.427467   2.460397
    29  H    4.540078   1.960880   5.517243   3.717834   2.753791
    30  H    4.539789   1.928471   5.512438   4.186093   2.104291
                   11         12         13         14         15
    11  C    0.000000
    12  H    1.096116   0.000000
    13  H    1.089189   1.767460   0.000000
    14  O    1.427872   2.087938   2.036345   0.000000
    15  H    1.953485   2.248136   2.821769   0.970621   0.000000
    16  O    5.141298   5.914161   4.719921   5.951356   6.631634
    17  H    5.444618   6.187493   5.203370   6.248267   6.821086
    18  O    2.887461   3.918461   2.335000   3.111800   3.997549
    19  H    2.878346   3.946869   2.541596   2.637313   3.499193
    20  O    3.833030   4.599177   4.281465   4.152132   4.335128
    21  H    3.995862   4.646271   4.652576   4.148760   4.110097
    22  H    4.313871   4.609707   4.065537   5.587698   6.085539
    23  O    4.600922   5.098599   4.698304   5.582719   5.926505
    24  H    4.563627   4.886304   4.927887   5.519292   5.658778
    25  O    4.288367   4.407367   4.860628   5.218465   5.180379
    26  H    4.114608   4.348811   4.812155   4.807426   4.685010
    27  H    3.316760   3.389984   3.807269   4.426380   4.502753
    28  O    5.162290   6.119097   4.479491   5.520374   6.389010
    29  H    4.669345   5.693289   4.071635   4.814803   5.674452
    30  H    5.032390   5.964413   4.467324   5.536973   6.336138
                   16         17         18         19         20
    16  O    0.000000
    17  H    0.981204   0.000000
    18  O    3.416724   4.005017   0.000000
    19  H    4.256575   4.748661   0.971900   0.000000
    20  O    3.826487   3.449998   3.656041   3.756099   0.000000
    21  H    4.796461   4.390909   4.327562   4.264566   0.980312
    22  H    2.731391   2.818457   4.263587   5.084048   4.155791
    23  O    2.628187   2.066651   4.383057   5.005137   2.657426
    24  H    3.862017   3.293027   5.031405   5.503073   2.613228
    25  O    4.846872   4.376428   5.407476   5.755337   2.932310
    26  H    5.043366   4.563715   5.215581   5.414579   2.329895
    27  H    4.467888   4.230324   4.638829   5.039603   3.017643
    28  O    2.539498   3.346986   2.410320   3.082446   4.796008
    29  H    3.066017   3.750203   1.792991   2.249083   4.410065
    30  H    1.616021   2.379142   2.545232   3.304570   4.162159
                   21         22         23         24         25
    21  H    0.000000
    22  H    4.856745   0.000000
    23  O    3.351646   2.040641   0.000000
    24  H    2.951318   2.749199   1.263291   0.000000
    25  O    2.927748   3.380354   2.351325   1.163487   0.000000
    26  H    2.081561   4.009739   2.725031   1.658137   0.975105
    27  H    3.178352   2.719332   2.358599   1.662557   1.174638
    28  O    5.693913   4.641208   4.787414   5.848221   6.609870
    29  H    5.226645   4.952671   4.919928   5.842030   6.488628
    30  H    5.109745   3.942952   3.907016   5.016925   5.859359
                   26         27         28         29         30
    26  H    0.000000
    27  H    1.683968   0.000000
    28  O    6.565679   6.012654   0.000000
    29  H    6.316308   5.887198   0.977500   0.000000
    30  H    5.857820   5.355836   0.969851   1.546791   0.000000
 Symmetry turned off by external request.
 Stoichiometry    C6H16O8
 Framework group  C1[X(C6H16O8)]
 Deg. of freedom    84
 Full point group                 C1      NOp   1
 Rotational constants (GHZ):      0.7363235      0.6589750      0.4324699
 Standard basis: 6-31G(d) (6D, 7F)
   242 basis functions,   456 primitive gaussians,   242 cartesian basis functions
    58 alpha electrons       58 beta electrons
       nuclear repulsion energy      1159.1424642535 Hartrees.
 NAtoms=   30 NActive=   30 NUniq=   30 SFac= 1.00D+00 NAtFMM=   60 NAOKFM=F Big=F
 Integral buffers will be    131072 words long.
 Raffenetti 2 integral format.
 Two-electron integral symmetry is turned off.
 One-electron integrals computed using PRISM.
 NBasis=   242 RedAO= T EigKep=  1.23D-03  NBF=   242
 NBsUse=   242 1.00D-06 EigRej= -1.00D+00 NBFU=   242
 Initial guess from the checkpoint file:  "/scratch/10461028.yak.local/Gau-6502.chk"
 B after Tr=     0.000089    0.000034   -0.000080
         Rot=    1.000000   -0.000006   -0.000010    0.000006 Ang=  -0.00 deg.
 ExpMin= 1.61D-01 ExpMax= 5.48D+03 ExpMxC= 8.25D+02 IAcc=1 IRadAn=         1 AccDes= 0.00D+00
 Harris functional with IExCor=  402 and IRadAn=       1 diagonalized for initial guess.
 HarFok:  IExCor=  402 AccDes= 0.00D+00 IRadAn=         1 IDoV= 1 UseB2=F ITyADJ=14
 ICtDFT=  3500011 ScaDFX=  1.000000  1.000000  1.000000  1.000000
 FoFCou: FMM=F IPFlag=           0 FMFlag=      100000 FMFlg1=           0
         NFxFlg=           0 DoJE=T BraDBF=F KetDBF=T FulRan=T
         wScrn=  0.000000 ICntrl=     500 IOpCl=  0 I1Cent=   200000004 NGrid=           0
         NMat0=    1 NMatS0=      1 NMatT0=    0 NMatD0=    1 NMtDS0=    0 NMtDT0=    0
 Symmetry not used in FoFCou.
 Requested convergence on RMS density matrix=1.00D-08 within 128 cycles.
 Requested convergence on MAX density matrix=1.00D-06.
 Requested convergence on             energy=1.00D-06.
 No special actions if energy rises.
 Integral accuracy reduced to 1.0D-05 until final iterations.
 Initial convergence to 1.0D-05 achieved.  Increase integral accuracy.
 SCF Done:  E(RB3LYP) =  -839.880773890     A.U. after   11 cycles
            NFock= 11  Conv=0.76D-08     -V/T= 2.0082
 DoSCS=F DFT=T ScalE2(SS,OS)=  1.000000  1.000000
 Range of M.O.s used for correlation:     1   242
 NBasis=   242 NAE=    58 NBE=    58 NFC=     0 NFV=     0
 NROrb=    242 NOA=    58 NOB=    58 NVA=   184 NVB=   184
 Symmetrizing basis deriv contribution to polar:
 IMax=3 JMax=2 DiffMx= 0.00D+00
 Calling FoFJK, ICntrl=      2147 FMM=F ISym2X=0 I1Cent= 0 IOpClX= 0 NMat=1 NMatS=1 NMatT=0.
 -------------------------------------------------------------------
 Center     Atomic                   Forces (Hartrees/Bohr)
 Number     Number              X              Y              Z
 -------------------------------------------------------------------
      1        8           0.011629803   -0.004151551    0.004689787
      2        6          -0.004503137    0.005213973    0.000841928
      3        6          -0.010375810   -0.004482858   -0.003224613
      4        6          -0.004880225   -0.003698100    0.003824388
      5        6          -0.011346949   -0.006445762   -0.000297648
      6        6          -0.003384006   -0.001428473   -0.004400378
      7        1          -0.002218089   -0.003939170    0.001091092
      8        1          -0.001578499    0.003989369    0.001925746
      9        1          -0.001166821    0.003861492   -0.003343983
     10        1          -0.005406626   -0.000652105   -0.001231484
     11        6          -0.001850687    0.001006356   -0.001516210
     12        1          -0.000914951   -0.001087090   -0.001132809
     13        1           0.000159800    0.000038982    0.001662706
     14        8          -0.000231343    0.000493146   -0.000748632
     15        1           0.001034735    0.001396043    0.000048464
     16        8          -0.004245411   -0.008554259    0.004912014
     17        1           0.000198543    0.003393018   -0.000802523
     18        8          -0.017160225    0.006978647    0.004366151
     19        1          -0.005415824   -0.000492272   -0.000087818
     20        8          -0.010254878    0.001103922    0.002980380
     21        1           0.010858068    0.003418054    0.001013425
     22        1          -0.008993791    0.007086446   -0.002311007
     23        8           0.005810977   -0.000102590   -0.004403651
     24        1           0.007537357    0.005019199   -0.010694612
     25        8          -0.012317488    0.001469115   -0.000352795
     26        1          -0.001284499   -0.006799658   -0.003280771
     27        1           0.003962671   -0.010408149    0.008027630
     28        8           0.028011601    0.012478227    0.010198566
     29        1           0.014643796   -0.007153178   -0.013892089
     30        1           0.023681906    0.002449225    0.006138746
 -------------------------------------------------------------------
 Cartesian Forces:  Max     0.028011601 RMS     0.006988139
 IRC-IRC-IRC-IRC-IRC-IRC-IRC-IRC-IRC-IRC-IRC-IRC-IRC-IRC-IRC-IRC-IRC-IRC
 Error in corrector energy =           0.0003601788
 Magnitude of corrector gradient =     0.0447024394
 Magnitude of analytic gradient =      0.0662953067
 Magnitude of difference =             0.0451031077
 Angle between gradients (degrees)=   42.6550
 Pt  1 Step number   2 out of a maximum of  20
 Modified Bulirsch-Stoer Extrapolation Cycles:
    EPS =    0.000010000000000
 Maximum DWI energy   std dev =  0.000808678 at pt    50
 Maximum DWI gradient std dev =  1.546760985 at pt     4
 CORRECTOR INTEGRATION CONVERGENCE:
   Recorrection delta-x convergence threshold:    0.010000
   Delta-x Convergence NOT Met
 IRC-IRC-IRC-IRC-IRC-IRC-IRC-IRC-IRC-IRC-IRC-IRC-IRC-IRC-IRC-IRC-IRC-IRC
                          Input orientation:                          
 ---------------------------------------------------------------------
 Center     Atomic      Atomic             Coordinates (Angstroms)
 Number     Number       Type             X           Y           Z
 ---------------------------------------------------------------------
      1          8           0       -1.247284   -0.487254   -1.154823
      2          6           0       -0.490914    0.517919    1.012257
      3          6           0        1.304896   -0.522497   -0.565554
      4          6           0        0.957566    0.530054    0.535887
      5          6           0        0.171620   -1.475700   -0.906204
      6          6           0       -1.462491    0.559771   -0.173707
      7          1           0        1.589325    0.361009    1.416141
      8          1           0       -2.470923    0.373694    0.231214
      9          1           0       -0.642876    1.430625    1.600326
     10          1           0        1.674297    0.036088   -1.427077
     11          6           0       -1.500058    1.906617   -0.909584
     12          1           0       -2.330722    1.896160   -1.624897
     13          1           0       -0.577601    2.059068   -1.468162
     14          8           0       -1.626380    2.996765    0.003876
     15          1           0       -2.545692    3.013161    0.314516
     16          8           0        2.364231   -1.412946   -0.215895
     17          1           0        1.954886   -2.112002    0.337036
     18          8           0        1.250791    1.812466   -0.037317
     19          1           0        0.909811    2.515410    0.540898
     20          8           0       -0.718426   -0.586374    1.895114
     21          1           0       -1.589524   -0.445124    2.319545
     22          1           0        0.283604   -1.887075   -1.922385
     23          8           0       -0.072716   -2.365302    0.029332
     24          1           0       -1.315002   -2.508662    0.227002
     25          8           0       -2.414542   -2.161137    0.094602
     26          1           0       -2.548352   -1.635622    0.904119
     27          1           0       -2.075239   -1.350109   -0.689225
     28          8           0        3.464141    0.861100    0.047110
     29          1           0        2.921809    1.504941    0.539506
     30          1           0        3.031993    0.005069    0.184092
 ---------------------------------------------------------------------
                    Distance matrix (angstroms):
                    1          2          3          4          5
     1  O    0.000000
     2  C    2.505734   0.000000
     3  C    2.619561   2.607084   0.000000
     4  C    2.958847   1.524850   1.562586   0.000000
     5  C    1.747034   2.844989   1.519523   2.592370   0.000000
     6  C    1.450918   1.533695   2.997211   2.522118   2.711091
     7  H    3.921193   2.124885   2.188287   1.096606   3.282784
     8  H    2.039515   2.133369   3.961667   3.445549   3.420090
     9  H    3.410925   1.096335   3.507070   2.122610   3.923369
    10  H    2.980544   3.297066   1.091190   2.147308   2.194276
    11  C    2.419639   2.576883   3.726489   3.166106   3.772875
    12  H    2.659975   3.498431   4.493309   4.165101   4.260009
    13  H    2.651492   2.921494   3.320086   2.951412   3.656735
    14  O    3.691163   2.907024   4.615391   3.611713   4.905506
    15  H    4.012197   3.306839   5.301172   4.299725   5.387375
    16  O    3.844676   3.659022   1.427358   2.513788   2.299566
    17  H    3.888360   3.654360   1.940022   2.831016   2.265075
    18  O    3.574620   2.410600   2.394581   1.434966   3.568138
    19  H    4.067495   2.484789   3.257178   1.985937   4.309059
    20  O    3.097035   1.432013   3.186345   2.429579   3.070906
    21  H    3.491437   1.960459   4.087475   3.258845   3.816959
    22  H    2.211848   3.872467   2.178554   3.512811   1.101995
    23  O    2.511752   3.074735   2.376475   3.114669   1.313895
    24  H    2.449514   3.233565   3.381843   3.807068   2.135700
    25  O    2.392789   3.423416   4.117665   4.336860   2.856514
    26  H    2.692725   2.980350   4.271592   4.137294   3.271252
    27  H    1.283281   2.982391   3.482175   3.772773   2.260803
    28  O    5.045813   4.085552   2.636672   2.575153   4.148510
    29  H    4.921476   3.583906   2.818878   2.192868   4.305558
    30  H    4.510796   3.655098   1.955290   2.168552   3.400463
                    6          7          8          9         10
     6  C    0.000000
     7  H    3.446839   0.000000
     8  H    1.102507   4.229637   0.000000
     9  H    2.139473   2.482081   2.516610   0.000000
    10  H    3.418276   2.862985   4.477360   4.059457   0.000000
    11  C    1.535227   4.164396   2.143327   2.694620   3.720646
    12  H    2.155392   5.193397   2.404726   3.669824   4.420313
    13  H    2.169455   3.987252   3.051726   3.132861   3.027405
    14  O    2.448946   4.391180   2.765038   2.443097   4.659152
    15  H    2.725951   5.034466   2.641839   2.788984   5.450175
    16  O    4.305483   2.531982   5.174041   4.519651   2.010639
    17  H    4.367802   2.722845   5.077172   4.571048   2.793764
    18  O    2.991613   2.081797   3.999166   2.532519   2.294844
    19  H    3.156422   2.422650   4.014002   2.170249   3.256440
    20  O    2.479375   2.540209   2.600296   2.039827   4.141199
    21  H    2.691144   3.401627   2.410074   2.220778   4.992120
    22  H    3.477611   4.231376   4.163711   4.926966   2.424441
    23  O    3.244804   3.481148   3.646129   4.147550   3.307545
    24  H    3.097999   4.252549   3.105503   4.225607   4.260004
    25  O    2.895122   4.913109   2.539136   4.278640   4.884865
    26  H    2.675921   4.622669   2.120413   3.676604   5.104884
    27  H    2.070956   4.559552   1.993809   3.876363   4.065093
    28  O    4.940775   2.374715   5.957889   4.427688   2.461182
    29  H    4.541377   1.962800   5.518725   3.719925   2.753409
    30  H    4.542697   1.930267   5.515450   4.188387   2.107170
                   11         12         13         14         15
    11  C    0.000000
    12  H    1.096259   0.000000
    13  H    1.089117   1.767636   0.000000
    14  O    1.427862   2.088141   2.036199   0.000000
    15  H    1.953512   2.248383   2.821633   0.970515   0.000000
    16  O    5.141345   5.914224   4.719897   5.951371   6.631673
    17  H    5.444263   6.187162   5.202890   6.247876   6.820777
    18  O    2.887367   3.918501   2.334769   3.111651   3.997341
    19  H    2.877846   3.946542   2.541056   2.636733   3.498500
    20  O    3.833052   4.599233   4.281334   4.152113   4.335187
    21  H    3.995744   4.646462   4.652063   4.148527   4.110247
    22  H    4.312693   4.608261   4.064485   5.586628   6.084485
    23  O    4.600887   5.098541   4.698132   5.582677   5.926618
[...]
 Alpha  occ. eigenvalues --  -19.16227 -19.14545 -19.07483 -10.30627 -10.26571
 Alpha  occ. eigenvalues --  -10.26403 -10.26061 -10.25134 -10.24791  -1.08255
 Alpha  occ. eigenvalues --   -1.05594  -1.04921  -1.04529  -1.03687  -1.01358
 Alpha  occ. eigenvalues --   -1.00357  -0.94689  -0.79528  -0.77073  -0.71145
 Alpha  occ. eigenvalues --   -0.66867  -0.63927  -0.59224  -0.56808  -0.55964
 Alpha  occ. eigenvalues --   -0.54307  -0.53644  -0.52366  -0.51308  -0.50664
 Alpha  occ. eigenvalues --   -0.48773  -0.47424  -0.46111  -0.45361  -0.43962
 Alpha  occ. eigenvalues --   -0.42622  -0.42271  -0.41436  -0.39010  -0.38085
 Alpha  occ. eigenvalues --   -0.37394  -0.36609  -0.35628  -0.34333  -0.32118
 Alpha  occ. eigenvalues --   -0.31386  -0.31016  -0.30644  -0.29463  -0.28639
 Alpha  occ. eigenvalues --   -0.27646  -0.26941  -0.23870
 Alpha virt. eigenvalues --    0.01241   0.02169   0.03729   0.06792   0.07733
 Alpha virt. eigenvalues --    0.10029   0.10886   0.11960   0.12834   0.13807
 Alpha virt. eigenvalues --    0.15779   0.15928   0.16925   0.17427   0.18816
 Alpha virt. eigenvalues --    0.19274   0.20640   0.21518   0.21842   0.23233
 Alpha virt. eigenvalues --    0.23419   0.25863   0.26475   0.27901   0.28494
 Alpha virt. eigenvalues --    0.30643   0.32709   0.33861   0.51825   0.52102
 Alpha virt. eigenvalues --    0.52621   0.54546   0.55879   0.56683   0.58121
 Alpha virt. eigenvalues --    0.60148   0.60487   0.63444   0.64423   0.65254
 Alpha virt. eigenvalues --    0.66417   0.68181   0.69919   0.71184   0.72022
 Alpha virt. eigenvalues --    0.73660   0.76378   0.77025   0.79429   0.79775
 Alpha virt. eigenvalues --    0.81234   0.82009   0.82424   0.83390   0.84582
 Alpha virt. eigenvalues --    0.85274   0.86158   0.87082   0.87639   0.88282
 Alpha virt. eigenvalues --    0.89544   0.91027   0.93122   0.94005   0.94639
 Alpha virt. eigenvalues --    0.97183   0.97515   0.99991   1.01505   1.02560
 Alpha virt. eigenvalues --    1.02780   1.04681   1.06309   1.08847   1.10513
 Alpha virt. eigenvalues --    1.11856   1.13285   1.14336   1.14913   1.16674
 Alpha virt. eigenvalues --    1.19848   1.21527   1.22619   1.24932   1.27584
 Alpha virt. eigenvalues --    1.29614   1.31115   1.33118   1.34997   1.36677
 Alpha virt. eigenvalues --    1.39027   1.39166   1.42280   1.43955   1.47233
 Alpha virt. eigenvalues --    1.51188   1.53323   1.53863   1.56588   1.58531
 Alpha virt. eigenvalues --    1.60197   1.62083   1.63742   1.66405   1.67198
 Alpha virt. eigenvalues --    1.68677   1.69330   1.73371   1.74344   1.75065
 Alpha virt. eigenvalues --    1.76996   1.78271   1.79358   1.80176   1.81994
 Alpha virt. eigenvalues --    1.82869   1.84759   1.85295   1.86410   1.87743
 Alpha virt. eigenvalues --    1.88953   1.90608   1.91984   1.92787   1.94676
 Alpha virt. eigenvalues --    1.96474   1.99267   2.00062   2.02712   2.04847
 Alpha virt. eigenvalues --    2.07253   2.08452   2.10280   2.13693   2.15088
 Alpha virt. eigenvalues --    2.16148   2.21717   2.22897   2.25286   2.28890
 Alpha virt. eigenvalues --    2.30668   2.34039   2.36225   2.38550   2.42475
 Alpha virt. eigenvalues --    2.43184   2.44396   2.46007   2.47997   2.49852
 Alpha virt. eigenvalues --    2.50818   2.52728   2.54785   2.57899   2.60793
 Alpha virt. eigenvalues --    2.63491   2.66008   2.71298   2.71865   2.73965
 Alpha virt. eigenvalues --    2.75263   2.78278   2.83964   2.84797   2.86933
 Alpha virt. eigenvalues --    2.93430   2.95412   2.99115   3.00329   3.11140
 Alpha virt. eigenvalues --    3.72901   3.75939   3.78048   3.83745   3.90940
 Alpha virt. eigenvalues --    3.95055   4.04161   4.14400   4.27819   4.30157
 Alpha virt. eigenvalues --    4.51847   4.60305   4.73191   4.93380
          Condensed to atoms (all electrons):
               1          2          3          4          5          6
     1  O    8.509687  -0.025612  -0.006516  -0.008246   0.129311   0.134507
     2  C   -0.025612   5.088211  -0.026662   0.275345  -0.008197   0.274721
     3  C   -0.006516  -0.026662   5.030350   0.273170   0.283422  -0.024536
     4  C   -0.008246   0.275345   0.273170   5.097740  -0.019759  -0.027713
     5  C    0.129311  -0.008197   0.283422  -0.019759   4.773146  -0.007507
     6  C    0.134507   0.274721  -0.024536  -0.027713  -0.007507   5.121400
     7  H    0.000074  -0.040957  -0.055514   0.351030  -0.000288   0.005764
     8  H   -0.047559  -0.062408   0.000438   0.006203   0.002327   0.340407
     9  H    0.003263   0.351918   0.004756  -0.039807   0.000286  -0.058344
    10  H    0.001253   0.002669   0.367797  -0.054260  -0.028061   0.000561
    11  C   -0.031264  -0.036979  -0.000182  -0.004155   0.000678   0.311594
    12  H    0.004393   0.005717  -0.000054  -0.000400  -0.000150  -0.044222
    13  H    0.003817  -0.009378  -0.000545   0.001419   0.000378  -0.039105
    14  O    0.001394  -0.009039   0.000016  -0.001021  -0.000013  -0.044623
    15  H   -0.000007  -0.001071   0.000002   0.000132  -0.000000  -0.002245
    16  O    0.000783   0.001670   0.216133  -0.042027  -0.025760   0.000114
    17  H    0.000326   0.000389  -0.030045  -0.002194  -0.018522   0.000069
    18  O   -0.000239  -0.028747  -0.035951   0.170977   0.001435  -0.003189
    19  H    0.000041  -0.001856   0.005935  -0.022077  -0.000146  -0.002308
    20  O    0.000965   0.192528   0.002030  -0.045941   0.001797  -0.040669
    21  H   -0.000259  -0.016227  -0.000382   0.006839   0.000024  -0.001929
    22  H   -0.036808   0.000124  -0.062712   0.005713   0.375004   0.003528
    23  O   -0.039172   0.006094  -0.048694  -0.002048   0.263389  -0.000709
    24  H    0.004364   0.000150   0.004705  -0.000479  -0.026212  -0.001099
    25  O   -0.079398  -0.007401  -0.000722   0.000224   0.011297   0.017040
    26  H    0.003691  -0.002944   0.000044   0.000051   0.000442   0.000934
    27  H    0.087917   0.005268   0.001715  -0.000160  -0.008988  -0.011278
    28  O    0.000000   0.001617   0.009811   0.020998   0.001293  -0.000026
    29  H   -0.000001   0.001248  -0.004237   0.000102  -0.000271  -0.000027
    30  H   -0.000013   0.000312  -0.022289   0.001301  -0.000082  -0.000028
               7          8          9         10         11         12
     1  O    0.000074  -0.047559   0.003263   0.001253  -0.031264   0.004393
     2  C   -0.040957  -0.062408   0.351918   0.002669  -0.036979   0.005717
     3  C   -0.055514   0.000438   0.004756   0.367797  -0.000182  -0.000054
     4  C    0.351030   0.006203  -0.039807  -0.054260  -0.004155  -0.000400
     5  C   -0.000288   0.002327   0.000286  -0.028061   0.000678  -0.000150
     6  C    0.005764   0.340407  -0.058344   0.000561   0.311594  -0.044222
     7  H    0.615275  -0.000232  -0.006339   0.003500   0.000133   0.000013
     8  H   -0.000232   0.715473  -0.000134   0.000019  -0.049814  -0.009085
     9  H   -0.006339  -0.000134   0.631032  -0.000262  -0.005159   0.000295
    10  H    0.003500   0.000019  -0.000262   0.524526  -0.000066   0.000005
    11  C    0.000133  -0.049814  -0.005159  -0.000066   4.962811   0.355538
    12  H    0.000013  -0.009085   0.000295   0.000005   0.355538   0.611735
    13  H    0.000128   0.006226   0.000039   0.001158   0.372504  -0.031973
    14  O   -0.000025   0.004509   0.020175   0.000001   0.221270  -0.029044
    15  H   -0.000000   0.004001   0.000311   0.000000  -0.027971  -0.008221
    16  O    0.001987   0.000005  -0.000059  -0.035648   0.000001  -0.000000
    17  H    0.001094  -0.000000  -0.000001   0.006184   0.000001  -0.000000
    18  O   -0.037958  -0.000033  -0.004112   0.003869  -0.002738   0.000619
    19  H   -0.002672  -0.000053   0.010270  -0.000094  -0.001030   0.000130
    20  O    0.007010  -0.003418  -0.031635  -0.000027   0.003055  -0.000046
    21  H   -0.000331   0.005026  -0.008770   0.000007  -0.000159  -0.000000
    22  H   -0.000172  -0.000181   0.000006  -0.002470  -0.000053   0.000004
    23  O    0.000242  -0.000038   0.000003   0.003289  -0.000017   0.000003
    24  H    0.000024  -0.000523   0.000037  -0.000120  -0.000055   0.000001
    25  O    0.000000   0.008499  -0.000040   0.000005   0.000375   0.000001
    26  H   -0.000019   0.002704   0.000252  -0.000001   0.000335  -0.000022
    27  H    0.000004  -0.009064  -0.000170  -0.000028  -0.000040   0.000167
    28  O    0.003689   0.000000  -0.000009   0.007187   0.000005   0.000000
    29  H   -0.001636   0.000000   0.000023  -0.000858   0.000004  -0.000001
    30  H    0.007981  -0.000000  -0.000006  -0.003664  -0.000001  -0.000000
              13         14         15         16         17         18
     1  O    0.003817   0.001394  -0.000007   0.000783   0.000326  -0.000239
     2  C   -0.009378  -0.009039  -0.001071   0.001670   0.000389  -0.028747
     3  C   -0.000545   0.000016   0.000002   0.216133  -0.030045  -0.035951
     4  C    0.001419  -0.001021   0.000132  -0.042027  -0.002194   0.170977
     5  C    0.000378  -0.000013  -0.000000  -0.025760  -0.018522   0.001435
     6  C   -0.039105  -0.044623  -0.002245   0.000114   0.000069  -0.003189
     7  H    0.000128  -0.000025  -0.000000   0.001987   0.001094  -0.037958
     8  H    0.006226   0.004509   0.004001   0.000005  -0.000000  -0.000033
     9  H    0.000039   0.020175   0.000311  -0.000059  -0.000001  -0.004112
    10  H    0.001158   0.000001   0.000000  -0.035648   0.006184   0.003869
    11  C    0.372504   0.221270  -0.027971   0.000001   0.000001  -0.002738
    12  H   -0.031973  -0.029044  -0.008221  -0.000000  -0.000000   0.000619
    13  H    0.511511  -0.032021   0.006510   0.000008   0.000000   0.015073
    14  O   -0.032021   8.248964   0.234138   0.000000  -0.000000  -0.001734
    15  H    0.006510   0.234138   0.398752  -0.000000   0.000000   0.000052
    16  O    0.000008   0.000000  -0.000000   8.287848   0.230382   0.001435
    17  H    0.000000  -0.000000   0.000000   0.230382   0.352838  -0.000063
    18  O    0.015073  -0.001734   0.000052   0.001435  -0.000063   8.324762
    19  H   -0.003491   0.008446  -0.000244  -0.000114   0.000011   0.223426
    20  O   -0.000032   0.000049  -0.000026  -0.000022   0.000324   0.001347
    21  H    0.000013   0.000059  -0.000006   0.000006   0.000004  -0.000114
    22  H   -0.000081   0.000001  -0.000000   0.001952   0.001187  -0.000084
    23  O    0.000006   0.000000  -0.000000  -0.014879   0.034432   0.000023
    24  H    0.000003  -0.000000   0.000000   0.000084   0.000056   0.000003
    25  O    0.000002   0.000000  -0.000001  -0.000001   0.000062   0.000000
    26  H    0.000000  -0.000004  -0.000001   0.000001  -0.000010  -0.000001
    27  H   -0.000081  -0.000010  -0.000001  -0.000028  -0.000042  -0.000004
    28  O    0.000003  -0.000000   0.000000  -0.033306   0.001001  -0.042545
    29  H    0.000013   0.000000   0.000000   0.002078  -0.000139   0.033986
    30  H    0.000003   0.000000  -0.000000   0.053195  -0.001737   0.001750
              19         20         21         22         23         24
     1  O    0.000041   0.000965  -0.000259  -0.036808  -0.039172   0.004364
     2  C   -0.001856   0.192528  -0.016227   0.000124   0.006094   0.000150
     3  C    0.005935   0.002030  -0.000382  -0.062712  -0.048694   0.004705
     4  C   -0.022077  -0.045941   0.006839   0.005713  -0.002048  -0.000479
     5  C   -0.000146   0.001797   0.000024   0.375004   0.263389  -0.026212
     6  C   -0.002308  -0.040669  -0.001929   0.003528  -0.000709  -0.001099
     7  H   -0.002672   0.007010  -0.000331  -0.000172   0.000242   0.000024
     8  H   -0.000053  -0.003418   0.005026  -0.000181  -0.000038  -0.000523
     9  H    0.010270  -0.031635  -0.008770   0.000006   0.000003   0.000037
    10  H   -0.000094  -0.000027   0.000007  -0.002470   0.003289  -0.000120
    11  C   -0.001030   0.003055  -0.000159  -0.000053  -0.000017  -0.000055
    12  H    0.000130  -0.000046  -0.000000   0.000004   0.000003   0.000001
    13  H   -0.003491  -0.000032   0.000013  -0.000081   0.000006   0.000003
    14  O    0.008446   0.000049   0.000059   0.000001   0.000000  -0.000000
    15  H   -0.000244  -0.000026  -0.000006  -0.000000  -0.000000   0.000000
    16  O   -0.000114  -0.000022   0.000006   0.001952  -0.014879   0.000084
    17  H    0.000011   0.000324   0.000004   0.001187   0.034432   0.000056
    18  O    0.223426   0.001347  -0.000114  -0.000084   0.000023   0.000003
    19  H    0.374772   0.000013  -0.000022   0.000009   0.000001  -0.000001
    20  O    0.000013   8.303565   0.219184  -0.000017  -0.008719   0.002266
    21  H   -0.000022   0.219184   0.404144   0.000010   0.000951  -0.000513
    22  H    0.000009  -0.000017   0.000010   0.605725  -0.048458  -0.000992
    23  O    0.000001  -0.008719   0.000951  -0.048458   8.393371   0.173385
    24  H   -0.000001   0.002266  -0.000513  -0.000992   0.173385   0.284190
    25  O    0.000000  -0.004606   0.000978   0.000036  -0.092686   0.116648
    26  H    0.000000   0.022507   0.001699  -0.000028   0.004936  -0.009412
    27  H   -0.000001  -0.001383  -0.000255  -0.000074   0.013660  -0.014368
    28  O    0.001563   0.000001   0.000000  -0.000005  -0.000006   0.000000
    29  H   -0.000775  -0.000034   0.000002   0.000002   0.000003  -0.000000
    30  H   -0.000355  -0.000037   0.000000  -0.000083   0.000008   0.000001
              25         26         27         28         29         30
     1  O   -0.079398   0.003691   0.087917   0.000000  -0.000001  -0.000013
     2  C   -0.007401  -0.002944   0.005268   0.001617   0.001248   0.000312
     3  C   -0.000722   0.000044   0.001715   0.009811  -0.004237  -0.022289
     4  C    0.000224   0.000051  -0.000160   0.020998   0.000102   0.001301
     5  C    0.011297   0.000442  -0.008988   0.001293  -0.000271  -0.000082
     6  C    0.017040   0.000934  -0.011278  -0.000026  -0.000027  -0.000028
     7  H    0.000000  -0.000019   0.000004   0.003689  -0.001636   0.007981
     8  H    0.008499   0.002704  -0.009064   0.000000   0.000000  -0.000000
     9  H   -0.000040   0.000252  -0.000170  -0.000009   0.000023  -0.000006
    10  H    0.000005  -0.000001  -0.000028   0.007187  -0.000858  -0.003664
    11  C    0.000375   0.000335  -0.000040   0.000005   0.000004  -0.000001
    12  H    0.000001  -0.000022   0.000167   0.000000  -0.000001  -0.000000
    13  H    0.000002   0.000000  -0.000081   0.000003   0.000013   0.000003
    14  O    0.000000  -0.000004  -0.000010  -0.000000   0.000000   0.000000
    15  H   -0.000001  -0.000001  -0.000001   0.000000   0.000000  -0.000000
    16  O   -0.000001   0.000001  -0.000028  -0.033306   0.002078   0.053195
    17  H    0.000062  -0.000010  -0.000042   0.001001  -0.000139  -0.001737
    18  O    0.000000  -0.000001  -0.000004  -0.042545   0.033986   0.001750
    19  H    0.000000   0.000000  -0.000001   0.001563  -0.000775  -0.000355
    20  O   -0.004606   0.022507  -0.001383   0.000001  -0.000034  -0.000037
    21  H    0.000978   0.001699  -0.000255   0.000000   0.000002   0.000000
    22  H    0.000036  -0.000028  -0.000074  -0.000005   0.000002  -0.000083
    23  O   -0.092686   0.004936   0.013660  -0.000006   0.000003   0.000008
    24  H    0.116648  -0.009412  -0.014368   0.000000  -0.000000   0.000001
    25  O    8.436502   0.231127   0.178350  -0.000000   0.000000   0.000000
    26  H    0.231127   0.371021  -0.019576  -0.000000   0.000000   0.000000
    27  H    0.178350  -0.019576   0.318845   0.000000   0.000000   0.000000
    28  O   -0.000000  -0.000000   0.000000   8.404535   0.230750   0.221729
    29  H    0.000000   0.000000   0.000000   0.230750   0.368580  -0.020570
    30  H    0.000000   0.000000   0.000000   0.221729  -0.020570   0.342073
 Mulliken charges:
               1
     1  O   -0.610694
     2  C    0.069498
     3  C    0.118715
     4  C    0.059043
     5  C    0.299725
     6  C    0.098916
     7  H    0.148196
     8  H    0.086705
     9  H    0.132183
    10  H    0.203528
    11  C   -0.068620
    12  H    0.144596
    13  H    0.197891
    14  O   -0.621491
    15  H    0.395894
    16  O   -0.645840
    17  H    0.424391
    18  O   -0.621244
    19  H    0.410622
    20  O   -0.620026
    21  H    0.390022
    22  H    0.158915
    23  O   -0.638371
    24  H    0.467858
    25  O   -0.816293
    26  H    0.392273
    27  H    0.459624
    28  O   -0.828285
    29  H    0.391758
    30  H    0.420510
 Sum of Mulliken charges =  -0.00000
 Mulliken charges with hydrogens summed into heavy atoms:
               1
     1  O   -0.610694
     2  C    0.201681
     3  C    0.322243
     4  C    0.207239
     5  C    0.458640
     6  C    0.185621
    11  C    0.273866
    14  O   -0.225597
    16  O   -0.221449
    18  O   -0.210622
    20  O   -0.230004
    23  O   -0.170513
    25  O    0.035604
    28  O   -0.016017
 APT charges:
               1
     1  O   -0.465246
     2  C   -0.286604
     3  C   -0.177773
     4  C   -0.310799
     5  C   -0.306112
     6  C   -0.263049
     7  H    0.404006
     8  H    0.384004
     9  H    0.408876
    10  H    0.451587
    11  C   -0.642217
    12  H    0.542756
    13  H    0.289882
    14  O   -0.903315
    15  H    0.790758
    16  O   -0.679524
    17  H    0.545329
    18  O   -0.754875
    19  H    0.657717
    20  O   -0.899757
    21  H    0.733695
    22  H    0.544113
    23  O   -0.459244
    24  H    0.459891
    25  O   -0.658099
    26  H    0.446640
    27  H    0.204145
    28  O   -0.527666
    29  H    0.277280
    30  H    0.193601
 Sum of APT charges =  -0.00000
 APT charges with hydrogens summed into heavy atoms:
               1
     1  O   -0.465246
     2  C    0.122272
     3  C    0.273814
     4  C    0.093207
     5  C    0.238002
     6  C    0.120955
    11  C    0.190420
    14  O   -0.112558
    16  O   -0.134195
    18  O   -0.097158
    20  O   -0.166062
    23  O    0.000647
    25  O   -0.007314
    28  O   -0.056785
 Electronic spatial extent (au):  <R**2>=           2782.1344
 Charge=             -0.0000 electrons
 Dipole moment (field-independent basis, Debye):
    X=             -6.5242    Y=              1.8490    Z=              3.2151  Tot=              7.5047
 Quadrupole moment (field-independent basis, Debye-Ang):
   XX=            -95.4574   YY=            -88.2841   ZZ=            -77.9640
   XY=            -10.8866   XZ=             -2.4299   YZ=              3.6513
 Traceless Quadrupole moment (field-independent basis, Debye-Ang):
   XX=             -8.2222   YY=             -1.0489   ZZ=              9.2712
   XY=            -10.8866   XZ=             -2.4299   YZ=              3.6513
 Octapole moment (field-independent basis, Debye-Ang**2):
  XXX=           -101.3993  YYY=              3.2540  ZZZ=              9.6898  XYY=              7.8047
  XXY=              9.7008  XXZ=             30.7446  XZZ=             -7.2717  YZZ=             -1.6499
  YYZ=             10.8083  XYZ=              4.7778
 Hexadecapole moment (field-independent basis, Debye-Ang**3):
 XXXX=          -1804.8182 YYYY=          -1355.3801 ZZZZ=           -395.4831 XXXY=           -160.1151
 XXXZ=            -11.3645 YYYX=            -31.9405 YYYZ=             20.1681 ZZZX=            -39.4585
 ZZZY=              2.1253 XXYY=           -459.5316 XXZZ=           -286.7840 YYZZ=           -264.5950
 XXYZ=             -7.1070 YYXZ=              3.4026 ZZXY=              8.7257
 N-N= 1.157395394937D+03 E-N=-4.286546454020D+03  KE= 8.331561709484D+02
  Exact polarizability:   0.000   0.000   0.000   0.000   0.000   0.000
 Approx polarizability: 140.302  -6.661 141.258  -6.371  -3.087 124.146

 This type of calculation cannot be archived.


 Everywhere is walking distance if you have the time.
                                    -- Steven Wright
 Job cpu time:       0 days  1 hours 16 minutes 59.3 seconds.
 File lengths (MBytes):  RWF=    220 Int=      0 D2E=      0 Chk=      9 Scr=      1
 Normal termination of Gaussian 09 at Sat Jan 14 01:03:52 2017.
