 Entering Gaussian System, Link 0=g09
 Initial command:
 /global/software/gaussian/g09.e01/l1.exe "/scratch/10461033.yak.local/Gau-24202.inp" -scrdir="/scratch/10461033.yak.local/"
 Entering Link 1 = /global/software/gaussian/g09.e01/l1.exe PID=     24203.
  
 Copyright (c) 1988,1990,1992,1993,1995,1998,2003,2009,2015,
            Gaussian, Inc.  All Rights Reserved.
  
 This is part of the Gaussian(R) 09 program.  It is based on
 the Gaussian(R) 03 system (copyright 2003, Gaussian, Inc.),
 the Gaussian(R) 98 system (copyright 1998, Gaussian, Inc.),
 the Gaussian(R) 94 system (copyright 1995, Gaussian, Inc.),
 the Gaussian 92(TM) system (copyright 1992, Gaussian, Inc.),
 the Gaussian 90(TM) system (copyright 1990, Gaussian, Inc.),
 the Gaussian 88(TM) system (copyright 1988, Gaussian, Inc.),
 the Gaussian 86(TM) system (copyright 1986, Carnegie Mellon
 University), and the Gaussian 82(TM) system (copyright 1983,
 Carnegie Mellon University). Gaussian is a federally registered
 trademark of Gaussian, Inc.
  
 This software contains proprietary and confidential information,
 including trade secrets, belonging to Gaussian, Inc.
  
 This software is provided under written license and may be
 used, copied, transmitted, or stored only in accord with that
 written license.
  
 The following legend is applicable only to US Government
 contracts under FAR:
  
                    RESTRICTED RIGHTS LEGEND
  
 Use, reproduction and disclosure by the US Government is
 subject to restrictions as set forth in subparagraphs (a)
 and (c) of the Commercial Computer Software - Restricted
 Rights clause in FAR 52.227-19.
  
 Gaussian, Inc.
 340 Quinnipiac St., Bldg. 40, Wallingford CT 06492
  
  
 ---------------------------------------------------------------
 Warning -- This program may not be used in any manner that
 competes with the business of Gaussian, Inc. or will provide
 assistance to any competitor of Gaussian, Inc.  The licensee
 of this program is prohibited from giving any competitor of
 Gaussian, Inc. access to this program.  By using this program,
 the user acknowledges that Gaussian, Inc. is engaged in the
 business of creating and licensing software in the field of
 computational chemistry and represents and warrants to the
 licensee that it is not a competitor of Gaussian, Inc. and that
 it will not use this program in any manner prohibited above.
 ---------------------------------------------------------------
  

 Cite this work as:
 Gaussian 09, Revision E.01,
 M. J. Frisch, G. W. Trucks, H. B. Schlegel, G. E. Scuseria, 
 M. A. Robb, J. R. Cheeseman, G. Scalmani, V. Barone, B. Mennucci, 
 G. A. Petersson, H. Nakatsuji, M. Caricato, X. Li, H. P. Hratchian, 
 A. F. Izmaylov, J. Bloino, G. Zheng, J. L. Sonnenberg, M. Hada, 
 M. Ehara, K. Toyota, R. Fukuda, J. Hasegawa, M. Ishida, T. Nakajima, 
 Y. Honda, O. Kitao, H. Nakai, T. Vreven, J. A. Montgomery, Jr., 
 J. E. Peralta, F. Ogliaro, M. Bearpark, J. J. Heyd, E. Brothers, 
 K. N. Kudin, V. N. Staroverov, T. Keith, R. Kobayashi, J. Normand, 
 K. Raghavachari, A. Rendell, J. C. Burant, S. S. Iyengar, J. Tomasi, 
 M. Cossi, N. Rega, J. M. Millam, M. Klene, J. E. Knox, J. B. Cross, 
 V. Bakken, C. Adamo, J. Jaramillo, R. Gomperts, R. E. Stratmann, 
 O. Yazyev, A. J. Austin, R. Cammi, C. Pomelli, J. W. Ochterski, 
 R. L. Martin, K. Morokuma, V. G. Zakrzewski, G. A. Voth, 
 P. Salvador, J. J. Dannenberg, S. Dapprich, A. D. Daniels, 
 O. Farkas, J. B. Foresman, J. V. Ortiz, J. Cioslowski, 
 and D. J. Fox, Gaussian, Inc., Wallingford CT, 2013.
 
 ******************************************
 Gaussian 09:  ES64L-G09RevE.01 30-Nov-2015
                13-Jan-2017 
 ******************************************
 -------------------------------------
 # b3lyp/6-31g(d) irc=(calcfc,forward)
 -------------------------------------
 1/10=4,14=-1,18=10,22=1,26=3,38=1,44=3/1,23;
 2/12=2,17=6,18=5,29=1,40=1/2;
 3/5=1,6=6,7=1,11=2,16=1,25=1,30=1,71=2,74=-5,140=1/1,2,3;
 4//1;
 5/5=2,38=5/2;
 8/6=4,10=90,11=11/1;
 11/6=1,8=1,9=11,15=111,16=1/1,2,10;
 10/6=1,13=1/2;
 6/7=2,8=2,9=2,10=2,28=1/1;
 7/10=1,18=20,25=1/1,2,3,16;
 1/10=4,14=-1,18=10,22=1,26=3,44=3/23(2);
 2/29=1/2;
 99/5=20/99;
 2/29=1/2;
 3/5=1,6=6,7=1,11=2,16=1,25=1,30=1,71=2,74=-5,140=1/1,2,3;
 4/5=5,16=3,69=1/1;
 5/5=2,38=5/2;
 8/6=4,10=90,11=11/1;
 11/6=1,8=1,9=11,15=111,16=1/1,2,10;
 10/6=1,13=1/2;
 7/10=1,18=20,25=1/1,2,3,16;
 1/14=-1,18=10,22=1,26=3,44=3/23(-8);
 2/29=1/2;
 6/7=2,8=2,9=2,10=2,19=2,28=1/1;
 99/5=20,9=1/99;
 ---------------------------------
 glo_2w_alpha_ts_boat5_B3LYP_631Gd
 ---------------------------------
 Symbolic Z-matrix:
 Charge =  0 Multiplicity = 1
 8                     0.22456  -0.70098  -1.16811 
 6                    -0.7638   -0.08575   1.04888 
 6                    -0.26923   1.80543  -0.60651 
 6                    -1.18472   1.29072   0.53058 
 6                     0.93114   0.94347  -0.99309 
 6                    -0.6446   -1.10895  -0.08555 
 1                    -1.12236   2.00636   1.35756 
 1                    -0.15554  -2.00262   0.33503 
 1                    -1.53838  -0.44062   1.73899 
 1                    -0.9031    1.92397  -1.49424 
 6                    -1.97439  -1.53905  -0.72232 
 1                    -1.79405  -2.37679  -1.40806 
 1                    -2.39197  -0.72412  -1.3161 
 8                    -2.94417  -1.90406   0.25722 
 1                    -2.69612  -2.77843   0.59923 
 8                     0.27664   3.08929  -0.3204 
 1                     1.1699    2.92246   0.03484 
 8                    -2.53281   1.28492   0.04875 
 1                    -3.08776   0.8116    0.69449 
 8                     0.44173   0.03428   1.79805 
 1                     0.69917  -0.85164   2.1128 
 1                     1.21419   1.12938  -2.04311 
 8                     2.00242   1.00224  -0.21758 
 1                     2.67127  -1.5907    0.14887 
 8                     2.09464  -2.15514  -0.75397 
 1                     1.83816  -3.03689  -0.45878 
 1                     1.1103   -1.50372  -1.04444 
 8                     3.14228  -0.76423   0.90122 
 1                     4.10192  -0.63193   0.81909 
 1                     2.67558   0.21806   0.53045 
 
 IRC-IRC-IRC-IRC-IRC-IRC-IRC-IRC-IRC-IRC-IRC-IRC-IRC-IRC-IRC-IRC-IRC-IRC
 ------------------------------------------------------------------------
 INPUT DATA FOR L123
 ------------------------------------------------------------------------
 GENERAL PARAMETERS:
 Rxn path following direction = Forward
 Maximum points per path      =  10
 Step size                    =   0.100 bohr
 Integration scheme           = HPC                                 
    Redo corrector integration= Yes                                 
    DWI Weight Power          =  2
    DWI will use Hessian update vectors when possible.
    Max correction cycles     =  20
 Initial Hessian              = CalcFC
 Hessian evaluation           = All updating
 Hessian updating method      = Bofill                              
 ------------------------------------------------------------------------
 IRC-IRC-IRC-IRC-IRC-IRC-IRC-IRC-IRC-IRC-IRC-IRC-IRC-IRC-IRC-IRC-IRC-IRC
                          Input orientation:                          
 ---------------------------------------------------------------------
 Center     Atomic      Atomic             Coordinates (Angstroms)
 Number     Number       Type             X           Y           Z
 ---------------------------------------------------------------------
      1          8           0        0.224561   -0.700983   -1.168106
      2          6           0       -0.763796   -0.085751    1.048883
      3          6           0       -0.269228    1.805425   -0.606507
      4          6           0       -1.184724    1.290720    0.530575
      5          6           0        0.931139    0.943472   -0.993091
      6          6           0       -0.644598   -1.108950   -0.085546
      7          1           0       -1.122357    2.006361    1.357560
      8          1           0       -0.155541   -2.002616    0.335032
      9          1           0       -1.538380   -0.440618    1.738991
     10          1           0       -0.903098    1.923969   -1.494241
     11          6           0       -1.974392   -1.539047   -0.722319
     12          1           0       -1.794052   -2.376795   -1.408061
     13          1           0       -2.391970   -0.724122   -1.316096
     14          8           0       -2.944171   -1.904061    0.257221
     15          1           0       -2.696116   -2.778429    0.599227
     16          8           0        0.276640    3.089288   -0.320402
     17          1           0        1.169897    2.922455    0.034835
     18          8           0       -2.532809    1.284916    0.048751
     19          1           0       -3.087760    0.811598    0.694486
     20          8           0        0.441733    0.034276    1.798049
     21          1           0        0.699172   -0.851637    2.112796
     22          1           0        1.214192    1.129376   -2.043114
     23          8           0        2.002422    1.002238   -0.217583
     24          1           0        2.671274   -1.590703    0.148867
     25          8           0        2.094638   -2.155139   -0.753973
     26          1           0        1.838158   -3.036886   -0.458778
     27          1           0        1.110301   -1.503718   -1.044444
     28          8           0        3.142283   -0.764233    0.901222
     29          1           0        4.101917   -0.631927    0.819087
     30          1           0        2.675582    0.218056    0.530448
 ---------------------------------------------------------------------
                    Distance matrix (angstroms):
                    1          2          3          4          5
     1  O    0.000000
     2  C    2.504077   0.000000
     3  C    2.615588   2.561535   0.000000
     4  C    2.972958   1.529868   1.547905   0.000000
     5  C    1.798365   2.846360   1.527511   2.630402   0.000000
     6  C    1.447001   1.532342   2.984273   2.535697   2.742083
     7  H    3.939910   2.144943   2.150759   1.095416   3.297293
     8  H    2.024389   2.133994   3.924359   3.455939   3.409431
     9  H    3.409833   1.096431   3.486663   2.140765   3.934273
    10  H    2.875474   3.244358   1.097231   2.140140   2.139381
    11  C    2.395093   2.591287   3.755861   3.193885   3.831231
    12  H    2.634525   3.513813   4.523112   4.192882   4.315442
    13  H    2.620815   2.941359   3.377597   2.987846   3.732058
    14  O    3.676930   2.947374   4.654206   3.657458   4.968878
    15  H    3.996198   3.344632   5.324969   4.341312   5.435531
    16  O    3.884259   3.610862   1.424125   2.468723   2.342094
    17  H    3.933196   3.717091   1.931361   2.907328   2.242769
    18  O    3.609380   2.451204   2.413315   1.431615   3.633312
    19  H    4.090064   2.516275   3.259509   1.969256   4.360832
    20  O    3.063633   1.424414   3.069906   2.414644   2.976007
    21  H    3.318474   1.964375   3.923313   3.262236   3.594824
    22  H    2.257260   3.866447   2.172882   3.522031   1.103280
    23  O    2.639175   3.231040   2.440648   3.286466   1.323825
    24  H    2.917606   3.856762   4.555308   4.828770   3.279357
    25  O    2.404842   3.962739   4.614724   4.927294   3.318478
    26  H    2.926309   4.213360   5.283074   5.370736   4.117211
    27  H    1.201753   3.147203   3.611830   3.944199   2.454277
    28  O    3.577600   3.967316   4.529326   4.804498   3.375476
    29  H    4.357476   4.901661   5.203836   5.632795   3.977399
    30  H    3.120452   3.491475   3.533315   4.006566   2.427031
                    6          7          8          9         10
     6  C    0.000000
     7  H    3.466406   0.000000
     8  H    1.102135   4.248787   0.000000
     9  H    2.138796   2.511229   2.514594   0.000000
    10  H    3.354078   2.861404   4.395811   4.055693   0.000000
    11  C    1.535844   4.197830   2.154323   2.730330   3.706213
    12  H    2.162804   5.226078   2.421384   3.703793   4.392926
    13  H    2.171556   4.026896   3.059802   3.184737   3.043166
    14  O    2.457179   4.452095   2.791456   2.512679   4.678398
    15  H    2.732179   5.093722   2.669495   2.846889   5.450694
    16  O    4.304537   2.438335   5.152073   4.471648   2.031661
    17  H    4.422568   2.800582   5.109132   4.642109   2.762672
    18  O    3.051880   2.054955   4.067091   2.612139   2.333489
    19  H    3.204059   2.393728   4.080063   2.249359   3.286433
    20  O    2.456626   2.555294   2.578000   2.037120   4.027243
    21  H    2.589331   3.472247   2.283798   2.305495   4.825140
    22  H    3.506747   4.218192   4.164267   4.934152   2.327135
    23  O    3.388401   3.640547   3.740499   4.295031   3.304768
    24  H    3.358875   5.365766   2.862728   4.644607   5.275306
    25  O    3.007444   5.667955   2.504496   4.727925   5.116008
    26  H    3.165488   6.123567   2.382160   4.792891   5.761662
    27  H    2.038381   4.803649   1.937578   3.986628   4.000641
    28  O    3.928487   5.106035   3.567885   4.766045   5.415698
    29  H    4.855442   5.877377   4.498783   5.718022   6.077357
    30  H    3.628221   4.278608   3.603447   4.433047   4.451568
                   11         12         13         14         15
    11  C    0.000000
    12  H    1.097536   0.000000
    13  H    1.091350   1.759912   0.000000
    14  O    1.425905   2.078320   2.042672   0.000000
    15  H    1.950240   2.237015   2.825092   0.971092   0.000000
    16  O    5.162380   5.945488   4.759725   5.969992   6.641769
    17  H    5.510430   6.240913   5.273465   6.345886   6.911199
    18  O    2.980125   4.009513   2.432874   3.222150   4.103714
    19  H    2.961833   4.032398   2.623928   2.754382   3.612583
    20  O    3.829525   4.592509   4.278193   4.194717   4.381162
    21  H    3.957064   4.575883   4.618303   4.221931   4.187051
    22  H    4.362574   4.663267   4.119274   5.637842   6.127268
    23  O    4.746360   5.219992   4.847446   5.756804   6.085793
    24  H    4.726928   4.793861   5.341678   5.625225   5.515650
    25  O    4.115529   3.949541   4.742725   5.145401   5.017067
    26  H    4.104694   3.811799   4.896719   4.966550   4.663241
    27  H    3.101668   3.054463   3.598259   4.277073   4.337667
    28  O    5.423706   5.683357   5.962052   6.225662   6.183453
    29  H    6.334061   6.539664   6.836525   7.182017   7.132255
    30  H    5.126314   5.519846   5.475172   6.013290   6.151324
                   16         17         18         19         20
    16  O    0.000000
    17  H    0.975671   0.000000
    18  O    3.359321   4.048674   0.000000
    19  H    4.187727   4.797760   0.974153   0.000000
    20  O    3.721315   3.461318   3.670428   3.778810   0.000000
    21  H    4.650793   4.333968   4.389857   4.372506   0.974773
    22  H    2.772723   2.744989   4.294195   5.109034   4.068227
    23  O    2.710106   2.108091   4.551830   5.174762   2.726806
    24  H    5.277954   4.757702   5.946569   6.263803   3.214220
    25  O    5.567505   5.221046   5.821650   6.144657   3.746792
    26  H    6.323567   6.016974   6.167731   6.356533   4.058979
    27  H    4.723868   4.556249   4.716334   5.099832   3.300330
    28  O    4.955189   4.269965   6.093635   6.429574   2.955484
    29  H    5.456979   4.673909   6.948906   7.334217   3.846965
    30  H    3.837036   3.134724   5.338311   5.796146   2.575008
                   21         22         23         24         25
    21  H    0.000000
    22  H    4.632628   0.000000
    23  O    3.250535   1.992494   0.000000
    24  H    2.879657   3.785063   2.702775   0.000000
    25  O    3.444533   3.636634   3.203942   1.210875   0.000000
    26  H    3.561684   4.500799   4.049652   1.776164   0.964572
    27  H    3.249985   2.818035   2.785569   1.966773   1.215583
    28  O    2.728432   3.996549   2.381476   1.212823   2.402467
    29  H    3.647003   4.430952   2.855356   1.848022   2.970499
    30  H    2.748502   3.096673   1.275788   1.848576   2.760306
                   26         27         28         29         30
    26  H    0.000000
    27  H    1.795379   0.000000
    28  O    2.952168   2.908849   0.000000
    29  H    3.541380   3.630776   0.972187   0.000000
    30  H    3.503497   2.809786   1.148989   1.685294   0.000000
 Symmetry turned off by external request.
 Stoichiometry    C6H16O8
 Framework group  C1[X(C6H16O8)]
 Deg. of freedom    84
 Full point group                 C1      NOp   1
 Rotational constants (GHZ):      0.7537445      0.5900530      0.4195095
 Standard basis: 6-31G(d) (6D, 7F)
   242 basis functions,   456 primitive gaussians,   242 cartesian basis functions
    58 alpha electrons       58 beta electrons
       nuclear repulsion energy      1136.0486513077 Hartrees.
 NAtoms=   30 NActive=   30 NUniq=   30 SFac= 1.00D+00 NAtFMM=   60 NAOKFM=F Big=F
 Integral buffers will be    131072 words long.
 Raffenetti 2 integral format.
 Two-electron integral symmetry is turned off.
 One-electron integrals computed using PRISM.
 NBasis=   242 RedAO= T EigKep=  1.45D-03  NBF=   242
 NBsUse=   242 1.00D-06 EigRej= -1.00D+00 NBFU=   242
 ExpMin= 1.61D-01 ExpMax= 5.48D+03 ExpMxC= 8.25D+02 IAcc=1 IRadAn=         1 AccDes= 0.00D+00
 Harris functional with IExCor=  402 and IRadAn=       1 diagonalized for initial guess.
 HarFok:  IExCor=  402 AccDes= 0.00D+00 IRadAn=         1 IDoV= 1 UseB2=F ITyADJ=14
 ICtDFT=  3500011 ScaDFX=  1.000000  1.000000  1.000000  1.000000
 FoFCou: FMM=F IPFlag=           0 FMFlag=      100000 FMFlg1=           0
         NFxFlg=           0 DoJE=T BraDBF=F KetDBF=T FulRan=T
         wScrn=  0.000000 ICntrl=     500 IOpCl=  0 I1Cent=   200000004 NGrid=           0
         NMat0=    1 NMatS0=      1 NMatT0=    0 NMatD0=    1 NMtDS0=    0 NMtDT0=    0
 Symmetry not used in FoFCou.
 Requested convergence on RMS density matrix=1.00D-08 within 128 cycles.
 Requested convergence on MAX density matrix=1.00D-06.
 Requested convergence on             energy=1.00D-06.
 No special actions if energy rises.
 Integral accuracy reduced to 1.0D-05 until final iterations.
 Initial convergence to 1.0D-05 achieved.  Increase integral accuracy.
 SCF Done:  E(RB3LYP) =  -839.920572706     A.U. after   14 cycles
            NFock= 14  Conv=0.77D-08     -V/T= 2.0087
 DoSCS=F DFT=T ScalE2(SS,OS)=  1.000000  1.000000
 Range of M.O.s used for correlation:     1   242
 NBasis=   242 NAE=    58 NBE=    58 NFC=     0 NFV=     0
 NROrb=    242 NOA=    58 NOB=    58 NVA=   184 NVB=   184
 Symmetrizing basis deriv contribution to polar:
 IMax=3 JMax=2 DiffMx= 0.00D+00
 G2DrvN: will do    31 centers at a time, making    1 passes.
 Calling FoFCou, ICntrl=  3107 FMM=F I1Cent=   0 AccDes= 0.00D+00.
 End of G2Drv F.D. properties file   721 does not exist.
 End of G2Drv F.D. properties file   722 does not exist.
 End of G2Drv F.D. properties file   788 does not exist.
          IDoAtm=111111111111111111111111111111
          Differentiating once with respect to nuclear coordinates.
          There are    93 degrees of freedom in the 1st order CPHF.  IDoFFX=6 NUNeed=     0.
     87 vectors produced by pass  0 Test12= 1.15D-14 1.08D-09 XBig12= 1.10D-01 6.37D-02.
 AX will form    87 AO Fock derivatives at one time.
     87 vectors produced by pass  1 Test12= 1.15D-14 1.08D-09 XBig12= 1.13D-02 1.38D-02.
     87 vectors produced by pass  2 Test12= 1.15D-14 1.08D-09 XBig12= 1.48D-04 2.18D-03.
     87 vectors produced by pass  3 Test12= 1.15D-14 1.08D-09 XBig12= 4.05D-07 8.60D-05.
     87 vectors produced by pass  4 Test12= 1.15D-14 1.08D-09 XBig12= 5.16D-10 2.33D-06.
     69 vectors produced by pass  5 Test12= 1.15D-14 1.08D-09 XBig12= 3.57D-13 5.08D-08.
      5 vectors produced by pass  6 Test12= 1.15D-14 1.08D-09 XBig12= 2.98D-16 1.63D-09.
 InvSVY:  IOpt=1 It=  1 EMax= 6.66D-16
 Solved reduced A of dimension   509 with    93 vectors.
 End of Minotr F.D. properties file   721 does not exist.
 End of Minotr F.D. properties file   722 does not exist.
 End of Minotr F.D. properties file   788 does not exist.

 **********************************************************************

            Population analysis using the SCF density.

 **********************************************************************

 Alpha  occ. eigenvalues --  -19.17143 -19.16276 -19.16083 -19.15706 -19.14931
 Alpha  occ. eigenvalues --  -19.14647 -19.12746 -19.10482 -10.28752 -10.25065
 Alpha  occ. eigenvalues --  -10.24257 -10.23750 -10.23222 -10.22811  -1.04884
 Alpha  occ. eigenvalues --   -1.03279  -1.02677  -1.01667  -1.01368  -1.00918
 Alpha  occ. eigenvalues --   -0.98864  -0.96356  -0.77492  -0.74627  -0.68952
 Alpha  occ. eigenvalues --   -0.64461  -0.61902  -0.56328  -0.55394  -0.55143
 Alpha  occ. eigenvalues --   -0.53592  -0.51900  -0.50850  -0.49887  -0.49232
 Alpha  occ. eigenvalues --   -0.46785  -0.46318  -0.44928  -0.43884  -0.42960
 Alpha  occ. eigenvalues --   -0.42203  -0.39785  -0.39518  -0.38503  -0.36010
 Alpha  occ. eigenvalues --   -0.35409  -0.34232  -0.33938  -0.33699  -0.31762
 Alpha  occ. eigenvalues --   -0.31666  -0.30842  -0.28801  -0.28513  -0.26931
 Alpha  occ. eigenvalues --   -0.25603  -0.24974  -0.22957
 Alpha virt. eigenvalues --    0.01981   0.03524   0.04950   0.07299   0.08334
 Alpha virt. eigenvalues --    0.08886   0.11705   0.12597   0.13590   0.14056
 Alpha virt. eigenvalues --    0.15439   0.16809   0.17661   0.18188   0.20032
 Alpha virt. eigenvalues --    0.20983   0.21420   0.22731   0.23340   0.24538
 Alpha virt. eigenvalues --    0.25485   0.27140   0.27458   0.30327   0.31150
 Alpha virt. eigenvalues --    0.32113   0.35991   0.36322   0.52396   0.53276
 Alpha virt. eigenvalues --    0.53757   0.55477   0.56651   0.57513   0.59458
 Alpha virt. eigenvalues --    0.60879   0.62527   0.63228   0.64179   0.65616
 Alpha virt. eigenvalues --    0.66919   0.68167   0.69723   0.71225   0.71884
 Alpha virt. eigenvalues --    0.73578   0.75632   0.77748   0.79777   0.80356
 Alpha virt. eigenvalues --    0.82012   0.82782   0.83961   0.84539   0.85321
 Alpha virt. eigenvalues --    0.85795   0.87011   0.88623   0.89394   0.89971
 Alpha virt. eigenvalues --    0.91124   0.92250   0.93104   0.94265   0.96147
 Alpha virt. eigenvalues --    0.96782   0.98253   0.99938   1.00949   1.01962
 Alpha virt. eigenvalues --    1.03498   1.04234   1.06274   1.07923   1.08659
 Alpha virt. eigenvalues --    1.09941   1.11791   1.13863   1.16074   1.17061
 Alpha virt. eigenvalues --    1.19996   1.21184   1.24240   1.24648   1.29637
 Alpha virt. eigenvalues --    1.30376   1.32538   1.35454   1.36659   1.38440
 Alpha virt. eigenvalues --    1.39762   1.42237   1.44123   1.47162   1.49117
 Alpha virt. eigenvalues --    1.52422   1.53145   1.55120   1.57274   1.58893
 Alpha virt. eigenvalues --    1.60820   1.62899   1.65736   1.68251   1.68989
 Alpha virt. eigenvalues --    1.70559   1.71238   1.71681   1.72889   1.74013
 Alpha virt. eigenvalues --    1.75963   1.77577   1.78057   1.79465   1.80263
 Alpha virt. eigenvalues --    1.82103   1.84033   1.84336   1.85762   1.87070
 Alpha virt. eigenvalues --    1.88456   1.90517   1.92126   1.92990   1.94881
 Alpha virt. eigenvalues --    1.97544   2.00008   2.01672   2.03213   2.05290
 Alpha virt. eigenvalues --    2.06824   2.07007   2.12728   2.14446   2.17622
 Alpha virt. eigenvalues --    2.21636   2.24104   2.25195   2.25904   2.30709
 Alpha virt. eigenvalues --    2.31883   2.34338   2.36908   2.39467   2.41211
 Alpha virt. eigenvalues --    2.43275   2.43959   2.45367   2.48249   2.49047
 Alpha virt. eigenvalues --    2.49763   2.53675   2.54030   2.55723   2.60707
 Alpha virt. eigenvalues --    2.62744   2.64267   2.69781   2.72894   2.73705
 Alpha virt. eigenvalues --    2.77566   2.80501   2.83828   2.86325   2.89942
 Alpha virt. eigenvalues --    2.91082   2.94601   2.99684   3.02928   3.10117
 Alpha virt. eigenvalues --    3.72170   3.74421   3.78782   3.84217   3.88754
 Alpha virt. eigenvalues --    3.92769   4.04333   4.12516   4.26769   4.30948
 Alpha virt. eigenvalues --    4.51020   4.58490   4.71695   4.84668
          Condensed to atoms (all electrons):
               1          2          3          4          5          6
     1  O    8.551015  -0.029192  -0.010796  -0.005946   0.081200   0.134862
     2  C   -0.029192   5.041775  -0.015088   0.286160  -0.002952   0.291589
     3  C   -0.010796  -0.015088   4.985176   0.272280   0.301453  -0.025763
     4  C   -0.005946   0.286160   0.272280   4.988919  -0.025035  -0.021899
     5  C    0.081200  -0.002952   0.301453  -0.025035   4.723416  -0.009264
     6  C    0.134862   0.291589  -0.025763  -0.021899  -0.009264   5.146237
     7  H   -0.000074  -0.050550  -0.050117   0.361766   0.002669   0.006326
     8  H   -0.048438  -0.053277   0.000375   0.005275   0.001152   0.330062
     9  H    0.003058   0.353965   0.005489  -0.044104   0.000403  -0.060715
    10  H    0.001541   0.003039   0.349728  -0.059889  -0.031931   0.001242
    11  C   -0.035055  -0.035733  -0.000088  -0.004808   0.000908   0.288896
    12  H    0.004530   0.005435  -0.000036  -0.000317  -0.000089  -0.043861
    13  H    0.003753  -0.008576  -0.000770   0.001111   0.000202  -0.038551
    14  O    0.001541  -0.004919   0.000015  -0.001213  -0.000006  -0.043409
    15  H   -0.000014  -0.001193   0.000003   0.000122  -0.000001  -0.002112
    16  O    0.000576   0.002208   0.266730  -0.047423  -0.026996   0.000106
    17  H    0.000435  -0.000461  -0.042010   0.000757  -0.014642   0.000071
    18  O   -0.000250  -0.029727  -0.035010   0.211733   0.001447  -0.002780
    19  H    0.000039  -0.004526   0.006240  -0.024875  -0.000226  -0.001768
    20  O    0.000812   0.182696   0.002235  -0.039959   0.003810  -0.032137
    21  H   -0.000294  -0.016723  -0.000365   0.005859  -0.000132  -0.005743
    22  H   -0.025056  -0.000202  -0.073064   0.005925   0.368618   0.002468
    23  O   -0.030872   0.004328  -0.051161  -0.001919   0.330789   0.000198
    24  H    0.004229  -0.000139   0.000066  -0.000010  -0.000009   0.000324
    25  O   -0.101692  -0.001370  -0.000028   0.000014   0.002771   0.005265
    26  H    0.004625   0.000093  -0.000002  -0.000001  -0.000015  -0.000397
    27  H    0.126284   0.004698   0.001205  -0.000111  -0.004817  -0.013513
    28  O   -0.000418  -0.000247  -0.000186   0.000008   0.005501   0.000044
    29  H   -0.000013  -0.000005   0.000011   0.000000  -0.000040   0.000005
    30  H    0.001019  -0.000723   0.000523  -0.000009  -0.015731   0.000315
               7          8          9         10         11         12
     1  O   -0.000074  -0.048438   0.003058   0.001541  -0.035055   0.004530
     2  C   -0.050550  -0.053277   0.353965   0.003039  -0.035733   0.005435
     3  C   -0.050117   0.000375   0.005489   0.349728  -0.000088  -0.000036
     4  C    0.361766   0.005275  -0.044104  -0.059889  -0.004808  -0.000317
     5  C    0.002669   0.001152   0.000403  -0.031931   0.000908  -0.000089
     6  C    0.006326   0.330062  -0.060715   0.001242   0.288896  -0.043861
     7  H    0.606521  -0.000228  -0.007135   0.004587   0.000094   0.000011
     8  H   -0.000228   0.728567  -0.000859   0.000042  -0.049914  -0.009199
     9  H   -0.007135  -0.000859   0.650349  -0.000342  -0.002248   0.000210
    10  H    0.004587   0.000042  -0.000342   0.602005  -0.000084   0.000002
    11  C    0.000094  -0.049914  -0.002248  -0.000084   4.981172   0.349180
    12  H    0.000011  -0.009199   0.000210   0.000002   0.349180   0.638772
    13  H    0.000159   0.005901  -0.000055   0.001328   0.371120  -0.034529
    14  O   -0.000019   0.003641   0.015754   0.000001   0.221988  -0.030977
    15  H   -0.000000   0.003768   0.000409   0.000000  -0.028643  -0.009321
    16  O    0.006527   0.000004  -0.000085  -0.042622   0.000003   0.000000
    17  H    0.000158   0.000002   0.000003   0.007040   0.000001  -0.000000
    18  O   -0.035371  -0.000063  -0.002249   0.004842  -0.000519   0.000523
    19  H   -0.003190  -0.000051   0.008826  -0.000240  -0.000214   0.000073
    20  O    0.005002  -0.003296  -0.036265   0.000030   0.003496  -0.000048
    21  H   -0.000290   0.008532  -0.005258   0.000012  -0.000075  -0.000009
    22  H   -0.000187  -0.000121   0.000004  -0.002569  -0.000047   0.000004
    23  O    0.000053  -0.000238  -0.000050   0.003618  -0.000013   0.000002
    24  H   -0.000001  -0.001030   0.000007  -0.000001   0.000050  -0.000005
    25  O    0.000000   0.018955  -0.000004   0.000001   0.000062   0.000066
    26  H   -0.000000   0.001100  -0.000004  -0.000000  -0.000011   0.000041
    27  H    0.000007  -0.011551  -0.000110  -0.000029  -0.000966   0.000727
    28  O   -0.000000   0.000088  -0.000004   0.000001   0.000000   0.000000
    29  H   -0.000000   0.000002   0.000000  -0.000000   0.000000  -0.000000
    30  H   -0.000001  -0.000111   0.000039  -0.000025   0.000004   0.000000
              13         14         15         16         17         18
     1  O    0.003753   0.001541  -0.000014   0.000576   0.000435  -0.000250
     2  C   -0.008576  -0.004919  -0.001193   0.002208  -0.000461  -0.029727
     3  C   -0.000770   0.000015   0.000003   0.266730  -0.042010  -0.035010
     4  C    0.001111  -0.001213   0.000122  -0.047423   0.000757   0.211733
     5  C    0.000202  -0.000006  -0.000001  -0.026996  -0.014642   0.001447
     6  C   -0.038551  -0.043409  -0.002112   0.000106   0.000071  -0.002780
     7  H    0.000159  -0.000019  -0.000000   0.006527   0.000158  -0.035371
     8  H    0.005901   0.003641   0.003768   0.000004   0.000002  -0.000063
     9  H   -0.000055   0.015754   0.000409  -0.000085   0.000003  -0.002249
    10  H    0.001328   0.000001   0.000000  -0.042622   0.007040   0.004842
    11  C    0.371120   0.221988  -0.028643   0.000003   0.000001  -0.000519
    12  H   -0.034529  -0.030977  -0.009321   0.000000  -0.000000   0.000523
    13  H    0.518260  -0.031172   0.006622   0.000004   0.000000   0.015418
    14  O   -0.031172   8.247180   0.233429   0.000000  -0.000000  -0.001094
    15  H    0.006622   0.233429   0.406058  -0.000000   0.000000   0.000017
    16  O    0.000004   0.000000  -0.000000   8.269297   0.228648   0.001289
    17  H    0.000000  -0.000000   0.000000   0.228648   0.372520  -0.000077
    18  O    0.015418  -0.001094   0.000017   0.001289  -0.000077   8.279913
    19  H   -0.002490   0.005300  -0.000133  -0.000139   0.000014   0.230699
    20  O   -0.000019   0.000039  -0.000025  -0.000011   0.000461   0.001299
    21  H    0.000013   0.000032  -0.000011   0.000012  -0.000007  -0.000100
    22  H   -0.000058   0.000000  -0.000000   0.001584   0.002514  -0.000081
    23  O    0.000003   0.000000  -0.000000  -0.017463   0.038680  -0.000000
    24  H   -0.000000  -0.000000  -0.000000   0.000000  -0.000004   0.000000
    25  O    0.000002   0.000001  -0.000002   0.000000   0.000001   0.000000
    26  H   -0.000002  -0.000003  -0.000002  -0.000000  -0.000000  -0.000000
    27  H   -0.000049   0.000022   0.000004  -0.000010  -0.000022  -0.000011
    28  O    0.000000   0.000000   0.000000  -0.000001   0.000018  -0.000000
    29  H   -0.000000   0.000000  -0.000000   0.000000  -0.000009  -0.000000
    30  H   -0.000000  -0.000000   0.000000  -0.000069   0.000446   0.000001
              19         20         21         22         23         24
     1  O    0.000039   0.000812  -0.000294  -0.025056  -0.030872   0.004229
     2  C   -0.004526   0.182696  -0.016723  -0.000202   0.004328  -0.000139
     3  C    0.006240   0.002235  -0.000365  -0.073064  -0.051161   0.000066
     4  C   -0.024875  -0.039959   0.005859   0.005925  -0.001919  -0.000010
     5  C   -0.000226   0.003810  -0.000132   0.368618   0.330789  -0.000009
     6  C   -0.001768  -0.032137  -0.005743   0.002468   0.000198   0.000324
     7  H   -0.003190   0.005002  -0.000290  -0.000187   0.000053  -0.000001
     8  H   -0.000051  -0.003296   0.008532  -0.000121  -0.000238  -0.001030
     9  H    0.008826  -0.036265  -0.005258   0.000004  -0.000050   0.000007
    10  H   -0.000240   0.000030   0.000012  -0.002569   0.003618  -0.000001
    11  C   -0.000214   0.003496  -0.000075  -0.000047  -0.000013   0.000050
    12  H    0.000073  -0.000048  -0.000009   0.000004   0.000002  -0.000005
    13  H   -0.002490  -0.000019   0.000013  -0.000058   0.000003  -0.000000
    14  O    0.005300   0.000039   0.000032   0.000000   0.000000  -0.000000
    15  H   -0.000133  -0.000025  -0.000011  -0.000000  -0.000000  -0.000000
    16  O   -0.000139  -0.000011   0.000012   0.001584  -0.017463   0.000000
    17  H    0.000014   0.000461  -0.000007   0.002514   0.038680  -0.000004
    18  O    0.230699   0.001299  -0.000100  -0.000081  -0.000000   0.000000
    19  H    0.383607   0.000009  -0.000015   0.000009   0.000002  -0.000000
    20  O    0.000009   8.311798   0.222297   0.000068  -0.008837   0.001477
    21  H   -0.000015   0.222297   0.395662   0.000007   0.001103   0.000445
    22  H    0.000009   0.000068   0.000007   0.635499  -0.057076   0.000024
    23  O    0.000002  -0.008837   0.001103  -0.057076   8.412907   0.005929
    24  H   -0.000000   0.001477   0.000445   0.000024   0.005929   0.290052
    25  O    0.000000  -0.000074   0.000522  -0.000040  -0.001704   0.138805
    26  H   -0.000000  -0.000007  -0.000053  -0.000001   0.000078  -0.004743
    27  H   -0.000001  -0.000536  -0.000285  -0.000393   0.004884  -0.007907
    28  O    0.000000  -0.000795   0.004308  -0.000224  -0.090964   0.125068
    29  H   -0.000000   0.000211  -0.000085   0.000010   0.004690  -0.004334
    30  H    0.000000   0.004659  -0.001051   0.001843   0.104854  -0.010767
              25         26         27         28         29         30
     1  O   -0.101692   0.004625   0.126284  -0.000418  -0.000013   0.001019
     2  C   -0.001370   0.000093   0.004698  -0.000247  -0.000005  -0.000723
     3  C   -0.000028  -0.000002   0.001205  -0.000186   0.000011   0.000523
     4  C    0.000014  -0.000001  -0.000111   0.000008   0.000000  -0.000009
     5  C    0.002771  -0.000015  -0.004817   0.005501  -0.000040  -0.015731
     6  C    0.005265  -0.000397  -0.013513   0.000044   0.000005   0.000315
     7  H    0.000000  -0.000000   0.000007  -0.000000  -0.000000  -0.000001
     8  H    0.018955   0.001100  -0.011551   0.000088   0.000002  -0.000111
     9  H   -0.000004  -0.000004  -0.000110  -0.000004   0.000000   0.000039
    10  H    0.000001  -0.000000  -0.000029   0.000001  -0.000000  -0.000025
    11  C    0.000062  -0.000011  -0.000966   0.000000   0.000000   0.000004
    12  H    0.000066   0.000041   0.000727   0.000000  -0.000000   0.000000
    13  H    0.000002  -0.000002  -0.000049   0.000000  -0.000000  -0.000000
    14  O    0.000001  -0.000003   0.000022   0.000000   0.000000  -0.000000
    15  H   -0.000002  -0.000002   0.000004   0.000000  -0.000000   0.000000
    16  O    0.000000  -0.000000  -0.000010  -0.000001   0.000000  -0.000069
    17  H    0.000001  -0.000000  -0.000022   0.000018  -0.000009   0.000446
    18  O    0.000000  -0.000000  -0.000011  -0.000000  -0.000000   0.000001
    19  H    0.000000  -0.000000  -0.000001   0.000000  -0.000000   0.000000
    20  O   -0.000074  -0.000007  -0.000536  -0.000795   0.000211   0.004659
    21  H    0.000522  -0.000053  -0.000285   0.004308  -0.000085  -0.001051
    22  H   -0.000040  -0.000001  -0.000393  -0.000224   0.000010   0.001843
    23  O   -0.001704   0.000078   0.004884  -0.090964   0.004690   0.104854
    24  H    0.138805  -0.004743  -0.007907   0.125068  -0.004334  -0.010767
    25  O    8.523367   0.225320   0.129088  -0.103861   0.004135   0.004881
    26  H    0.225320   0.383641  -0.008461   0.004549  -0.000184  -0.000156
    27  H    0.129088  -0.008461   0.288669   0.004718  -0.000093  -0.001000
    28  O   -0.103861   0.004549   0.004718   8.495082   0.229574   0.156218
    29  H    0.004135  -0.000184  -0.000093   0.229574   0.366017  -0.006541
    30  H    0.004881  -0.000156  -0.001000   0.156218  -0.006541   0.271778
 Mulliken charges:
               1
     1  O   -0.631409
     2  C    0.079618
     3  C    0.112955
     4  C    0.137590
     5  C    0.307544
     6  C    0.093901
     7  H    0.153281
     8  H    0.070911
     9  H    0.120967
    10  H    0.158672
    11  C   -0.058555
    12  H    0.128815
    13  H    0.192372
    14  O   -0.616130
    15  H    0.391024
    16  O   -0.642170
    17  H    0.405465
    18  O   -0.639846
    19  H    0.403049
    20  O   -0.618390
    21  H    0.391690
    22  H    0.140541
    23  O   -0.651819
    24  H    0.462473
    25  O   -0.844479
    26  H    0.394594
    27  H    0.489559
    28  O   -0.828475
    29  H    0.406648
    30  H    0.489606
 Sum of Mulliken charges =  -0.00000
 Mulliken charges with hydrogens summed into heavy atoms:
               1
     1  O   -0.141850
     2  C    0.200585
     3  C    0.271627
     4  C    0.290870
     5  C    0.448085
     6  C    0.164812
    11  C    0.262631
    14  O   -0.225106
    16  O   -0.236705
    18  O   -0.236797
    20  O   -0.226700
    23  O   -0.651819
    25  O    0.012588
    28  O    0.067779
 APT charges:
               1
     1  O   -0.456587
     2  C   -0.375310
     3  C   -0.241048
     4  C   -0.312283
     5  C   -0.466446
     6  C   -0.164651
     7  H    0.479922
     8  H    0.287836
     9  H    0.424821
    10  H    0.443762
    11  C   -0.678794
    12  H    0.480667
    13  H    0.369054
    14  O   -0.814080
    15  H    0.708027
    16  O   -0.596946
    17  H    0.497354
    18  O   -0.767424
    19  H    0.671085
    20  O   -0.746953
    21  H    0.628025
    22  H    0.538254
    23  O   -0.394777
    24  H    0.404954
    25  O   -1.078411
    26  H    0.700356
    27  H    0.389656
    28  O   -1.306432
    29  H    0.966275
    30  H    0.410096
 Sum of APT charges =  -0.00000
 APT charges with hydrogens summed into heavy atoms:
               1
     1  O   -0.066931
     2  C    0.049511
     3  C    0.202714
     4  C    0.167639
     5  C    0.071808
     6  C    0.123185
    11  C    0.170926
    14  O   -0.106053
    16  O   -0.099592
    18  O   -0.096340
    20  O   -0.118928
    23  O   -0.394777
    25  O    0.026899
    28  O    0.069939
 Electronic spatial extent (au):  <R**2>=           2874.6421
 Charge=              0.0000 electrons
 Dipole moment (field-independent basis, Debye):
    X=              1.2951    Y=             -6.0883    Z=              1.9281  Tot=              6.5164
 Quadrupole moment (field-independent basis, Debye-Ang):
   XX=            -79.4146   YY=            -79.6870   ZZ=            -84.0760
   XY=              1.7352   XZ=             -0.7158   YZ=             -3.1271
 Traceless Quadrupole moment (field-independent basis, Debye-Ang):
   XX=              1.6447   YY=              1.3722   ZZ=             -3.0168
   XY=              1.7352   XZ=             -0.7158   YZ=             -3.1271
 Octapole moment (field-independent basis, Debye-Ang**2):
  XXX=             84.0218  YYY=            -88.7378  ZZZ=              4.1697  XYY=             10.3272
  XXY=             -5.2469  XXZ=             23.1819  XZZ=             -6.5559  YZZ=             -1.4672
  YYZ=             17.0026  XYZ=             -5.2717
 Hexadecapole moment (field-independent basis, Debye-Ang**3):
 XXXX=          -1404.7025 YYYY=          -1201.6280 ZZZZ=           -461.8937 XXXY=            -47.5429
 XXXZ=             29.7760 YYYX=             41.0735 YYYZ=              7.0645 ZZZX=             -3.7597
 ZZZY=            -23.5014 XXYY=           -460.6822 XXZZ=           -345.4441 YYZZ=           -278.6660
 XXYZ=             -5.2700 YYXZ=              1.3926 ZZXY=              6.7448
 N-N= 1.136048651308D+03 E-N=-4.245161509663D+03  KE= 8.326639280984D+02
  Exact polarizability:   0.000   0.000   0.000   0.000   0.000   0.000
 Approx polarizability: 147.914   6.729 144.930  10.883  -2.364 122.867
 Calling FoFJK, ICntrl=    100147 FMM=F ISym2X=0 I1Cent= 0 IOpClX= 0 NMat=1 NMatS=1 NMatT=0.
 -------------------------------------------------------------------
 Center     Atomic                   Forces (Hartrees/Bohr)
 Number     Number              X              Y              Z
 -------------------------------------------------------------------
      1        8           0.001160365    0.014807642    0.009258838
      2        6          -0.004198242   -0.006541210    0.004185218
      3        6          -0.003343729    0.006441343    0.000668962
      4        6           0.003365781    0.005401735    0.006912014
      5        6           0.039778238   -0.001145812    0.009798056
      6        6           0.001913518   -0.004149190   -0.006635105
      7        1           0.005325049    0.000446428    0.001401833
      8        1          -0.003664314   -0.001728811    0.005079831
      9        1          -0.005927960   -0.002645475   -0.002835447
     10        1          -0.000177165   -0.001725763    0.001561582
     11        6          -0.001612855   -0.002145932   -0.000965413
     12        1           0.002671384   -0.000394075   -0.001218851
     13        1          -0.000137231    0.000959183    0.003809479
     14        8          -0.001917318   -0.000440800    0.000461246
     15        1          -0.001380511    0.001714736    0.000319744
     16        8          -0.001360261    0.000894933   -0.001382868
     17        1          -0.001937626   -0.001887030    0.002510341
     18        8           0.002261737   -0.004720251   -0.001951198
     19        1           0.001982651    0.001474115   -0.001745777
     20        8          -0.001858185    0.000260080    0.000763816
     21        1          -0.000878078    0.005225962   -0.001912009
     22        1          -0.009008844   -0.012816815   -0.001732550
     23        8          -0.027758461    0.011719738   -0.020590217
     24        1           0.000662001    0.006992560   -0.011480173
     25        8           0.000817720   -0.004068694    0.003657528
     26        1          -0.000346705   -0.005348933   -0.000728830
     27        1           0.012430626    0.009432420   -0.003077376
     28        8           0.004684619    0.014085223    0.012150343
     29        1          -0.001297464   -0.006368998   -0.002299700
     30        1          -0.010248740   -0.023728309   -0.003983318
 -------------------------------------------------------------------
 Cartesian Forces:  Max     0.039778238 RMS     0.007963811
 IRC-IRC-IRC-IRC-IRC-IRC-IRC-IRC-IRC-IRC-IRC-IRC-IRC-IRC-IRC-IRC-IRC-IRC
          ******** Start new reaction path calculation ********
 WARNING: TS HAS MORE THAN 1 IMAGINARY FREQUENCY!
 Supplied step size of   0.1000 bohr.
    Integration on MW PES will use step size of   0.1058 sqrt(amu)*bohr.
 Point Number:   0          Path Number:   1
 Calculating another point on the path.
 IRC-IRC-IRC-IRC-IRC-IRC-IRC-IRC-IRC-IRC-IRC-IRC-IRC-IRC-IRC-IRC-IRC-IRC
                          Input orientation:                          
 ---------------------------------------------------------------------
 Center     Atomic      Atomic             Coordinates (Angstroms)
 Number     Number       Type             X           Y           Z
 ---------------------------------------------------------------------
      1          8           0        0.232791   -0.734689   -1.165413
      2          6           0       -0.755371   -0.117493    1.051663
      3          6           0       -0.261109    1.773609   -0.603742
      4          6           0       -1.176421    1.258954    0.533373
      5          6           0        0.941640    0.914505   -0.989886
      6          6           0       -0.636748   -1.141213   -0.082404
      7          1           0       -1.114058    1.974483    1.360422
      8          1           0       -0.147434   -2.034500    0.337737
      9          1           0       -1.530127   -0.472634    1.741469
     10          1           0       -0.895087    1.892355   -1.491403
     11          6           0       -1.966199   -1.570880   -0.719525
     12          1           0       -1.785788   -2.408590   -1.405298
     13          1           0       -2.383733   -0.755891   -1.313301
     14          8           0       -2.935890   -1.935822    0.259977
     15          1           0       -2.687936   -2.810236    0.601965
     16          8           0        0.284873    3.057494   -0.317580
     17          1           0        1.178126    2.890248    0.037577
     18          8           0       -2.524527    1.253100    0.051546
     19          1           0       -3.079557    0.780003    0.697383
     20          8           0        0.449955    0.002434    1.800862
     21          1           0        0.707752   -0.883371    2.115622
     22          1           0        1.221591    1.096264   -2.041821
     23          8           0        2.009193    0.970531   -0.215857
     24          1           0        2.663232   -1.641280    0.129931
     25          8           0        2.104047   -2.187017   -0.750239
     26          1           0        1.848916   -3.069012   -0.454438
     27          1           0        1.097205   -1.515565   -1.047841
     28          8           0        3.151120   -0.795029    0.904392
     29          1           0        4.110878   -0.662033    0.824717
     30          1           0        2.700719    0.170384    0.548392
 ---------------------------------------------------------------------
                    Distance matrix (angstroms):
                    1          2          3          4          5
     1  O    0.000000
     2  C    2.504560   0.000000
     3  C    2.617435   2.561431   0.000000
     4  C    2.974283   1.529874   1.547803   0.000000
     5  C    1.803640   2.848296   1.527669   2.631567   0.000000
     6  C    1.447158   1.532378   2.984809   2.535987   2.746053
     7  H    3.941250   2.144843   2.150770   1.095391   3.297483
     8  H    2.023249   2.134055   3.924410   3.455998   3.412520
     9  H    3.409767   1.096451   3.486550   2.140795   3.936253
    10  H    2.877453   3.244410   1.097256   2.140108   2.140392
    11  C    2.394491   2.591437   3.755841   3.193973   3.834809
    12  H    2.633277   3.513907   4.523043   4.192929   4.319073
    13  H    2.620786   2.941458   3.377480   2.987877   3.735361
    14  O    3.676275   2.947499   4.654067   3.657468   4.972098
    15  H    3.995268   3.344832   5.324927   4.341392   5.438888
    16  O    3.886152   3.610745   1.424200   2.468652   2.340030
    17  H    3.934591   3.716623   1.931209   2.907030   2.239456
    18  O    3.610414   2.451260   2.413170   1.431636   3.635043
    19  H    4.090959   2.516516   3.259421   1.969320   4.362911
    20  O    3.064195   1.424251   3.069982   2.414635   2.976894
    21  H    3.318566   1.964511   3.923413   3.262388   3.596003
    22  H    2.257921   3.866682   2.173768   3.522577   1.103620
    23  O    2.639136   3.230049   2.439193   3.285220   1.319822
    24  H    2.899460   3.854655   4.555383   4.828774   3.278705
    25  O    2.404834   3.963086   4.615407   4.927865   3.320853
    26  H    2.926843   4.214512   5.284456   5.372125   4.120469
    27  H    1.170813   3.129626   3.586210   3.920149   2.435734
    28  O    3.578320   3.967545   4.529423   4.804592   3.375292
    29  H    4.359524   4.901877   5.204528   5.632992   3.977728
    30  H    3.137985   3.504384   3.559518   4.027086   2.452422
                    6          7          8          9         10
     6  C    0.000000
     7  H    3.466574   0.000000
     8  H    1.101775   4.248786   0.000000
     9  H    2.138139   2.511313   2.514304   0.000000
    10  H    3.354780   2.861398   4.396013   4.055603   0.000000
    11  C    1.535571   4.197847   2.154218   2.729981   3.706356
    12  H    2.162541   5.226065   2.421223   3.703435   4.393050
    13  H    2.171529   4.026886   3.059707   3.184415   3.043188
    14  O    2.456559   4.452026   2.791285   2.512351   4.678370
    15  H    2.731551   5.093710   2.669407   2.846643   5.450767
    16  O    4.305094   2.438363   5.152157   4.471656   2.031677
    17  H    4.422764   2.800474   5.108849   4.641859   2.762567
    18  O    3.051948   2.054987   4.067036   2.612055   2.333326
    19  H    3.204131   2.393655   4.080210   2.249433   3.286338
    20  O    2.456734   2.555210   2.578121   2.037140   4.027399
    21  H    2.589495   3.472268   2.284144   2.305818   4.825389
    22  H    3.506999   4.219216   4.163917   4.934235   2.327455
    23  O    3.387961   3.639681   3.740015   4.294257   3.303274
    24  H    3.344402   5.371757   2.845637   4.641880   5.270383
    25  O    3.008599   5.668261   2.505219   4.728101   5.117168
    26  H    3.167545   6.124522   2.383940   4.793862   5.763680
    27  H    2.019604   4.782243   1.933454   3.971250   3.972392
    28  O    3.929574   5.105870   3.569011   4.766414   5.416055
    29  H    4.857204   5.876917   4.500448   5.718150   6.078568
    30  H    3.640999   4.297289   3.608027   4.442630   4.478367
                   11         12         13         14         15
    11  C    0.000000
    12  H    1.097539   0.000000
    13  H    1.091381   1.759948   0.000000
    14  O    1.425801   2.078313   2.042626   0.000000
    15  H    1.950190   2.237028   2.825087   0.971100   0.000000
    16  O    5.162434   5.945489   4.759708   5.969932   6.641792
    17  H    5.510140   6.240541   5.273143   6.345513   6.910896
    18  O    2.980124   4.009501   2.432833   3.222093   4.103701
    19  H    2.962067   4.032646   2.624117   2.754572   3.612795
    20  O    3.829552   4.592498   4.278183   4.194652   4.381190
    21  H    3.957366   4.576124   4.618555   4.222227   4.187442
    22  H    4.361666   4.661919   4.118201   5.637062   6.126561
    23  O    4.745124   5.218727   4.845897   5.755619   6.084904
    24  H    4.707247   4.768592   5.323410   5.608372   5.497661
    25  O    4.116731   3.950824   4.743979   5.146320   5.017964
    26  H    4.107283   3.814625   4.899336   4.968790   4.665402
    27  H    3.081444   3.039229   3.572744   4.260617   4.327276
    28  O    5.424574   5.684303   5.962742   6.226425   6.184423
    29  H    6.335736   6.541719   6.838121   7.183203   7.133601
    30  H    5.140013   5.531433   5.493227   6.024172   6.158292
                   16         17         18         19         20
    16  O    0.000000
    17  H    0.975709   0.000000
    18  O    3.359288   4.048467   0.000000
    19  H    4.187660   4.797534   0.974158   0.000000
    20  O    3.721348   3.461051   3.670396   3.778853   0.000000
    21  H    4.650775   4.333557   4.390050   4.372862   0.974774
    22  H    2.774323   2.746663   4.294203   5.109122   4.069164
    23  O    2.709067   2.107182   4.550381   5.173556   2.726828
    24  H    5.285389   4.769572   5.941079   6.258134   3.223725
    25  O    5.567898   5.220786   5.822453   6.145614   3.746710
    26  H    6.324479   6.017044   6.169576   6.358573   4.059218
    27  H    4.701705   4.538267   4.689466   5.075507   3.292167
    28  O    4.954848   4.269115   6.093861   6.430001   2.955655
    29  H    5.456925   4.673256   6.949397   7.334714   3.846652
    30  H    3.862852   3.158620   5.359321   5.814243   2.581245
                   21         22         23         24         25
    21  H    0.000000
    22  H    4.633284   0.000000
    23  O    3.250615   1.992554   0.000000
    24  H    2.888130   3.780078   2.714570   0.000000
    25  O    3.444169   3.636874   3.203853   1.176953   0.000000
    26  H    3.561530   4.501427   4.049755   1.744425   0.964627
    27  H    3.249437   2.797342   2.775715   1.963516   1.246253
    28  O    2.728540   3.997529   2.382468   1.246581   2.402456
    29  H    3.646463   4.433579   2.857470   1.880779   2.972109
    30  H    2.745637   3.123184   1.304807   1.859742   2.756774
                   26         27         28         29         30
    26  H    0.000000
    27  H    1.824936   0.000000
    28  O    2.951805   2.923859   0.000000
    29  H    3.542070   3.649276   0.972199   0.000000
    30  H    3.496416   2.821638   1.123218   1.660669   0.000000
 Symmetry turned off by external request.
 Stoichiometry    C6H16O8
 Framework group  C1[X(C6H16O8)]
 Deg. of freedom    84
 Full point group                 C1      NOp   1
 Rotational constants (GHZ):      0.7536177      0.5899949      0.4194560
 Standard basis: 6-31G(d) (6D, 7F)
   242 basis functions,   456 primitive gaussians,   242 cartesian basis functions
    58 alpha electrons       58 beta electrons
       nuclear repulsion energy      1136.0559949049 Hartrees.
 NAtoms=   30 NActive=   30 NUniq=   30 SFac= 1.00D+00 NAtFMM=   60 NAOKFM=F Big=F
 Integral buffers will be    131072 words long.
 Raffenetti 2 integral format.
 Two-electron integral symmetry is turned off.
 One-electron integrals computed using PRISM.
 NBasis=   242 RedAO= T EigKep=  1.45D-03  NBF=   242
 NBsUse=   242 1.00D-06 EigRej= -1.00D+00 NBFU=   242
 Initial guess from the checkpoint file:  "/scratch/10461033.yak.local/Gau-24203.chk"
 B after Tr=     0.015508   -0.060218    0.005205
         Rot=    1.000000   -0.000045   -0.000022    0.000045 Ang=  -0.01 deg.
 ExpMin= 1.61D-01 ExpMax= 5.48D+03 ExpMxC= 8.25D+02 IAcc=1 IRadAn=         1 AccDes= 0.00D+00
 Harris functional with IExCor=  402 and IRadAn=       1 diagonalized for initial guess.
 HarFok:  IExCor=  402 AccDes= 0.00D+00 IRadAn=         1 IDoV= 1 UseB2=F ITyADJ=14
 ICtDFT=  3500011 ScaDFX=  1.000000  1.000000  1.000000  1.000000
 FoFCou: FMM=F IPFlag=           0 FMFlag=      100000 FMFlg1=           0
         NFxFlg=           0 DoJE=T BraDBF=F KetDBF=T FulRan=T
         wScrn=  0.000000 ICntrl=     500 IOpCl=  0 I1Cent=   200000004 NGrid=           0
         NMat0=    1 NMatS0=      1 NMatT0=    0 NMatD0=    1 NMtDS0=    0 NMtDT0=    0
 Symmetry not used in FoFCou.
 Requested convergence on RMS density matrix=1.00D-08 within 128 cycles.
 Requested convergence on MAX density matrix=1.00D-06.
 Requested convergence on             energy=1.00D-06.
 No special actions if energy rises.
 Integral accuracy reduced to 1.0D-05 until final iterations.
 Initial convergence to 1.0D-05 achieved.  Increase integral accuracy.
 SCF Done:  E(RB3LYP) =  -839.921634884     A.U. after   11 cycles
            NFock= 11  Conv=0.68D-08     -V/T= 2.0087
 DoSCS=F DFT=T ScalE2(SS,OS)=  1.000000  1.000000
 Range of M.O.s used for correlation:     1   242
 NBasis=   242 NAE=    58 NBE=    58 NFC=     0 NFV=     0
 NROrb=    242 NOA=    58 NOB=    58 NVA=   184 NVB=   184
 Symmetrizing basis deriv contribution to polar:
 IMax=3 JMax=2 DiffMx= 0.00D+00
 Calling FoFJK, ICntrl=      2147 FMM=F ISym2X=0 I1Cent= 0 IOpClX= 0 NMat=1 NMatS=1 NMatT=0.
 -------------------------------------------------------------------
 Center     Atomic                   Forces (Hartrees/Bohr)
 Number     Number              X              Y              Z
 -------------------------------------------------------------------
      1        8           0.000602322    0.010944933    0.008972216
      2        6          -0.003956971   -0.006435434    0.004163963
      3        6          -0.003640074    0.006408657    0.000595903
      4        6           0.003377140    0.005455590    0.006901335
      5        6           0.043388085    0.003580286    0.010416714
      6        6           0.001199688   -0.004929879   -0.006035330
      7        1           0.005325067    0.000435814    0.001409265
      8        1          -0.003682921   -0.001736479    0.005062600
      9        1          -0.005931735   -0.002675641   -0.002879961
     10        1          -0.000216506   -0.001704000    0.001563914
     11        6          -0.001761290   -0.002232227   -0.000941506
     12        1           0.002669668   -0.000396623   -0.001220082
     13        1          -0.000144130    0.000960049    0.003811158
     14        8          -0.001895955   -0.000391461    0.000426159
     15        1          -0.001392851    0.001711603    0.000315983
     16        8          -0.001534870    0.000918833   -0.001383635
     17        1          -0.001955021   -0.001934557    0.002500012
     18        8           0.002228411   -0.004792502   -0.001961603
     19        1           0.001970005    0.001501206   -0.001731155
     20        8          -0.001995640    0.000216403    0.000787248
     21        1          -0.000829794    0.005239550   -0.001910096
     22        1          -0.009130052   -0.013000617   -0.001932968
     23        8          -0.031125604    0.012016061   -0.023019162
     24        1          -0.001459202    0.004366360   -0.014286789
     25        8           0.003283867   -0.004729584    0.005401541
     26        1           0.000014323   -0.005377594   -0.000533304
     27        1           0.009565380    0.011999897   -0.003988224
     28        8           0.006456771    0.016060219    0.013431609
     29        1          -0.001223359   -0.006149771   -0.001879965
     30        1          -0.008204753   -0.025329091   -0.002055838
 -------------------------------------------------------------------
 Cartesian Forces:  Max     0.043388085 RMS     0.008468986
 IRC-IRC-IRC-IRC-IRC-IRC-IRC-IRC-IRC-IRC-IRC-IRC-IRC-IRC-IRC-IRC-IRC-IRC
 Pt  1 Step number   1 out of a maximum of  20
 Modified Bulirsch-Stoer Extrapolation Cycles:
    EPS =    0.000010000000000
 Maximum DWI energy   std dev =  0.000003236 at pt    -1
 Maximum DWI gradient std dev =  0.007647042 at pt    -1
 CORRECTOR INTEGRATION CONVERGENCE:
   Recorrection delta-x convergence threshold:    0.010000
   Delta-x Convergence NOT Met
 IRC-IRC-IRC-IRC-IRC-IRC-IRC-IRC-IRC-IRC-IRC-IRC-IRC-IRC-IRC-IRC-IRC-IRC
                          Input orientation:                          
 ---------------------------------------------------------------------
 Center     Atomic      Atomic             Coordinates (Angstroms)
 Number     Number       Type             X           Y           Z
 ---------------------------------------------------------------------
      1          8           0        0.232871   -0.733223   -1.164976
      2          6           0       -0.755684   -0.117881    1.051901
      3          6           0       -0.261195    1.773956   -0.603685
      4          6           0       -1.176235    1.259233    0.533756
      5          6           0        0.942749    0.913176   -0.989541
      6          6           0       -0.636433   -1.141243   -0.082911
      7          1           0       -1.110697    1.974755    1.361236
      8          1           0       -0.149722   -2.035479    0.340927
      9          1           0       -1.533695   -0.474163    1.739678
     10          1           0       -0.895149    1.891184   -1.490547
     11          6           0       -1.966235   -1.570997   -0.719573
     12          1           0       -1.784121   -2.408730   -1.406004
     13          1           0       -2.383848   -0.755215   -1.310938
     14          8           0       -2.935970   -1.935846    0.260009
     15          1           0       -2.688708   -2.809371    0.602304
     16          8           0        0.284836    3.057530   -0.317650
     17          1           0        1.176945    2.889219    0.039280
     18          8           0       -2.524408    1.252927    0.051453
     19          1           0       -3.078504    0.780650    0.696507
     20          8           0        0.449885    0.002510    1.800869
     21          1           0        0.707276   -0.880782    2.114663
     22          1           0        1.216342    1.088611   -2.042519
     23          8           0        2.008745    0.970959   -0.216217
     24          1           0        2.671013   -1.628758    0.132515
     25          8           0        2.103587   -2.187183   -0.750514
     26          1           0        1.847714   -3.071539   -0.455766
     27          1           0        1.114432   -1.518721   -1.046966
     28          8           0        3.151036   -0.794949    0.904722
     29          1           0        4.110013   -0.666586    0.821886
     30          1           0        2.686953    0.162924    0.539159
 ---------------------------------------------------------------------
                    Distance matrix (angstroms):
                    1          2          3          4          5
     1  O    0.000000
     2  C    2.504083   0.000000
     3  C    2.616313   2.562134   0.000000
     4  C    2.973407   1.530287   1.547906   0.000000
     5  C    1.801481   2.848726   1.529479   2.632543   0.000000
     6  C    1.446732   1.532739   2.985029   2.536524   2.745256
     7  H    3.939551   2.144958   2.150090   1.095896   3.296929
     8  H    2.027311   2.133039   3.926387   3.456304   3.414411
     9  H    3.409528   1.097850   3.487786   2.141655   3.937781
    10  H    2.875054   3.243429   1.096433   2.139200   2.141349
    11  C    2.395060   2.591351   3.756235   3.194548   3.834865
    12  H    2.633187   3.513825   4.523039   4.193584   4.317907
    13  H    2.620879   2.939408   3.376769   2.986508   3.735381
    14  O    3.676742   2.947157   4.654355   3.657886   4.972199
    15  H    3.996160   3.344076   5.324859   4.341177   5.438641
    16  O    3.884645   3.611313   1.423913   2.468500   2.341482
    17  H    3.932377   3.715253   1.930145   2.904964   2.240103
    18  O    3.609304   2.451202   2.413050   1.431861   3.635970
    19  H    4.089270   2.515781   3.257974   1.968288   4.362430
    20  O    3.063435   1.424376   3.070104   2.414373   2.976343
    21  H    3.317057   1.962584   3.921095   3.259838   3.593023
    22  H    2.248639   3.862634   2.173259   3.520047   1.101995
    23  O    2.637822   3.230444   2.438763   3.284762   1.318225
    24  H    2.903447   3.856199   4.551735   4.827298   3.272207
    25  O    2.405277   3.963098   4.615666   4.927917   3.319173
    26  H    2.928894   4.216022   5.286605   5.373919   4.120902
    27  H    1.186627   3.140849   3.595910   3.932285   2.438626
    28  O    3.578149   3.967688   4.529667   4.804431   3.373790
    29  H    4.357097   4.901938   5.205377   5.633490   3.975988
    30  H    3.119242   3.491920   3.548674   4.015737   2.437631
                    6          7          8          9         10
     6  C    0.000000
     7  H    3.466977   0.000000
     8  H    1.102807   4.248114   0.000000
     9  H    2.138201   2.513831   2.511890   0.000000
    10  H    3.353206   2.861138   4.396435   4.054252   0.000000
    11  C    1.535708   4.199294   2.154094   2.727279   3.705176
    12  H    2.162009   5.227433   2.421227   3.701428   4.391660
    13  H    2.170375   4.026681   3.059256   3.179309   3.041695
    14  O    2.457002   4.453888   2.789202   2.508448   4.677131
    15  H    2.732033   5.094503   2.667148   2.842687   5.449046
    16  O    4.305059   2.436918   5.153766   4.473534   2.031850
    17  H    4.421300   2.795911   5.109176   4.642333   2.762249
    18  O    3.051976   2.057946   4.066514   2.610451   2.332300
    19  H    3.203885   2.395833   4.078575   2.247041   3.283829
    20  O    2.457007   2.553125   2.577665   2.040968   4.026118
    21  H    2.588963   3.467963   2.283399   2.308226   4.821733
    22  H    3.499298   4.217334   4.160154   4.930515   2.325337
    23  O    3.387644   3.636878   3.742734   4.296834   3.302020
    24  H    3.350116   5.366227   2.857517   4.647109   5.267052
    25  O    3.007888   5.666819   2.508318   4.729198   5.115970
    26  H    3.167972   6.125257   2.387026   4.795859   5.763913
    27  H    2.034064   4.791139   1.947144   3.983599   3.982792
    28  O    3.929410   5.103140   3.570964   4.769357   5.415187
    29  H    4.855173   5.875661   4.500059   5.721084   6.077926
    30  H    3.623909   4.287270   3.594300   4.434072   4.465204
                   11         12         13         14         15
    11  C    0.000000
    12  H    1.098247   0.000000
    13  H    1.090694   1.761482   0.000000
    14  O    1.425862   2.079897   2.041226   0.000000
    15  H    1.950102   2.238770   2.823649   0.970232   0.000000
    16  O    5.162570   5.945174   4.758731   5.970015   6.641447
    17  H    5.508989   6.238991   5.271075   6.343976   6.908994
    18  O    2.980032   4.009980   2.430742   3.221980   4.102768
    19  H    2.961870   4.033376   2.621310   2.755031   3.612349
    20  O    3.829646   4.592264   4.276393   4.194697   4.381096
    21  H    3.956887   4.575673   4.615795   4.222102   4.188007
    22  H    4.353447   4.651809   4.110508   5.629446   6.118723
    23  O    4.745037   5.217635   4.844890   5.755563   6.084977
    24  H    4.715236   4.777406   5.329001   5.616832   5.508281
    25  O    4.116320   3.948800   4.743593   5.146013   5.018299
    26  H    4.106997   3.812151   4.899264   4.968477   4.665552
    27  H    3.098455   3.053298   3.590345   4.276439   4.341629
    28  O    5.424670   5.683266   5.962019   6.226471   6.184818
    29  H    6.333628   6.537535   6.835716   7.181406   7.131785
    30  H    5.122796   5.512491   5.475295   6.008329   6.142984
                   16         17         18         19         20
    16  O    0.000000
    17  H    0.975492   0.000000
    18  O    3.359268   4.046926   0.000000
    19  H    4.186258   4.794461   0.972709   0.000000
    20  O    3.721359   3.459032   3.670207   3.778180   0.000000
    21  H    4.648108   4.329054   4.387862   4.370773   0.972071
    22  H    2.778402   2.752749   4.290097   5.103216   4.066780
    23  O    2.708493   2.106393   4.549795   5.171981   2.727008
    24  H    5.278047   4.759522   5.941639   6.259415   3.221467
    25  O    5.567966   5.220373   5.822014   6.144588   3.746871
    26  H    6.326701   6.018773   6.170391   6.358830   4.061539
    27  H    4.707675   4.540239   4.704223   5.089942   3.296351
    28  O    4.954886   4.268386   6.093647   6.429078   2.955544
    29  H    5.458898   4.675373   6.949362   7.333825   3.847419
    30  H    3.857853   3.156372   5.346423   5.800589   2.573347
                   21         22         23         24         25
    21  H    0.000000
    22  H    4.628155   0.000000
    23  O    3.248964   1.994272   0.000000
    24  H    2.888709   3.772391   2.705317   0.000000
    25  O    3.444649   3.631433   3.204423   1.188928   0.000000
    26  H    3.564705   4.497028   4.052789   1.762246   0.966660
    27  H    3.250945   2.792792   2.772805   1.956075   1.230103
    28  O    2.728239   3.997132   2.383226   1.233679   2.403179
    29  H    3.646336   4.433831   2.859115   1.863258   2.968232
    30  H    2.736906   3.112017   1.297489   1.837318   2.743460
                   26         27         28         29         30
    26  H    0.000000
    27  H    1.816168   0.000000
    28  O    2.955069   2.912163   0.000000
    29  H    3.540365   3.632114   0.971069   0.000000
    30  H    3.486538   2.795808   1.125403   1.671264   0.000000
 Symmetry turned off by external request.
 Stoichiometry    C6H16O8
 Framework group  C1[X(C6H16O8)]
 Deg. of freedom    84
 Full point group                 C1      NOp   1
 Rotational constants (GHZ):      0.7536996      0.5900587      0.4195008
 Standard basis: 6-31G(d) (6D, 7F)
   242 basis functions,   456 primitive gaussians,   242 cartesian basis functions
    58 alpha electrons       58 beta electrons
       nuclear repulsion energy      1136.1657625412 Hartrees.
 NAtoms=   30 NActive=   30 NUniq=   30 SFac= 1.00D+00 NAtFMM=   60 NAOKFM=F Big=F
 Integral buffers will be    131072 words long.
 Raffenetti 2 integral format.
 Two-electron integral symmetry is turned off.
 One-electron integrals computed using PRISM.
 NBasis=   242 RedAO= T EigKep=  1.45D-03  NBF=   242
 NBsUse=   242 1.00D-06 EigRej= -1.00D+00 NBFU=   242
 Initial guess from the checkpoint file:  "/scratch/10461033.yak.local/Gau-24203.chk"
 B after Tr=     0.000012   -0.000102   -0.000047
         Rot=    1.000000    0.000013   -0.000007   -0.000003 Ang=   0.00 deg.
 ExpMin= 1.61D-01 ExpMax= 5.48D+03 ExpMxC= 8.25D+02 IAcc=1 IRadAn=         1 AccDes= 0.00D+00
 Harris functional with IExCor=  402 and IRadAn=       1 diagonalized for initial guess.
 HarFok:  IExCor=  402 AccDes= 0.00D+00 IRadAn=         1 IDoV= 1 UseB2=F ITyADJ=14
 ICtDFT=  3500011 ScaDFX=  1.000000  1.000000  1.000000  1.000000
 FoFCou: FMM=F IPFlag=           0 FMFlag=      100000 FMFlg1=           0
         NFxFlg=           0 DoJE=T BraDBF=F KetDBF=T FulRan=T
         wScrn=  0.000000 ICntrl=     500 IOpCl=  0 I1Cent=   200000004 NGrid=           0
         NMat0=    1 NMatS0=      1 NMatT0=    0 NMatD0=    1 NMtDS0=    0 NMtDT0=    0
 Symmetry not used in FoFCou.
 Requested convergence on RMS density matrix=1.00D-08 within 128 cycles.
 Requested convergence on MAX density matrix=1.00D-06.
 Requested convergence on             energy=1.00D-06.
 No special actions if energy rises.
 Integral accuracy reduced to 1.0D-05 until final iterations.
 Initial convergence to 1.0D-05 achieved.  Increase integral accuracy.
 SCF Done:  E(RB3LYP) =  -839.923232907     A.U. after   11 cycles
            NFock= 11  Conv=0.77D-08     -V/T= 2.0087
 DoSCS=F DFT=T ScalE2(SS,OS)=  1.000000  1.000000
 Range of M.O.s used for correlation:     1   242
 NBasis=   242 NAE=    58 NBE=    58 NFC=     0 NFV=     0
 NROrb=    242 NOA=    58 NOB=    58 NVA=   184 NVB=   184
 Symmetrizing basis deriv contribution to polar:
 IMax=3 JMax=2 DiffMx= 0.00D+00
 Calling FoFJK, ICntrl=      2147 FMM=F ISym2X=0 I1Cent= 0 IOpClX= 0 NMat=1 NMatS=1 NMatT=0.
 -------------------------------------------------------------------
 Center     Atomic                   Forces (Hartrees/Bohr)
 Number     Number              X              Y              Z
 -------------------------------------------------------------------
      1        8           0.001532565    0.011898225    0.009328783
      2        6          -0.004718545   -0.006378372    0.004036716
      3        6          -0.002669561    0.005875331    0.000798216
      4        6           0.003587382    0.005278965    0.006893422
      5        6           0.038316823    0.001991649    0.009564760
      6        6           0.001894655   -0.004834817   -0.005754338
      7        1           0.004875522    0.000279001    0.001171375
      8        1          -0.003522978   -0.001376535    0.004461355
      9        1          -0.004976724   -0.002312920   -0.003017550
     10        1          -0.000389234   -0.001549313    0.001118999
     11        6          -0.001321526   -0.002549182   -0.000863544
     12        1           0.002347327   -0.000040169   -0.000992973
     13        1          -0.000271626    0.001119698    0.003358530
     14        8          -0.002067444    0.000181858    0.000091136
     15        1          -0.001139535    0.000975788    0.000584165
     16        8          -0.001629950    0.001037193   -0.001388732
     17        1          -0.001739907   -0.001814429    0.002561259
     18        8           0.003235137   -0.003922643   -0.002482139
     19        1           0.001162966    0.000851721   -0.000853408
     20        8          -0.002933480    0.002231673    0.000015280
     21        1          -0.000207329    0.002928754   -0.001032410
     22        1          -0.008200344   -0.012269528   -0.002455896
     23        8          -0.028462361    0.011079940   -0.021250317
     24        1          -0.000725890    0.003819708   -0.012178433
     25        8           0.002670132   -0.005252871    0.004554717
     26        1           0.000233961   -0.003042022   -0.000955895
     27        1           0.008819556    0.009976887   -0.003213801
     28        8           0.003941345    0.012620765    0.012246391
     29        1          -0.000477505   -0.004994480   -0.002194202
     30        1          -0.007163433   -0.021809875   -0.002151470
 -------------------------------------------------------------------
 Cartesian Forces:  Max     0.038316823 RMS     0.007593827
 IRC-IRC-IRC-IRC-IRC-IRC-IRC-IRC-IRC-IRC-IRC-IRC-IRC-IRC-IRC-IRC-IRC-IRC
 Error in corrector energy =          -0.0000066192
 Magnitude of corrector gradient =     0.0721505891
 Magnitude of analytic gradient =      0.0720413691
 Magnitude of difference =             0.0004741221
 Angle between gradients (degrees)=    0.3667
 Pt  1 Step number   2 out of a maximum of  20
 Modified Bulirsch-Stoer Extrapolation Cycles:
    EPS =    0.000010000000000
 Maximum DWI energy   std dev =  0.000001666 at pt    54
 Maximum DWI gradient std dev =  0.004112626 at pt    15
 CORRECTOR INTEGRATION CONVERGENCE:
   Recorrection delta-x convergence threshold:    0.010000
   Delta-x Convergence Met
 Point Number:   1          Path Number:   1
   CHANGE IN THE REACTION COORDINATE =    0.08358
   NET REACTION COORDINATE UP TO THIS POINT =    0.08358
  # OF POINTS ALONG THE PATH =   1
  # OF STEPS =   2

 Calculating another point on the path.
 IRC-IRC-IRC-IRC-IRC-IRC-IRC-IRC-IRC-IRC-IRC-IRC-IRC-IRC-IRC-IRC-IRC-IRC
                          Input orientation:                          
 ---------------------------------------------------------------------
 Center     Atomic      Atomic             Coordinates (Angstroms)
 Number     Number       Type             X           Y           Z
 ---------------------------------------------------------------------
      1          8           0        0.233068   -0.732155   -1.164033
      2          6           0       -0.756363   -0.118696    1.052388
      3          6           0       -0.261448    1.774658   -0.603577
      4          6           0       -1.175735    1.259895    0.534651
      5          6           0        0.947369    0.913558   -0.988388
      6          6           0       -0.636159   -1.141901   -0.083592
      7          1           0       -1.103785    1.975026    1.362805
      8          1           0       -0.154877   -2.037244    0.347016
      9          1           0       -1.540275   -0.477361    1.734979
     10          1           0       -0.895910    1.889004   -1.489283
     11          6           0       -1.966370   -1.571349   -0.719676
     12          1           0       -1.780938   -2.408414   -1.407342
     13          1           0       -2.384387   -0.753373   -1.306283
     14          8           0       -2.936182   -1.935802    0.259995
     15          1           0       -2.690251   -2.808457    0.603413
     16          8           0        0.284666    3.057644   -0.317782
     17          1           0        1.174425    2.886567    0.043328
     18          8           0       -2.524026    1.252596    0.051199
     19          1           0       -3.077376    0.781472    0.695901
     20          8           0        0.449528    0.002819    1.800836
     21          1           0        0.707457   -0.878108    2.113807
     22          1           0        1.204821    1.070447   -2.046971
     23          8           0        2.006028    0.971974   -0.218263
     24          1           0        2.669263   -1.625620    0.114492
     25          8           0        2.103952   -2.187708   -0.750091
     26          1           0        1.848239   -3.074297   -0.457300
     27          1           0        1.124829   -1.504179   -1.051587
     28          8           0        3.151323   -0.793911    0.905872
     29          1           0        4.109832   -0.672592    0.818427
     30          1           0        2.678980    0.132730    0.537271
 ---------------------------------------------------------------------
                    Distance matrix (angstroms):
                    1          2          3          4          5
     1  O    0.000000
     2  C    2.503564   0.000000
     3  C    2.615868   2.563582   0.000000
     4  C    2.972965   1.531156   1.548052   0.000000
     5  C    1.802622   2.851844   1.533235   2.635748   0.000000
     6  C    1.445961   1.533574   2.986153   2.538108   2.747931
     7  H    3.937120   2.144932   2.148567   1.096553   3.295763
     8  H    2.033969   2.130766   3.930087   3.456658   3.421327
     9  H    3.407923   1.099586   3.489388   2.142833   3.942049
    10  H    2.872430   3.241979   1.095487   2.137847   2.144777
    11  C    2.395669   2.591240   3.757126   3.195995   3.838859
    12  H    2.631590   3.513237   4.522497   4.194532   4.319106
    13  H    2.621404   2.935406   3.375145   2.983811   3.739026
    14  O    3.677060   2.946416   4.654833   3.658837   4.975869
    15  H    3.997586   3.343100   5.325491   4.341656   5.442380
    16  O    3.883476   3.612512   1.423367   2.468059   2.342220
    17  H    3.929252   3.711839   1.927838   2.900123   2.238025
    18  O    3.607991   2.451011   2.412580   1.432364   3.639543
    19  H    4.087722   2.514854   3.256458   1.967519   4.364957
    20  O    3.062270   1.424470   3.070196   2.413493   2.976082
    21  H    3.315205   1.961144   3.919199   3.257485   3.590437
    22  H    2.230080   3.855688   2.174682   3.516776   1.100679
    23  O    2.634753   3.230312   2.436024   3.282285   1.310444
    24  H    2.892741   3.858158   4.546050   4.825634   3.260166
    25  O    2.406281   3.963729   4.617025   4.928781   3.318482
    26  H    2.931531   4.218849   5.290041   5.377137   4.122694
    27  H    1.184864   3.144067   3.587930   3.930503   2.425065
    28  O    3.578342   3.968298   4.530230   4.804098   3.370621
    29  H    4.354652   4.903203   5.207611   5.634914   3.972610
    30  H    3.102410   3.482836   3.555780   4.016135   2.436351
                    6          7          8          9         10
     6  C    0.000000
     7  H    3.467848   0.000000
     8  H    1.103945   4.246241   0.000000
     9  H    2.136876   2.518578   2.505794   0.000000
    10  H    3.351093   2.860948   4.397334   4.051019   0.000000
    11  C    1.535738   4.202089   2.153230   2.720973   3.703002
    12  H    2.160298   5.229416   2.420664   3.696088   4.388370
    13  H    2.168462   4.025933   3.058176   3.168277   3.038291
    14  O    2.457323   4.457403   2.784514   2.500237   4.674594
    15  H    2.732888   5.096593   2.662448   2.834942   5.446575
    16  O    4.305688   2.433975   5.156844   4.476661   2.032706
    17  H    4.418470   2.786067   5.109128   4.641905   2.762302
    18  O    3.052184   2.063807   4.064902   2.606843   2.329993
    19  H    3.204141   2.400915   4.075278   2.242103   3.280313
    20  O    2.457676   2.548382   2.576966   2.047981   4.024026
    21  H    2.589103   3.461932   2.282272   2.314392   4.817671
    22  H    3.484042   4.215981   4.151831   4.922845   2.322525
    23  O    3.386408   3.629989   3.747592   4.300231   3.298132
    24  H    3.346496   5.362725   2.863437   4.654534   5.256913
    25  O    3.007680   5.664120   2.515669   4.730883   5.115189
    26  H    3.169549   6.125593   2.394760   4.799187   5.764520
    27  H    2.041895   4.785486   1.969237   3.990248   3.973494
    28  O    3.930032   5.097229   3.576192   4.774799   5.414323
    29  H    4.853692   5.872651   4.502471   5.727294   6.078220
    30  H    3.605594   4.287758   3.574316   4.428186   4.468921
                   11         12         13         14         15
    11  C    0.000000
    12  H    1.099067   0.000000
    13  H    1.089922   1.764518   0.000000
    14  O    1.425874   2.082778   2.038589   0.000000
    15  H    1.950642   2.242771   2.822032   0.969507   0.000000
    16  O    5.162970   5.944043   4.756557   5.970108   6.641527
    17  H    5.506340   6.235017   5.266475   6.340290   6.905267
    18  O    2.979915   4.010302   2.426143   3.221700   4.101795
    19  H    2.962087   4.034818   2.616242   2.755636   3.611927
[...]
 Alpha  occ. eigenvalues --  -19.14731 -19.12690 -19.10710 -10.27725 -10.25398
 Alpha  occ. eigenvalues --  -10.24381 -10.23935 -10.23322 -10.22500  -1.06329
 Alpha  occ. eigenvalues --   -1.03561  -1.02969  -1.02485  -1.02079  -1.01455
 Alpha  occ. eigenvalues --   -0.99858  -0.98154  -0.77985  -0.74475  -0.68831
 Alpha  occ. eigenvalues --   -0.64174  -0.62080  -0.56732  -0.55888  -0.55251
 Alpha  occ. eigenvalues --   -0.54010  -0.52765  -0.51238  -0.50052  -0.49088
 Alpha  occ. eigenvalues --   -0.46841  -0.45946  -0.45102  -0.44182  -0.43066
 Alpha  occ. eigenvalues --   -0.42217  -0.40322  -0.39840  -0.38479  -0.36535
 Alpha  occ. eigenvalues --   -0.35999  -0.34813  -0.34089  -0.33930  -0.32030
 Alpha  occ. eigenvalues --   -0.31534  -0.31381  -0.29634  -0.29340  -0.27198
 Alpha  occ. eigenvalues --   -0.25781  -0.25178  -0.22740
 Alpha virt. eigenvalues --    0.02578   0.03634   0.04933   0.07352   0.08716
 Alpha virt. eigenvalues --    0.09131   0.11735   0.12695   0.13530   0.14076
 Alpha virt. eigenvalues --    0.15259   0.16847   0.17413   0.17886   0.19992
 Alpha virt. eigenvalues --    0.20590   0.21878   0.23295   0.24317   0.24747
 Alpha virt. eigenvalues --    0.26228   0.27096   0.28302   0.30453   0.32018
 Alpha virt. eigenvalues --    0.32213   0.35687   0.37651   0.52590   0.53727
 Alpha virt. eigenvalues --    0.53892   0.55550   0.57351   0.58310   0.59467
 Alpha virt. eigenvalues --    0.60638   0.62454   0.64029   0.66377   0.66956
 Alpha virt. eigenvalues --    0.67711   0.68712   0.69917   0.71586   0.73631
 Alpha virt. eigenvalues --    0.74628   0.77302   0.78210   0.80267   0.80519
 Alpha virt. eigenvalues --    0.82006   0.82207   0.83902   0.84949   0.85134
 Alpha virt. eigenvalues --    0.85834   0.87291   0.88213   0.89782   0.90568
 Alpha virt. eigenvalues --    0.91211   0.91947   0.92456   0.95258   0.96306
 Alpha virt. eigenvalues --    0.96866   0.97983   0.99943   1.02258   1.02566
 Alpha virt. eigenvalues --    1.03932   1.03984   1.06159   1.08717   1.08976
 Alpha virt. eigenvalues --    1.10052   1.11898   1.13971   1.15475   1.16511
 Alpha virt. eigenvalues --    1.19498   1.20651   1.23863   1.24710   1.28928
 Alpha virt. eigenvalues --    1.29517   1.33389   1.37052   1.37209   1.38397
 Alpha virt. eigenvalues --    1.39677   1.42315   1.43242   1.47073   1.48612
 Alpha virt. eigenvalues --    1.51665   1.52876   1.55275   1.56608   1.58843
 Alpha virt. eigenvalues --    1.61254   1.62691   1.65804   1.68026   1.68649
 Alpha virt. eigenvalues --    1.70675   1.71024   1.71258   1.71930   1.73809
 Alpha virt. eigenvalues --    1.75209   1.77033   1.78321   1.79530   1.80374
 Alpha virt. eigenvalues --    1.82133   1.83423   1.84781   1.86166   1.86546
 Alpha virt. eigenvalues --    1.88083   1.90492   1.92078   1.92926   1.94998
 Alpha virt. eigenvalues --    1.97821   1.99623   2.02891   2.03250   2.05570
 Alpha virt. eigenvalues --    2.06697   2.07677   2.12533   2.13489   2.17079
 Alpha virt. eigenvalues --    2.20693   2.23956   2.24851   2.28603   2.32331
 Alpha virt. eigenvalues --    2.33724   2.35900   2.39150   2.40915   2.41778
 Alpha virt. eigenvalues --    2.43541   2.44882   2.45419   2.48771   2.49391
 Alpha virt. eigenvalues --    2.53496   2.53628   2.55234   2.56921   2.61452
 Alpha virt. eigenvalues --    2.63046   2.66581   2.71847   2.74052   2.75785
 Alpha virt. eigenvalues --    2.78116   2.81823   2.85127   2.86820   2.90970
 Alpha virt. eigenvalues --    2.92470   2.96404   3.00305   3.03425   3.10074
 Alpha virt. eigenvalues --    3.71918   3.76696   3.78889   3.84311   3.89776
 Alpha virt. eigenvalues --    3.95330   4.07885   4.11396   4.25577   4.31169
 Alpha virt. eigenvalues --    4.50838   4.58344   4.71639   4.83049
          Condensed to atoms (all electrons):
               1          2          3          4          5          6
     1  O    8.528166  -0.034511  -0.009380  -0.005427   0.041804   0.154024
     2  C   -0.034511   5.043856  -0.015345   0.286096  -0.001147   0.298634
     3  C   -0.009380  -0.015345   5.012385   0.276287   0.298310  -0.024507
     4  C   -0.005427   0.286096   0.276287   4.993637  -0.025602  -0.021442
     5  C    0.041804  -0.001147   0.298310  -0.025602   4.737202  -0.007865
     6  C    0.154024   0.298634  -0.024507  -0.021442  -0.007865   5.126185
     7  H   -0.000080  -0.051375  -0.049826   0.357674   0.002340   0.006153
     8  H   -0.038577  -0.054264   0.000329   0.005191   0.000645   0.331775
     9  H    0.003315   0.352010   0.005227  -0.044127   0.000327  -0.064088
    10  H    0.001319   0.002974   0.345933  -0.059997  -0.029398   0.001367
    11  C   -0.036154  -0.039246   0.000060  -0.004359   0.000659   0.294842
    12  H    0.005095   0.005514  -0.000033  -0.000303  -0.000061  -0.045749
    13  H    0.003268  -0.008950  -0.000848   0.001134   0.000160  -0.039060
    14  O    0.001549  -0.005843   0.000011  -0.001110  -0.000002  -0.043395
    15  H   -0.000015  -0.001186   0.000003   0.000116  -0.000001  -0.002295
    16  O    0.000510   0.002189   0.266314  -0.047849  -0.025876   0.000091
    17  H    0.000377  -0.000480  -0.043281   0.000245  -0.017092   0.000088
    18  O   -0.000258  -0.030783  -0.035908   0.211156   0.001430  -0.002400
    19  H    0.000038  -0.004576   0.006302  -0.024539  -0.000225  -0.001743
    20  O    0.001260   0.187431   0.001926  -0.042279   0.003577  -0.032232
    21  H   -0.000271  -0.017136  -0.000368   0.005920  -0.000107  -0.005376
    22  H   -0.033328  -0.000085  -0.080742   0.005628   0.359219   0.003361
    23  O   -0.033978   0.004168  -0.058252  -0.002213   0.376759   0.000613
    24  H    0.005345  -0.000071   0.000052  -0.000007   0.000267   0.000261
    25  O   -0.085471  -0.001113  -0.000020   0.000008   0.001358   0.003449
    26  H    0.004085   0.000043  -0.000000  -0.000000   0.000012  -0.000024
    27  H    0.162510   0.005005   0.001605  -0.000107  -0.003167  -0.014546
    28  O   -0.000310  -0.000288  -0.000175   0.000013   0.004544   0.000149
    29  H   -0.000013  -0.000000   0.000011  -0.000000   0.000004  -0.000000
    30  H    0.000469  -0.000634   0.000824  -0.000103  -0.012708   0.000304
               7          8          9         10         11         12
     1  O   -0.000080  -0.038577   0.003315   0.001319  -0.036154   0.005095
     2  C   -0.051375  -0.054264   0.352010   0.002974  -0.039246   0.005514
     3  C   -0.049826   0.000329   0.005227   0.345933   0.000060  -0.000033
     4  C    0.357674   0.005191  -0.044127  -0.059997  -0.004359  -0.000303
     5  C    0.002340   0.000645   0.000327  -0.029398   0.000659  -0.000061
     6  C    0.006153   0.331775  -0.064088   0.001367   0.294842  -0.045749
     7  H    0.606641  -0.000226  -0.006469   0.004665   0.000064   0.000011
     8  H   -0.000226   0.706769  -0.000993   0.000033  -0.047474  -0.008851
     9  H   -0.006469  -0.000993   0.649676  -0.000342  -0.001675   0.000255
    10  H    0.004665   0.000033  -0.000342   0.602666  -0.000119   0.000002
    11  C    0.000064  -0.047474  -0.001675  -0.000119   4.972259   0.347224
    12  H    0.000011  -0.008851   0.000255   0.000002   0.347224   0.636830
    13  H    0.000167   0.005893  -0.000095   0.001363   0.371506  -0.032930
    14  O   -0.000016   0.003172   0.017045   0.000001   0.227409  -0.029524
    15  H   -0.000001   0.004078   0.000460   0.000000  -0.028576  -0.008663
    16  O    0.007229   0.000003  -0.000082  -0.040835   0.000002   0.000000
    17  H    0.000292   0.000002   0.000001   0.007433   0.000001  -0.000000
    18  O   -0.031730  -0.000072  -0.002338   0.004566  -0.002214   0.000517
    19  H   -0.003417  -0.000048   0.009078  -0.000202   0.000056   0.000062
    20  O    0.005511  -0.003017  -0.033479   0.000030   0.003521  -0.000051
    21  H   -0.000305   0.008100  -0.004876   0.000013  -0.000059  -0.000008
    22  H   -0.000196  -0.000139  -0.000001  -0.000185  -0.000104   0.000011
    23  O    0.000035  -0.000280  -0.000049   0.003845  -0.000015   0.000002
    24  H   -0.000000  -0.001205   0.000005  -0.000001   0.000038  -0.000007
    25  O    0.000000   0.015845  -0.000003   0.000001   0.000133   0.000078
    26  H   -0.000000   0.001062  -0.000004  -0.000000  -0.000001   0.000028
    27  H    0.000011  -0.008896  -0.000147  -0.000035  -0.000559   0.000705
    28  O   -0.000000   0.000131  -0.000004   0.000001   0.000001   0.000000
    29  H   -0.000000   0.000003   0.000000  -0.000000   0.000000  -0.000000
    30  H    0.000004  -0.000155   0.000050  -0.000017   0.000006   0.000000
              13         14         15         16         17         18
     1  O    0.003268   0.001549  -0.000015   0.000510   0.000377  -0.000258
     2  C   -0.008950  -0.005843  -0.001186   0.002189  -0.000480  -0.030783
     3  C   -0.000848   0.000011   0.000003   0.266314  -0.043281  -0.035908
     4  C    0.001134  -0.001110   0.000116  -0.047849   0.000245   0.211156
     5  C    0.000160  -0.000002  -0.000001  -0.025876  -0.017092   0.001430
     6  C   -0.039060  -0.043395  -0.002295   0.000091   0.000088  -0.002400
     7  H    0.000167  -0.000016  -0.000001   0.007229   0.000292  -0.031730
     8  H    0.005893   0.003172   0.004078   0.000003   0.000002  -0.000072
     9  H   -0.000095   0.017045   0.000460  -0.000082   0.000001  -0.002338
    10  H    0.001363   0.000001   0.000000  -0.040835   0.007433   0.004566
    11  C    0.371506   0.227409  -0.028576   0.000002   0.000001  -0.002214
    12  H   -0.032930  -0.029524  -0.008663   0.000000  -0.000000   0.000517
    13  H    0.516365  -0.032802   0.006706   0.000005   0.000000   0.017142
    14  O   -0.032802   8.242485   0.233040   0.000000  -0.000000  -0.000996
    15  H    0.006706   0.233040   0.405239  -0.000000   0.000000   0.000011
    16  O    0.000005   0.000000  -0.000000   8.264099   0.228919   0.001285
    17  H    0.000000  -0.000000   0.000000   0.228919   0.376355  -0.000081
    18  O    0.017142  -0.000996   0.000011   0.001285  -0.000081   8.278630
    19  H   -0.002725   0.004948  -0.000128  -0.000147   0.000017   0.230217
    20  O   -0.000013   0.000038  -0.000025  -0.000035   0.000548   0.001364
    21  H    0.000014   0.000029  -0.000010   0.000013  -0.000007  -0.000104
    22  H   -0.000068   0.000001  -0.000000   0.002187   0.002857  -0.000080
    23  O    0.000003   0.000000  -0.000000  -0.018320   0.038962   0.000001
    24  H   -0.000000  -0.000000   0.000000   0.000000  -0.000002  -0.000000
    25  O   -0.000000   0.000000  -0.000002   0.000000   0.000001   0.000000
    26  H   -0.000001  -0.000002  -0.000001   0.000000  -0.000000  -0.000000
    27  H   -0.000078   0.000022   0.000003  -0.000008  -0.000029  -0.000015
    28  O    0.000000  -0.000000  -0.000000  -0.000001   0.000001  -0.000000
    29  H    0.000000   0.000000   0.000000   0.000000  -0.000007  -0.000000
    30  H   -0.000000  -0.000000   0.000000  -0.000014   0.000270   0.000001
              19         20         21         22         23         24
     1  O    0.000038   0.001260  -0.000271  -0.033328  -0.033978   0.005345
     2  C   -0.004576   0.187431  -0.017136  -0.000085   0.004168  -0.000071
     3  C    0.006302   0.001926  -0.000368  -0.080742  -0.058252   0.000052
     4  C   -0.024539  -0.042279   0.005920   0.005628  -0.002213  -0.000007
     5  C   -0.000225   0.003577  -0.000107   0.359219   0.376759   0.000267
     6  C   -0.001743  -0.032232  -0.005376   0.003361   0.000613   0.000261
     7  H   -0.003417   0.005511  -0.000305  -0.000196   0.000035  -0.000000
     8  H   -0.000048  -0.003017   0.008100  -0.000139  -0.000280  -0.001205
     9  H    0.009078  -0.033479  -0.004876  -0.000001  -0.000049   0.000005
    10  H   -0.000202   0.000030   0.000013  -0.000185   0.003845  -0.000001
    11  C    0.000056   0.003521  -0.000059  -0.000104  -0.000015   0.000038
    12  H    0.000062  -0.000051  -0.000008   0.000011   0.000002  -0.000007
    13  H   -0.002725  -0.000013   0.000014  -0.000068   0.000003  -0.000000
    14  O    0.004948   0.000038   0.000029   0.000001   0.000000  -0.000000
    15  H   -0.000128  -0.000025  -0.000010  -0.000000  -0.000000   0.000000
    16  O   -0.000147  -0.000035   0.000013   0.002187  -0.018320   0.000000
    17  H    0.000017   0.000548  -0.000007   0.002857   0.038962  -0.000002
    18  O    0.230217   0.001364  -0.000104  -0.000080   0.000001  -0.000000
    19  H    0.384277   0.000004  -0.000014   0.000011   0.000002  -0.000000
    20  O    0.000004   8.304551   0.223194   0.000032  -0.008685   0.000921
    21  H   -0.000014   0.223194   0.392284   0.000011   0.000996   0.000248
    22  H    0.000011   0.000032   0.000011   0.668421  -0.052988  -0.000051
    23  O    0.000002  -0.008685   0.000996  -0.052988   8.308216   0.003376
    24  H   -0.000000   0.000921   0.000248  -0.000051   0.003376   0.297795
    25  O   -0.000000  -0.000071   0.000471  -0.000004  -0.001422   0.159476
    26  H   -0.000000  -0.000007  -0.000024  -0.000003   0.000072  -0.004436
    27  H   -0.000002  -0.000580  -0.000184  -0.000798   0.005984  -0.006293
    28  O    0.000000  -0.000837   0.005003  -0.000121  -0.063661   0.116089
    29  H   -0.000000   0.000191  -0.000117  -0.000002   0.003184  -0.005865
    30  H    0.000000   0.006266  -0.001493   0.001225   0.078919  -0.012111
              25         26         27         28         29         30
     1  O   -0.085471   0.004085   0.162510  -0.000310  -0.000013   0.000469
     2  C   -0.001113   0.000043   0.005005  -0.000288  -0.000000  -0.000634
     3  C   -0.000020  -0.000000   0.001605  -0.000175   0.000011   0.000824
     4  C    0.000008  -0.000000  -0.000107   0.000013  -0.000000  -0.000103
     5  C    0.001358   0.000012  -0.003167   0.004544   0.000004  -0.012708
     6  C    0.003449  -0.000024  -0.014546   0.000149  -0.000000   0.000304
     7  H    0.000000  -0.000000   0.000011  -0.000000  -0.000000   0.000004
     8  H    0.015845   0.001062  -0.008896   0.000131   0.000003  -0.000155
     9  H   -0.000003  -0.000004  -0.000147  -0.000004   0.000000   0.000050
    10  H    0.000001  -0.000000  -0.000035   0.000001  -0.000000  -0.000017
    11  C    0.000133  -0.000001  -0.000559   0.000001   0.000000   0.000006
    12  H    0.000078   0.000028   0.000705   0.000000  -0.000000   0.000000
    13  H   -0.000000  -0.000001  -0.000078   0.000000   0.000000  -0.000000
    14  O    0.000000  -0.000002   0.000022  -0.000000   0.000000  -0.000000
    15  H   -0.000002  -0.000001   0.000003  -0.000000   0.000000   0.000000
    16  O    0.000000   0.000000  -0.000008  -0.000001   0.000000  -0.000014
    17  H    0.000001  -0.000000  -0.000029   0.000001  -0.000007   0.000270
    18  O    0.000000  -0.000000  -0.000015  -0.000000  -0.000000   0.000001
    19  H   -0.000000  -0.000000  -0.000002   0.000000  -0.000000   0.000000
    20  O   -0.000071  -0.000007  -0.000580  -0.000837   0.000191   0.006266
    21  H    0.000471  -0.000024  -0.000184   0.005003  -0.000117  -0.001493
    22  H   -0.000004  -0.000003  -0.000798  -0.000121  -0.000002   0.001225
    23  O   -0.001422   0.000072   0.005984  -0.063661   0.003184   0.078919
    24  H    0.159476  -0.004436  -0.006293   0.116089  -0.005865  -0.012111
    25  O    8.480283   0.235668   0.106879  -0.087432   0.003639   0.007426
    26  H    0.235668   0.370150  -0.008602   0.003541  -0.000144  -0.000220
    27  H    0.106879  -0.008602   0.271821   0.002375  -0.000041  -0.000611
    28  O   -0.087432   0.003541   0.002375   8.431497   0.237152   0.182526
    29  H    0.003639  -0.000144  -0.000041   0.237152   0.367117  -0.007720
    30  H    0.007426  -0.000220  -0.000611   0.182526  -0.007720   0.280808
 Mulliken charges:
               1
     1  O   -0.635361
     2  C    0.079113
     3  C    0.103108
     4  C    0.136361
     5  C    0.294636
     6  C    0.083428
     7  H    0.152844
     8  H    0.081166
     9  H    0.121323
    10  H    0.154919
    11  C   -0.057227
    12  H    0.129848
    13  H    0.193847
    14  O   -0.616060
    15  H    0.391248
    16  O   -0.639679
    17  H    0.404610
    18  O   -0.639339
    19  H    0.402756
    20  O   -0.619053
    21  H    0.394164
    22  H    0.125928
    23  O   -0.585274
    24  H    0.446177
    25  O   -0.839178
    26  H    0.398810
    27  H    0.487776
    28  O   -0.830191
    29  H    0.402609
    30  H    0.476692
 Sum of Mulliken charges =  -0.00000
 Mulliken charges with hydrogens summed into heavy atoms:
               1
     1  O   -0.147585
     2  C    0.200436
     3  C    0.258028
     4  C    0.289205
     5  C    0.420564
     6  C    0.164594
    11  C    0.266468
    14  O   -0.224813
    16  O   -0.235069
    18  O   -0.236583
    20  O   -0.224889
    23  O   -0.585274
    25  O    0.005809
    28  O    0.049110
 APT charges:
               1
     1  O   -0.469856
     2  C   -0.355115
     3  C   -0.238343
     4  C   -0.288389
     5  C   -0.447333
     6  C   -0.204606
     7  H    0.462161
     8  H    0.309243
     9  H    0.418942
    10  H    0.428074
    11  C   -0.655822
    12  H    0.472065
    13  H    0.353699
    14  O   -0.820755
    15  H    0.717938
    16  O   -0.594304
    17  H    0.480831
    18  O   -0.779399
    19  H    0.672991
    20  O   -0.758201
    21  H    0.633575
    22  H    0.458081
    23  O   -0.311914
    24  H    0.392579
    25  O   -1.110891
    26  H    0.726636
    27  H    0.503146
    28  O   -1.224618
    29  H    0.968789
    30  H    0.260793
 Sum of APT charges =  -0.00000
 APT charges with hydrogens summed into heavy atoms:
               1
     1  O    0.033290
     2  C    0.063828
     3  C    0.189730
     4  C    0.173772
     5  C    0.010749
     6  C    0.104638
    11  C    0.169943
    14  O   -0.102817
    16  O   -0.113473
    18  O   -0.106408
    20  O   -0.124627
    23  O   -0.311914
    25  O    0.008324
    28  O    0.004965
 Electronic spatial extent (au):  <R**2>=           2881.4725
 Charge=             -0.0000 electrons
 Dipole moment (field-independent basis, Debye):
    X=              0.9906    Y=             -6.2912    Z=              1.6807  Tot=              6.5868
 Quadrupole moment (field-independent basis, Debye-Ang):
   XX=            -80.3888   YY=            -79.2592   ZZ=            -84.0394
   XY=              1.4453   XZ=             -1.7446   YZ=             -2.4526
 Traceless Quadrupole moment (field-independent basis, Debye-Ang):
   XX=              0.8403   YY=              1.9699   ZZ=             -2.8102
   XY=              1.4453   XZ=             -1.7446   YZ=             -2.4526
 Octapole moment (field-independent basis, Debye-Ang**2):
  XXX=             77.0933  YYY=            -83.0951  ZZZ=              2.7672  XYY=              9.4786
  XXY=             -3.4607  XXZ=             19.5522  XZZ=             -7.9758  YZZ=              0.7147
  YYZ=             18.2165  XYZ=             -3.4989
 Hexadecapole moment (field-independent basis, Debye-Ang**3):
 XXXX=          -1416.3556 YYYY=          -1192.0473 ZZZZ=           -465.2959 XXXY=            -49.5162
 XXXZ=             16.6141 YYYX=             35.6211 YYYZ=              7.7996 ZZZX=             -3.6297
 ZZZY=            -21.2912 XXYY=           -460.0769 XXZZ=           -350.0311 YYZZ=           -280.1546
 XXYZ=             -3.9299 YYXZ=              1.6979 ZZXY=              7.1991
 N-N= 1.136147467737D+03 E-N=-4.245431327211D+03  KE= 8.330473025127D+02
  Exact polarizability:   0.000   0.000   0.000   0.000   0.000   0.000
 Approx polarizability: 144.511   6.599 138.242   9.715  -1.658 122.210

 This type of calculation cannot be archived.


 ALL SCIENCE IS EITHER PHYSICS, OR STAMP COLLECTING.
   --ERNEST RUTHERFORD, 1871-1937.
 Job cpu time:       0 days  1 hours 11 minutes  3.4 seconds.
 File lengths (MBytes):  RWF=    220 Int=      0 D2E=      0 Chk=      9 Scr=      1
 Normal termination of Gaussian 09 at Sat Jan 14 01:04:40 2017.
