 Entering Gaussian System, Link 0=g09
 Initial command:
 /global/software/gaussian/g09.e01/l1.exe "/scratch/10461032.yak.local/Gau-24168.inp" -scrdir="/scratch/10461032.yak.local/"
 Entering Link 1 = /global/software/gaussian/g09.e01/l1.exe PID=     24169.
  
 Copyright (c) 1988,1990,1992,1993,1995,1998,2003,2009,2015,
            Gaussian, Inc.  All Rights Reserved.
  
 This is part of the Gaussian(R) 09 program.  It is based on
 the Gaussian(R) 03 system (copyright 2003, Gaussian, Inc.),
 the Gaussian(R) 98 system (copyright 1998, Gaussian, Inc.),
 the Gaussian(R) 94 system (copyright 1995, Gaussian, Inc.),
 the Gaussian 92(TM) system (copyright 1992, Gaussian, Inc.),
 the Gaussian 90(TM) system (copyright 1990, Gaussian, Inc.),
 the Gaussian 88(TM) system (copyright 1988, Gaussian, Inc.),
 the Gaussian 86(TM) system (copyright 1986, Carnegie Mellon
 University), and the Gaussian 82(TM) system (copyright 1983,
 Carnegie Mellon University). Gaussian is a federally registered
 trademark of Gaussian, Inc.
  
 This software contains proprietary and confidential information,
 including trade secrets, belonging to Gaussian, Inc.
  
 This software is provided under written license and may be
 used, copied, transmitted, or stored only in accord with that
 written license.
  
 The following legend is applicable only to US Government
 contracts under FAR:
  
                    RESTRICTED RIGHTS LEGEND
  
 Use, reproduction and disclosure by the US Government is
 subject to restrictions as set forth in subparagraphs (a)
 and (c) of the Commercial Computer Software - Restricted
 Rights clause in FAR 52.227-19.
  
 Gaussian, Inc.
 340 Quinnipiac St., Bldg. 40, Wallingford CT 06492
  
  
 ---------------------------------------------------------------
 Warning -- This program may not be used in any manner that
 competes with the business of Gaussian, Inc. or will provide
 assistance to any competitor of Gaussian, Inc.  The licensee
 of this program is prohibited from giving any competitor of
 Gaussian, Inc. access to this program.  By using this program,
 the user acknowledges that Gaussian, Inc. is engaged in the
 business of creating and licensing software in the field of
 computational chemistry and represents and warrants to the
 licensee that it is not a competitor of Gaussian, Inc. and that
 it will not use this program in any manner prohibited above.
 ---------------------------------------------------------------
  

 Cite this work as:
 Gaussian 09, Revision E.01,
 M. J. Frisch, G. W. Trucks, H. B. Schlegel, G. E. Scuseria, 
 M. A. Robb, J. R. Cheeseman, G. Scalmani, V. Barone, B. Mennucci, 
 G. A. Petersson, H. Nakatsuji, M. Caricato, X. Li, H. P. Hratchian, 
 A. F. Izmaylov, J. Bloino, G. Zheng, J. L. Sonnenberg, M. Hada, 
 M. Ehara, K. Toyota, R. Fukuda, J. Hasegawa, M. Ishida, T. Nakajima, 
 Y. Honda, O. Kitao, H. Nakai, T. Vreven, J. A. Montgomery, Jr., 
 J. E. Peralta, F. Ogliaro, M. Bearpark, J. J. Heyd, E. Brothers, 
 K. N. Kudin, V. N. Staroverov, T. Keith, R. Kobayashi, J. Normand, 
 K. Raghavachari, A. Rendell, J. C. Burant, S. S. Iyengar, J. Tomasi, 
 M. Cossi, N. Rega, J. M. Millam, M. Klene, J. E. Knox, J. B. Cross, 
 V. Bakken, C. Adamo, J. Jaramillo, R. Gomperts, R. E. Stratmann, 
 O. Yazyev, A. J. Austin, R. Cammi, C. Pomelli, J. W. Ochterski, 
 R. L. Martin, K. Morokuma, V. G. Zakrzewski, G. A. Voth, 
 P. Salvador, J. J. Dannenberg, S. Dapprich, A. D. Daniels, 
 O. Farkas, J. B. Foresman, J. V. Ortiz, J. Cioslowski, 
 and D. J. Fox, Gaussian, Inc., Wallingford CT, 2013.
 
 ******************************************
 Gaussian 09:  ES64L-G09RevE.01 30-Nov-2015
                13-Jan-2017 
 ******************************************
 -------------------------------------
 # b3lyp/6-31g(d) irc=(calcfc,forward)
 -------------------------------------
 1/10=4,14=-1,18=10,22=1,26=3,38=1,44=3/1,23;
 2/12=2,17=6,18=5,29=1,40=1/2;
 3/5=1,6=6,7=1,11=2,16=1,25=1,30=1,71=2,74=-5,140=1/1,2,3;
 4//1;
 5/5=2,38=5/2;
 8/6=4,10=90,11=11/1;
 11/6=1,8=1,9=11,15=111,16=1/1,2,10;
 10/6=1,13=1/2;
 6/7=2,8=2,9=2,10=2,28=1/1;
 7/10=1,18=20,25=1/1,2,3,16;
 1/10=4,14=-1,18=10,22=1,26=3,44=3/23(2);
 2/29=1/2;
 99/5=20/99;
 2/29=1/2;
 3/5=1,6=6,7=1,11=2,16=1,25=1,30=1,71=2,74=-5,140=1/1,2,3;
 4/5=5,16=3,69=1/1;
 5/5=2,38=5/2;
 8/6=4,10=90,11=11/1;
 11/6=1,8=1,9=11,15=111,16=1/1,2,10;
 10/6=1,13=1/2;
 7/10=1,18=20,25=1/1,2,3,16;
 1/14=-1,18=10,22=1,26=3,44=3/23(-8);
 2/29=1/2;
 6/7=2,8=2,9=2,10=2,19=2,28=1/1;
 99/5=20,9=1/99;
 ---------------------------------
 glo_1w_alpha_ts_boat5_B3LYP_631Gd
 ---------------------------------
 Symbolic Z-matrix:
 Charge =  0 Multiplicity = 1
 8                    -1.21154  -0.43778  -1.21463 
 6                    -0.44032   0.48316   1.02571 
 6                     1.31098  -0.55559  -0.52871 
 6                     1.01282   0.50367   0.56944 
 6                     0.17231  -1.47223  -0.88971 
 6                    -1.38874   0.57388  -0.17523 
 1                     1.6391    0.30863   1.44938 
 1                    -2.40508   0.37347   0.18997 
 1                    -0.60125   1.37176   1.64318 
 1                     1.71408  -0.02115  -1.38932 
 6                    -1.39031   1.92302  -0.90266 
 1                    -2.20933   1.93984  -1.62958 
 1                    -0.4668    2.06008  -1.46879 
 8                    -1.52359   3.01357   0.00393 
 1                    -2.45258   3.03762   0.28924 
 8                     2.34477  -1.48789  -0.17511 
 1                     1.91338  -2.21487   0.32622 
 8                     1.37749   1.79494   0.05865 
 1                     1.02113   2.48379   0.64287 
 8                    -0.71213  -0.61976   1.89407 
 1                    -1.64605  -0.55562   2.17158 
 1                     0.3812   -1.95634  -1.85418 
 8                    -0.15772  -2.37136   0.04843 
 1                    -1.37089  -2.49493   0.28892 
 8                    -2.43     -2.08711   0.0088 
 1                    -2.70091  -1.58643   0.7884 
 1                    -2.11363  -1.23625  -0.79673 
 8                     3.29045   0.75787  -0.10608 
 1                     2.92068   1.37664   0.53348 
 1                     2.89483  -0.12148   0.07783 
 
 IRC-IRC-IRC-IRC-IRC-IRC-IRC-IRC-IRC-IRC-IRC-IRC-IRC-IRC-IRC-IRC-IRC-IRC
 ------------------------------------------------------------------------
 INPUT DATA FOR L123
 ------------------------------------------------------------------------
 GENERAL PARAMETERS:
 Rxn path following direction = Forward
 Maximum points per path      =  10
 Step size                    =   0.100 bohr
 Integration scheme           = HPC                                 
    Redo corrector integration= Yes                                 
    DWI Weight Power          =  2
    DWI will use Hessian update vectors when possible.
    Max correction cycles     =  20
 Initial Hessian              = CalcFC
 Hessian evaluation           = All updating
 Hessian updating method      = Bofill                              
 ------------------------------------------------------------------------
 IRC-IRC-IRC-IRC-IRC-IRC-IRC-IRC-IRC-IRC-IRC-IRC-IRC-IRC-IRC-IRC-IRC-IRC
                          Input orientation:                          
 ---------------------------------------------------------------------
 Center     Atomic      Atomic             Coordinates (Angstroms)
 Number     Number       Type             X           Y           Z
 ---------------------------------------------------------------------
      1          8           0       -1.211537   -0.437781   -1.214627
      2          6           0       -0.440320    0.483158    1.025715
      3          6           0        1.310981   -0.555587   -0.528714
      4          6           0        1.012818    0.503665    0.569436
      5          6           0        0.172306   -1.472231   -0.889712
      6          6           0       -1.388743    0.573876   -0.175225
      7          1           0        1.639095    0.308625    1.449380
      8          1           0       -2.405083    0.373465    0.189969
      9          1           0       -0.601246    1.371763    1.643179
     10          1           0        1.714084   -0.021151   -1.389324
     11          6           0       -1.390314    1.923020   -0.902661
     12          1           0       -2.209325    1.939838   -1.629579
     13          1           0       -0.466795    2.060077   -1.468793
     14          8           0       -1.523592    3.013572    0.003934
     15          1           0       -2.452580    3.037624    0.289238
     16          8           0        2.344768   -1.487892   -0.175109
     17          1           0        1.913376   -2.214869    0.326220
     18          8           0        1.377494    1.794937    0.058651
     19          1           0        1.021130    2.483792    0.642872
     20          8           0       -0.712132   -0.619756    1.894066
     21          1           0       -1.646049   -0.555616    2.171582
     22          1           0        0.381196   -1.956335   -1.854179
     23          8           0       -0.157723   -2.371360    0.048428
     24          1           0       -1.370893   -2.494927    0.288921
     25          8           0       -2.430005   -2.087112    0.008800
     26          1           0       -2.700913   -1.586425    0.788395
     27          1           0       -2.113631   -1.236251   -0.796732
     28          8           0        3.290447    0.757870   -0.106082
     29          1           0        2.920678    1.376638    0.533484
     30          1           0        2.894828   -0.121481    0.077827
 ---------------------------------------------------------------------
                    Distance matrix (angstroms):
                    1          2          3          4          5
     1  O    0.000000
     2  C    2.542054   0.000000
     3  C    2.616764   2.561698   0.000000
     4  C    3.002825   1.523227   1.554622   0.000000
     5  C    1.758032   2.804945   1.505701   2.596101   0.000000
     6  C    1.461235   1.532969   2.947737   2.515342   2.670940
     7  H    3.972425   2.129300   2.183432   1.097527   3.285463
     8  H    2.013843   2.137942   3.897278   3.441365   3.348916
     9  H    3.437144   1.093973   3.476839   2.124081   3.886158
    10  H    2.960297   3.275393   1.090304   2.145681   2.175391
    11  C    2.388025   2.587339   3.685149   3.155421   3.737603
    12  H    2.611673   3.507404   4.453269   4.156978   4.226320
    13  H    2.618881   2.951262   3.299384   2.960752   3.636067
    14  O    3.673433   2.936070   4.588836   3.612866   4.878227
    15  H    3.985002   3.334199   5.267315   4.302144   5.349649
    16  O    3.851056   3.617144   1.436295   2.508932   2.287027
    17  H    3.911180   3.648085   1.961379   2.874123   2.249739
    18  O    3.648198   2.441398   2.423713   1.435714   3.609191
    19  H    4.119550   2.506979   3.270237   1.981506   4.326596
    20  O    3.153806   1.429802   3.157050   2.447891   3.042756
    21  H    3.416006   1.961083   4.004451   3.280019   3.676699
    22  H    2.291687   3.862616   2.140900   3.510620   1.099176
    23  O    2.538614   3.030383   2.405663   3.147600   1.340693
    24  H    2.553018   3.205904   3.409108   3.840875   2.194663
    25  O    2.387830   3.405767   4.077924   4.345051   2.820891
    26  H    2.747676   3.074049   4.346573   4.267109   3.329335
    27  H    1.275133   3.012914   3.501872   3.829936   2.299965
    28  O    4.788143   3.908331   2.412897   2.389255   3.912829
    29  H    4.839753   3.512393   2.729997   2.098405   4.206553
    30  H    4.316563   3.519559   1.750689   2.043147   3.189480
                    6          7          8          9         10
     6  C    0.000000
     7  H    3.446375   0.000000
     8  H    1.098398   4.236236   0.000000
     9  H    2.136204   2.487358   2.522349   0.000000
    10  H    3.384617   2.858779   4.429156   4.061654   0.000000
    11  C    1.532761   4.161212   2.150516   2.721730   3.695122
    12  H    2.157395   5.191453   2.408859   3.690470   4.392760
    13  H    2.175339   4.002261   3.058286   3.190019   3.015636
    14  O    2.449979   4.405524   2.789588   2.496674   4.651157
    15  H    2.723514   5.053234   2.666431   2.834729   5.434590
    16  O    4.264973   2.522779   5.114589   4.490300   2.005844
    17  H    4.351153   2.775741   5.036579   4.574017   2.791990
    18  O    3.032780   2.052239   4.042984   2.570062   2.346934
    19  H    3.181910   2.400768   4.049387   2.206655   3.299204
    20  O    2.482846   2.566692   2.599330   2.010320   4.126197
    21  H    2.617148   3.472846   2.316487   2.255130   4.925058
    22  H    3.514760   4.198316   4.167716   4.926758   2.395332
    23  O    3.199976   3.517604   3.550313   4.092788   3.330807
    24  H    3.103756   4.273944   3.050740   4.168652   4.295714
    25  O    2.863381   4.936841   2.467363   4.240209   4.836985
    26  H    2.705042   4.781609   2.070458   3.726947   5.165728
    27  H    2.046532   4.638385   1.910421   3.878429   4.059438
    28  O    4.683317   2.312628   5.716159   4.310691   2.176811
    29  H    4.440473   1.903148   5.430294   3.692614   2.665872
    30  H    4.347015   1.908668   5.324153   4.111282   1.885936
                   11         12         13         14         15
    11  C    0.000000
    12  H    1.095204   0.000000
    13  H    1.091869   1.754058   0.000000
    14  O    1.424423   2.071593   2.048145   0.000000
    15  H    1.947145   2.223998   2.826590   0.972109   0.000000
    16  O    5.110234   5.882566   4.708141   5.937966   6.611389
    17  H    5.435682   6.171175   5.211761   6.265238   6.830199
    18  O    2.932795   3.966912   2.409312   3.147120   4.033226
    19  H    2.918595   3.986949   2.617744   2.676662   3.535314
    20  O    3.840224   4.605343   4.307031   4.175181   4.356726
    21  H    3.957273   4.581855   4.635172   4.177654   4.135829
    22  H    4.369557   4.684166   4.123006   5.637444   6.128960
    23  O    4.567882   5.060752   4.694158   5.555634   5.880601
    24  H    4.575861   4.904157   4.965381   5.517979   5.637301
    25  O    4.241801   4.353081   4.820441   5.180597   5.132453
    26  H    4.110176   4.303811   4.835613   4.812633   4.657538
    27  H    3.242746   3.284864   3.745599   4.364654   4.422694
    28  O    4.888930   5.828000   4.203521   5.317449   6.191600
    29  H    4.576647   5.595799   3.993892   4.765660   5.629426
    30  H    4.848070   5.763389   4.295549   5.418160   6.214452
                   16         17         18         19         20
    16  O    0.000000
    17  H    0.982815   0.000000
    18  O    3.430339   4.054295   0.000000
    19  H    4.265605   4.793098   0.970995   0.000000
    20  O    3.792068   3.449032   3.683209   3.768513   0.000000
    21  H    4.722575   4.339123   4.373944   4.323054   0.976386
    22  H    2.625706   2.677416   4.327074   5.134151   4.126881
    23  O    2.663258   2.095497   4.440161   5.031457   2.604202
    24  H    3.877574   3.296399   5.099960   5.534862   2.554745
    25  O    4.815739   4.356838   5.437816   5.762425   2.942524
    26  H    5.137796   4.679766   5.347854   5.517377   2.472288
    27  H    4.508554   4.293658   4.701886   5.073254   3.095910
    28  O    2.437729   3.304601   2.182209   2.947802   4.681782
    29  H    3.006544   3.735845   1.667890   2.201372   4.362807
    30  H    1.494531   2.325343   2.444448   3.258446   4.069049
                   21         22         23         24         25
    21  H    0.000000
    22  H    4.720009   0.000000
    23  O    3.165410   2.020543   0.000000
    24  H    2.716809   2.820066   1.242935   0.000000
    25  O    2.763638   3.375003   2.290335   1.168974   0.000000
    26  H    2.022007   4.076693   2.762515   1.686358   0.965322
    27  H    3.081036   2.803726   2.414196   1.820595   1.213647
    28  O    5.593031   4.345859   4.658952   5.697790   6.389890
    29  H    5.222257   4.822718   4.874353   5.785016   6.395519
    30  H    5.019148   3.663015   3.792214   4.886121   5.676470
                   26         27         28         29         30
    26  H    0.000000
    27  H    1.726311   0.000000
    28  O    6.495553   5.801515   0.000000
    29  H    6.359796   5.825885   0.963664   0.000000
    30  H    5.827803   5.205019   0.981629   1.566095   0.000000
 Symmetry turned off by external request.
 Stoichiometry    C6H16O8
 Framework group  C1[X(C6H16O8)]
 Deg. of freedom    84
 Full point group                 C1      NOp   1
 Rotational constants (GHZ):      0.7382876      0.6812544      0.4434771
 Standard basis: 6-31G(d) (6D, 7F)
   242 basis functions,   456 primitive gaussians,   242 cartesian basis functions
    58 alpha electrons       58 beta electrons
       nuclear repulsion energy      1166.8301552898 Hartrees.
 NAtoms=   30 NActive=   30 NUniq=   30 SFac= 1.00D+00 NAtFMM=   60 NAOKFM=F Big=F
 Integral buffers will be    131072 words long.
 Raffenetti 2 integral format.
 Two-electron integral symmetry is turned off.
 One-electron integrals computed using PRISM.
 NBasis=   242 RedAO= T EigKep=  1.22D-03  NBF=   242
 NBsUse=   242 1.00D-06 EigRej= -1.00D+00 NBFU=   242
 ExpMin= 1.61D-01 ExpMax= 5.48D+03 ExpMxC= 8.25D+02 IAcc=1 IRadAn=         1 AccDes= 0.00D+00
 Harris functional with IExCor=  402 and IRadAn=       1 diagonalized for initial guess.
 HarFok:  IExCor=  402 AccDes= 0.00D+00 IRadAn=         1 IDoV= 1 UseB2=F ITyADJ=14
 ICtDFT=  3500011 ScaDFX=  1.000000  1.000000  1.000000  1.000000
 FoFCou: FMM=F IPFlag=           0 FMFlag=      100000 FMFlg1=           0
         NFxFlg=           0 DoJE=T BraDBF=F KetDBF=T FulRan=T
         wScrn=  0.000000 ICntrl=     500 IOpCl=  0 I1Cent=   200000004 NGrid=           0
         NMat0=    1 NMatS0=      1 NMatT0=    0 NMatD0=    1 NMtDS0=    0 NMtDT0=    0
 Symmetry not used in FoFCou.
 Requested convergence on RMS density matrix=1.00D-08 within 128 cycles.
 Requested convergence on MAX density matrix=1.00D-06.
 Requested convergence on             energy=1.00D-06.
 No special actions if energy rises.
 Integral accuracy reduced to 1.0D-05 until final iterations.
 Initial convergence to 1.0D-05 achieved.  Increase integral accuracy.
 SCF Done:  E(RB3LYP) =  -839.823423347     A.U. after   15 cycles
            NFock= 15  Conv=0.30D-08     -V/T= 2.0079
 DoSCS=F DFT=T ScalE2(SS,OS)=  1.000000  1.000000
 Range of M.O.s used for correlation:     1   242
 NBasis=   242 NAE=    58 NBE=    58 NFC=     0 NFV=     0
 NROrb=    242 NOA=    58 NOB=    58 NVA=   184 NVB=   184
 Symmetrizing basis deriv contribution to polar:
 IMax=3 JMax=2 DiffMx= 0.00D+00
 G2DrvN: will do    31 centers at a time, making    1 passes.
 Calling FoFCou, ICntrl=  3107 FMM=F I1Cent=   0 AccDes= 0.00D+00.
 End of G2Drv F.D. properties file   721 does not exist.
 End of G2Drv F.D. properties file   722 does not exist.
 End of G2Drv F.D. properties file   788 does not exist.
          IDoAtm=111111111111111111111111111111
          Differentiating once with respect to nuclear coordinates.
          There are    93 degrees of freedom in the 1st order CPHF.  IDoFFX=6 NUNeed=     0.
     87 vectors produced by pass  0 Test12= 1.15D-14 1.08D-09 XBig12= 1.09D-01 6.99D-02.
 AX will form    87 AO Fock derivatives at one time.
     87 vectors produced by pass  1 Test12= 1.15D-14 1.08D-09 XBig12= 8.71D-03 1.13D-02.
     87 vectors produced by pass  2 Test12= 1.15D-14 1.08D-09 XBig12= 9.19D-05 1.27D-03.
     87 vectors produced by pass  3 Test12= 1.15D-14 1.08D-09 XBig12= 2.63D-07 5.87D-05.
     87 vectors produced by pass  4 Test12= 1.15D-14 1.08D-09 XBig12= 3.45D-10 2.07D-06.
     75 vectors produced by pass  5 Test12= 1.15D-14 1.08D-09 XBig12= 2.71D-13 5.16D-08.
      3 vectors produced by pass  6 Test12= 1.15D-14 1.08D-09 XBig12= 3.37D-16 1.39D-09.
 InvSVY:  IOpt=1 It=  1 EMax= 5.55D-16
 Solved reduced A of dimension   513 with    93 vectors.
 End of Minotr F.D. properties file   721 does not exist.
 End of Minotr F.D. properties file   722 does not exist.
 End of Minotr F.D. properties file   788 does not exist.

 **********************************************************************

            Population analysis using the SCF density.

 **********************************************************************

 Alpha  occ. eigenvalues --  -19.19444 -19.17918 -19.17618 -19.17511 -19.16625
 Alpha  occ. eigenvalues --  -19.16601 -19.11290 -19.05934 -10.29827 -10.27105
 Alpha  occ. eigenvalues --  -10.26586 -10.26005 -10.25092 -10.24781  -1.07648
 Alpha  occ. eigenvalues --   -1.05727  -1.04906  -1.04523  -1.03868  -1.01458
 Alpha  occ. eigenvalues --   -0.98109  -0.93765  -0.80021  -0.76733  -0.71051
 Alpha  occ. eigenvalues --   -0.66623  -0.64004  -0.59465  -0.56322  -0.56088
 Alpha  occ. eigenvalues --   -0.54548  -0.53882  -0.52207  -0.50718  -0.50509
 Alpha  occ. eigenvalues --   -0.48780  -0.47038  -0.46617  -0.45282  -0.44472
 Alpha  occ. eigenvalues --   -0.42448  -0.42077  -0.41025  -0.38931  -0.38087
 Alpha  occ. eigenvalues --   -0.37108  -0.36430  -0.35868  -0.34583  -0.32054
 Alpha  occ. eigenvalues --   -0.31252  -0.30416  -0.29235  -0.29148  -0.28468
 Alpha  occ. eigenvalues --   -0.27270  -0.24428  -0.21709
 Alpha virt. eigenvalues --   -0.00090   0.01146   0.03341   0.06182   0.07532
 Alpha virt. eigenvalues --    0.09955   0.10749   0.11376   0.12551   0.14296
 Alpha virt. eigenvalues --    0.15381   0.15746   0.17071   0.17357   0.18944
 Alpha virt. eigenvalues --    0.19406   0.20298   0.20628   0.21289   0.21940
 Alpha virt. eigenvalues --    0.22722   0.25150   0.26314   0.28528   0.29688
 Alpha virt. eigenvalues --    0.31686   0.33810   0.34665   0.50943   0.51731
 Alpha virt. eigenvalues --    0.53050   0.54329   0.56386   0.56539   0.59394
 Alpha virt. eigenvalues --    0.59902   0.60649   0.63082   0.64020   0.65612
 Alpha virt. eigenvalues --    0.65834   0.67473   0.69012   0.71260   0.72646
 Alpha virt. eigenvalues --    0.73488   0.75044   0.78376   0.78864   0.80613
 Alpha virt. eigenvalues --    0.81240   0.82276   0.82777   0.83134   0.84472
 Alpha virt. eigenvalues --    0.84985   0.85891   0.86971   0.88107   0.88370
 Alpha virt. eigenvalues --    0.89535   0.91439   0.93374   0.94181   0.94446
 Alpha virt. eigenvalues --    0.97206   0.98595   0.99759   1.00733   1.02982
 Alpha virt. eigenvalues --    1.03692   1.05498   1.07692   1.08268   1.10223
 Alpha virt. eigenvalues --    1.12805   1.14091   1.14379   1.16111   1.17388
 Alpha virt. eigenvalues --    1.19642   1.20534   1.21877   1.25011   1.29008
 Alpha virt. eigenvalues --    1.29384   1.30814   1.32272   1.34942   1.36987
 Alpha virt. eigenvalues --    1.39336   1.39996   1.42398   1.46197   1.48491
 Alpha virt. eigenvalues --    1.50176   1.52066   1.54821   1.57035   1.57281
 Alpha virt. eigenvalues --    1.61754   1.61949   1.64050   1.65886   1.67309
 Alpha virt. eigenvalues --    1.68752   1.70935   1.72882   1.74509   1.74991
 Alpha virt. eigenvalues --    1.77011   1.78798   1.79477   1.81786   1.82153
 Alpha virt. eigenvalues --    1.82897   1.86177   1.86952   1.87475   1.90826
 Alpha virt. eigenvalues --    1.91650   1.93077   1.94267   1.96162   1.97886
 Alpha virt. eigenvalues --    1.99548   2.00960   2.03699   2.05324   2.07807
 Alpha virt. eigenvalues --    2.09381   2.11923   2.13936   2.16283   2.17521
 Alpha virt. eigenvalues --    2.20074   2.22423   2.23619   2.26460   2.29598
 Alpha virt. eigenvalues --    2.30501   2.33600   2.37141   2.38265   2.42333
 Alpha virt. eigenvalues --    2.43240   2.43740   2.46595   2.48231   2.50184
 Alpha virt. eigenvalues --    2.50360   2.51911   2.54500   2.57009   2.57954
 Alpha virt. eigenvalues --    2.61687   2.66318   2.67538   2.72410   2.74863
 Alpha virt. eigenvalues --    2.79049   2.80630   2.83456   2.85896   2.88283
 Alpha virt. eigenvalues --    2.91403   2.96533   2.98485   3.01503   3.11626
 Alpha virt. eigenvalues --    3.73548   3.74955   3.79328   3.83290   3.97483
 Alpha virt. eigenvalues --    4.01582   4.08967   4.18252   4.27456   4.31042
 Alpha virt. eigenvalues --    4.51552   4.61979   4.72353   4.99823
          Condensed to atoms (all electrons):
               1          2          3          4          5          6
     1  O    8.539550  -0.025473  -0.005622  -0.006562   0.092381   0.116449
     2  C   -0.025473   5.075990  -0.033417   0.252725  -0.002145   0.271308
     3  C   -0.005622  -0.033417   5.186268   0.257767   0.255028  -0.027032
     4  C   -0.006562   0.252725   0.257767   5.146186  -0.025106  -0.018343
     5  C    0.092381  -0.002145   0.255028  -0.025106   4.814825  -0.008244
     6  C    0.116449   0.271308  -0.027032  -0.018343  -0.008244   5.170995
     7  H   -0.000032  -0.039068  -0.060639   0.362090  -0.000261   0.005890
     8  H   -0.050915  -0.061563   0.000703   0.005937   0.001615   0.343619
     9  H    0.002934   0.358873   0.005435  -0.043234   0.000343  -0.055980
    10  H    0.000604   0.000862   0.370665  -0.059513  -0.022209   0.000841
    11  C   -0.031302  -0.038105  -0.000401  -0.004302   0.000616   0.306277
    12  H    0.004677   0.005696  -0.000060  -0.000434  -0.000074  -0.043709
    13  H    0.003340  -0.008378  -0.000306   0.001176   0.000112  -0.039965
    14  O    0.001490  -0.005368   0.000021  -0.001439  -0.000010  -0.047560
    15  H   -0.000018  -0.001200   0.000003   0.000128  -0.000001  -0.002460
    16  O    0.000681   0.001526   0.207649  -0.046836  -0.029272   0.000098
    17  H    0.000438   0.000379  -0.029583  -0.001233  -0.015086   0.000080
    18  O   -0.000147  -0.028671  -0.037812   0.165961   0.000935  -0.004797
    19  H    0.000026  -0.001386   0.006610  -0.020461   0.000022  -0.002030
    20  O    0.001166   0.188590   0.002766  -0.039246   0.002677  -0.033595
    21  H   -0.000336  -0.018522  -0.000516   0.006737  -0.000028  -0.004073
    22  H   -0.023938   0.000050  -0.077117   0.006368   0.370339   0.002388
    23  O   -0.040040   0.010030  -0.048579  -0.001502   0.283217  -0.001460
    24  H    0.005683   0.000417   0.002881  -0.000374  -0.023023  -0.001128
    25  O   -0.096530  -0.008853  -0.000952   0.000234   0.011171   0.016613
    26  H    0.005131  -0.001567   0.000124  -0.000053   0.000678  -0.000148
    27  H    0.121423   0.006048   0.002077  -0.000190  -0.011382  -0.016255
    28  O   -0.000000   0.003925   0.016542   0.021689   0.003652  -0.000067
    29  H    0.000000   0.001747  -0.008014   0.003142  -0.000723  -0.000037
    30  H   -0.000023  -0.000080  -0.052413   0.007582  -0.001449  -0.000058
               7          8          9         10         11         12
     1  O   -0.000032  -0.050915   0.002934   0.000604  -0.031302   0.004677
     2  C   -0.039068  -0.061563   0.358873   0.000862  -0.038105   0.005696
     3  C   -0.060639   0.000703   0.005435   0.370665  -0.000401  -0.000060
     4  C    0.362090   0.005937  -0.043234  -0.059513  -0.004302  -0.000434
     5  C   -0.000261   0.001615   0.000343  -0.022209   0.000616  -0.000074
     6  C    0.005890   0.343619  -0.055980   0.000841   0.306277  -0.043709
     7  H    0.607399  -0.000233  -0.006888   0.004364   0.000175   0.000013
     8  H   -0.000233   0.715346  -0.001504   0.000006  -0.042297  -0.009636
     9  H   -0.006888  -0.001504   0.632761  -0.000264  -0.004454   0.000252
    10  H    0.004364   0.000006  -0.000264   0.512264   0.000062   0.000003
    11  C    0.000175  -0.042297  -0.004454   0.000062   4.940311   0.356322
    12  H    0.000013  -0.009636   0.000252   0.000003   0.356322   0.617535
    13  H    0.000135   0.005730   0.000010   0.001122   0.376664  -0.034362
    14  O   -0.000026   0.003540   0.017099  -0.000001   0.226372  -0.030805
    15  H   -0.000000   0.003756   0.000361   0.000000  -0.027961  -0.009220
    16  O    0.002661   0.000005  -0.000071  -0.038277   0.000005  -0.000000
    17  H    0.000636   0.000002  -0.000004   0.005839   0.000001  -0.000000
    18  O   -0.045844  -0.000035  -0.002485   0.004276   0.000304   0.000551
    19  H   -0.002870  -0.000045   0.008919  -0.000180  -0.000592   0.000112
    20  O    0.005180  -0.004948  -0.038454  -0.000019   0.002947  -0.000042
    21  H   -0.000291   0.007272  -0.006580   0.000009  -0.000014  -0.000007
    22  H   -0.000175  -0.000153   0.000006  -0.002048  -0.000029   0.000002
    23  O    0.000234  -0.000186   0.000030   0.003048   0.000001   0.000003
    24  H    0.000005  -0.001046   0.000073  -0.000070  -0.000048   0.000001
    25  O   -0.000001   0.010852  -0.000040   0.000007   0.000562   0.000002
    26  H   -0.000010   0.002080   0.000182  -0.000002   0.000276  -0.000025
    27  H    0.000009  -0.011305  -0.000184  -0.000030  -0.000094   0.000259
    28  O   -0.000313   0.000001  -0.000033   0.006696   0.000016   0.000000
    29  H   -0.001243   0.000001  -0.000004  -0.000092   0.000004  -0.000001
    30  H    0.008673  -0.000000  -0.000003  -0.013391  -0.000009  -0.000000
              13         14         15         16         17         18
     1  O    0.003340   0.001490  -0.000018   0.000681   0.000438  -0.000147
     2  C   -0.008378  -0.005368  -0.001200   0.001526   0.000379  -0.028671
     3  C   -0.000306   0.000021   0.000003   0.207649  -0.029583  -0.037812
     4  C    0.001176  -0.001439   0.000128  -0.046836  -0.001233   0.165961
     5  C    0.000112  -0.000010  -0.000001  -0.029272  -0.015086   0.000935
     6  C   -0.039965  -0.047560  -0.002460   0.000098   0.000080  -0.004797
     7  H    0.000135  -0.000026  -0.000000   0.002661   0.000636  -0.045844
     8  H    0.005730   0.003540   0.003756   0.000005   0.000002  -0.000035
     9  H    0.000010   0.017099   0.000361  -0.000071  -0.000004  -0.002485
    10  H    0.001122  -0.000001   0.000000  -0.038277   0.005839   0.004276
    11  C    0.376664   0.226372  -0.027961   0.000005   0.000001   0.000304
    12  H   -0.034362  -0.030805  -0.009220  -0.000000  -0.000000   0.000551
    13  H    0.508109  -0.030698   0.006464   0.000006   0.000001   0.012706
    14  O   -0.030698   8.243955   0.234129   0.000000  -0.000000  -0.001287
    15  H    0.006464   0.234129   0.401966  -0.000000   0.000000   0.000043
    16  O    0.000006   0.000000  -0.000000   8.340511   0.224621   0.001620
    17  H    0.000001  -0.000000   0.000000   0.224621   0.346369  -0.000058
    18  O    0.012706  -0.001287   0.000043   0.001620  -0.000058   8.390021
    19  H   -0.002456   0.006377  -0.000149  -0.000117   0.000007   0.217005
    20  O   -0.000024   0.000051  -0.000025  -0.000010   0.000327   0.001122
    21  H    0.000013   0.000041  -0.000007   0.000007   0.000015  -0.000095
    22  H   -0.000059   0.000000  -0.000000   0.001982   0.001851  -0.000077
    23  O    0.000005   0.000000  -0.000000  -0.017686   0.040483   0.000014
    24  H    0.000000  -0.000000   0.000000   0.000016  -0.000034   0.000001
    25  O    0.000000   0.000001  -0.000001  -0.000002   0.000093   0.000000
    26  H    0.000000  -0.000005  -0.000001   0.000002  -0.000017  -0.000001
    27  H   -0.000100  -0.000009  -0.000001  -0.000028  -0.000051  -0.000006
    28  O   -0.000001  -0.000000   0.000000  -0.056493   0.001362  -0.100876
    29  H    0.000017   0.000001  -0.000000   0.003230  -0.000095   0.028979
    30  H    0.000015   0.000000  -0.000000   0.053396  -0.001049   0.006086
              19         20         21         22         23         24
     1  O    0.000026   0.001166  -0.000336  -0.023938  -0.040040   0.005683
     2  C   -0.001386   0.188590  -0.018522   0.000050   0.010030   0.000417
     3  C    0.006610   0.002766  -0.000516  -0.077117  -0.048579   0.002881
     4  C   -0.020461  -0.039246   0.006737   0.006368  -0.001502  -0.000374
     5  C    0.000022   0.002677  -0.000028   0.370339   0.283217  -0.023023
     6  C   -0.002030  -0.033595  -0.004073   0.002388  -0.001460  -0.001128
     7  H   -0.002870   0.005180  -0.000291  -0.000175   0.000234   0.000005
     8  H   -0.000045  -0.004948   0.007272  -0.000153  -0.000186  -0.001046
     9  H    0.008919  -0.038454  -0.006580   0.000006   0.000030   0.000073
    10  H   -0.000180  -0.000019   0.000009  -0.002048   0.003048  -0.000070
    11  C   -0.000592   0.002947  -0.000014  -0.000029   0.000001  -0.000048
    12  H    0.000112  -0.000042  -0.000007   0.000002   0.000003   0.000001
    13  H   -0.002456  -0.000024   0.000013  -0.000059   0.000005   0.000000
    14  O    0.006377   0.000051   0.000041   0.000000   0.000000  -0.000000
    15  H   -0.000149  -0.000025  -0.000007  -0.000000  -0.000000   0.000000
    16  O   -0.000117  -0.000010   0.000007   0.001982  -0.017686   0.000016
    17  H    0.000007   0.000327   0.000015   0.001851   0.040483  -0.000034
    18  O    0.217005   0.001122  -0.000095  -0.000077   0.000014   0.000001
    19  H    0.385291   0.000053  -0.000019   0.000007  -0.000000  -0.000000
    20  O    0.000053   8.311796   0.215556  -0.000040  -0.016957   0.005190
    21  H   -0.000019   0.215556   0.415636   0.000016   0.001469  -0.001112
    22  H    0.000007  -0.000040   0.000016   0.620928  -0.053310   0.000872
    23  O   -0.000000  -0.016957   0.001469  -0.053310   8.473040   0.131694
    24  H   -0.000000   0.005190  -0.001112   0.000872   0.131694   0.278046
    25  O    0.000000  -0.003275   0.002678  -0.000184  -0.120497   0.136860
    26  H   -0.000000   0.012927   0.004887  -0.000064   0.006004  -0.006945
    27  H   -0.000001  -0.001031  -0.000587   0.000097   0.012644  -0.009341
    28  O    0.005324   0.000002   0.000000  -0.000045  -0.000019   0.000000
    29  H   -0.001403  -0.000038   0.000002   0.000006   0.000011  -0.000000
    30  H   -0.001108  -0.000084   0.000002  -0.000318   0.000003   0.000002
              25         26         27         28         29         30
     1  O   -0.096530   0.005131   0.121423  -0.000000   0.000000  -0.000023
     2  C   -0.008853  -0.001567   0.006048   0.003925   0.001747  -0.000080
     3  C   -0.000952   0.000124   0.002077   0.016542  -0.008014  -0.052413
     4  C    0.000234  -0.000053  -0.000190   0.021689   0.003142   0.007582
     5  C    0.011171   0.000678  -0.011382   0.003652  -0.000723  -0.001449
     6  C    0.016613  -0.000148  -0.016255  -0.000067  -0.000037  -0.000058
     7  H   -0.000001  -0.000010   0.000009  -0.000313  -0.001243   0.008673
     8  H    0.010852   0.002080  -0.011305   0.000001   0.000001  -0.000000
     9  H   -0.000040   0.000182  -0.000184  -0.000033  -0.000004  -0.000003
    10  H    0.000007  -0.000002  -0.000030   0.006696  -0.000092  -0.013391
    11  C    0.000562   0.000276  -0.000094   0.000016   0.000004  -0.000009
    12  H    0.000002  -0.000025   0.000259   0.000000  -0.000001  -0.000000
    13  H    0.000000   0.000000  -0.000100  -0.000001   0.000017   0.000015
    14  O    0.000001  -0.000005  -0.000009  -0.000000   0.000001   0.000000
    15  H   -0.000001  -0.000001  -0.000001   0.000000  -0.000000  -0.000000
    16  O   -0.000002   0.000002  -0.000028  -0.056493   0.003230   0.053396
    17  H    0.000093  -0.000017  -0.000051   0.001362  -0.000095  -0.001049
    18  O    0.000000  -0.000001  -0.000006  -0.100876   0.028979   0.006086
    19  H    0.000000  -0.000000  -0.000001   0.005324  -0.001403  -0.001108
    20  O   -0.003275   0.012927  -0.001031   0.000002  -0.000038  -0.000084
    21  H    0.002678   0.004887  -0.000587   0.000000   0.000002   0.000002
    22  H   -0.000184  -0.000064   0.000097  -0.000045   0.000006  -0.000318
    23  O   -0.120497   0.006004   0.012644  -0.000019   0.000011   0.000003
    24  H    0.136860  -0.006945  -0.009341   0.000000  -0.000000   0.000002
    25  O    8.504895   0.213779   0.134207  -0.000000   0.000000   0.000000
    26  H    0.213779   0.389602  -0.013370   0.000000   0.000000  -0.000000
    27  H    0.134207  -0.013370   0.318236   0.000000  -0.000000   0.000001
    28  O   -0.000000   0.000000   0.000000   8.477452   0.220047   0.205124
    29  H    0.000000   0.000000  -0.000000   0.220047   0.386934  -0.015258
    30  H    0.000000  -0.000000   0.000001   0.205124  -0.015258   0.362039
 Mulliken charges:
               1
     1  O   -0.615036
     2  C    0.095628
     3  C    0.067925
     4  C    0.031104
     5  C    0.301404
     6  C    0.072386
     7  H    0.160431
     8  H    0.083399
     9  H    0.132903
    10  H    0.225427
    11  C   -0.061307
    12  H    0.142947
    13  H    0.200722
    14  O   -0.615870
    15  H    0.394193
    16  O   -0.649223
    17  H    0.424706
    18  O   -0.607432
    19  H    0.403064
    20  O   -0.612562
    21  H    0.377845
    22  H    0.152647
    23  O   -0.661690
    24  H    0.481379
    25  O   -0.801618
    26  H    0.386536
    27  H    0.468965
    28  O   -0.803984
    29  H    0.382789
    30  H    0.442322
 Sum of Mulliken charges =  -0.00000
 Mulliken charges with hydrogens summed into heavy atoms:
               1
     1  O   -0.615036
     2  C    0.228532
     3  C    0.293352
     4  C    0.191535
     5  C    0.454051
     6  C    0.155786
    11  C    0.282362
    14  O   -0.221677
    16  O   -0.224517
    18  O   -0.204368
    20  O   -0.234717
    23  O   -0.661690
    25  O    0.535262
    28  O    0.021127
 APT charges:
               1
     1  O   -0.477958
     2  C   -0.327119
     3  C   -0.117873
     4  C   -0.313046
     5  C   -0.391464
     6  C   -0.264843
     7  H    0.437106
     8  H    0.372458
     9  H    0.422643
    10  H    0.483893
    11  C   -0.688181
    12  H    0.543998
    13  H    0.317722
    14  O   -0.873729
    15  H    0.772238
    16  O   -0.673420
    17  H    0.563334
    18  O   -0.670935
    19  H    0.669742
    20  O   -0.813911
    21  H    0.677761
    22  H    0.561728
    23  O   -0.441626
    24  H    0.429681
    25  O   -0.789944
    26  H    0.451060
    27  H    0.377445
    28  O   -0.590616
    29  H    0.302114
    30  H    0.051742
 Sum of APT charges =  -0.00000
 APT charges with hydrogens summed into heavy atoms:
               1
     1  O   -0.477958
     2  C    0.095523
     3  C    0.366019
     4  C    0.124059
     5  C    0.170264
     6  C    0.107615
    11  C    0.173539
    14  O   -0.101491
    16  O   -0.110086
    18  O   -0.001192
    20  O   -0.136150
    23  O   -0.441626
    25  O    0.468242
    28  O   -0.236761
 Electronic spatial extent (au):  <R**2>=           2714.5498
 Charge=             -0.0000 electrons
 Dipole moment (field-independent basis, Debye):
    X=             -7.0287    Y=              1.9461    Z=              2.9247  Tot=              7.8578
 Quadrupole moment (field-independent basis, Debye-Ang):
   XX=            -91.3206   YY=            -88.6425   ZZ=            -79.9897
   XY=             -8.2231   XZ=             -1.4666   YZ=              3.4286
 Traceless Quadrupole moment (field-independent basis, Debye-Ang):
   XX=             -4.6696   YY=             -1.9916   ZZ=              6.6612
   XY=             -8.2231   XZ=             -1.4666   YZ=              3.4286
 Octapole moment (field-independent basis, Debye-Ang**2):
  XXX=           -105.3665  YYY=              5.1851  ZZZ=              5.2169  XYY=              6.1023
  XXY=             11.5293  XXZ=             33.5436  XZZ=             -5.3779  YZZ=              0.8237
  YYZ=             12.5327  XYZ=              9.5528
 Hexadecapole moment (field-independent basis, Debye-Ang**3):
 XXXX=          -1672.6305 YYYY=          -1349.1397 ZZZZ=           -419.6227 XXXY=           -107.0209
 XXXZ=             -4.5231 YYYX=            -28.2123 YYYZ=             14.4847 ZZZX=            -27.4286
 ZZZY=              3.5731 XXYY=           -428.8125 XXZZ=           -276.4063 YYZZ=           -262.2383
 XXYZ=             -4.4776 YYXZ=              2.5053 ZZXY=             11.1254
 N-N= 1.166830155290D+03 E-N=-4.305635047186D+03  KE= 8.332502001059D+02
  Exact polarizability:   0.000   0.000   0.000   0.000   0.000   0.000
 Approx polarizability: 146.556  -2.473 146.988  -7.878  -6.145 127.387
 Calling FoFJK, ICntrl=    100147 FMM=F ISym2X=0 I1Cent= 0 IOpClX= 0 NMat=1 NMatS=1 NMatT=0.
 -------------------------------------------------------------------
 Center     Atomic                   Forces (Hartrees/Bohr)
 Number     Number              X              Y              Z
 -------------------------------------------------------------------
      1        8           0.016695119   -0.010431995    0.010015952
      2        6          -0.009478214    0.010925245    0.002931763
      3        6          -0.016955631   -0.006547675   -0.007623044
      4        6          -0.008350469   -0.007026329    0.012308180
      5        6          -0.024873096   -0.030008689    0.013552772
      6        6          -0.007611991   -0.001075943   -0.012201649
      7        1          -0.005168530   -0.007703230    0.002031046
      8        1          -0.002694824    0.008253594    0.005636408
      9        1          -0.001308486    0.008390961   -0.005505596
     10        1          -0.009155359   -0.000141091   -0.002432593
     11        6          -0.003059418    0.004172948   -0.001961937
     12        1          -0.001836089   -0.003486656   -0.001571638
     13        1           0.000786355    0.000127576    0.004810250
     14        8           0.000106279    0.002012829    0.001512086
     15        1           0.002704550    0.001645004   -0.000078361
     16        8          -0.009602365   -0.018739265    0.001456261
     17        1          -0.000678368    0.006338739    0.000556609
     18        8          -0.046735211    0.018043569    0.005033056
     19        1          -0.009566457    0.000650319    0.000448223
     20        8          -0.001700746   -0.000283535    0.001322857
     21        1           0.008503213    0.004864961    0.002629711
     22        1          -0.012613729    0.010983858   -0.008420380
     23        8           0.024416016    0.008610830   -0.013100618
     24        1           0.010683877    0.016900794   -0.024663903
     25        8          -0.030025180   -0.000698397   -0.003608854
     26        1          -0.006087442   -0.003148695    0.002065445
     27        1           0.018089486   -0.019877893    0.011719299
     28        8           0.065981368   -0.010742250   -0.000583263
     29        1           0.013734290   -0.001620364   -0.008729787
     30        1           0.045801051    0.019610782    0.012451703
 -------------------------------------------------------------------
 Cartesian Forces:  Max     0.065981368 RMS     0.014289029
 IRC-IRC-IRC-IRC-IRC-IRC-IRC-IRC-IRC-IRC-IRC-IRC-IRC-IRC-IRC-IRC-IRC-IRC
          ******** Start new reaction path calculation ********
 WARNING: TS HAS MORE THAN 1 IMAGINARY FREQUENCY!
 Supplied step size of   0.1000 bohr.
    Integration on MW PES will use step size of   0.1071 sqrt(amu)*bohr.
 Point Number:   0          Path Number:   1
 Calculating another point on the path.
 IRC-IRC-IRC-IRC-IRC-IRC-IRC-IRC-IRC-IRC-IRC-IRC-IRC-IRC-IRC-IRC-IRC-IRC
                          Input orientation:                          
 ---------------------------------------------------------------------
 Center     Atomic      Atomic             Coordinates (Angstroms)
 Number     Number       Type             X           Y           Z
 ---------------------------------------------------------------------
      1          8           0       -1.230047   -0.425126   -1.208708
      2          6           0       -0.456245    0.495638    1.031532
      3          6           0        1.295083   -0.542685   -0.522978
      4          6           0        0.996897    0.516302    0.575256
      5          6           0        0.158489   -1.462679   -0.882441
      6          6           0       -1.405048    0.587170   -0.169041
      7          1           0        1.623068    0.321323    1.455254
      8          1           0       -2.421009    0.386502    0.195776
      9          1           0       -0.617434    1.384475    1.648641
     10          1           0        1.698437   -0.008229   -1.383463
     11          6           0       -1.406256    1.935773   -0.896906
     12          1           0       -2.225275    1.952544   -1.623807
     13          1           0       -0.482684    2.072870   -1.463028
     14          8           0       -1.539505    3.026203    0.009702
     15          1           0       -2.468518    3.050359    0.294972
     16          8           0        2.328828   -1.475137   -0.169299
     17          1           0        1.896470   -2.202057    0.331575
     18          8           0        1.361513    1.807609    0.064458
     19          1           0        1.005445    2.496487    0.648840
     20          8           0       -0.728127   -0.607022    1.899866
     21          1           0       -1.662069   -0.543147    2.177364
     22          1           0        0.364410   -1.943063   -1.849737
     23          8           0       -0.172577   -2.357617    0.052987
     24          1           0       -1.420315   -2.482005    0.297547
     25          8           0       -2.445318   -2.075546    0.015718
     26          1           0       -2.717379   -1.574594    0.794747
     27          1           0       -2.106449   -1.198364   -0.812469
     28          8           0        3.274492    0.770525   -0.100218
     29          1           0        2.904898    1.389200    0.539500
     30          1           0        2.878880   -0.108959    0.083554
 ---------------------------------------------------------------------
                    Distance matrix (angstroms):
                    1          2          3          4          5
     1  O    0.000000
     2  C    2.542685   0.000000
     3  C    2.619223   2.561594   0.000000
     4  C    3.004678   1.523232   1.554505   0.000000
     5  C    1.763802   2.806455   1.505805   2.596954   0.000000
     6  C    1.461600   1.532964   2.948314   2.515619   2.674971
     7  H    3.974185   2.129194   2.183457   1.097499   3.285190
     8  H    2.012388   2.137919   3.897350   3.441356   3.351989
     9  H    3.437207   1.094001   3.476722   2.124134   3.887766
    10  H    2.963168   3.275475   1.090309   2.145663   2.176670
    11  C    2.387910   2.587544   3.685079   3.155519   3.741405
    12  H    2.610766   3.507544   4.453192   4.157049   4.230332
    13  H    2.619773   2.951472   3.299284   2.960855   3.639820
    14  O    3.673140   2.936214   4.588639   3.612865   4.881513
    15  H    3.984201   3.334421   5.267228   4.302220   5.353034
    16  O    3.853373   3.616985   1.436378   2.508831   2.284535
    17  H    3.912169   3.647295   1.960980   2.873689   2.245238
    18  O    3.649964   2.441464   2.423505   1.435735   3.610910
    19  H    4.121133   2.507268   3.270110   1.981571   4.328644
    20  O    3.154083   1.429609   3.157165   2.447888   3.042937
    21  H    3.415560   1.961126   4.004572   3.280134   3.677278
    22  H    2.292890   3.862958   2.141845   3.511283   1.099470
    23  O    2.538629   3.029700   2.404109   3.146402   1.336242
    24  H    2.556513   3.214735   3.436220   3.861331   2.219013
    25  O    2.387465   3.405771   4.078046   4.345066   2.821720
    26  H    2.747229   3.074842   4.347538   4.268005   3.331081
    27  H    1.234092   2.998858   3.476225   3.807442   2.281381
    28  O    4.790533   3.908301   2.412738   2.389212   3.912614
    29  H    4.842085   3.512525   2.729935   2.098500   4.206887
    30  H    4.318933   3.519554   1.750546   2.043180   3.188453
                    6          7          8          9         10
     6  C    0.000000
     7  H    3.446519   0.000000
     8  H    1.097969   4.236165   0.000000
     9  H    2.135415   2.487477   2.521835   0.000000
    10  H    3.385401   2.858776   4.429407   4.061594   0.000000
    11  C    1.532488   4.161239   2.150330   2.721393   3.695267
    12  H    2.157166   5.191458   2.408668   3.690091   4.392939
    13  H    2.175422   4.002309   3.058198   3.189754   3.015724
    14  O    2.449268   4.405436   2.789211   2.496319   4.651125
    15  H    2.722788   5.053213   2.666126   2.834449   5.434668
    16  O    4.265553   2.522804   5.114678   4.490295   2.005843
    17  H    4.350911   2.775761   5.035842   4.573575   2.791676
    18  O    3.032796   2.052260   4.042804   2.570002   2.346755
    19  H    3.181965   2.400645   4.049431   2.206787   3.299106
    20  O    2.482879   2.566637   2.599396   2.010331   4.126381
    21  H    2.617115   3.472877   2.316663   2.255335   4.925305
    22  H    3.515367   4.199361   4.167680   4.926985   2.395960
    23  O    3.200008   3.516734   3.550496   4.092342   3.329221
    24  H    3.104476   4.296640   3.039750   4.173696   4.321109
    25  O    2.864674   4.936498   2.468743   4.240206   4.837584
    26  H    2.706349   4.782286   2.071835   3.727599   5.166966
    27  H    2.023387   4.621830   1.904549   3.865913   4.027358
    28  O    4.683637   2.312677   5.716102   4.310746   2.176494
    29  H    4.440824   1.903169   5.430363   3.692836   2.665736
    30  H    4.347464   1.908866   5.324181   4.111455   1.885665
                   11         12         13         14         15
    11  C    0.000000
    12  H    1.095198   0.000000
    13  H    1.091913   1.754124   0.000000
    14  O    1.424336   2.071563   2.048085   0.000000
    15  H    1.947120   2.223977   2.826585   0.972124   0.000000
    16  O    5.110241   5.882554   4.708150   5.937854   6.611368
    17  H    5.434961   6.170333   5.211139   6.264522   6.829519
    18  O    2.932778   3.966899   2.409281   3.147042   4.033199
    19  H    2.918910   3.987274   2.618009   2.676914   3.535593
    20  O    3.840260   4.605334   4.307101   4.175091   4.356728
    21  H    3.957476   4.581984   4.635401   4.177803   4.136066
    22  H    4.369040   4.683297   4.122478   5.637022   6.128582
    23  O    4.566997   5.059911   4.692940   5.554808   5.880145
    24  H    4.576427   4.899469   4.972490   5.517012   5.630789
    25  O    4.243020   4.354535   4.821615   5.181543   5.133559
    26  H    4.111376   4.304913   4.836879   4.813628   4.658529
    27  H    3.212509   3.255858   3.709557   4.341009   4.405583
    28  O    4.888959   5.828030   4.203537   5.317400   6.191605
    29  H    4.576904   5.596064   3.994150   4.765835   5.629639
    30  H    4.848157   5.763443   4.295626   5.418194   6.214552
                   16         17         18         19         20
    16  O    0.000000
    17  H    0.982965   0.000000
    18  O    3.430272   4.054005   0.000000
    19  H    4.265500   4.792797   0.971000   0.000000
    20  O    3.792102   3.448504   3.683173   3.768569   0.000000
    21  H    4.722573   4.338447   4.374068   4.323354   0.976388
    22  H    2.627121   2.678135   4.327343   5.134533   4.127731
    23  O    2.661806   2.093506   4.438770   5.030418   2.604645
    24  H    3.909962   3.328752   5.117977   5.549154   2.561661
    25  O    4.815308   4.355100   5.438128   5.762994   2.941992
    26  H    5.138432   4.679300   5.348830   5.518552   2.472773
    27  H    4.490206   4.282475   4.672434   5.046904   3.099389
    28  O    2.437632   3.304789   2.182236   2.947644   4.681766
    29  H    3.006440   3.735946   1.668164   2.201354   4.362840
    30  H    1.494300   2.325447   2.444587   3.258475   4.069098
                   21         22         23         24         25
    21  H    0.000000
    22  H    4.720586   0.000000
    23  O    3.166049   2.020042   0.000000
    24  H    2.711333   2.843683   1.277549   0.000000
    25  O    2.763049   3.375210   2.290481   1.138098   0.000000
    26  H    2.022175   4.077560   2.763937   1.659210   0.965327
    27  H    3.092876   2.781303   2.415107   1.830478   1.253066
    28  O    5.593098   4.346603   4.657363   5.725240   6.389819
    29  H    5.222428   4.823538   4.873007   5.809668   6.395594
    30  H    5.019241   3.663893   3.790619   4.915305   5.676192
                   26         27         28         29         30
    26  H    0.000000
    27  H    1.760093   0.000000
    28  O    6.496389   5.773937   0.000000
    29  H    6.360757   5.799734   0.963638   0.000000
    30  H    5.828551   5.181039   0.981719   1.566220   0.000000
 Symmetry turned off by external request.
 Stoichiometry    C6H16O8
 Framework group  C1[X(C6H16O8)]
 Deg. of freedom    84
 Full point group                 C1      NOp   1
 Rotational constants (GHZ):      0.7382388      0.6811955      0.4434383
 Standard basis: 6-31G(d) (6D, 7F)
   242 basis functions,   456 primitive gaussians,   242 cartesian basis functions
    58 alpha electrons       58 beta electrons
       nuclear repulsion energy      1166.8393300028 Hartrees.
 NAtoms=   30 NActive=   30 NUniq=   30 SFac= 1.00D+00 NAtFMM=   60 NAOKFM=F Big=F
 Integral buffers will be    131072 words long.
 Raffenetti 2 integral format.
 Two-electron integral symmetry is turned off.
 One-electron integrals computed using PRISM.
 NBasis=   242 RedAO= T EigKep=  1.21D-03  NBF=   242
 NBsUse=   242 1.00D-06 EigRej= -1.00D+00 NBFU=   242
 Initial guess from the checkpoint file:  "/scratch/10461032.yak.local/Gau-24169.chk"
 B after Tr=    -0.030267    0.024136    0.010815
         Rot=    1.000000   -0.000030    0.000041    0.000045 Ang=  -0.01 deg.
 ExpMin= 1.61D-01 ExpMax= 5.48D+03 ExpMxC= 8.25D+02 IAcc=1 IRadAn=         1 AccDes= 0.00D+00
 Harris functional with IExCor=  402 and IRadAn=       1 diagonalized for initial guess.
 HarFok:  IExCor=  402 AccDes= 0.00D+00 IRadAn=         1 IDoV= 1 UseB2=F ITyADJ=14
 ICtDFT=  3500011 ScaDFX=  1.000000  1.000000  1.000000  1.000000
 FoFCou: FMM=F IPFlag=           0 FMFlag=      100000 FMFlg1=           0
         NFxFlg=           0 DoJE=T BraDBF=F KetDBF=T FulRan=T
         wScrn=  0.000000 ICntrl=     500 IOpCl=  0 I1Cent=   200000004 NGrid=           0
         NMat0=    1 NMatS0=      1 NMatT0=    0 NMatD0=    1 NMtDS0=    0 NMtDT0=    0
 Symmetry not used in FoFCou.
 Requested convergence on RMS density matrix=1.00D-08 within 128 cycles.
 Requested convergence on MAX density matrix=1.00D-06.
 Requested convergence on             energy=1.00D-06.
 No special actions if energy rises.
 Integral accuracy reduced to 1.0D-05 until final iterations.
 Initial convergence to 1.0D-05 achieved.  Increase integral accuracy.
 SCF Done:  E(RB3LYP) =  -839.822627585     A.U. after   12 cycles
            NFock= 12  Conv=0.54D-08     -V/T= 2.0079
 DoSCS=F DFT=T ScalE2(SS,OS)=  1.000000  1.000000
 Range of M.O.s used for correlation:     1   242
 NBasis=   242 NAE=    58 NBE=    58 NFC=     0 NFV=     0
 NROrb=    242 NOA=    58 NOB=    58 NVA=   184 NVB=   184
 Symmetrizing basis deriv contribution to polar:
 IMax=3 JMax=2 DiffMx= 0.00D+00
 Calling FoFJK, ICntrl=      2147 FMM=F ISym2X=0 I1Cent= 0 IOpClX= 0 NMat=1 NMatS=1 NMatT=0.
 -------------------------------------------------------------------
 Center     Atomic                   Forces (Hartrees/Bohr)
 Number     Number              X              Y              Z
 -------------------------------------------------------------------
      1        8           0.010290817   -0.010144267    0.010159891
      2        6          -0.009382497    0.010553046    0.002959996
      3        6          -0.016836890   -0.006054657   -0.007791893
      4        6          -0.008255660   -0.007055018    0.012303888
      5        6          -0.020596484   -0.036123867    0.016412395
      6        6          -0.008301320    0.000127730   -0.011421065
      7        1          -0.005176171   -0.007694303    0.002039018
      8        1          -0.002685979    0.008290522    0.005632396
      9        1          -0.001344601    0.008398620   -0.005562425
     10        1          -0.009107411   -0.000096181   -0.002429361
     11        6          -0.003068830    0.004333360   -0.002034677
     12        1          -0.001840196   -0.003481701   -0.001573050
     13        1           0.000792795    0.000148920    0.004804442
     14        8           0.000170826    0.001895075    0.001461690
     15        1           0.002704809    0.001653717   -0.000085075
     16        8          -0.009497778   -0.018443215    0.001384256
     17        1          -0.000813807    0.006373370    0.000476815
     18        8          -0.046817302    0.018106675    0.004984885
     19        1          -0.009522176    0.000657716    0.000472826
     20        8          -0.001693892   -0.000112859    0.001317720
     21        1           0.008499729    0.004825166    0.002624367
     22        1          -0.012752452    0.011078852   -0.008632468
     23        8           0.027623772    0.011475587   -0.016453157
     24        1           0.005587625    0.016633830   -0.023938029
     25        8          -0.029105045   -0.003767419   -0.000309692
     26        1          -0.006177038   -0.003328097    0.002135796
     27        1           0.021749324   -0.015530842    0.007875773
     28        8           0.065986746   -0.010681342   -0.000546694
     29        1           0.013763859   -0.001632102   -0.008701398
     30        1           0.045805227    0.019593682    0.012432832
 -------------------------------------------------------------------
 Cartesian Forces:  Max     0.065986746 RMS     0.014350995
 IRC-IRC-IRC-IRC-IRC-IRC-IRC-IRC-IRC-IRC-IRC-IRC-IRC-IRC-IRC-IRC-IRC-IRC
 Pt  1 Step number   1 out of a maximum of  20
 Modified Bulirsch-Stoer Extrapolation Cycles:
    EPS =    0.000010000000000
 Maximum DWI energy   std dev =  0.000001280 at pt     1
 Maximum DWI gradient std dev =  0.002503088 at pt    -1
 CORRECTOR INTEGRATION CONVERGENCE:
   Recorrection delta-x convergence threshold:    0.010000
   Delta-x Convergence NOT Met
 IRC-IRC-IRC-IRC-IRC-IRC-IRC-IRC-IRC-IRC-IRC-IRC-IRC-IRC-IRC-IRC-IRC-IRC
                          Input orientation:                          
 ---------------------------------------------------------------------
 Center     Atomic      Atomic             Coordinates (Angstroms)
 Number     Number       Type             X           Y           Z
 ---------------------------------------------------------------------
      1          8           0       -1.228463   -0.425361   -1.208525
      2          6           0       -0.456553    0.496062    1.031618
      3          6           0        1.294550   -0.543002   -0.523165
      4          6           0        0.996621    0.516096    0.575618
      5          6           0        0.156733   -1.462108   -0.882733
      6          6           0       -1.405127    0.586837   -0.169583
      7          1           0        1.621276    0.318552    1.455953
      8          1           0       -2.421935    0.389267    0.197745
      9          1           0       -0.617801    1.387367    1.646800
     10          1           0        1.695027   -0.008390   -1.384378
     11          6           0       -1.406368    1.935854   -0.896941
     12          1           0       -2.225881    1.951289   -1.624311
     13          1           0       -0.482400    2.072871   -1.461311
     14          8           0       -1.539521    3.026263    0.009754
     15          1           0       -2.467683    3.050922    0.295029
     16          8           0        2.328603   -1.475588   -0.169274
     17          1           0        1.896593   -2.200024    0.332087
     18          8           0        1.360452    1.808018    0.064583
     19          1           0        1.001889    2.496623    0.648858
     20          8           0       -0.728130   -0.607059    1.899892
     21          1           0       -1.659311   -0.541289    2.178451
     22          1           0        0.360228   -1.939404   -1.852093
     23          8           0       -0.172546   -2.357933    0.053275
     24          1           0       -1.400630   -2.476263    0.287574
     25          8           0       -2.446313   -2.075047    0.015110
     26          1           0       -2.719284   -1.575386    0.795153
     27          1           0       -2.111113   -1.217253   -0.798113
     28          8           0        3.276053    0.770349   -0.100301
     29          1           0        2.909512    1.389004    0.536614
     30          1           0        2.894550   -0.103274    0.088297
 ---------------------------------------------------------------------
                    Distance matrix (angstroms):
                    1          2          3          4          5
     1  O    0.000000
     2  C    2.542264   0.000000
     3  C    2.617088   2.561907   0.000000
     4  C    3.003416   1.523172   1.554920   0.000000
     5  C    1.760611   2.806295   1.506211   2.597209   0.000000
     6  C    1.461217   1.533270   2.947849   2.515695   2.673231
     7  H    3.971632   2.128132   2.183102   1.097363   3.284066
     8  H    2.016331   2.137633   3.898858   3.441714   3.353289
     9  H    3.436826   1.094931   3.477378   2.124359   3.888181
    10  H    2.958307   3.274264   1.089899   2.145797   2.175153
    11  C    2.388320   2.587371   3.685023   3.155709   3.740272
    12  H    2.610783   3.507445   4.452802   4.157402   4.228246
    13  H    2.619480   2.949862   3.298554   2.959752   3.638587
    14  O    3.673509   2.935803   4.588640   3.612915   4.880500
    15  H    3.985083   3.333844   5.266890   4.301799   5.351833
    16  O    3.851718   3.617545   1.436739   2.509152   2.286094
    17  H    3.910100   3.646302   1.959498   2.871683   2.246646
    18  O    3.648461   2.440879   2.424270   1.436173   3.611104
    19  H    4.118535   2.505155   3.270873   1.981888   4.328003
    20  O    3.153665   1.429871   3.156983   2.447437   3.042548
    21  H    3.416236   1.959069   4.003002   3.277363   3.676516
    22  H    2.287016   3.861919   2.142182   3.511162   1.099491
    23  O    2.538096   3.030364   2.403878   3.146401   1.336802
    24  H    2.544435   3.206181   3.414497   3.844996   2.196249
    25  O    2.387866   3.406323   4.078107   4.345341   2.820934
    26  H    2.749514   3.076811   4.349096   4.269712   3.331607
    27  H    1.254831   3.003487   3.482636   3.814400   2.282595
    28  O    4.790464   3.910092   2.414552   2.391092   3.914872
    29  H    4.843580   3.517494   2.732011   2.103007   4.209653
    30  H    4.334134   3.532555   1.768402   2.055051   3.207019
                    6          7          8          9         10
     6  C    0.000000
     7  H    3.445789   0.000000
     8  H    1.099028   4.235049   0.000000
     9  H    2.135411   2.488424   2.520092   0.000000
    10  H    3.382451   2.860037   4.428388   4.060216   0.000000
    11  C    1.532611   4.161539   2.149801   2.719061   3.692740
    12  H    2.156757   5.191770   2.407953   3.688374   4.389924
    13  H    2.174461   4.001689   3.057578   3.185687   3.013097
    14  O    2.449698   4.406112   2.787067   2.493084   4.649196
    15  H    2.723344   5.053036   2.663825   2.831389   5.432122
    16  O    4.265482   2.522025   5.116639   4.491762   2.007627
    17  H    4.349669   2.771660   5.037078   4.573840   2.791082
    18  O    3.032251   2.054859   4.041910   2.567848   2.347502
    19  H    3.179757   2.403962   4.045618   2.202211   3.299936
    20  O    2.483232   2.563893   2.599797   2.013446   4.125109
    21  H    2.617354   3.467504   2.317482   2.255462   4.922328
    22  H    3.511298   4.199021   4.167130   4.926073   2.393587
    23  O    3.200093   3.514097   3.553552   4.094490   3.327917
    24  H    3.097030   4.278787   3.043418   4.169886   4.297547
    25  O    2.864229   4.934636   2.471193   4.241955   4.835322
    26  H    2.707939   4.781644   2.074891   3.730877   5.166427
    27  H    2.036715   4.622796   1.915528   3.871902   4.036305
    28  O    4.685288   2.316103   5.718489   4.312212   2.180581
    29  H    4.445030   1.910654   5.434945   3.697897   2.667939
    30  H    4.362336   1.915632   5.340373   4.121595   1.901744
                   11         12         13         14         15
    11  C    0.000000
    12  H    1.095860   0.000000
    13  H    1.091332   1.755300   0.000000
    14  O    1.424365   2.072880   2.047069   0.000000
    15  H    1.946935   2.225203   2.825360   0.971326   0.000000
    16  O    5.110523   5.882511   4.707723   5.938105   6.611295
    17  H    5.433741   6.168928   5.208983   6.262974   6.827935
    18  O    2.931922   3.966696   2.407198   3.145945   4.031443
    19  H    2.916103   3.985372   2.614477   2.673525   3.531341
    20  O    3.840402   4.605259   4.305821   4.175165   4.356886
    21  H    3.957051   4.582024   4.633229   4.176723   4.135785
    22  H    4.364723   4.677321   4.118384   5.633238   6.124587
    23  O    4.567476   5.059632   4.692761   5.555185   5.880630
    24  H    4.568357   4.892807   4.959472   5.511285   5.629247
    25  O    4.242717   4.352892   4.820996   5.181280   5.133650
    26  H    4.112874   4.305193   4.837877   4.814962   4.660059
    27  H    3.232416   3.276497   3.730610   4.357383   4.420341
    28  O    4.890614   5.829966   4.204150   5.318929   6.192560
    29  H    4.580496   5.599823   3.995552   4.769915   5.633343
    30  H    4.860723   5.776943   4.305889   5.427813   6.224566
                   16         17         18         19         20
    16  O    0.000000
    17  H    0.981225   0.000000
    18  O    3.431336   4.052580   0.000000
    19  H    4.267079   4.791589   0.971659   0.000000
    20  O    3.792018   3.447422   3.682816   3.767081   0.000000
    21  H    4.721036   4.336463   4.371115   4.318628   0.974176
    22  H    2.630876   2.683092   4.326346   5.132721   4.127597
    23  O    2.661542   2.093802   4.439072   5.029983   2.604655
    24  H    3.888089   3.309073   5.101799   5.534638   2.558466
    25  O    4.815929   4.356251   5.438024   5.761241   2.942711
    26  H    5.140159   4.680910   5.350271   5.518133   2.474429
    27  H    4.491465   4.278422   4.684898   5.057409   3.092606
    28  O    2.438576   3.303481   2.184827   2.951793   4.683109
    29  H    3.006928   3.734830   1.672714   2.208719   4.367520
    30  H    1.506613   2.334890   2.450929   3.264331   4.081603
                   21         22         23         24         25
    21  H    0.000000
    22  H    4.720015   0.000000
    23  O    3.166550   2.022237   0.000000
    24  H    2.717803   2.822590   1.255821   0.000000
    25  O    2.766194   3.373651   2.291615   1.152677   0.000000
    26  H    2.026429   4.077231   2.765617   1.675728   0.965733
    27  H    3.085609   2.782068   2.405007   1.807930   1.228618
    28  O    5.592041   4.348974   4.658602   5.706339   6.391798
    29  H    5.224538   4.825254   4.875678   5.794793   6.399725
    30  H    5.029736   3.682292   3.806809   4.911146   5.693686
                   26         27         28         29         30
    26  H    0.000000
    27  H    1.742592   0.000000
    28  O    6.499875   5.784381   0.000000
    29  H    6.366929   5.812121   0.960598   0.000000
    30  H    5.846528   5.204165   0.971767   1.558238   0.000000
 Symmetry turned off by external request.
 Stoichiometry    C6H16O8
 Framework group  C1[X(C6H16O8)]
 Deg. of freedom    84
 Full point group                 C1      NOp   1
 Rotational constants (GHZ):      0.7382179      0.6810584      0.4433671
 Standard basis: 6-31G(d) (6D, 7F)
   242 basis functions,   456 primitive gaussians,   242 cartesian basis functions
    58 alpha electrons       58 beta electrons
       nuclear repulsion energy      1166.8175798593 Hartrees.
 NAtoms=   30 NActive=   30 NUniq=   30 SFac= 1.00D+00 NAtFMM=   60 NAOKFM=F Big=F
 Integral buffers will be    131072 words long.
 Raffenetti 2 integral format.
 Two-electron integral symmetry is turned off.
 One-electron integrals computed using PRISM.
 NBasis=   242 RedAO= T EigKep=  1.21D-03  NBF=   242
 NBsUse=   242 1.00D-06 EigRej= -1.00D+00 NBFU=   242
 Initial guess from the checkpoint file:  "/scratch/10461032.yak.local/Gau-24169.chk"
 B after Tr=     0.000183    0.000012    0.000056
         Rot=    1.000000    0.000008   -0.000026   -0.000031 Ang=   0.00 deg.
 ExpMin= 1.61D-01 ExpMax= 5.48D+03 ExpMxC= 8.25D+02 IAcc=1 IRadAn=         1 AccDes= 0.00D+00
 Harris functional with IExCor=  402 and IRadAn=       1 diagonalized for initial guess.
 HarFok:  IExCor=  402 AccDes= 0.00D+00 IRadAn=         1 IDoV= 1 UseB2=F ITyADJ=14
 ICtDFT=  3500011 ScaDFX=  1.000000  1.000000  1.000000  1.000000
 FoFCou: FMM=F IPFlag=           0 FMFlag=      100000 FMFlg1=           0
         NFxFlg=           0 DoJE=T BraDBF=F KetDBF=T FulRan=T
         wScrn=  0.000000 ICntrl=     500 IOpCl=  0 I1Cent=   200000004 NGrid=           0
         NMat0=    1 NMatS0=      1 NMatT0=    0 NMatD0=    1 NMtDS0=    0 NMtDT0=    0
 Symmetry not used in FoFCou.
 Requested convergence on RMS density matrix=1.00D-08 within 128 cycles.
 Requested convergence on MAX density matrix=1.00D-06.
 Requested convergence on             energy=1.00D-06.
 No special actions if energy rises.
 Integral accuracy reduced to 1.0D-05 until final iterations.
 Initial convergence to 1.0D-05 achieved.  Increase integral accuracy.
 SCF Done:  E(RB3LYP) =  -839.827027742     A.U. after   12 cycles
            NFock= 12  Conv=0.86D-08     -V/T= 2.0079
 DoSCS=F DFT=T ScalE2(SS,OS)=  1.000000  1.000000
 Range of M.O.s used for correlation:     1   242
 NBasis=   242 NAE=    58 NBE=    58 NFC=     0 NFV=     0
 NROrb=    242 NOA=    58 NOB=    58 NVA=   184 NVB=   184
 Symmetrizing basis deriv contribution to polar:
 IMax=3 JMax=2 DiffMx= 0.00D+00
 Calling FoFJK, ICntrl=      2147 FMM=F ISym2X=0 I1Cent= 0 IOpClX= 0 NMat=1 NMatS=1 NMatT=0.
 -------------------------------------------------------------------
 Center     Atomic                   Forces (Hartrees/Bohr)
 Number     Number              X              Y              Z
 -------------------------------------------------------------------
      1        8           0.013766215   -0.010397358    0.010567489
      2        6          -0.009325213    0.011053348    0.002904915
      3        6          -0.015743289   -0.006525378   -0.006914188
      4        6          -0.008212604   -0.007144067    0.011702024
      5        6          -0.021737578   -0.031075751    0.013618763
      6        6          -0.008242383   -0.000584724   -0.011349523
      7        1          -0.004816952   -0.007356229    0.001962898
      8        1          -0.002285619    0.007905005    0.005151096
      9        1          -0.001289174    0.007639934   -0.005515593
     10        1          -0.008687164   -0.000079385   -0.002437861
     11        6          -0.003451592    0.004034970   -0.002063143
     12        1          -0.001456237   -0.003299352   -0.001334901
     13        1           0.000966498    0.000202344    0.004454359
     14        8           0.000740526    0.001925149    0.001224882
     15        1           0.001988687    0.001643035    0.000123900
     16        8          -0.008944506   -0.016591040    0.000898195
     17        1          -0.001136911    0.005249547    0.001063187
     18        8          -0.046113122    0.017909306    0.005719835
     19        1          -0.009180291    0.000223449    0.000049381
     20        8           0.000069621    0.000191470    0.000634273
     21        1           0.006560954    0.004844668    0.003237797
     22        1          -0.012483616    0.010657742   -0.008074370
     23        8           0.025058135    0.009482484   -0.014433990
     24        1           0.008203528    0.015355880   -0.022519083
     25        8          -0.028903265   -0.001922284   -0.002631440
     26        1          -0.005673687   -0.003365409    0.001673517
     27        1           0.017905079   -0.016653825    0.009777861
     28        8           0.069957762   -0.004887909   -0.004204126
     29        1           0.012113888    0.000188931   -0.006651891
     30        1           0.040352310    0.011375450    0.013365739
 -------------------------------------------------------------------
 Cartesian Forces:  Max     0.069957762 RMS     0.013831005
 IRC-IRC-IRC-IRC-IRC-IRC-IRC-IRC-IRC-IRC-IRC-IRC-IRC-IRC-IRC-IRC-IRC-IRC
 Error in corrector energy =          -0.0000022132
 Magnitude of corrector gradient =     0.1311952404
 Magnitude of analytic gradient =      0.1312124319
 Magnitude of difference =             0.0004149396
 Angle between gradients (degrees)=    0.1810
 Pt  1 Step number   2 out of a maximum of  20
 Modified Bulirsch-Stoer Extrapolation Cycles:
    EPS =    0.000010000000000
 Maximum DWI energy   std dev =  0.000000671 at pt    25
 Maximum DWI gradient std dev =  0.001418334 at pt    24
 CORRECTOR INTEGRATION CONVERGENCE:
   Recorrection delta-x convergence threshold:    0.010000
   Delta-x Convergence Met
 Point Number:   1          Path Number:   1
   CHANGE IN THE REACTION COORDINATE =    0.07181
   NET REACTION COORDINATE UP TO THIS POINT =    0.07181
  # OF POINTS ALONG THE PATH =   1
  # OF STEPS =   2

 Calculating another point on the path.
 IRC-IRC-IRC-IRC-IRC-IRC-IRC-IRC-IRC-IRC-IRC-IRC-IRC-IRC-IRC-IRC-IRC-IRC
                          Input orientation:                          
 ---------------------------------------------------------------------
 Center     Atomic      Atomic             Coordinates (Angstroms)
 Number     Number       Type             X           Y           Z
 ---------------------------------------------------------------------
      1          8           0       -1.227724   -0.425905   -1.207950
      2          6           0       -0.457194    0.496848    1.031810
      3          6           0        1.293528   -0.543466   -0.523597
      4          6           0        0.996059    0.515594    0.576388
      5          6           0        0.155286   -1.464114   -0.881886
      6          6           0       -1.405713    0.586790   -0.170341
      7          1           0        1.617580    0.312776    1.457503
      8          1           0       -2.423549    0.395471    0.201617
      9          1           0       -0.618844    1.393116    1.642307
     10          1           0        1.688229   -0.008434   -1.386362
     11          6           0       -1.406626    1.936119   -0.897089
     12          1           0       -2.226812    1.948722   -1.625261
     13          1           0       -0.481498    2.073082   -1.457900
     14          8           0       -1.539461    3.026363    0.009807
     15          1           0       -2.466473    3.052270    0.295247
     16          8           0        2.328160   -1.476363   -0.169246
     17          1           0        1.895452   -2.196409    0.333314
     18          8           0        1.358088    1.808933    0.064914
     19          1           0        0.994532    2.496562    0.648647
     20          8           0       -0.728062   -0.607026    1.899898
     21          1           0       -1.655062   -0.537309    2.181505
     22          1           0        0.350093   -1.930940   -1.858421
     23          8           0       -0.171291   -2.357471    0.052544
     24          1           0       -1.393663   -2.464789    0.270465
     25          8           0       -2.447788   -2.075136    0.014935
     26          1           0       -2.723636   -1.578208    0.796272
     27          1           0       -2.098090   -1.230214   -0.790031
     28          8           0        3.279840    0.770307   -0.100655
     29          1           0        2.918442    1.390157    0.532375
     30          1           0        2.924297   -0.098729    0.099748
 ---------------------------------------------------------------------
                    Distance matrix (angstroms):
                    1          2          3          4          5
     1  O    0.000000
     2  C    2.541991   0.000000
     3  C    2.615123   2.562533   0.000000
     4  C    3.002581   1.523058   1.555655   0.000000
     5  C    1.759805   2.807622   1.507170   2.598597   0.000000
     6  C    1.460775   1.533931   2.947570   2.516184   2.673803
     7  H    3.968128   2.125978   2.182411   1.097172   3.281522
     8  H    2.022755   2.136832   3.901820   3.442179   3.358933
     9  H    3.435628   1.096419   3.478313   2.124651   3.890321
    10  H    2.951083   3.271957   1.089225   2.146180   2.173342
    11  C    2.389100   2.587195   3.684925   3.156251   3.741843
    12  H    2.609824   3.507066   4.451680   4.157885   4.227819
    13  H    2.619974   2.946823   3.296963   2.957579   3.639924
    14  O    3.673998   2.935002   4.588466   3.613009   4.881769
    15  H    3.986452   3.333153   5.266633   4.301499   5.353222
    16  O    3.850542   3.618604   1.437472   2.509652   2.286785
    17  H    3.906969   3.643690   1.956740   2.867569   2.245249
    18  O    3.647067   2.439611   2.425756   1.437148   3.613308
    19  H    4.114145   2.500636   3.271899   1.982286   4.328259
    20  O    3.152965   1.430204   3.156612   2.446334   3.041912
    21  H    3.418104   1.956059   4.001475   3.273141   3.677050
    22  H    2.275467   3.859962   2.144040   3.511566   1.099771
    23  O    2.536896   3.031146   2.401718   3.145095   1.333378
    24  H    2.523944   3.198111   3.397501   3.832368   2.174513
    25  O    2.388298   3.407581   4.078416   4.345940   2.820218
    26  H    2.753627   3.081898   4.353200   4.274165   3.334280
    27  H    1.256625   2.999065   3.470689   3.806403   2.267344
    28  O    4.793241   3.914419   2.418742   2.395605   3.919923
    29  H    4.849485   3.527373   2.737576   2.112429   4.216875
    30  H    4.365363   3.557799   1.801598   2.079105   3.239645
                    6          7          8          9         10
     6  C    0.000000
     7  H    3.444598   0.000000
     8  H    1.100430   4.232589   0.000000
     9  H    2.134249   2.490559   2.515520   0.000000
    10  H    3.377199   2.862819   4.426232   4.057064   0.000000
    11  C    1.532597   4.162352   2.148228   2.713667   3.687655
    12  H    2.155424   5.192216   2.405988   3.683919   4.383501
    13  H    2.172797   4.000548   3.056131   3.176870   3.007581
    14  O    2.449868   4.407526   2.782084   2.485978   4.645132
    15  H    2.724073   5.053232   2.658794   2.825083   5.427454
    16  O    4.265959   2.520368   5.120551   4.494494   2.011392
    17  H    4.347132   2.763516   5.038746   4.573822   2.790603
    18  O    3.031100   2.060370   4.039472   2.563071   2.349045
    19  H    3.174767   2.410676   4.037041   2.192701   3.301133
    20  O    2.484008   2.558083   2.600737   2.019617   4.122654
    21  H    2.618579   3.457891   2.319613   2.256330   4.918026
    22  H    3.503061   4.199540   4.165218   4.923748   2.389451
    23  O    3.200336   3.507733   3.559998   4.098117   3.323588
    24  H    3.083276   4.265151   3.040804   4.167220   4.275139
    25  O    2.864629   4.930553   2.477769   4.245251   4.831307
    26  H    2.712652   4.781130   2.083045   3.738274   5.166491
    27  H    2.040810   4.608517   1.931876   3.871215   4.023005
    28  O    4.689663   2.323854   5.723680   4.315733   2.189225
    29  H    4.453934   1.925839   5.443865   3.707338   2.674141
    30  H    4.392251   1.928819   5.371598   4.142335   1.935082
                   11         12         13         14         15
    11  C    0.000000
    12  H    1.096858   0.000000
    13  H    1.090473   1.757725   0.000000
    14  O    1.424337   2.075381   2.045041   0.000000
    15  H    1.946980   2.227915   2.823554   0.970309   0.000000
    16  O    5.111107   5.882088   4.706737   5.938441   6.611563
    17  H    5.430967   6.165321   5.204507   6.259443   6.824695
    18  O    2.930063   3.965821   2.402668   3.143399   4.028176
    19  H    2.910147   3.980935   2.606826   2.666444   3.523103
[...]
 Alpha  occ. eigenvalues --  -19.16195 -19.13036 -19.07178 -10.29928 -10.26411
 Alpha  occ. eigenvalues --  -10.26239 -10.25680 -10.24636 -10.24421  -1.07943
 Alpha  occ. eigenvalues --   -1.05144  -1.04666  -1.04355  -1.03340  -1.00833
 Alpha  occ. eigenvalues --   -1.00103  -0.94870  -0.79438  -0.76493  -0.70774
 Alpha  occ. eigenvalues --   -0.66326  -0.63466  -0.59198  -0.56638  -0.55684
 Alpha  occ. eigenvalues --   -0.54424  -0.53518  -0.51937  -0.50929  -0.50559
 Alpha  occ. eigenvalues --   -0.48465  -0.47082  -0.45894  -0.44918  -0.44360
 Alpha  occ. eigenvalues --   -0.42374  -0.41851  -0.41085  -0.38836  -0.37892
 Alpha  occ. eigenvalues --   -0.36953  -0.36237  -0.35609  -0.34245  -0.31884
 Alpha  occ. eigenvalues --   -0.31067  -0.30674  -0.29982  -0.29388  -0.28604
 Alpha  occ. eigenvalues --   -0.27371  -0.25784  -0.23121
 Alpha virt. eigenvalues --    0.00535   0.01848   0.03774   0.06812   0.08027
 Alpha virt. eigenvalues --    0.10341   0.11129   0.11967   0.12782   0.14263
 Alpha virt. eigenvalues --    0.15696   0.16145   0.17302   0.17578   0.19446
 Alpha virt. eigenvalues --    0.19757   0.20811   0.21563   0.22297   0.23484
 Alpha virt. eigenvalues --    0.23630   0.26348   0.26662   0.27859   0.28749
 Alpha virt. eigenvalues --    0.30567   0.33203   0.34496   0.51943   0.52147
 Alpha virt. eigenvalues --    0.52909   0.54662   0.56637   0.56870   0.59219
 Alpha virt. eigenvalues --    0.60567   0.61021   0.63415   0.64004   0.65642
 Alpha virt. eigenvalues --    0.67227   0.68703   0.69073   0.72007   0.73551
 Alpha virt. eigenvalues --    0.74181   0.75971   0.78184   0.79410   0.80815
 Alpha virt. eigenvalues --    0.81372   0.82350   0.82908   0.83360   0.84440
 Alpha virt. eigenvalues --    0.85212   0.86618   0.86843   0.88222   0.88412
 Alpha virt. eigenvalues --    0.89767   0.91044   0.93149   0.93872   0.94826
 Alpha virt. eigenvalues --    0.97272   0.97880   1.00265   1.01070   1.02994
 Alpha virt. eigenvalues --    1.03892   1.04464   1.06975   1.09401   1.09617
 Alpha virt. eigenvalues --    1.11549   1.13853   1.14308   1.16006   1.16885
 Alpha virt. eigenvalues --    1.20063   1.20785   1.23043   1.25243   1.28445
 Alpha virt. eigenvalues --    1.29583   1.31134   1.32991   1.35552   1.37252
 Alpha virt. eigenvalues --    1.38728   1.39298   1.42389   1.46108   1.49122
 Alpha virt. eigenvalues --    1.49429   1.53062   1.55305   1.57787   1.58168
 Alpha virt. eigenvalues --    1.62218   1.62551   1.63987   1.66344   1.67703
 Alpha virt. eigenvalues --    1.68778   1.70739   1.73325   1.74742   1.75784
 Alpha virt. eigenvalues --    1.77802   1.79346   1.79939   1.80806   1.81786
 Alpha virt. eigenvalues --    1.84054   1.86156   1.86841   1.88348   1.89685
 Alpha virt. eigenvalues --    1.90948   1.92282   1.93086   1.96116   1.97638
 Alpha virt. eigenvalues --    1.99776   2.00961   2.03521   2.05735   2.06982
 Alpha virt. eigenvalues --    2.09160   2.11453   2.13819   2.14213   2.16156
 Alpha virt. eigenvalues --    2.17884   2.22419   2.23830   2.26698   2.29546
 Alpha virt. eigenvalues --    2.30549   2.34310   2.36669   2.39043   2.42755
 Alpha virt. eigenvalues --    2.43974   2.44505   2.46216   2.47831   2.49027
 Alpha virt. eigenvalues --    2.52024   2.53841   2.55441   2.58342   2.61224
 Alpha virt. eigenvalues --    2.62428   2.67057   2.71699   2.74181   2.76134
 Alpha virt. eigenvalues --    2.77461   2.79146   2.84697   2.85373   2.88427
 Alpha virt. eigenvalues --    2.94161   2.95664   2.99937   3.01317   3.12679
 Alpha virt. eigenvalues --    3.74118   3.76317   3.78843   3.84992   3.95756
 Alpha virt. eigenvalues --    3.97445   4.05978   4.16658   4.28662   4.31249
 Alpha virt. eigenvalues --    4.52104   4.62405   4.73424   4.98845
          Condensed to atoms (all electrons):
               1          2          3          4          5          6
     1  O    8.530872  -0.025835  -0.005454  -0.007106   0.111260   0.126618
     2  C   -0.025835   5.090111  -0.030252   0.266353  -0.004965   0.273108
     3  C   -0.005454  -0.030252   5.060667   0.274457   0.275971  -0.027392
     4  C   -0.007106   0.266353   0.274457   5.079568  -0.023884  -0.020586
     5  C    0.111260  -0.004965   0.275971  -0.023884   4.807319  -0.007321
     6  C    0.126618   0.273108  -0.027392  -0.020586  -0.007321   5.153301
     7  H    0.000003  -0.042721  -0.056931   0.354442   0.000314   0.005989
     8  H   -0.047915  -0.064397   0.000649   0.006092   0.001969   0.337528
     9  H    0.003082   0.352627   0.005327  -0.042279   0.000322  -0.058223
    10  H    0.001037   0.001645   0.367008  -0.052540  -0.028977   0.000678
    11  C   -0.031724  -0.036876  -0.000479  -0.004319   0.000750   0.307649
    12  H    0.004736   0.005725  -0.000066  -0.000397  -0.000118  -0.044886
    13  H    0.003618  -0.008976  -0.000446   0.001408   0.000222  -0.040403
    14  O    0.001455  -0.007734   0.000022  -0.001210  -0.000013  -0.046184
    15  H   -0.000013  -0.001103   0.000003   0.000123  -0.000000  -0.002575
    16  O    0.000775   0.001532   0.214881  -0.042336  -0.027812   0.000129
    17  H    0.000368   0.000319  -0.030495  -0.001599  -0.018423   0.000081
    18  O   -0.000166  -0.027676  -0.034369   0.178556   0.001229  -0.004472
    19  H    0.000033  -0.000846   0.005737  -0.022596  -0.000056  -0.002315
    20  O    0.001009   0.192053   0.002290  -0.041902   0.002642  -0.035597
    21  H   -0.000321  -0.018890  -0.000484   0.006880   0.000009  -0.003199
    22  H   -0.031883   0.000043  -0.070655   0.006010   0.371356   0.003217
    23  O   -0.039327   0.007384  -0.050089  -0.001212   0.269673  -0.000800
    24  H    0.005563   0.000218   0.004021  -0.000534  -0.026819  -0.001337
    25  O   -0.093351  -0.008722  -0.000952   0.000270   0.014691   0.018397
    26  H    0.004269  -0.001819   0.000089  -0.000019   0.000395   0.000615
    27  H    0.105664   0.006564   0.002134  -0.000234  -0.011705  -0.015036
    28  O    0.000001   0.003483   0.007144   0.026693   0.002774  -0.000073
    29  H   -0.000000   0.000952  -0.004946  -0.000267  -0.000510  -0.000012
    30  H   -0.000018  -0.000017  -0.029538  -0.000133  -0.000522  -0.000023
               7          8          9         10         11         12
     1  O    0.000003  -0.047915   0.003082   0.001037  -0.031724   0.004736
     2  C   -0.042721  -0.064397   0.352627   0.001645  -0.036876   0.005725
     3  C   -0.056931   0.000649   0.005327   0.367008  -0.000479  -0.000066
     4  C    0.354442   0.006092  -0.042279  -0.052540  -0.004319  -0.000397
     5  C    0.000314   0.001969   0.000322  -0.028977   0.000750  -0.000118
     6  C    0.005989   0.337528  -0.058223   0.000678   0.307649  -0.044886
     7  H    0.622576  -0.000255  -0.006498   0.004099   0.000170   0.000013
     8  H   -0.000255   0.727489  -0.000783   0.000013  -0.046757  -0.009630
     9  H   -0.006498  -0.000783   0.637501  -0.000279  -0.005021   0.000267
    10  H    0.004099   0.000013  -0.000279   0.520349   0.000045   0.000004
    11  C    0.000170  -0.046757  -0.005021   0.000045   4.952269   0.355460
    12  H    0.000013  -0.009630   0.000267   0.000004   0.355460   0.615748
    13  H    0.000131   0.006149   0.000055   0.001249   0.375157  -0.032335
    14  O   -0.000025   0.004213   0.018869   0.000000   0.224245  -0.029708
    15  H   -0.000000   0.004119   0.000390   0.000000  -0.027934  -0.008651
    16  O    0.002515   0.000005  -0.000067  -0.034655   0.000004  -0.000000
    17  H    0.000992   0.000001  -0.000002   0.005927   0.000001  -0.000000
    18  O   -0.040634  -0.000030  -0.003540   0.003017  -0.000761   0.000565
    19  H   -0.002239  -0.000053   0.010135  -0.000166  -0.000824   0.000127
    20  O    0.006046  -0.004298  -0.034591  -0.000016   0.003013  -0.000045
    21  H   -0.000333   0.006864  -0.007051   0.000009  -0.000056  -0.000005
    22  H   -0.000178  -0.000175   0.000005  -0.002100  -0.000049   0.000005
    23  O    0.000248  -0.000124   0.000003   0.003345  -0.000004   0.000003
    24  H    0.000016  -0.000772   0.000072  -0.000106  -0.000056   0.000001
    25  O   -0.000001   0.009776  -0.000036   0.000007   0.000487   0.000001
    26  H   -0.000010   0.002451   0.000154  -0.000001   0.000292  -0.000024
    27  H    0.000009  -0.011072  -0.000188  -0.000028  -0.000223   0.000222
    28  O    0.000812   0.000000  -0.000026   0.006249   0.000014   0.000000
    29  H   -0.001392   0.000000   0.000016  -0.000419  -0.000001  -0.000001
    30  H    0.007310  -0.000000  -0.000003  -0.005242  -0.000003  -0.000000
              13         14         15         16         17         18
     1  O    0.003618   0.001455  -0.000013   0.000775   0.000368  -0.000166
     2  C   -0.008976  -0.007734  -0.001103   0.001532   0.000319  -0.027676
     3  C   -0.000446   0.000022   0.000003   0.214881  -0.030495  -0.034369
     4  C    0.001408  -0.001210   0.000123  -0.042336  -0.001599   0.178556
     5  C    0.000222  -0.000013  -0.000000  -0.027812  -0.018423   0.001229
     6  C   -0.040403  -0.046184  -0.002575   0.000129   0.000081  -0.004472
     7  H    0.000131  -0.000025  -0.000000   0.002515   0.000992  -0.040634
     8  H    0.006149   0.004213   0.004119   0.000005   0.000001  -0.000030
     9  H    0.000055   0.018869   0.000390  -0.000067  -0.000002  -0.003540
    10  H    0.001249   0.000000   0.000000  -0.034655   0.005927   0.003017
    11  C    0.375157   0.224245  -0.027934   0.000004   0.000001  -0.000761
    12  H   -0.032335  -0.029708  -0.008651  -0.000000  -0.000000   0.000565
    13  H    0.509066  -0.031868   0.006542   0.000007   0.000001   0.014148
    14  O   -0.031868   8.246163   0.234052   0.000000  -0.000000  -0.001604
    15  H    0.006542   0.234052   0.400701  -0.000000   0.000000   0.000050
    16  O    0.000007   0.000000  -0.000000   8.315068   0.229881   0.001347
    17  H    0.000001  -0.000000   0.000000   0.229881   0.351123  -0.000061
    18  O    0.014148  -0.001604   0.000050   0.001347  -0.000061   8.352298
    19  H   -0.003113   0.007788  -0.000207  -0.000102   0.000009   0.218932
    20  O   -0.000027   0.000047  -0.000024  -0.000007   0.000348   0.001211
    21  H    0.000015   0.000046  -0.000006   0.000008   0.000010  -0.000104
    22  H   -0.000071   0.000001  -0.000000   0.002049   0.001498  -0.000075
    23  O    0.000006   0.000000  -0.000000  -0.015554   0.036262   0.000013
    24  H    0.000002  -0.000000   0.000000   0.000035   0.000077   0.000003
    25  O    0.000002   0.000001  -0.000001  -0.000001   0.000076   0.000000
    26  H    0.000001  -0.000005  -0.000001   0.000001  -0.000011  -0.000001
    27  H   -0.000099  -0.000012  -0.000000  -0.000035  -0.000054  -0.000006
    28  O   -0.000007  -0.000000   0.000000  -0.043144   0.001230  -0.077759
    29  H    0.000017   0.000001  -0.000000   0.002160  -0.000119   0.031471
    30  H    0.000008   0.000000  -0.000000   0.051306  -0.001402   0.004131
              19         20         21         22         23         24
     1  O    0.000033   0.001009  -0.000321  -0.031883  -0.039327   0.005563
     2  C   -0.000846   0.192053  -0.018890   0.000043   0.007384   0.000218
     3  C    0.005737   0.002290  -0.000484  -0.070655  -0.050089   0.004021
     4  C   -0.022596  -0.041902   0.006880   0.006010  -0.001212  -0.000534
     5  C   -0.000056   0.002642   0.000009   0.371356   0.269673  -0.026819
     6  C   -0.002315  -0.035597  -0.003199   0.003217  -0.000800  -0.001337
     7  H   -0.002239   0.006046  -0.000333  -0.000178   0.000248   0.000016
     8  H   -0.000053  -0.004298   0.006864  -0.000175  -0.000124  -0.000772
     9  H    0.010135  -0.034591  -0.007051   0.000005   0.000003   0.000072
    10  H   -0.000166  -0.000016   0.000009  -0.002100   0.003345  -0.000106
    11  C   -0.000824   0.003013  -0.000056  -0.000049  -0.000004  -0.000056
    12  H    0.000127  -0.000045  -0.000005   0.000005   0.000003   0.000001
    13  H   -0.003113  -0.000027   0.000015  -0.000071   0.000006   0.000002
    14  O    0.007788   0.000047   0.000046   0.000001   0.000000  -0.000000
    15  H   -0.000207  -0.000024  -0.000006  -0.000000  -0.000000   0.000000
    16  O   -0.000102  -0.000007   0.000008   0.002049  -0.015554   0.000035
    17  H    0.000009   0.000348   0.000010   0.001498   0.036262   0.000077
    18  O    0.218932   0.001211  -0.000104  -0.000075   0.000013   0.000003
    19  H    0.384010   0.000038  -0.000020   0.000007  -0.000000  -0.000000
    20  O    0.000038   8.307342   0.217780  -0.000038  -0.014701   0.004894
    21  H   -0.000020   0.217780   0.411753   0.000014   0.001287  -0.000965
    22  H    0.000007  -0.000038   0.000014   0.618668  -0.050429   0.000024
    23  O   -0.000000  -0.014701   0.001287  -0.050429   8.437676   0.155540
    24  H   -0.000000   0.004894  -0.000965   0.000024   0.155540   0.276709
    25  O    0.000000  -0.002725   0.002364  -0.000004  -0.114834   0.121367
    26  H   -0.000000   0.012579   0.003798  -0.000062   0.005274  -0.007019
    27  H   -0.000001  -0.001318  -0.000608   0.000001   0.015534  -0.014549
    28  O    0.003720   0.000001   0.000000  -0.000032  -0.000015   0.000000
    29  H   -0.001464  -0.000031   0.000002   0.000004   0.000007  -0.000000
    30  H   -0.000648  -0.000038   0.000001  -0.000126   0.000041   0.000001
              25         26         27         28         29         30
     1  O   -0.093351   0.004269   0.105664   0.000001  -0.000000  -0.000018
     2  C   -0.008722  -0.001819   0.006564   0.003483   0.000952  -0.000017
     3  C   -0.000952   0.000089   0.002134   0.007144  -0.004946  -0.029538
     4  C    0.000270  -0.000019  -0.000234   0.026693  -0.000267  -0.000133
     5  C    0.014691   0.000395  -0.011705   0.002774  -0.000510  -0.000522
     6  C    0.018397   0.000615  -0.015036  -0.000073  -0.000012  -0.000023
     7  H   -0.000001  -0.000010   0.000009   0.000812  -0.001392   0.007310
     8  H    0.009776   0.002451  -0.011072   0.000000   0.000000  -0.000000
     9  H   -0.000036   0.000154  -0.000188  -0.000026   0.000016  -0.000003
    10  H    0.000007  -0.000001  -0.000028   0.006249  -0.000419  -0.005242
    11  C    0.000487   0.000292  -0.000223   0.000014  -0.000001  -0.000003
    12  H    0.000001  -0.000024   0.000222   0.000000  -0.000001  -0.000000
    13  H    0.000002   0.000001  -0.000099  -0.000007   0.000017   0.000008
    14  O    0.000001  -0.000005  -0.000012  -0.000000   0.000001   0.000000
    15  H   -0.000001  -0.000001  -0.000000   0.000000  -0.000000  -0.000000
    16  O   -0.000001   0.000001  -0.000035  -0.043144   0.002160   0.051306
    17  H    0.000076  -0.000011  -0.000054   0.001230  -0.000119  -0.001402
    18  O    0.000000  -0.000001  -0.000006  -0.077759   0.031471   0.004131
    19  H    0.000000  -0.000000  -0.000001   0.003720  -0.001464  -0.000648
    20  O   -0.002725   0.012579  -0.001318   0.000001  -0.000031  -0.000038
    21  H    0.002364   0.003798  -0.000608   0.000000   0.000002   0.000001
    22  H   -0.000004  -0.000062   0.000001  -0.000032   0.000004  -0.000126
    23  O   -0.114834   0.005274   0.015534  -0.000015   0.000007   0.000041
    24  H    0.121367  -0.007019  -0.014549   0.000000  -0.000000   0.000001
    25  O    8.490429   0.228295   0.149159  -0.000000   0.000000   0.000000
    26  H    0.228295   0.371248  -0.013951   0.000000   0.000000   0.000000
    27  H    0.149159  -0.013951   0.318854   0.000000  -0.000000   0.000000
    28  O   -0.000000   0.000000   0.000000   8.445873   0.216990   0.206387
    29  H    0.000000   0.000000  -0.000000   0.216990   0.382743  -0.009948
    30  H    0.000000   0.000000   0.000000   0.206387  -0.009948   0.361114
 Mulliken charges:
               1
     1  O   -0.617249
     2  C    0.078714
     3  C    0.122151
     4  C    0.062301
     5  C    0.290227
     6  C    0.083128
     7  H    0.145534
     8  H    0.078943
     9  H    0.129764
    10  H    0.209850
    11  C   -0.064470
    12  H    0.142990
    13  H    0.199543
    14  O   -0.618538
    15  H    0.394534
    16  O   -0.657989
    17  H    0.423964
    18  O   -0.615715
    19  H    0.404114
    20  O   -0.615934
    21  H    0.381202
    22  H    0.152976
    23  O   -0.645207
    24  H    0.483616
    25  O   -0.814693
    26  H    0.393465
    27  H    0.470978
    28  O   -0.800315
    29  H    0.384748
    30  H    0.417365
 Sum of Mulliken charges =  -0.00000
 Mulliken charges with hydrogens summed into heavy atoms:
               1
     1  O   -0.617249
     2  C    0.208479
     3  C    0.332001
     4  C    0.207835
     5  C    0.443203
     6  C    0.162071
    11  C    0.278064
    14  O   -0.224004
    16  O   -0.234025
    18  O   -0.211600
    20  O   -0.234731
    23  O   -0.161591
    25  O    0.049750
    28  O    0.001798
 APT charges:
               1
     1  O   -0.460772
     2  C   -0.300062
     3  C   -0.130001
     4  C   -0.299339
     5  C   -0.323252
     6  C   -0.263911
     7  H    0.410932
     8  H    0.368742
     9  H    0.408448
    10  H    0.459327
    11  C   -0.652418
    12  H    0.532996
    13  H    0.298738
    14  O   -0.889388
    15  H    0.781846
    16  O   -0.686814
    17  H    0.548704
    18  O   -0.697691
    19  H    0.651541
    20  O   -0.838207
    21  H    0.690848
    22  H    0.536118
    23  O   -0.427251
    24  H    0.421645
    25  O   -0.749318
    26  H    0.504843
    27  H    0.256784
    28  O   -0.672345
    29  H    0.328066
    30  H    0.191193
 Sum of APT charges =  -0.00000
 APT charges with hydrogens summed into heavy atoms:
               1
     1  O   -0.460772
     2  C    0.108386
     3  C    0.329326
     4  C    0.111592
     5  C    0.212865
     6  C    0.104830
    11  C    0.179316
    14  O   -0.107543
    16  O   -0.138109
    18  O   -0.046150
    20  O   -0.147359
    23  O   -0.005606
    25  O    0.012309
    28  O   -0.153086
 Electronic spatial extent (au):  <R**2>=           2727.4180
 Charge=             -0.0000 electrons
 Dipole moment (field-independent basis, Debye):
    X=             -6.2885    Y=              1.8097    Z=              3.3019  Tot=              7.3295
 Quadrupole moment (field-independent basis, Debye-Ang):
   XX=            -89.5257   YY=            -88.5988   ZZ=            -79.8414
   XY=             -8.6814   XZ=             -1.2933   YZ=              3.4917
 Traceless Quadrupole moment (field-independent basis, Debye-Ang):
   XX=             -3.5371   YY=             -2.6102   ZZ=              6.1473
   XY=             -8.6814   XZ=             -1.2933   YZ=              3.4917
 Octapole moment (field-independent basis, Debye-Ang**2):
  XXX=            -88.4749  YYY=              1.9589  ZZZ=              4.9427  XYY=              6.0131
  XXY=             11.2628  XXZ=             37.6545  XZZ=             -4.2384  YZZ=             -0.5182
  YYZ=             11.3297  XYZ=              8.4019
 Hexadecapole moment (field-independent basis, Debye-Ang**3):
 XXXX=          -1641.2226 YYYY=          -1354.4305 ZZZZ=           -415.7382 XXXY=           -110.8797
 XXXZ=             -1.2997 YYYX=            -30.2756 YYYZ=             15.9268 ZZZX=            -31.0410
 ZZZY=              2.2053 XXYY=           -434.7667 XXZZ=           -277.4590 YYZZ=           -264.0528
 XXYZ=             -7.0495 YYXZ=              2.1576 ZZXY=             10.6280
 N-N= 1.164673089337D+03 E-N=-4.301462214617D+03  KE= 8.332501260846D+02
  Exact polarizability:   0.000   0.000   0.000   0.000   0.000   0.000
 Approx polarizability: 143.201  -5.238 144.094  -6.881  -4.757 126.083

 This type of calculation cannot be archived.


 THERE'S A SUCKER BORN EVERY MINUTE

              -- PHINEAS TAYLOR (P.T.) BARNUM
 Job cpu time:       0 days  1 hours 26 minutes 43.0 seconds.
 File lengths (MBytes):  RWF=    220 Int=      0 D2E=      0 Chk=      9 Scr=      1
 Normal termination of Gaussian 09 at Sat Jan 14 01:20:20 2017.
