 Entering Gaussian System, Link 0=g09
 Initial command:
 /global/software/gaussian/g09.e01/l1.exe "/scratch/10461027.yak.local/Gau-6432.inp" -scrdir="/scratch/10461027.yak.local/"
 Entering Link 1 = /global/software/gaussian/g09.e01/l1.exe PID=      6433.
  
 Copyright (c) 1988,1990,1992,1993,1995,1998,2003,2009,2015,
            Gaussian, Inc.  All Rights Reserved.
  
 This is part of the Gaussian(R) 09 program.  It is based on
 the Gaussian(R) 03 system (copyright 2003, Gaussian, Inc.),
 the Gaussian(R) 98 system (copyright 1998, Gaussian, Inc.),
 the Gaussian(R) 94 system (copyright 1995, Gaussian, Inc.),
 the Gaussian 92(TM) system (copyright 1992, Gaussian, Inc.),
 the Gaussian 90(TM) system (copyright 1990, Gaussian, Inc.),
 the Gaussian 88(TM) system (copyright 1988, Gaussian, Inc.),
 the Gaussian 86(TM) system (copyright 1986, Carnegie Mellon
 University), and the Gaussian 82(TM) system (copyright 1983,
 Carnegie Mellon University). Gaussian is a federally registered
 trademark of Gaussian, Inc.
  
 This software contains proprietary and confidential information,
 including trade secrets, belonging to Gaussian, Inc.
  
 This software is provided under written license and may be
 used, copied, transmitted, or stored only in accord with that
 written license.
  
 The following legend is applicable only to US Government
 contracts under FAR:
  
                    RESTRICTED RIGHTS LEGEND
  
 Use, reproduction and disclosure by the US Government is
 subject to restrictions as set forth in subparagraphs (a)
 and (c) of the Commercial Computer Software - Restricted
 Rights clause in FAR 52.227-19.
  
 Gaussian, Inc.
 340 Quinnipiac St., Bldg. 40, Wallingford CT 06492
  
  
 ---------------------------------------------------------------
 Warning -- This program may not be used in any manner that
 competes with the business of Gaussian, Inc. or will provide
 assistance to any competitor of Gaussian, Inc.  The licensee
 of this program is prohibited from giving any competitor of
 Gaussian, Inc. access to this program.  By using this program,
 the user acknowledges that Gaussian, Inc. is engaged in the
 business of creating and licensing software in the field of
 computational chemistry and represents and warrants to the
 licensee that it is not a competitor of Gaussian, Inc. and that
 it will not use this program in any manner prohibited above.
 ---------------------------------------------------------------
  

 Cite this work as:
 Gaussian 09, Revision E.01,
 M. J. Frisch, G. W. Trucks, H. B. Schlegel, G. E. Scuseria, 
 M. A. Robb, J. R. Cheeseman, G. Scalmani, V. Barone, B. Mennucci, 
 G. A. Petersson, H. Nakatsuji, M. Caricato, X. Li, H. P. Hratchian, 
 A. F. Izmaylov, J. Bloino, G. Zheng, J. L. Sonnenberg, M. Hada, 
 M. Ehara, K. Toyota, R. Fukuda, J. Hasegawa, M. Ishida, T. Nakajima, 
 Y. Honda, O. Kitao, H. Nakai, T. Vreven, J. A. Montgomery, Jr., 
 J. E. Peralta, F. Ogliaro, M. Bearpark, J. J. Heyd, E. Brothers, 
 K. N. Kudin, V. N. Staroverov, T. Keith, R. Kobayashi, J. Normand, 
 K. Raghavachari, A. Rendell, J. C. Burant, S. S. Iyengar, J. Tomasi, 
 M. Cossi, N. Rega, J. M. Millam, M. Klene, J. E. Knox, J. B. Cross, 
 V. Bakken, C. Adamo, J. Jaramillo, R. Gomperts, R. E. Stratmann, 
 O. Yazyev, A. J. Austin, R. Cammi, C. Pomelli, J. W. Ochterski, 
 R. L. Martin, K. Morokuma, V. G. Zakrzewski, G. A. Voth, 
 P. Salvador, J. J. Dannenberg, S. Dapprich, A. D. Daniels, 
 O. Farkas, J. B. Foresman, J. V. Ortiz, J. Cioslowski, 
 and D. J. Fox, Gaussian, Inc., Wallingford CT, 2013.
 
 ******************************************
 Gaussian 09:  ES64L-G09RevE.01 30-Nov-2015
                13-Jan-2017 
 ******************************************
 -------------------------------------
 # b3lyp/6-31g(d) irc=(calcfc,forward)
 -------------------------------------
 1/10=4,14=-1,18=10,22=1,26=3,38=1,44=3/1,23;
 2/12=2,17=6,18=5,29=1,40=1/2;
 3/5=1,6=6,7=1,11=2,16=1,25=1,30=1,71=2,74=-5,140=1/1,2,3;
 4//1;
 5/5=2,38=5/2;
 8/6=4,10=90,11=11/1;
 11/6=1,8=1,9=11,15=111,16=1/1,2,10;
 10/6=1,13=1/2;
 6/7=2,8=2,9=2,10=2,28=1/1;
 7/10=1,18=20,25=1/1,2,3,16;
 1/10=4,14=-1,18=10,22=1,26=3,44=3/23(2);
 2/29=1/2;
 99/5=20/99;
 2/29=1/2;
 3/5=1,6=6,7=1,11=2,16=1,25=1,30=1,71=2,74=-5,140=1/1,2,3;
 4/5=5,16=3,69=1/1;
 5/5=2,38=5/2;
 8/6=4,10=90,11=11/1;
 11/6=1,8=1,9=11,15=111,16=1/1,2,10;
 10/6=1,13=1/2;
 7/10=1,18=20,25=1/1,2,3,16;
 1/14=-1,18=10,22=1,26=3,44=3/23(-8);
 2/29=1/2;
 6/7=2,8=2,9=2,10=2,19=2,28=1/1;
 99/5=20,9=1/99;
 --------------------------------
 glo_2w_beta_ts_boat5_B3LYP_631Gd
 --------------------------------
 Symbolic Z-matrix:
 Charge =  0 Multiplicity = 1
 8                     0.37694   0.73409  -0.62138 
 6                    -1.4285   -0.18419   0.73312 
 6                     0.18167  -1.79562  -0.37412 
 6                    -0.43314  -1.35047   0.95355 
 6                     1.01121  -0.67771  -1.08522 
 6                    -1.03573   0.69274  -0.48006 
 1                    -1.00462  -2.19044   1.36887 
 1                    -1.46063   0.22821  -1.38082 
 1                    -1.4388    0.42904   1.64427 
 1                     0.87961  -2.62445  -0.20502 
 6                    -1.61591   2.10442  -0.37664 
 1                    -1.26421   2.70549  -1.22145 
 1                    -1.24925   2.58477   0.54843 
 1                     0.72562  -0.63266  -2.16445 
 8                     2.26715  -0.71648  -0.79065 
 8                    -3.03302   2.0823   -0.42711 
 1                    -3.33191   1.2841    0.04525 
 8                    -0.95506  -2.23454  -1.13614 
 1                    -0.67132  -2.34172  -2.05796 
 8                     0.62998  -1.01399   1.86624 
 1                     0.2414   -0.96865   2.75389 
 8                    -2.7688   -0.66032   0.5885 
 1                    -2.74982  -1.25782  -0.18216 
 8                     3.75828   1.2183   -0.38247 
 1                     2.8506    1.33548   0.65467 
 1                     4.58707   0.80865  -0.08751 
 1                     3.19793   0.43141  -0.79721 
 8                     1.92394   1.31959   1.25029 
 1                     1.20277   1.24189   0.47537 
 1                     1.81257   0.40006   1.60365 
 
 IRC-IRC-IRC-IRC-IRC-IRC-IRC-IRC-IRC-IRC-IRC-IRC-IRC-IRC-IRC-IRC-IRC-IRC
 ------------------------------------------------------------------------
 INPUT DATA FOR L123
 ------------------------------------------------------------------------
 GENERAL PARAMETERS:
 Rxn path following direction = Forward
 Maximum points per path      =  10
 Step size                    =   0.100 bohr
 Integration scheme           = HPC                                 
    Redo corrector integration= Yes                                 
    DWI Weight Power          =  2
    DWI will use Hessian update vectors when possible.
    Max correction cycles     =  20
 Initial Hessian              = CalcFC
 Hessian evaluation           = All updating
 Hessian updating method      = Bofill                              
 ------------------------------------------------------------------------
 IRC-IRC-IRC-IRC-IRC-IRC-IRC-IRC-IRC-IRC-IRC-IRC-IRC-IRC-IRC-IRC-IRC-IRC
                          Input orientation:                          
 ---------------------------------------------------------------------
 Center     Atomic      Atomic             Coordinates (Angstroms)
 Number     Number       Type             X           Y           Z
 ---------------------------------------------------------------------
      1          8           0        0.376942    0.734090   -0.621377
      2          6           0       -1.428503   -0.184194    0.733120
      3          6           0        0.181673   -1.795615   -0.374122
      4          6           0       -0.433138   -1.350465    0.953553
      5          6           0        1.011212   -0.677714   -1.085220
      6          6           0       -1.035730    0.692744   -0.480058
      7          1           0       -1.004621   -2.190445    1.368866
      8          1           0       -1.460626    0.228214   -1.380823
      9          1           0       -1.438804    0.429044    1.644268
     10          1           0        0.879607   -2.624448   -0.205021
     11          6           0       -1.615908    2.104416   -0.376635
     12          1           0       -1.264206    2.705494   -1.221446
     13          1           0       -1.249245    2.584770    0.548432
     14          1           0        0.725620   -0.632660   -2.164451
     15          8           0        2.267147   -0.716478   -0.790645
     16          8           0       -3.033016    2.082297   -0.427105
     17          1           0       -3.331908    1.284098    0.045251
     18          8           0       -0.955059   -2.234540   -1.136139
     19          1           0       -0.671315   -2.341721   -2.057965
     20          8           0        0.629982   -1.013990    1.866244
     21          1           0        0.241398   -0.968653    2.753888
     22          8           0       -2.768797   -0.660320    0.588500
     23          1           0       -2.749816   -1.257818   -0.182161
     24          8           0        3.758279    1.218300   -0.382472
     25          1           0        2.850602    1.335483    0.654670
     26          1           0        4.587072    0.808652   -0.087511
     27          1           0        3.197930    0.431409   -0.797210
     28          8           0        1.923939    1.319592    1.250290
     29          1           0        1.202767    1.241888    0.475370
     30          1           0        1.812573    0.400057    1.603651
 ---------------------------------------------------------------------
                    Distance matrix (angstroms):
                    1          2          3          4          5
     1  O    0.000000
     2  C    2.436707   0.000000
     3  C    2.549249   2.532850   0.000000
     4  C    2.735325   1.549042   1.529337   0.000000
     5  C    1.615747   3.082553   1.563169   2.587535   0.000000
     6  C    1.420325   1.547608   2.772223   2.567696   2.536602
     7  H    3.797721   2.146833   2.145039   1.097563   3.517737
     8  H    2.051664   2.154035   2.794007   2.999545   2.649164
     9  H    2.919441   1.098343   3.413056   2.157569   3.831135
    10  H    3.421374   3.487452   1.096664   2.165323   2.140524
    11  C    2.430873   2.550375   4.294362   3.886457   3.891542
    12  H    2.634366   3.492509   4.802968   4.676761   4.079483
    13  H    2.727261   2.780900   4.699618   4.039335   4.292119
    14  H    2.090612   3.638308   2.203093   3.402927   1.117288
    15  O    2.388655   4.032743   2.384791   3.276539   1.290601
    16  O    3.671950   3.009579   5.037384   4.522105   4.940299
    17  H    3.808211   2.500399   4.691029   4.021045   4.897894
    18  O    3.294233   2.814640   1.437179   2.328262   2.508490
    19  H    3.552920   3.608104   1.964980   3.179396   2.558525
    20  O    3.050913   2.491965   2.414779   1.440987   2.994922
    21  H    3.782872   2.736320   3.236028   1.960098   3.926323
    22  O    3.647445   1.429685   3.304665   2.462695   4.134019
    23  H    3.733259   1.932945   2.986587   2.581749   3.911185
    24  O    3.424175   5.487645   4.677164   5.094261   3.411026
    25  H    2.847624   4.541620   4.240916   4.252834   3.234739
    26  H    4.244498   6.151936   5.125611   5.563102   3.998935
    27  H    2.842623   4.911696   3.773121   4.407369   2.468773
    28  O    2.497829   3.710486   3.921571   3.573943   3.205762
    29  H    1.463796   3.003952   3.315222   3.102441   2.481332
    30  H    2.668963   3.406427   3.375262   2.920646   3.005628
                    6          7          8          9         10
     6  C    0.000000
     7  H    3.425240   0.000000
     8  H    1.098955   3.690344   0.000000
     9  H    2.178249   2.669473   3.031829   0.000000
    10  H    3.840303   2.493149   3.872581   4.256608   0.000000
    11  C    1.529745   4.676139   2.133692   2.631024   5.349692
    12  H    2.157086   5.545027   2.490160   3.664018   5.834153
    13  H    2.164057   4.851354   3.052878   2.425684   5.677645
    14  H    2.774208   4.231401   2.476863   4.507581   2.798267
    15  O    3.604354   4.188142   3.890635   4.579858   2.430755
    16  O    2.433683   5.059271   2.611439   3.092789   6.124654
    17  H    2.428597   4.386419   2.578813   2.621415   5.751193
    18  O    3.000990   2.505883   2.525990   3.880638   2.094041
    19  H    3.439559   3.446324   2.772381   4.687505   2.432837
    20  O    3.345545   2.074454   4.056742   2.532093   2.635532
    21  H    3.853531   2.227919   4.628738   2.451100   3.450233
    22  O    2.444610   2.462229   2.525676   2.017484   4.218806
    23  H    2.613719   2.514196   2.303713   2.810711   3.878261
    24  O    4.823718   6.113260   5.404993   5.633851   4.804680
    25  H    4.099305   5.273044   4.894483   4.494434   4.506101
    26  H    5.637679   6.510196   6.211619   6.281269   5.054234
    27  H    4.253558   5.406241   4.699366   5.240241   3.881182
    28  O    3.485209   4.572842   4.423702   3.500905   4.331745
    29  H    2.495049   4.177536   3.400978   3.000822   3.939025
    30  H    3.541234   3.834372   4.432882   3.251760   3.645456
                   11         12         13         14         15
    11  C    0.000000
    12  H    1.094849   0.000000
    13  H    1.104957   1.774054   0.000000
    14  H    4.021271   3.998992   4.648837   0.000000
    15  O    4.817361   4.936186   5.005635   2.066561   0.000000
    16  O    1.418179   2.036674   2.094276   4.951435   6.004751
    17  H    1.948221   2.810744   2.506476   5.002027   6.004202
    18  O    4.454223   4.950433   5.113714   2.539316   3.578616
    19  H    4.846366   5.150307   5.603358   2.209900   3.589161
    20  O    4.449605   5.191949   4.268395   4.049822   3.134945
    21  H    4.763771   5.618672   4.439918   4.953526   4.090350
    22  O    3.147126   4.107116   3.583469   4.448646   5.221679
    23  H    3.553616   4.358324   4.189387   4.049562   5.082639
    24  O    5.446753   5.304807   5.273435   3.974736   2.476579
    25  H    4.648071   4.725292   4.287278   4.041853   2.576800
    26  H    6.343466   6.254700   6.133646   4.615395   2.863996
    27  H    5.113597   5.026141   5.121043   3.018925   1.477851
    28  O    3.974085   4.265498   3.487460   4.111899   2.903238
    29  H    3.068354   3.332759   2.796611   3.272652   2.563376
    30  H    4.310551   4.771036   3.906557   4.055436   2.680661
                   16         17         18         19         20
    16  O    0.000000
    17  H    0.974463   0.000000
    18  O    4.843110   4.407483   0.000000
    19  H    5.273450   4.964759   0.970444   0.000000
    20  O    5.316389   4.928874   3.607825   4.342310   0.000000
    21  H    5.490792   5.017979   4.262193   5.086481   0.970033
    22  O    2.936531   2.095942   2.956720   3.772309   3.648207
    23  H    3.361037   2.617610   2.255042   3.002275   3.959602
    24  O    6.846179   7.103381   5.891152   5.924722   4.452649
    25  H    6.028676   6.212686   5.516803   5.769239   3.452403
    26  H    7.733255   7.934351   6.409045   6.438802   4.774698
    27  H    6.456555   6.638946   4.946663   4.924511   3.972093
    28  O    5.288362   5.392338   5.159024   5.575402   2.738490
    29  H    4.411644   4.555224   4.397582   4.772025   2.711383
    30  H    5.516669   5.447552   4.701844   5.205236   1.861990
                   21         22         23         24         25
    21  H    0.000000
    22  O    3.720920   0.000000
    23  H    4.201352   0.975337   0.000000
    24  O    5.194995   6.861102   6.966103   0.000000
    25  H    4.064936   5.963661   6.228176   1.383211   0.000000
    26  H    5.487918   7.531512   7.622938   0.970418   1.960539
    27  H    4.828204   6.222049   6.213490   1.051283   1.745263
    28  O    3.213692   5.136126   5.526205   2.457840   1.101690
    29  H    3.316981   4.405056   4.722689   2.695754   1.660201
    30  H    2.380127   4.810809   5.172337   2.898272   1.689110
                   26         27         28         29         30
    26  H    0.000000
    27  H    1.604899   0.000000
    28  O    3.023747   2.569860   0.000000
    29  H    3.458041   2.501402   1.061427   0.000000
    30  H    3.274878   2.772063   0.991368   1.534132   0.000000
 Symmetry turned off by external request.
 Stoichiometry    C6H16O8
 Framework group  C1[X(C6H16O8)]
 Deg. of freedom    84
 Full point group                 C1      NOp   1
 Rotational constants (GHZ):      0.8395744      0.4992004      0.4127142
 Standard basis: 6-31G(d) (6D, 7F)
   242 basis functions,   456 primitive gaussians,   242 cartesian basis functions
    58 alpha electrons       58 beta electrons
       nuclear repulsion energy      1134.1435199058 Hartrees.
 NAtoms=   30 NActive=   30 NUniq=   30 SFac= 1.00D+00 NAtFMM=   60 NAOKFM=F Big=F
 Integral buffers will be    131072 words long.
 Raffenetti 2 integral format.
 Two-electron integral symmetry is turned off.
 One-electron integrals computed using PRISM.
 NBasis=   242 RedAO= T EigKep=  1.56D-03  NBF=   242
 NBsUse=   242 1.00D-06 EigRej= -1.00D+00 NBFU=   242
 ExpMin= 1.61D-01 ExpMax= 5.48D+03 ExpMxC= 8.25D+02 IAcc=1 IRadAn=         1 AccDes= 0.00D+00
 Harris functional with IExCor=  402 and IRadAn=       1 diagonalized for initial guess.
 HarFok:  IExCor=  402 AccDes= 0.00D+00 IRadAn=         1 IDoV= 1 UseB2=F ITyADJ=14
 ICtDFT=  3500011 ScaDFX=  1.000000  1.000000  1.000000  1.000000
 FoFCou: FMM=F IPFlag=           0 FMFlag=      100000 FMFlg1=           0
         NFxFlg=           0 DoJE=T BraDBF=F KetDBF=T FulRan=T
         wScrn=  0.000000 ICntrl=     500 IOpCl=  0 I1Cent=   200000004 NGrid=           0
         NMat0=    1 NMatS0=      1 NMatT0=    0 NMatD0=    1 NMtDS0=    0 NMtDT0=    0
 Symmetry not used in FoFCou.
 Requested convergence on RMS density matrix=1.00D-08 within 128 cycles.
 Requested convergence on MAX density matrix=1.00D-06.
 Requested convergence on             energy=1.00D-06.
 No special actions if energy rises.
 Integral accuracy reduced to 1.0D-05 until final iterations.
 Initial convergence to 1.0D-05 achieved.  Increase integral accuracy.
 SCF Done:  E(RB3LYP) =  -839.959100837     A.U. after   14 cycles
            NFock= 14  Conv=0.82D-08     -V/T= 2.0086
 DoSCS=F DFT=T ScalE2(SS,OS)=  1.000000  1.000000
 Range of M.O.s used for correlation:     1   242
 NBasis=   242 NAE=    58 NBE=    58 NFC=     0 NFV=     0
 NROrb=    242 NOA=    58 NOB=    58 NVA=   184 NVB=   184
 Symmetrizing basis deriv contribution to polar:
 IMax=3 JMax=2 DiffMx= 0.00D+00
 G2DrvN: will do    31 centers at a time, making    1 passes.
 Calling FoFCou, ICntrl=  3107 FMM=F I1Cent=   0 AccDes= 0.00D+00.
 End of G2Drv F.D. properties file   721 does not exist.
 End of G2Drv F.D. properties file   722 does not exist.
 End of G2Drv F.D. properties file   788 does not exist.
          IDoAtm=111111111111111111111111111111
          Differentiating once with respect to nuclear coordinates.
          There are    93 degrees of freedom in the 1st order CPHF.  IDoFFX=6 NUNeed=     0.
     87 vectors produced by pass  0 Test12= 1.15D-14 1.08D-09 XBig12= 1.36D-01 7.50D-02.
 AX will form    87 AO Fock derivatives at one time.
     87 vectors produced by pass  1 Test12= 1.15D-14 1.08D-09 XBig12= 1.86D-02 1.43D-02.
     87 vectors produced by pass  2 Test12= 1.15D-14 1.08D-09 XBig12= 1.59D-04 1.64D-03.
     87 vectors produced by pass  3 Test12= 1.15D-14 1.08D-09 XBig12= 3.98D-07 7.84D-05.
     87 vectors produced by pass  4 Test12= 1.15D-14 1.08D-09 XBig12= 4.76D-10 2.09D-06.
     66 vectors produced by pass  5 Test12= 1.15D-14 1.08D-09 XBig12= 4.06D-13 5.50D-08.
      4 vectors produced by pass  6 Test12= 1.15D-14 1.08D-09 XBig12= 3.52D-16 1.59D-09.
 InvSVY:  IOpt=1 It=  1 EMax= 5.27D-16
 Solved reduced A of dimension   505 with    93 vectors.
 End of Minotr F.D. properties file   721 does not exist.
 End of Minotr F.D. properties file   722 does not exist.
 End of Minotr F.D. properties file   788 does not exist.

 **********************************************************************

            Population analysis using the SCF density.

 **********************************************************************

 Alpha  occ. eigenvalues --  -19.20526 -19.19066 -19.17092 -19.16497 -19.15913
 Alpha  occ. eigenvalues --  -19.15575 -19.12975 -19.07617 -10.27331 -10.25922
 Alpha  occ. eigenvalues --  -10.24989 -10.24195 -10.23836 -10.22644  -1.08216
 Alpha  occ. eigenvalues --   -1.06009  -1.04363  -1.03398  -1.02010  -1.01258
 Alpha  occ. eigenvalues --   -1.00245  -0.95764  -0.78262  -0.74605  -0.68351
 Alpha  occ. eigenvalues --   -0.64600  -0.61343  -0.58359  -0.57707  -0.56429
 Alpha  occ. eigenvalues --   -0.54244  -0.53735  -0.51973  -0.50899  -0.49735
 Alpha  occ. eigenvalues --   -0.48017  -0.45999  -0.44943  -0.43902  -0.42744
 Alpha  occ. eigenvalues --   -0.42137  -0.41278  -0.40505  -0.39789  -0.38967
 Alpha  occ. eigenvalues --   -0.38155  -0.37187  -0.35556  -0.33981  -0.33421
 Alpha  occ. eigenvalues --   -0.32490  -0.31841  -0.29832  -0.28455  -0.26421
 Alpha  occ. eigenvalues --   -0.25835  -0.23879  -0.21827
 Alpha virt. eigenvalues --    0.02700   0.05989   0.07202   0.07580   0.09497
 Alpha virt. eigenvalues --    0.09927   0.11928   0.12612   0.13157   0.14569
 Alpha virt. eigenvalues --    0.15215   0.16333   0.17005   0.19037   0.19931
 Alpha virt. eigenvalues --    0.20752   0.21811   0.22413   0.23097   0.24266
 Alpha virt. eigenvalues --    0.25035   0.26372   0.27121   0.27373   0.29890
 Alpha virt. eigenvalues --    0.31475   0.33082   0.36704   0.51860   0.53311
 Alpha virt. eigenvalues --    0.54783   0.56851   0.57323   0.58072   0.58770
 Alpha virt. eigenvalues --    0.59170   0.60664   0.62932   0.63980   0.66126
 Alpha virt. eigenvalues --    0.66509   0.67250   0.68840   0.72954   0.74632
 Alpha virt. eigenvalues --    0.75916   0.76596   0.77560   0.79436   0.80096
 Alpha virt. eigenvalues --    0.80470   0.81331   0.81862   0.83957   0.84540
 Alpha virt. eigenvalues --    0.85852   0.86536   0.87494   0.88659   0.89355
 Alpha virt. eigenvalues --    0.90768   0.91416   0.93055   0.93895   0.95247
 Alpha virt. eigenvalues --    0.96064   0.97431   0.98749   1.01188   1.02715
 Alpha virt. eigenvalues --    1.05341   1.06461   1.06943   1.08277   1.09228
 Alpha virt. eigenvalues --    1.10353   1.10880   1.14097   1.15583   1.17703
 Alpha virt. eigenvalues --    1.19803   1.21042   1.24529   1.24878   1.27932
 Alpha virt. eigenvalues --    1.31293   1.32770   1.34265   1.35566   1.39363
 Alpha virt. eigenvalues --    1.40001   1.42321   1.43874   1.48361   1.49498
 Alpha virt. eigenvalues --    1.50737   1.54412   1.57172   1.57572   1.59802
 Alpha virt. eigenvalues --    1.60714   1.61417   1.64929   1.65977   1.66932
 Alpha virt. eigenvalues --    1.69385   1.71071   1.71405   1.72375   1.73780
 Alpha virt. eigenvalues --    1.75947   1.76788   1.77741   1.78049   1.78907
 Alpha virt. eigenvalues --    1.80532   1.81516   1.82231   1.83892   1.88148
 Alpha virt. eigenvalues --    1.90515   1.91732   1.93995   1.95446   1.97922
 Alpha virt. eigenvalues --    2.00392   2.01256   2.02875   2.04589   2.05504
 Alpha virt. eigenvalues --    2.06936   2.09266   2.09471   2.13993   2.14465
 Alpha virt. eigenvalues --    2.16635   2.18805   2.21616   2.26531   2.27258
 Alpha virt. eigenvalues --    2.29005   2.32111   2.35405   2.36703   2.38727
 Alpha virt. eigenvalues --    2.40576   2.42564   2.45690   2.46795   2.49390
 Alpha virt. eigenvalues --    2.51966   2.53532   2.57227   2.57867   2.59507
 Alpha virt. eigenvalues --    2.61046   2.64352   2.66778   2.70147   2.72929
 Alpha virt. eigenvalues --    2.75085   2.76003   2.81905   2.85736   2.88979
 Alpha virt. eigenvalues --    2.91540   2.92439   3.03355   3.04184   3.12700
 Alpha virt. eigenvalues --    3.72058   3.74752   3.80821   3.85616   3.91199
 Alpha virt. eigenvalues --    3.99085   4.04005   4.18627   4.31520   4.39421
 Alpha virt. eigenvalues --    4.44351   4.56969   4.67962   4.78546
          Condensed to atoms (all electrons):
               1          2          3          4          5          6
     1  O    8.584037  -0.040868  -0.028745   0.001095   0.082080   0.128830
     2  C   -0.040868   5.108451  -0.040971   0.306634  -0.017899   0.282136
     3  C   -0.028745  -0.040971   5.160312   0.330892   0.253147  -0.001392
     4  C    0.001095   0.306634   0.330892   4.973265  -0.025022  -0.042476
     5  C    0.082080  -0.017899   0.253147  -0.025022   4.686133  -0.005039
     6  C    0.128830   0.282136  -0.001392  -0.042476  -0.005039   5.018754
     7  H    0.000015  -0.064145  -0.035656   0.362851   0.004067   0.006110
     8  H   -0.033475  -0.067126  -0.004562  -0.006073  -0.004077   0.352892
     9  H    0.002835   0.357476   0.004143  -0.049955   0.000553  -0.046806
    10  H    0.003201   0.005712   0.349434  -0.037907  -0.046548   0.000133
    11  C   -0.028088  -0.032364   0.000107   0.003726   0.000774   0.349115
    12  H    0.003096   0.006712   0.000023  -0.000132  -0.000068  -0.030543
    13  H    0.002391  -0.017585   0.000022  -0.000264  -0.000093  -0.041477
    14  H   -0.053128   0.001123  -0.113918   0.003191   0.355705  -0.004001
    15  O   -0.051635   0.000613  -0.053019  -0.002005   0.368601   0.001617
    16  O    0.001381   0.004020  -0.000000   0.000113  -0.000004  -0.032056
    17  H    0.000094   0.000867  -0.000005   0.000576  -0.000015  -0.009578
    18  O    0.001069   0.005394   0.171903  -0.046158  -0.023704  -0.006843
    19  H   -0.000420  -0.000040  -0.036624   0.007149  -0.001490  -0.000393
    20  O   -0.001463  -0.035679  -0.039247   0.186575   0.000740   0.001461
    21  H    0.000117  -0.001932   0.006087  -0.019654   0.000103  -0.000221
    22  O    0.001637   0.195613   0.000156  -0.027345   0.000274  -0.031444
    23  H    0.000012  -0.031159  -0.000880  -0.008169   0.000304  -0.004726
    24  O   -0.000156   0.000002  -0.000123  -0.000001   0.003252   0.000005
    25  H    0.001913   0.000004   0.000021  -0.000007  -0.000694  -0.000052
    26  H    0.000005  -0.000000  -0.000001  -0.000000  -0.000094   0.000000
    27  H    0.000925  -0.000020   0.002506  -0.000052  -0.007092   0.000016
    28  O   -0.069058  -0.000051  -0.000561   0.001782   0.006715   0.005063
    29  H    0.112602  -0.000758   0.000031  -0.000798  -0.006009  -0.010985
    30  H    0.003571   0.000512  -0.001961  -0.004367   0.000469  -0.000228
               7          8          9         10         11         12
     1  O    0.000015  -0.033475   0.002835   0.003201  -0.028088   0.003096
     2  C   -0.064145  -0.067126   0.357476   0.005712  -0.032364   0.006712
     3  C   -0.035656  -0.004562   0.004143   0.349434   0.000107   0.000023
     4  C    0.362851  -0.006073  -0.049955  -0.037907   0.003726  -0.000132
     5  C    0.004067  -0.004077   0.000553  -0.046548   0.000774  -0.000068
     6  C    0.006110   0.352892  -0.046806   0.000133   0.349115  -0.030543
     7  H    0.605199  -0.000350   0.000133  -0.007530  -0.000158   0.000004
     8  H   -0.000350   0.630933   0.006067   0.000241  -0.043054  -0.008527
     9  H    0.000133   0.006067   0.614368  -0.000180  -0.006914   0.000048
    10  H   -0.007530   0.000241  -0.000180   0.597687   0.000015  -0.000000
    11  C   -0.000158  -0.043054  -0.006914   0.000015   4.841574   0.370476
    12  H    0.000004  -0.008527   0.000048  -0.000000   0.370476   0.590797
    13  H   -0.000005   0.007330   0.007023  -0.000000   0.347067  -0.051475
    14  H   -0.000270   0.009504   0.000021   0.003940  -0.000355  -0.000013
    15  O   -0.000168   0.000105   0.000003   0.008298  -0.000056   0.000000
    16  O    0.000003   0.005200   0.000117  -0.000000   0.266006  -0.038119
    17  H    0.000004   0.000087  -0.001246   0.000001  -0.036245   0.005382
    18  O    0.001431   0.009231   0.000085  -0.033497   0.000324  -0.000001
    19  H   -0.000312   0.001517   0.000018  -0.001162  -0.000025   0.000000
    20  O   -0.028360  -0.000056   0.001699   0.003524  -0.000088   0.000002
    21  H   -0.007112   0.000016   0.004779  -0.000237  -0.000008  -0.000000
    22  O    0.007467   0.001682  -0.036686  -0.000141  -0.000686  -0.000232
    23  H    0.001015   0.006458   0.006784   0.000109  -0.000189   0.000019
    24  O   -0.000000  -0.000000   0.000000   0.000004  -0.000000  -0.000000
    25  H    0.000000   0.000006   0.000010  -0.000005  -0.000006   0.000001
    26  H    0.000000   0.000000  -0.000000  -0.000001  -0.000000   0.000000
    27  H    0.000004  -0.000014  -0.000002  -0.000080   0.000002   0.000002
    28  O   -0.000037  -0.000134   0.000009   0.000035  -0.000098   0.000007
    29  H    0.000033   0.001838   0.001024  -0.000172  -0.002055  -0.000098
    30  H    0.000375   0.000031   0.000085   0.000067  -0.000030   0.000001
              13         14         15         16         17         18
     1  O    0.002391  -0.053128  -0.051635   0.001381   0.000094   0.001069
     2  C   -0.017585   0.001123   0.000613   0.004020   0.000867   0.005394
     3  C    0.000022  -0.113918  -0.053019  -0.000000  -0.000005   0.171903
     4  C   -0.000264   0.003191  -0.002005   0.000113   0.000576  -0.046158
     5  C   -0.000093   0.355705   0.368601  -0.000004  -0.000015  -0.023704
     6  C   -0.041477  -0.004001   0.001617  -0.032056  -0.009578  -0.006843
     7  H   -0.000005  -0.000270  -0.000168   0.000003   0.000004   0.001431
     8  H    0.007330   0.009504   0.000105   0.005200   0.000087   0.009231
     9  H    0.007023   0.000021   0.000003   0.000117  -0.001246   0.000085
    10  H   -0.000000   0.003940   0.008298  -0.000000   0.000001  -0.033497
    11  C    0.347067  -0.000355  -0.000056   0.266006  -0.036245   0.000324
    12  H   -0.051475  -0.000013   0.000000  -0.038119   0.005382  -0.000001
    13  H    0.668504   0.000004   0.000003  -0.040351  -0.000276  -0.000006
    14  H    0.000004   0.746998  -0.043298   0.000004   0.000001   0.003580
    15  O    0.000003  -0.043298   8.385671   0.000000   0.000000   0.001600
    16  O   -0.040351   0.000004   0.000000   8.253770   0.232209  -0.000002
    17  H   -0.000276   0.000001   0.000000   0.232209   0.360027  -0.000000
    18  O   -0.000006   0.003580   0.001600  -0.000002  -0.000000   8.317262
    19  H    0.000001   0.014122   0.000062   0.000000  -0.000002   0.236693
    20  O   -0.000020   0.000041   0.000521   0.000000  -0.000009   0.001150
    21  H    0.000005   0.000014   0.000118   0.000000  -0.000002  -0.000092
    22  O    0.000299   0.000020  -0.000000  -0.009497   0.037460  -0.006092
    23  H    0.000020  -0.000041  -0.000003   0.000566  -0.001140   0.024245
    24  O    0.000000   0.000189  -0.065582  -0.000000   0.000000   0.000000
    25  H    0.000006   0.000088   0.005746   0.000000   0.000000  -0.000000
    26  H    0.000000   0.000008   0.003770   0.000000   0.000000  -0.000000
    27  H   -0.000001  -0.002897   0.108470   0.000000   0.000000  -0.000016
    28  O    0.000046  -0.000153  -0.005807   0.000000  -0.000000   0.000000
    29  H    0.003236   0.001615   0.004642   0.000014   0.000006  -0.000025
    30  H   -0.000006   0.000269   0.009130   0.000000   0.000000   0.000012
              19         20         21         22         23         24
     1  O   -0.000420  -0.001463   0.000117   0.001637   0.000012  -0.000156
     2  C   -0.000040  -0.035679  -0.001932   0.195613  -0.031159   0.000002
     3  C   -0.036624  -0.039247   0.006087   0.000156  -0.000880  -0.000123
     4  C    0.007149   0.186575  -0.019654  -0.027345  -0.008169  -0.000001
     5  C   -0.001490   0.000740   0.000103   0.000274   0.000304   0.003252
     6  C   -0.000393   0.001461  -0.000221  -0.031444  -0.004726   0.000005
     7  H   -0.000312  -0.028360  -0.007112   0.007467   0.001015  -0.000000
     8  H    0.001517  -0.000056   0.000016   0.001682   0.006458  -0.000000
     9  H    0.000018   0.001699   0.004779  -0.036686   0.006784   0.000000
    10  H   -0.001162   0.003524  -0.000237  -0.000141   0.000109   0.000004
    11  C   -0.000025  -0.000088  -0.000008  -0.000686  -0.000189  -0.000000
    12  H    0.000000   0.000002  -0.000000  -0.000232   0.000019  -0.000000
    13  H    0.000001  -0.000020   0.000005   0.000299   0.000020   0.000000
    14  H    0.014122   0.000041   0.000014   0.000020  -0.000041   0.000189
    15  O    0.000062   0.000521   0.000118  -0.000000  -0.000003  -0.065582
    16  O    0.000000   0.000000   0.000000  -0.009497   0.000566  -0.000000
    17  H   -0.000002  -0.000009  -0.000002   0.037460  -0.001140   0.000000
    18  O    0.236693   0.001150  -0.000092  -0.006092   0.024245   0.000000
    19  H    0.376890  -0.000088   0.000009   0.000271  -0.000816   0.000000
    20  O   -0.000088   8.284532   0.231723   0.001443   0.000015  -0.000014
    21  H    0.000009   0.231723   0.376930   0.000014   0.000007   0.000001
    22  O    0.000271   0.001443   0.000014   8.275383   0.233687   0.000000
    23  H   -0.000816   0.000015   0.000007   0.233687   0.355967  -0.000000
    24  O    0.000000  -0.000014   0.000001   0.000000  -0.000000   8.429640
    25  H    0.000000   0.000073   0.000014   0.000000   0.000000   0.144322
    26  H   -0.000000   0.000002  -0.000000  -0.000000   0.000000   0.235519
    27  H   -0.000009   0.000034  -0.000009  -0.000000   0.000000   0.147254
    28  O   -0.000001  -0.019639   0.001133   0.000000  -0.000000  -0.083905
    29  H    0.000009   0.001306   0.000145   0.000002   0.000008   0.002542
    30  H    0.000003   0.056288  -0.003189  -0.000002   0.000001   0.002642
              25         26         27         28         29         30
     1  O    0.001913   0.000005   0.000925  -0.069058   0.112602   0.003571
     2  C    0.000004  -0.000000  -0.000020  -0.000051  -0.000758   0.000512
     3  C    0.000021  -0.000001   0.002506  -0.000561   0.000031  -0.001961
     4  C   -0.000007  -0.000000  -0.000052   0.001782  -0.000798  -0.004367
     5  C   -0.000694  -0.000094  -0.007092   0.006715  -0.006009   0.000469
     6  C   -0.000052   0.000000   0.000016   0.005063  -0.010985  -0.000228
     7  H    0.000000   0.000000   0.000004  -0.000037   0.000033   0.000375
     8  H    0.000006   0.000000  -0.000014  -0.000134   0.001838   0.000031
     9  H    0.000010  -0.000000  -0.000002   0.000009   0.001024   0.000085
    10  H   -0.000005  -0.000001  -0.000080   0.000035  -0.000172   0.000067
    11  C   -0.000006  -0.000000   0.000002  -0.000098  -0.002055  -0.000030
    12  H    0.000001   0.000000   0.000002   0.000007  -0.000098   0.000001
    13  H    0.000006   0.000000  -0.000001   0.000046   0.003236  -0.000006
    14  H    0.000088   0.000008  -0.002897  -0.000153   0.001615   0.000269
    15  O    0.005746   0.003770   0.108470  -0.005807   0.004642   0.009130
    16  O    0.000000   0.000000   0.000000   0.000000   0.000014   0.000000
    17  H    0.000000   0.000000   0.000000  -0.000000   0.000006   0.000000
    18  O   -0.000000  -0.000000  -0.000016   0.000000  -0.000025   0.000012
    19  H    0.000000  -0.000000  -0.000009  -0.000001   0.000009   0.000003
    20  O    0.000073   0.000002   0.000034  -0.019639   0.001306   0.056288
    21  H    0.000014  -0.000000  -0.000009   0.001133   0.000145  -0.003189
    22  O    0.000000  -0.000000  -0.000000   0.000000   0.000002  -0.000002
    23  H    0.000000   0.000000   0.000000  -0.000000   0.000008   0.000001
    24  O    0.144322   0.235519   0.147254  -0.083905   0.002542   0.002642
    25  H    0.280521  -0.005575  -0.018978   0.139251  -0.006825  -0.001154
    26  H   -0.005575   0.367635  -0.009455   0.003468  -0.000119   0.000017
    27  H   -0.018978  -0.009455   0.326046   0.009410  -0.000183  -0.001204
    28  O    0.139251   0.003468   0.009410   8.450027   0.160645   0.210161
    29  H   -0.006825  -0.000119  -0.000183   0.160645   0.288422  -0.015930
    30  H   -0.001154   0.000017  -0.001204   0.210161  -0.015930   0.291698
 Mulliken charges:
               1
     1  O   -0.623869
     2  C    0.075328
     3  C    0.078878
     4  C    0.092537
     5  C    0.374933
     6  C    0.122127
     7  H    0.155393
     8  H    0.134308
     9  H    0.134508
    10  H    0.155062
    11  C   -0.028767
    12  H    0.152640
    13  H    0.115603
    14  H    0.077638
    15  O   -0.677400
    16  O   -0.643376
    17  H    0.411805
    18  O   -0.657542
    19  H    0.404637
    20  O   -0.646466
    21  H    0.411240
    22  O   -0.643284
    23  H    0.417908
    24  O   -0.815590
    25  H    0.461319
    26  H    0.404822
    27  H    0.445342
    28  O   -0.808309
    29  H    0.465835
    30  H    0.452740
 Sum of Mulliken charges =  -0.00000
 Mulliken charges with hydrogens summed into heavy atoms:
               1
     1  O   -0.623869
     2  C    0.209837
     3  C    0.233940
     4  C    0.247930
     5  C    0.452570
     6  C    0.256435
    11  C    0.239476
    15  O   -0.677400
    16  O   -0.231571
    18  O   -0.252905
    20  O   -0.235227
    22  O   -0.225377
    24  O    0.034575
    28  O    0.571585
 APT charges:
               1
     1  O   -0.424393
     2  C   -0.182298
     3  C   -0.299163
     4  C   -0.422492
     5  C   -0.359525
     6  C   -0.269842
     7  H    0.526069
     8  H    0.349369
     9  H    0.374950
    10  H    0.509440
    11  C   -0.592629
    12  H    0.467674
    13  H    0.325884
    14  H    0.338052
    15  O   -0.397412
    16  O   -0.497524
    17  H    0.417494
    18  O   -0.865254
    19  H    0.707061
    20  O   -0.914002
    21  H    0.766227
    22  O   -0.710084
    23  H    0.539103
    24  O   -1.179087
    25  H    0.488653
    26  H    0.933843
    27  H    0.244740
    28  O   -0.587372
    29  H    0.310123
    30  H    0.402396
 Sum of APT charges =  -0.00000
 APT charges with hydrogens summed into heavy atoms:
               1
     1  O   -0.424393
     2  C    0.192652
     3  C    0.210277
     4  C    0.103577
     5  C   -0.021473
     6  C    0.079527
    11  C    0.200929
    15  O   -0.397412
    16  O   -0.080031
    18  O   -0.158193
    20  O   -0.147775
    22  O   -0.170982
    24  O   -0.000504
    28  O    0.613800
 Electronic spatial extent (au):  <R**2>=           2974.6848
 Charge=             -0.0000 electrons
 Dipole moment (field-independent basis, Debye):
    X=              1.5630    Y=             -2.7098    Z=              2.3116  Tot=              3.8897
 Quadrupole moment (field-independent basis, Debye-Ang):
   XX=            -88.7676   YY=            -90.2947   ZZ=            -73.8608
   XY=              5.8420   XZ=              4.8508   YZ=              3.2855
 Traceless Quadrupole moment (field-independent basis, Debye-Ang):
   XX=             -4.4599   YY=             -5.9870   ZZ=             10.4469
   XY=              5.8420   XZ=              4.8508   YZ=              3.2855
 Octapole moment (field-independent basis, Debye-Ang**2):
  XXX=             96.9546  YYY=            -17.5499  ZZZ=             16.9102  XYY=              9.0202
  XXY=            -20.9512  XXZ=             18.3193  XZZ=             -0.2321  YZZ=            -18.7721
  YYZ=             -2.7285  XYZ=             -5.6319
 Hexadecapole moment (field-independent basis, Debye-Ang**3):
 XXXX=          -1638.9812 YYYY=          -1071.9159 ZZZZ=           -423.7103 XXXY=            104.5135
 XXXZ=             73.1263 YYYX=             37.9182 YYYZ=             14.8191 ZZZX=             17.2500
 ZZZY=              7.2325 XXYY=           -604.4227 XXZZ=           -424.5661 YYZZ=           -240.4640
 XXYZ=             43.0224 YYXZ=             -5.1292 ZZXY=              8.2521
 N-N= 1.134143519906D+03 E-N=-4.240576743789D+03  KE= 8.327718475823D+02
  Exact polarizability:   0.000   0.000   0.000   0.000   0.000   0.000
 Approx polarizability: 154.672   2.497 125.642   5.117   5.086 128.313
 Calling FoFJK, ICntrl=    100147 FMM=F ISym2X=0 I1Cent= 0 IOpClX= 0 NMat=1 NMatS=1 NMatT=0.
 -------------------------------------------------------------------
 Center     Atomic                   Forces (Hartrees/Bohr)
 Number     Number              X              Y              Z
 -------------------------------------------------------------------
      1        8           0.000000723   -0.000002116   -0.000001605
      2        6          -0.000004911    0.000002300    0.000003749
      3        6          -0.000002013    0.000004405   -0.000001307
      4        6          -0.000002811    0.000003471    0.000004151
      5        6           0.000004431   -0.000000488    0.000006247
      6        6           0.000000329   -0.000000539    0.000002277
      7        1          -0.000000031    0.000001615    0.000002049
      8        1          -0.000000797    0.000000628    0.000000826
      9        1          -0.000003255   -0.000000961   -0.000002259
     10        1          -0.000007898   -0.000001158   -0.000002566
     11        6           0.000001555   -0.000002570    0.000002480
     12        1          -0.000001845    0.000003232   -0.000006613
     13        1           0.000007273    0.000005729    0.000005053
     14        1           0.000002301   -0.000000679    0.000005701
     15        8          -0.000010125   -0.000000482   -0.000005846
     16        8          -0.000004588    0.000002826    0.000005546
     17        1           0.000003123   -0.000001775    0.000003441
     18        8           0.000038612   -0.000035081   -0.000132285
     19        1          -0.000045059    0.000027240    0.000132339
     20        8          -0.000004421    0.000004741    0.000013257
     21        1           0.000004568    0.000004803   -0.000010692
     22        8           0.000004609    0.000002360   -0.000000554
     23        1           0.000000243    0.000003479    0.000003226
     24        8          -0.000041631    0.000008781   -0.000021729
     25        1          -0.000000222   -0.000002736   -0.000002484
     26        1           0.000045266   -0.000025034    0.000012309
     27        1           0.000000366   -0.000004735   -0.000000728
     28        8           0.000002820    0.000000225   -0.000012220
     29        1           0.000008697    0.000000899    0.000004401
     30        1           0.000004691    0.000001622   -0.000006164
 -------------------------------------------------------------------
 Cartesian Forces:  Max     0.000132339 RMS     0.000022879
 IRC-IRC-IRC-IRC-IRC-IRC-IRC-IRC-IRC-IRC-IRC-IRC-IRC-IRC-IRC-IRC-IRC-IRC
          ******** Start new reaction path calculation ********
 Supplied step size of   0.1000 bohr.
    Integration on MW PES will use step size of   0.1756 sqrt(amu)*bohr.
 Point Number:   0          Path Number:   1
 Calculating another point on the path.
 IRC-IRC-IRC-IRC-IRC-IRC-IRC-IRC-IRC-IRC-IRC-IRC-IRC-IRC-IRC-IRC-IRC-IRC
                          Input orientation:                          
 ---------------------------------------------------------------------
 Center     Atomic      Atomic             Coordinates (Angstroms)
 Number     Number       Type             X           Y           Z
 ---------------------------------------------------------------------
      1          8           0        0.387498    0.735732   -0.620712
      2          6           0       -1.417611   -0.178223    0.736918
      3          6           0        0.193373   -1.787111   -0.370174
      4          6           0       -0.421857   -1.344137    0.958010
      5          6           0        1.017132   -0.663191   -1.079581
      6          6           0       -1.025506    0.696710   -0.478009
      7          1           0       -0.993101   -2.184700    1.372518
      8          1           0       -1.453976    0.232930   -1.377529
      9          1           0       -1.427222    0.436329    1.647146
     10          1           0        0.893828   -2.614120   -0.203169
     11          6           0       -1.603547    2.109598   -0.373264
     12          1           0       -1.252359    2.710956   -1.218094
     13          1           0       -1.235705    2.589113    0.551751
     14          1           0        0.737116   -0.628103   -2.160671
     15          8           0        2.277947   -0.705425   -0.785088
     16          8           0       -3.020893    2.088713   -0.422327
     17          1           0       -3.320018    1.290498    0.049914
     18          8           0       -0.943425   -2.228004   -1.131436
     19          1           0       -0.659964   -2.335043   -2.053356
     20          8           0        0.640691   -1.007243    1.870831
     21          1           0        0.251582   -0.960745    2.758189
     22          8           0       -2.758146   -0.654033    0.593455
     23          1           0       -2.739650   -1.252184   -0.176703
     24          8           0        3.758543    1.219890   -0.375025
     25          1           0        2.881949    1.339499    0.640352
     26          1           0        4.587872    0.812103   -0.078215
     27          1           0        3.187813    0.422557   -0.787867
     28          8           0        1.943768    1.328904    1.257691
     29          1           0        1.226927    1.263302    0.495828
     30          1           0        1.827337    0.409274    1.608501
 ---------------------------------------------------------------------
                    Distance matrix (angstroms):
                    1          2          3          4          5
     1  O    0.000000
     2  C    2.436573   0.000000
     3  C    2.542674   2.531688   0.000000
     4  C    2.733729   1.549117   1.529316   0.000000
     5  C    1.601245   3.076172   1.563660   2.585760   0.000000
     6  C    1.420728   1.547676   2.768874   2.567412   2.526577
     7  H    3.795780   2.147126   2.145408   1.097580   3.516933
     8  H    2.053438   2.154357   2.794475   3.001192   2.645407
     9  H    2.919937   1.098308   3.411684   2.157713   3.823460
    10  H    3.413535   3.487134   1.096573   2.166154   2.142295
    11  C    2.431665   2.549745   4.291068   3.885481   3.880102
    12  H    2.635812   3.492382   4.800178   4.676424   4.068739
    13  H    2.728458   2.779483   4.695056   4.037060   4.279486
    14  H    2.086565   3.638854   2.201099   3.403248   1.117316
    15  O    2.382803   4.031326   2.384878   3.276475   1.295440
    16  O    3.672471   3.008880   5.035497   4.521590   4.930578
    17  H    3.808304   2.499654   4.689570   4.020607   4.889123
    18  O    3.288757   2.813752   1.437434   2.327883   2.509006
    19  H    3.546731   3.607150   1.965074   3.179137   2.560464
    20  O    3.051206   2.491915   2.414620   1.440746   2.994163
    21  H    3.783316   2.735706   3.236190   1.959886   3.924676
    22  O    3.647016   1.429689   3.305134   2.463207   4.129389
    23  H    3.732025   1.932843   2.987675   2.582284   3.908390
    24  O    3.414486   5.475738   4.663959   5.082024   3.399666
    25  H    2.859564   4.560594   4.245620   4.268249   3.232101
    26  H    4.235950   6.140929   5.113978   5.551623   3.991167
    27  H    2.822726   4.888336   3.744832   4.381668   2.444545
    28  O    2.510424   3.720417   3.927260   3.582058   3.207793
    29  H    1.493195   3.021539   3.335148   3.119430   2.497459
    30  H    2.673781   3.410938   3.377736   2.925143   3.005395
                    6          7          8          9         10
     6  C    0.000000
     7  H    3.424621   0.000000
     8  H    1.099006   3.690542   0.000000
     9  H    2.178407   2.670894   3.031624   0.000000
    10  H    3.836793   2.495534   3.872596   4.256310   0.000000
    11  C    1.530148   4.675617   2.133730   2.629254   5.345963
    12  H    2.157863   5.544902   2.491321   3.662527   5.830319
    13  H    2.164666   4.849929   3.053091   2.423025   5.672605
    14  H    2.773683   4.230848   2.481042   4.507421   2.792962
    15  O    3.601816   4.188469   3.893423   4.576859   2.428483
    16  O    2.433585   5.059197   2.609899   3.090773   6.122884
    17  H    2.428183   4.386437   2.576462   2.619815   5.750356
    18  O    2.997942   2.504821   2.525355   3.879851   2.094341
    19  H    3.436112   3.445315   2.771584   4.686459   2.432148
    20  O    3.346150   2.074608   4.059249   2.531837   2.635831
    21  H    3.853712   2.228763   4.630114   2.450432   3.451922
    22  O    2.444296   2.462777   2.524349   2.017551   4.220600
    23  H    2.612903   2.513982   2.302282   2.810688   3.880429
    24  O    4.813673   6.101087   5.399024   5.620970   4.789129
    25  H    4.114865   5.288862   4.908827   4.516448   4.505025
    26  H    5.628780   6.498670   6.207059   6.268926   5.039898
    27  H    4.233583   5.380064   4.682933   5.218048   3.850408
    28  O    3.496986   4.580808   4.437365   3.508837   4.334042
    29  H    2.518500   4.193546   3.429048   3.008974   3.953979
    30  H    3.546105   3.839174   4.440100   3.254901   3.646162
                   11         12         13         14         15
    11  C    0.000000
    12  H    1.094852   0.000000
    13  H    1.104942   1.774112   0.000000
    14  H    4.021011   3.999472   4.647552   0.000000
    15  O    4.812478   4.931755   4.998687   2.066970   0.000000
    16  O    1.418349   2.036699   2.094307   4.952328   6.001375
    17  H    1.948404   2.810829   2.506512   5.002804   6.001512
    18  O    4.452569   4.949370   5.111082   2.538351   3.579866
    19  H    4.844366   5.148854   5.600480   2.208391   3.591027
    20  O    4.448288   5.191348   4.265515   4.050439   3.134582
    21  H    4.761776   5.617299   4.436428   4.953946   4.089762
    22  O    3.147268   4.107584   3.582954   4.450027   5.221614
    23  H    3.554003   4.359243   4.189040   4.051359   5.083832
    24  O    5.435402   5.295581   5.260818   3.966438   2.463159
    25  H    4.662633   4.735738   4.304006   4.039492   2.564842
    26  H    6.332789   6.246060   6.121166   4.608594   2.852773
    27  H    5.096580   5.013680   5.104513   2.999065   1.449209
    28  O    3.981575   4.272564   3.492210   4.119597   2.902260
    29  H    3.079467   3.343663   2.797402   3.297623   2.573184
    30  H    4.311550   4.771992   3.905208   4.058496   2.678595
                   16         17         18         19         20
    16  O    0.000000
    17  H    0.974492   0.000000
    18  O    4.842804   4.407225   0.000000
    19  H    5.272936   4.964290   0.970435   0.000000
    20  O    5.315140   4.927735   3.607393   4.342119   0.000000
    21  H    5.488530   5.015893   4.261827   5.086312   0.970037
    22  O    2.936580   2.095790   2.957337   3.772767   3.648088
    23  H    3.361699   2.617902   2.256139   3.003249   3.959684
    24  O    6.835045   7.091656   5.879509   5.914181   4.441282
    25  H    6.044348   6.230202   5.522662   5.770915   3.470520
    26  H    7.722787   7.923383   6.398966   6.430046   4.763301
    27  H    6.438767   6.618690   4.920430   4.900122   3.949789
    28  O    5.296001   5.400708   5.166759   5.582737   2.744364
    29  H    4.423605   4.568839   4.421270   4.796538   2.718397
    30  H    5.518162   5.449864   4.705275   5.208372   1.866404
                   21         22         23         24         25
    21  H    0.000000
    22  O    3.720028   0.000000
    23  H    4.200714   0.975330   0.000000
    24  O    5.183722   6.849582   6.955357   0.000000
    25  H    4.085974   5.982227   6.243939   1.346742   0.000000
    26  H    5.476457   7.520949   7.613380   0.970656   1.924749
    27  H    4.807233   6.198509   6.189757   1.063913   1.724571
    28  O    3.218304   5.145993   5.536596   2.443574   1.123122
    29  H    3.319030   4.423405   4.744860   2.677564   1.663067
    30  H    2.383640   4.815350   5.177332   2.884620   1.707290
                   26         27         28         29         30
    26  H    0.000000
    27  H    1.617257   0.000000
    28  O    3.007160   2.559965   0.000000
    29  H    3.439340   2.489939   1.048141   0.000000
    30  H    3.260036   2.755658   0.991133   1.525746   0.000000
 Symmetry turned off by external request.
 Stoichiometry    C6H16O8
 Framework group  C1[X(C6H16O8)]
 Deg. of freedom    84
 Full point group                 C1      NOp   1
 Rotational constants (GHZ):      0.8402912      0.4996780      0.4132956
 Standard basis: 6-31G(d) (6D, 7F)
   242 basis functions,   456 primitive gaussians,   242 cartesian basis functions
    58 alpha electrons       58 beta electrons
       nuclear repulsion energy      1134.5663235947 Hartrees.
 NAtoms=   30 NActive=   30 NUniq=   30 SFac= 1.00D+00 NAtFMM=   60 NAOKFM=F Big=F
 Integral buffers will be    131072 words long.
 Raffenetti 2 integral format.
 Two-electron integral symmetry is turned off.
 One-electron integrals computed using PRISM.
 NBasis=   242 RedAO= T EigKep=  1.56D-03  NBF=   242
 NBsUse=   242 1.00D-06 EigRej= -1.00D+00 NBFU=   242
 Initial guess from the checkpoint file:  "/scratch/10461027.yak.local/Gau-6433.chk"
 B after Tr=     0.020399    0.012411    0.008652
         Rot=    1.000000    0.000022   -0.000019    0.000024 Ang=   0.00 deg.
 ExpMin= 1.61D-01 ExpMax= 5.48D+03 ExpMxC= 8.25D+02 IAcc=1 IRadAn=         1 AccDes= 0.00D+00
 Harris functional with IExCor=  402 and IRadAn=       1 diagonalized for initial guess.
 HarFok:  IExCor=  402 AccDes= 0.00D+00 IRadAn=         1 IDoV= 1 UseB2=F ITyADJ=14
 ICtDFT=  3500011 ScaDFX=  1.000000  1.000000  1.000000  1.000000
 FoFCou: FMM=F IPFlag=           0 FMFlag=      100000 FMFlg1=           0
         NFxFlg=           0 DoJE=T BraDBF=F KetDBF=T FulRan=T
         wScrn=  0.000000 ICntrl=     500 IOpCl=  0 I1Cent=   200000004 NGrid=           0
         NMat0=    1 NMatS0=      1 NMatT0=    0 NMatD0=    1 NMtDS0=    0 NMtDT0=    0
 Symmetry not used in FoFCou.
 Requested convergence on RMS density matrix=1.00D-08 within 128 cycles.
 Requested convergence on MAX density matrix=1.00D-06.
 Requested convergence on             energy=1.00D-06.
 No special actions if energy rises.
 Integral accuracy reduced to 1.0D-05 until final iterations.
 Initial convergence to 1.0D-05 achieved.  Increase integral accuracy.
 SCF Done:  E(RB3LYP) =  -839.959169893     A.U. after   11 cycles
            NFock= 11  Conv=0.67D-08     -V/T= 2.0086
 DoSCS=F DFT=T ScalE2(SS,OS)=  1.000000  1.000000
 Range of M.O.s used for correlation:     1   242
 NBasis=   242 NAE=    58 NBE=    58 NFC=     0 NFV=     0
 NROrb=    242 NOA=    58 NOB=    58 NVA=   184 NVB=   184
 Symmetrizing basis deriv contribution to polar:
 IMax=3 JMax=2 DiffMx= 0.00D+00
 Calling FoFJK, ICntrl=      2147 FMM=F ISym2X=0 I1Cent= 0 IOpClX= 0 NMat=1 NMatS=1 NMatT=0.
 -------------------------------------------------------------------
 Center     Atomic                   Forces (Hartrees/Bohr)
 Number     Number              X              Y              Z
 -------------------------------------------------------------------
      1        8          -0.000002488   -0.000490558   -0.000415894
      2        6           0.000008357   -0.000051993   -0.000061322
      3        6           0.000088446    0.000162400   -0.000048267
      4        6           0.000053899   -0.000018972    0.000007505
      5        6          -0.000465817    0.000583790    0.000013908
      6        6          -0.000060105   -0.000222024   -0.000198230
      7        1           0.000003979   -0.000004815   -0.000008142
      8        1          -0.000019599   -0.000011126   -0.000005851
      9        1           0.000004001    0.000002640   -0.000018235
     10        1           0.000013923    0.000027528   -0.000021514
     11        6           0.000142544   -0.000119393   -0.000100960
     12        1           0.000006068   -0.000005163   -0.000015692
     13        1           0.000027361   -0.000012941   -0.000007457
     14        1           0.000024609   -0.000015974    0.000028219
     15        8           0.000098314    0.000533944    0.000107937
     16        8           0.000156476   -0.000024711    0.000020782
     17        1           0.000010253   -0.000002346    0.000004772
     18        8           0.000156703   -0.000034984   -0.000120543
     19        1          -0.000041842    0.000025555    0.000130516
     20        8          -0.000025425    0.000006041    0.000004150
     21        1           0.000002566    0.000016862   -0.000014103
     22        8          -0.000002709   -0.000032599    0.000035211
     23        1          -0.000005353   -0.000004064    0.000010777
     24        8          -0.000926453   -0.000240597    0.000480061
     25        1           0.000690736    0.000014953   -0.000518032
     26        1          -0.000022382   -0.000026134    0.000042882
     27        1          -0.000489694   -0.000510072   -0.000158565
     28        8           0.000753007    0.000233532    0.001032137
     29        1          -0.000206365    0.000122916   -0.000190635
     30        1           0.000026990    0.000098302   -0.000015414
 -------------------------------------------------------------------
 Cartesian Forces:  Max     0.001032137 RMS     0.000253154
 IRC-IRC-IRC-IRC-IRC-IRC-IRC-IRC-IRC-IRC-IRC-IRC-IRC-IRC-IRC-IRC-IRC-IRC
 Pt  1 Step number   1 out of a maximum of  20
 Modified Bulirsch-Stoer Extrapolation Cycles:
    EPS =    0.000010000000000
 Maximum DWI energy   std dev =  0.000002411 at pt    54
 Maximum DWI gradient std dev =  0.586057221 at pt     8
 CORRECTOR INTEGRATION CONVERGENCE:
   Recorrection delta-x convergence threshold:    0.010000
   Delta-x Convergence NOT Met
 IRC-IRC-IRC-IRC-IRC-IRC-IRC-IRC-IRC-IRC-IRC-IRC-IRC-IRC-IRC-IRC-IRC-IRC
                          Input orientation:                          
 ---------------------------------------------------------------------
 Center     Atomic      Atomic             Coordinates (Angstroms)
 Number     Number       Type             X           Y           Z
 ---------------------------------------------------------------------
      1          8           0        0.387534    0.735984   -0.620592
      2          6           0       -1.417616   -0.178164    0.737005
      3          6           0        0.193382   -1.787254   -0.370110
      4          6           0       -0.421889   -1.344118    0.958080
      5          6           0        1.017296   -0.663542   -1.079608
      6          6           0       -1.025484    0.696903   -0.477801
      7          1           0       -0.993282   -2.184684    1.372399
      8          1           0       -1.453874    0.233126   -1.377358
      9          1           0       -1.427289    0.436283    1.647281
     10          1           0        0.893617   -2.614412   -0.202972
     11          6           0       -1.603661    2.109761   -0.373150
     12          1           0       -1.252518    2.711059   -1.218053
     13          1           0       -1.235855    2.589381    0.551818
     14          1           0        0.737455   -0.628143   -2.160548
     15          8           0        2.278353   -0.705618   -0.785174
     16          8           0       -3.021015    2.088700   -0.422319
     17          1           0       -3.320067    1.290529    0.050046
     18          8           0       -0.943418   -2.227995   -1.131467
     19          1           0       -0.660179   -2.334752   -2.053330
     20          8           0        0.640599   -1.007408    1.870813
     21          1           0        0.251480   -0.960334    2.758120
     22          8           0       -2.758134   -0.653981    0.593404
     23          1           0       -2.739614   -1.252103   -0.176762
     24          8           0        3.758708    1.219909   -0.375131
     25          1           0        2.884330    1.339802    0.637331
     26          1           0        4.587842    0.812152   -0.077465
     27          1           0        3.186145    0.420653   -0.787766
     28          8           0        1.943402    1.328983    1.257571
     29          1           0        1.225985    1.263303    0.495533
     30          1           0        1.827486    0.409682    1.608514
 ---------------------------------------------------------------------
                    Distance matrix (angstroms):
                    1          2          3          4          5
     1  O    0.000000
     2  C    2.436659   0.000000
     3  C    2.543063   2.531835   0.000000
     4  C    2.733898   1.549128   1.529384   0.000000
     5  C    1.601864   3.076438   1.563634   2.585848   0.000000
     6  C    1.420752   1.547663   2.769163   2.567459   2.527040
     7  H    3.795915   2.147070   2.145334   1.097589   3.516907
     8  H    2.053374   2.154299   2.794626   3.001160   2.645629
     9  H    2.920043   1.098290   3.411826   2.157697   3.823811
    10  H    3.414041   3.487213   1.096565   2.166158   2.142354
    11  C    2.431738   2.549834   4.291398   3.885619   3.880684
    12  H    2.635840   3.492437   4.800464   4.676533   4.069294
    13  H    2.728556   2.779682   4.695487   4.037326   4.280157
    14  H    2.086804   3.639041   2.201187   3.403313   1.117137
    15  O    2.383380   4.031801   2.385229   3.276877   1.295656
    16  O    3.672514   3.008918   5.035681   4.521636   4.931006
    17  H    3.808357   2.499658   4.689734   4.020613   4.889502
    18  O    3.289011   2.813869   1.437439   2.327968   2.508904
    19  H    3.546810   3.607015   1.965083   3.179109   2.560274
    20  O    3.051321   2.491870   2.414518   1.440603   2.994183
    21  H    3.783081   2.735430   3.236201   1.959811   3.924630
    22  O    3.647056   1.429689   3.305164   2.463193   4.129519
    23  H    3.732095   1.932872   2.987680   2.582282   3.908441
    24  O    3.414564   5.475928   4.664183   5.082231   3.399855
    25  H    2.860237   4.562992   4.246719   4.270526   3.232195
    26  H    4.235962   6.140815   5.114082   5.551509   3.991336
    27  H    2.821277   4.886525   3.742448   4.379532   2.442244
    28  O    2.509954   3.720070   3.927193   3.581866   3.207840
    29  H    1.492247   3.020722   3.334892   3.118988   2.497470
    30  H    2.673733   3.411126   3.378132   2.925503   3.005697
                    6          7          8          9         10
     6  C    0.000000
     7  H    3.424590   0.000000
     8  H    1.099004   3.690408   0.000000
     9  H    2.178381   2.670840   3.031570   0.000000
    10  H    3.837093   2.495365   3.872773   4.256380   0.000000
    11  C    1.530166   4.675656   2.133689   2.629406   5.346322
    12  H    2.157856   5.544902   2.491199   3.662689   5.830688
    13  H    2.164681   4.850143   3.053061   2.423328   5.673078
    14  H    2.774046   4.230838   2.481349   4.507624   2.793163
    15  O    3.602343   4.188837   3.893769   4.577396   2.428980
    16  O    2.433582   5.059102   2.609824   3.090904   6.123047
    17  H    2.428195   4.386302   2.576482   2.619829   5.750453
    18  O    2.998172   2.504737   2.525499   3.879941   2.094306
    19  H    3.436084   3.445157   2.771442   4.686323   2.432348
    20  O    3.346116   2.074600   4.059108   2.531871   2.635728
    21  H    3.853343   2.229055   4.629768   2.450054   3.452011
    22  O    2.444267   2.462638   2.524273   2.017543   4.220519
    23  H    2.612947   2.513818   2.302274   2.810689   3.880327
    24  O    4.813789   6.101354   5.399001   5.621279   4.789614
    25  H    4.116246   5.291333   4.909553   4.519558   4.506091
    26  H    5.628763   6.498621   6.207038   6.268798   5.040277
    27  H    4.232045   5.377890   4.681085   5.216653   3.848284
    28  O    3.496473   4.580737   4.436805   3.508610   4.334235
    29  H    2.517400   4.193167   3.427919   3.008380   3.954118
    30  H    3.546074   3.839689   4.440036   3.255114   3.646743
                   11         12         13         14         15
    11  C    0.000000
    12  H    1.094862   0.000000
    13  H    1.104935   1.774126   0.000000
    14  H    4.021409   3.999819   4.647939   0.000000
    15  O    4.813123   4.932354   4.999422   2.066887   0.000000
    16  O    1.418363   2.036690   2.094378   4.952652   6.001931
    17  H    1.948407   2.810826   2.506538   5.003150   6.002041
    18  O    4.452762   4.949474   5.111367   2.538477   3.580133
    19  H    4.844261   5.148667   5.600472   2.208482   3.591276
    20  O    4.448462   5.191530   4.265878   4.050320   3.134897
    21  H    4.761499   5.617035   4.436260   4.953768   4.089992
    22  O    3.147269   4.107524   3.583080   4.450175   5.222005
    23  H    3.554024   4.359174   4.189166   4.051511   5.084171
    24  O    5.435700   5.295888   5.261211   3.966230   2.463177
    25  H    4.664329   4.736697   4.306354   4.038565   2.564074
    26  H    6.332924   6.246326   6.121273   4.608597   2.852757
    27  H    5.095805   5.013266   5.104111   2.996763   1.446575
    28  O    3.981271   4.272324   3.492043   4.119246   2.902517
    29  H    3.078636   3.342956   2.796839   3.297119   2.573779
    30  H    4.311615   4.772027   3.905349   4.058457   2.678977
                   16         17         18         19         20
    16  O    0.000000
    17  H    0.974494   0.000000
    18  O    4.842845   4.407317   0.000000
    19  H    5.272634   4.964057   0.970285   0.000000
    20  O    5.315238   4.927736   3.607302   4.341978   0.000000
    21  H    5.488262   5.015575   4.261882   5.086276   0.970023
    22  O    2.936511   2.095739   2.957345   3.772481   3.648023
    23  H    3.361613   2.617889   2.256136   3.002947   3.959581
    24  O    6.835325   7.091884   5.879632   5.914265   4.441599
    25  H    6.046222   6.232325   5.523538   5.771096   3.473500
    26  H    7.722901   7.923392   6.399082   6.430301   4.763120
    27  H    6.437761   6.617357   4.918003   4.897767   3.948063
    28  O    5.295719   5.400343   5.166558   5.582442   2.744464
    29  H    4.422753   4.567909   4.420701   4.795865   2.718492
    30  H    5.518274   5.449956   4.705607   5.208598   1.866988
                   21         22         23         24         25
    21  H    0.000000
    22  O    3.719896   0.000000
    23  H    4.200631   0.975319   0.000000
    24  O    5.183760   6.849726   6.955457   0.000000
    25  H    4.089043   5.984522   6.245756   1.343127   0.000000
    26  H    5.475973   7.520836   7.613318   0.970739   1.921275
    27  H    4.805486   6.196525   6.187573   1.066258   1.722448
    28  O    3.217953   5.145649   5.536240   2.443962   1.127014
    29  H    3.318662   4.422529   4.743967   2.678549   1.666153
    30  H    2.383765   4.815572   5.177561   2.884603   1.710333
                   26         27         28         29         30
    26  H    0.000000
    27  H    1.619430   0.000000
    28  O    3.007074   2.559859   0.000000
    29  H    3.440050   2.489807   1.048667   0.000000
    30  H    3.259458   2.754674   0.990814   1.526171   0.000000
 Symmetry turned off by external request.
 Stoichiometry    C6H16O8
 Framework group  C1[X(C6H16O8)]
 Deg. of freedom    84
 Full point group                 C1      NOp   1
 Rotational constants (GHZ):      0.8402510      0.4996600      0.4132662
 Standard basis: 6-31G(d) (6D, 7F)
   242 basis functions,   456 primitive gaussians,   242 cartesian basis functions
    58 alpha electrons       58 beta electrons
       nuclear repulsion energy      1134.5285884009 Hartrees.
 NAtoms=   30 NActive=   30 NUniq=   30 SFac= 1.00D+00 NAtFMM=   60 NAOKFM=F Big=F
 Integral buffers will be    131072 words long.
 Raffenetti 2 integral format.
 Two-electron integral symmetry is turned off.
 One-electron integrals computed using PRISM.
 NBasis=   242 RedAO= T EigKep=  1.56D-03  NBF=   242
 NBsUse=   242 1.00D-06 EigRej= -1.00D+00 NBFU=   242
 Initial guess from the checkpoint file:  "/scratch/10461027.yak.local/Gau-6433.chk"
 B after Tr=    -0.000002   -0.000003   -0.000015
         Rot=    1.000000    0.000008   -0.000006    0.000006 Ang=   0.00 deg.
 ExpMin= 1.61D-01 ExpMax= 5.48D+03 ExpMxC= 8.25D+02 IAcc=1 IRadAn=         1 AccDes= 0.00D+00
 Harris functional with IExCor=  402 and IRadAn=       1 diagonalized for initial guess.
 HarFok:  IExCor=  402 AccDes= 0.00D+00 IRadAn=         1 IDoV= 1 UseB2=F ITyADJ=14
 ICtDFT=  3500011 ScaDFX=  1.000000  1.000000  1.000000  1.000000
 FoFCou: FMM=F IPFlag=           0 FMFlag=      100000 FMFlg1=           0
         NFxFlg=           0 DoJE=T BraDBF=F KetDBF=T FulRan=T
         wScrn=  0.000000 ICntrl=     500 IOpCl=  0 I1Cent=   200000004 NGrid=           0
         NMat0=    1 NMatS0=      1 NMatT0=    0 NMatD0=    1 NMtDS0=    0 NMtDT0=    0
 Symmetry not used in FoFCou.
 Requested convergence on RMS density matrix=1.00D-08 within 128 cycles.
 Requested convergence on MAX density matrix=1.00D-06.
 Requested convergence on             energy=1.00D-06.
 No special actions if energy rises.
 Integral accuracy reduced to 1.0D-05 until final iterations.
 Initial convergence to 1.0D-05 achieved.  Increase integral accuracy.
 SCF Done:  E(RB3LYP) =  -839.959174708     A.U. after    9 cycles
            NFock=  9  Conv=0.64D-08     -V/T= 2.0086
 DoSCS=F DFT=T ScalE2(SS,OS)=  1.000000  1.000000
 Range of M.O.s used for correlation:     1   242
 NBasis=   242 NAE=    58 NBE=    58 NFC=     0 NFV=     0
 NROrb=    242 NOA=    58 NOB=    58 NVA=   184 NVB=   184
 Symmetrizing basis deriv contribution to polar:
 IMax=3 JMax=2 DiffMx= 0.00D+00
 Calling FoFJK, ICntrl=      2147 FMM=F ISym2X=0 I1Cent= 0 IOpClX= 0 NMat=1 NMatS=1 NMatT=0.
 -------------------------------------------------------------------
 Center     Atomic                   Forces (Hartrees/Bohr)
 Number     Number              X              Y              Z
 -------------------------------------------------------------------
      1        8          -0.000006817   -0.000695553   -0.000568777
      2        6           0.000020048   -0.000054846   -0.000067679
      3        6           0.000116439    0.000181851   -0.000056121
      4        6           0.000051612   -0.000029566   -0.000001929
      5        6          -0.000518351    0.000844147    0.000123443
      6        6          -0.000048861   -0.000251917   -0.000239231
      7        1           0.000002645   -0.000007135   -0.000010731
      8        1          -0.000034471   -0.000011723   -0.000007590
      9        1           0.000006731    0.000004713   -0.000011091
     10        1           0.000026636    0.000024755   -0.000018259
     11        6           0.000154618   -0.000118353   -0.000104339
     12        1           0.000006678   -0.000006762   -0.000008121
     13        1           0.000018886   -0.000013868   -0.000008255
     14        1           0.000013444   -0.000019712   -0.000006610
     15        8           0.000168073    0.000614425    0.000120244
     16        8           0.000168144   -0.000028712    0.000027361
     17        1           0.000008077   -0.000000429    0.000003508
     18        8           0.000140826    0.000007318    0.000010153
     19        1           0.000003745   -0.000000577   -0.000000260
     20        8          -0.000033341   -0.000043238   -0.000003397
     21        1          -0.000006627    0.000017846   -0.000004376
     22        8          -0.000009567   -0.000024210    0.000042376
     23        1          -0.000004187   -0.000005813    0.000005873
     24        8          -0.001508270   -0.000691156    0.000454661
     25        1           0.000389296   -0.000004048   -0.000318238
     26        1          -0.000089892   -0.000021587    0.000058355
     27        1          -0.000284402   -0.000266593   -0.000014056
     28        8           0.001072985    0.000446803    0.000424916
     29        1           0.000144047    0.000124072    0.000172996
     30        1           0.000031853    0.000029871    0.000005174
 -------------------------------------------------------------------
 Cartesian Forces:  Max     0.001508270 RMS     0.000288553
 IRC-IRC-IRC-IRC-IRC-IRC-IRC-IRC-IRC-IRC-IRC-IRC-IRC-IRC-IRC-IRC-IRC-IRC
 Error in corrector energy =           0.0000009429
 Magnitude of corrector gradient =     0.0028534579
 Magnitude of analytic gradient =      0.0027374537
 Magnitude of difference =             0.0003716526
 Angle between gradients (degrees)=    7.2432
 Pt  1 Step number   2 out of a maximum of  20
 Modified Bulirsch-Stoer Extrapolation Cycles:
    EPS =    0.000010000000000
 Maximum DWI energy   std dev =  0.000002388 at pt    40
 Maximum DWI gradient std dev =  0.649609145 at pt     8
 CORRECTOR INTEGRATION CONVERGENCE:
   Recorrection delta-x convergence threshold:    0.010000
   Delta-x Convergence Met
 Point Number:   1          Path Number:   1
   CHANGE IN THE REACTION COORDINATE =    0.17469
   NET REACTION COORDINATE UP TO THIS POINT =    0.17469
  # OF POINTS ALONG THE PATH =   1
  # OF STEPS =   2

 Calculating another point on the path.
 IRC-IRC-IRC-IRC-IRC-IRC-IRC-IRC-IRC-IRC-IRC-IRC-IRC-IRC-IRC-IRC-IRC-IRC
                          Input orientation:                          
 ---------------------------------------------------------------------
 Center     Atomic      Atomic             Coordinates (Angstroms)
 Number     Number       Type             X           Y           Z
 ---------------------------------------------------------------------
      1          8           0        0.387444    0.731332   -0.624431
      2          6           0       -1.417426   -0.178652    0.736409
      3          6           0        0.194435   -1.785618   -0.370601
      4          6           0       -0.421447   -1.344412    0.958038
      5          6           0        1.012912   -0.656165   -1.078522
      6          6           0       -1.025921    0.694680   -0.479925
      7          1           0       -0.992945   -2.185526    1.371188
      8          1           0       -1.457971    0.231756   -1.378246
      9          1           0       -1.426477    0.436839    1.645933
     10          1           0        0.896756   -2.611263   -0.205234
     11          6           0       -1.602322    2.108727   -0.373979
     12          1           0       -1.251664    2.710359   -1.218850
     13          1           0       -1.233702    2.587617    0.550992
     14          1           0        0.738881   -0.630428   -2.161131
     15          8           0        2.279321   -0.701592   -0.784389
     16          8           0       -3.019935    2.088497   -0.422173
     17          1           0       -3.319139    1.290453    0.050369
     18          8           0       -0.942468   -2.227888   -1.131420
     19          1           0       -0.659521   -2.335139   -2.053297
     20          8           0        0.640386   -1.007750    1.870820
     21          1           0        0.250679   -0.958620    2.757764
     22          8           0       -2.758193   -0.654123    0.593669
     23          1           0       -2.740115   -1.252706   -0.176123
     24          8           0        3.748239    1.214857   -0.372356
     25          1           0        2.908302    1.337784    0.613586
     26          1           0        4.577505    0.809353   -0.070996
     27          1           0        3.163052    0.402224   -0.782847
     28          8           0        1.951824    1.331989    1.259867
     29          1           0        1.238276    1.278116    0.511166
     30          1           0        1.831681    0.413147    1.608822
 ---------------------------------------------------------------------
                    Distance matrix (angstroms):
                    1          2          3          4          5
     1  O    0.000000
     2  C    2.436701   0.000000
     3  C    2.537070   2.530990   0.000000
     4  C    2.732622   1.549223   1.529462   0.000000
     5  C    1.588256   3.070592   1.564200   2.584307   0.000000
     6  C    1.421206   1.547725   2.766424   2.567298   2.517923
     7  H    3.794210   2.147248   2.145606   1.097623   3.516175
     8  H    2.055084   2.154494   2.795638   3.002816   2.642630
     9  H    2.920889   1.098246   3.410730   2.157809   3.816796
    10  H    3.407061   3.487081   1.096490   2.166973   2.144419
    11  C    2.432923   2.549363   4.288855   3.884958   3.870459
    12  H    2.637529   3.492405   4.798389   4.676458   4.059738
    13  H    2.730481   2.778557   4.691918   4.035628   4.269041
    14  H    2.083109   3.639986   2.199292   3.403725   1.117048
    15  O    2.378667   4.031406   2.386018   3.277714   1.300911
    16  O    3.673287   3.008372   5.034242   4.521280   4.922175
    17  H    3.808770   2.499086   4.688777   4.020322   4.881637
    18  O    3.283700   2.813137   1.437705   2.327622   2.509307
    19  H    3.541333   3.606566   1.965370   3.179050   2.562454
    20  O    3.051993   2.491763   2.414108   1.440139   2.993494
    21  H    3.783369   2.734374   3.236318   1.959490   3.922954
    22  O    3.646681   1.429721   3.305769   2.463665   4.125222
    23  H    3.730819   1.932825   2.988879   2.582818   3.905815
    24  O    3.404743   5.464002   4.651062   5.070116   3.388422
    25  H    2.873185   4.585475   4.253156   4.289527   3.229793
    26  H    4.227172   6.129213   5.102444   5.539596   3.983613
    27  H    2.799537   4.860693   3.710699   4.350868   2.414687
    28  O    2.521636   3.729329   3.932724   3.589796   3.209731
    29  H    1.520680   3.037378   3.354637   3.135606   2.513830
    30  H    2.678522   3.415850   3.381310   2.930719   3.005933
                    6          7          8          9         10
     6  C    0.000000
     7  H    3.423929   0.000000
     8  H    1.099066   3.690378   0.000000
     9  H    2.178577   2.672121   3.031288   0.000000
    10  H    3.834240   2.497465   3.873429   4.256191   0.000000
    11  C    1.530684   4.675207   2.133638   2.627961   5.343423
    12  H    2.158687   5.544810   2.492276   3.661480   5.827760
    13  H    2.165450   4.849080   3.053250   2.421137   5.669134
    14  H    2.774327   4.230227   2.486448   4.507945   2.788219
    15  O    3.600958   4.190023   3.897583   4.575525   2.427704
    16  O    2.433547   5.058863   2.607929   3.089359   6.121705
    17  H    2.427963   4.386134   2.574049   2.618520   5.749999
    18  O    2.995466   2.503475   2.525176   3.879268   2.094646
    19  H    3.433592   3.443930   2.771672   4.685765   2.431785
    20  O    3.346766   2.074742   4.061515   2.531666   2.635713
    21  H    3.853016   2.230357   4.630665   2.448740   3.453694
    22  O    2.443898   2.462891   2.522659   2.017653   4.222239
    23  H    2.612100   2.513349   2.300570   2.810710   3.882442
    24  O    4.803619   6.089447   5.392858   5.608609   4.774733
    25  H    4.133698   5.311063   4.924939   4.546180   4.506856
    26  H    5.619497   6.486840   6.202377   6.255750   5.026583
    27  H    4.210082   5.348703   4.662340   5.192683   3.814555
    28  O    3.507136   4.588787   4.449365   3.516143   4.336926
    29  H    2.539537   4.208895   3.454634   3.016016   3.969525
    30  H    3.550777   3.845527   4.447166   3.258456   3.648553
                   11         12         13         14         15
    11  C    0.000000
    12  H    1.094864   0.000000
    13  H    1.104893   1.774184   0.000000
    14  H    4.022202   4.001377   4.647850   0.000000
    15  O    4.809728   4.929302   4.994344   2.067230   0.000000
    16  O    1.418576   2.036710   2.094469   4.954313   5.999825
    17  H    1.948616   2.810961   2.506453   5.004801   6.000651
    18  O    4.451444   4.948690   5.109248   2.537541   3.581889
    19  H    4.843236   5.148202   5.598709   2.207531   3.593799
    20  O    4.447616   5.191362   4.263896   4.050766   3.135279
[...]
 Harris functional with IExCor=  402 and IRadAn=       1 diagonalized for initial guess.
 HarFok:  IExCor=  402 AccDes= 0.00D+00 IRadAn=         1 IDoV= 1 UseB2=F ITyADJ=14
 ICtDFT=  3500011 ScaDFX=  1.000000  1.000000  1.000000  1.000000
 FoFCou: FMM=F IPFlag=           0 FMFlag=      100000 FMFlg1=           0
         NFxFlg=           0 DoJE=T BraDBF=F KetDBF=T FulRan=T
         wScrn=  0.000000 ICntrl=     500 IOpCl=  0 I1Cent=   200000004 NGrid=           0
         NMat0=    1 NMatS0=      1 NMatT0=    0 NMatD0=    1 NMtDS0=    0 NMtDT0=    0
 Symmetry not used in FoFCou.
 Requested convergence on RMS density matrix=1.00D-08 within 128 cycles.
 Requested convergence on MAX density matrix=1.00D-06.
 Requested convergence on             energy=1.00D-06.
 No special actions if energy rises.
 Integral accuracy reduced to 1.0D-05 until final iterations.
 Initial convergence to 1.0D-05 achieved.  Increase integral accuracy.
 SCF Done:  E(RB3LYP) =  -839.983202333     A.U. after    9 cycles
            NFock=  9  Conv=0.85D-08     -V/T= 2.0085
 DoSCS=F DFT=T ScalE2(SS,OS)=  1.000000  1.000000
 Range of M.O.s used for correlation:     1   242
 NBasis=   242 NAE=    58 NBE=    58 NFC=     0 NFV=     0
 NROrb=    242 NOA=    58 NOB=    58 NVA=   184 NVB=   184
 Symmetrizing basis deriv contribution to polar:
 IMax=3 JMax=2 DiffMx= 0.00D+00
 Calling FoFJK, ICntrl=      2147 FMM=F ISym2X=0 I1Cent= 0 IOpClX= 0 NMat=1 NMatS=1 NMatT=0.
 -------------------------------------------------------------------
 Center     Atomic                   Forces (Hartrees/Bohr)
 Number     Number              X              Y              Z
 -------------------------------------------------------------------
      1        8           0.001256867   -0.008790598   -0.007467425
      2        6           0.000414460   -0.000793564   -0.000482187
      3        6          -0.000125204    0.002563619   -0.000995739
      4        6           0.000151964   -0.001202072   -0.000049798
      5        6          -0.011641179    0.006382820    0.000063934
      6        6          -0.000991445   -0.002400783   -0.002042631
      7        1          -0.000050894   -0.000146827   -0.000181361
      8        1          -0.000292508   -0.000118113   -0.000088017
      9        1           0.000094077    0.000052249   -0.000124716
     10        1           0.000423786    0.000572395   -0.000390048
     11        6           0.001969881   -0.000838875   -0.000434063
     12        1           0.000113147   -0.000014421   -0.000016122
     13        1           0.000201903   -0.000158270   -0.000009903
     14        1          -0.000375741   -0.000124316   -0.000083770
     15        8          -0.009589493   -0.011041353    0.002367425
     16        8           0.002270549   -0.000800720   -0.000310226
     17        1           0.000093180    0.000121204    0.000228601
     18        8           0.001904781    0.000623229   -0.000053216
     19        1           0.000271728   -0.000703023    0.000163327
     20        8          -0.001272497   -0.003486081   -0.000298971
     21        1          -0.000116314    0.000318196   -0.000082525
     22        8           0.000179620    0.000400219    0.000332479
     23        1          -0.000066303   -0.000073258    0.000099931
     24        8           0.013786637    0.010398443   -0.004679785
     25        1           0.003269879    0.000239943   -0.003439485
     26        1           0.000638775   -0.000473351   -0.000594007
     27        1          -0.000450646    0.000213889   -0.001713274
     28        8          -0.002313150    0.007991005    0.019366323
     29        1           0.000609256    0.001158439    0.000844596
     30        1          -0.000365116    0.000129975    0.000070651
 -------------------------------------------------------------------
 Cartesian Forces:  Max     0.019366323 RMS     0.003909819
 IRC-IRC-IRC-IRC-IRC-IRC-IRC-IRC-IRC-IRC-IRC-IRC-IRC-IRC-IRC-IRC-IRC-IRC
 Error in corrector energy =          -0.0000304843
 Magnitude of corrector gradient =     0.0375989967
 Magnitude of analytic gradient =      0.0370917982
 Magnitude of difference =             0.0061770107
 Angle between gradients (degrees)=    9.4558
 Pt 10 Step number  19 out of a maximum of  20
 Modified Bulirsch-Stoer Extrapolation Cycles:
    EPS =    0.000010000000000
 Maximum DWI energy   std dev =  0.000032701 at pt    26
 Maximum DWI gradient std dev =  0.196907145 at pt    29
 CORRECTOR INTEGRATION CONVERGENCE:
   Recorrection delta-x convergence threshold:    0.010000
   Delta-x Convergence NOT Met
 IRC-IRC-IRC-IRC-IRC-IRC-IRC-IRC-IRC-IRC-IRC-IRC-IRC-IRC-IRC-IRC-IRC-IRC
                          Input orientation:                          
 ---------------------------------------------------------------------
 Center     Atomic      Atomic             Coordinates (Angstroms)
 Number     Number       Type             X           Y           Z
 ---------------------------------------------------------------------
      1          8           0        0.392617    0.703616   -0.646450
      2          6           0       -1.416304   -0.180517    0.735235
      3          6           0        0.200309   -1.780102   -0.372906
      4          6           0       -0.419025   -1.345867    0.960441
      5          6           0        0.966881   -0.614498   -1.074477
      6          6           0       -1.029396    0.685762   -0.486705
      7          1           0       -0.995726   -2.191892    1.356625
      8          1           0       -1.477643    0.229499   -1.379965
      9          1           0       -1.421241    0.438565    1.640997
     10          1           0        0.913628   -2.597336   -0.215022
     11          6           0       -1.596602    2.107506   -0.375023
     12          1           0       -1.248972    2.710455   -1.219909
     13          1           0       -1.226564    2.582150    0.549820
     14          1           0        0.759267   -0.643922   -2.163447
     15          8           0        2.285045   -0.708327   -0.778265
     16          8           0       -3.015919    2.086685   -0.422690
     17          1           0       -3.318093    1.294230    0.057449
     18          8           0       -0.936115   -2.224979   -1.131788
     19          1           0       -0.657801   -2.360557   -2.051156
     20          8           0        0.636157   -1.015878    1.868861
     21          1           0        0.248941   -0.943747    2.755206
     22          8           0       -2.757870   -0.653563    0.594178
     23          1           0       -2.745777   -1.254360   -0.173481
     24          8           0        3.758166    1.222889   -0.379569
     25          1           0        3.181389    1.385870    0.430934
     26          1           0        4.569836    0.807814   -0.051562
     27          1           0        2.842862    0.135827   -0.869210
     28          8           0        1.949952    1.347915    1.300386
     29          1           0        1.282622    1.357604    0.578180
     30          1           0        1.826684    0.437302    1.629011
 ---------------------------------------------------------------------
                    Distance matrix (angstroms):
                    1          2          3          4          5
     1  O    0.000000
     2  C    2.441913   0.000000
     3  C    2.506125   2.529839   0.000000
     4  C    2.727864   1.550265   1.532955   0.000000
     5  C    1.500137   3.023734   1.561559   2.568371   0.000000
     6  C    1.431069   1.547021   2.757828   2.567937   2.453829
     7  H    3.784676   2.146774   2.142744   1.097863   3.500037
     8  H    2.064147   2.155446   2.805029   3.013296   2.604103
     9  H    2.931338   1.097129   3.407010   2.156800   3.766413
    10  H    3.369549   3.488923   1.096185   2.173443   2.161746
    11  C    2.449810   2.549555   4.282802   3.885348   3.803943
    12  H    2.655385   3.494039   4.794052   4.679368   3.998308
    13  H    2.753488   2.775375   4.681520   4.031134   4.203344
    14  H    2.061933   3.653793   2.193029   3.411711   1.108974
    15  O    2.364792   4.033515   2.378895   3.277431   1.354290
    16  O    3.685249   3.006620   5.029776   4.520986   4.856327
    17  H    3.822783   2.500215   4.692108   4.023692   4.825505
    18  O    3.252345   2.810014   1.437107   2.327583   2.493657
    19  H    3.530685   3.618270   1.972259   3.186900   2.577250
    20  O    3.056593   2.489082   2.408220   1.430919   2.988934
    21  H    3.782289   2.726875   3.238355   1.956799   3.910283
    22  O    3.647830   1.429500   3.309859   2.466501   4.081631
    23  H    3.729194   1.935562   2.999266   2.589966   3.873635
    24  O    3.415815   5.476083   4.655787   5.083608   3.413234
    25  H    3.066509   4.866719   4.422260   4.550357   3.342422
    26  H    4.220652   6.117983   5.088549   5.527316   4.006321
    27  H    2.525016   4.562325   3.301543   4.022803   2.030868
    28  O    2.574992   3.739943   3.955458   3.603342   3.233801
    29  H    1.649099   3.110415   3.452704   3.217216   2.592326
    30  H    2.702812   3.420162   3.401418   2.944467   3.025622
                    6          7          8          9         10
     6  C    0.000000
     7  H    3.417586   0.000000
     8  H    1.098643   3.685689   0.000000
     9  H    2.177559   2.679782   3.028713   0.000000
    10  H    3.824642   2.506012   3.881529   4.255950   0.000000
    11  C    1.534780   4.673807   2.133300   2.623061   5.335015
    12  H    2.164528   5.543975   2.496608   3.657314   5.818872
    13  H    2.170148   4.847235   3.053207   2.413198   5.656189
    14  H    2.789057   4.226952   2.525960   4.516656   2.763334
    15  O    3.607494   4.185950   3.924204   4.572170   2.401329
    16  O    2.431656   5.055033   2.594573   3.085142   6.117558
    17  H    2.429911   4.385691   2.566528   2.614925   5.755518
    18  O    2.982826   2.489347   2.525730   3.875326   2.097774
    19  H    3.444656   3.428647   2.798398   4.695734   2.428341
    20  O    3.349378   2.075677   4.071116   2.529863   2.630698
    21  H    3.847003   2.250131   4.632196   2.437572   3.463874
    22  O    2.439205   2.460271   2.513170   2.018700   4.232370
    23  H    2.609243   2.506565   2.294691   2.812956   3.898276
    24  O    4.818790   6.105292   5.422298   5.614634   4.765773
    25  H    4.366111   5.577237   5.130607   4.852406   4.628815
    26  H    5.617441   6.477399   6.218609   6.236513   4.998962
    27  H    3.929774   5.010726   4.351598   4.957354   3.408824
    28  O    3.536758   4.605476   4.492610   3.508258   4.351486
    29  H    2.632638   4.289028   3.567354   3.047144   4.050540
    30  H    3.563029   3.866891   4.473890   3.247947   3.666490
                   11         12         13         14         15
    11  C    0.000000
    12  H    1.094636   0.000000
    13  H    1.103426   1.774515   0.000000
    14  H    4.039670   4.021831   4.659708   0.000000
    15  O    4.812349   4.936840   4.992238   2.061765   0.000000
    16  O    1.420269   2.036357   2.095960   4.973778   6.003227
    17  H    1.952430   2.814001   2.505127   5.031270   6.008644
    18  O    4.447400   4.946125   5.101045   2.537396   3.577860
    19  H    4.863575   5.172584   5.614171   2.228795   3.607001
    20  O    4.446993   5.194205   4.260915   4.051298   3.133799
    21  H    4.744945   5.603434   4.412799   4.954137   4.084918
    22  O    3.148237   4.109052   3.580042   4.469322   5.226623
    23  H    3.558562   4.365226   4.189269   4.076509   5.096379
    24  O    5.427349   5.290600   5.249656   3.957348   2.461431
    25  H    4.898931   4.909980   4.568946   4.088710   2.579003
    26  H    6.310212   6.232463   6.091648   4.592171   2.836732
    27  H    4.882681   4.847143   4.955640   2.573796   1.015887
    28  O    3.995249   4.294358   3.489547   4.169326   2.942993
    29  H    3.124241   3.387078   2.792191   3.434607   2.666995
    30  H    4.304024   4.768986   3.884244   4.085481   2.705094
                   16         17         18         19         20
    16  O    0.000000
    17  H    0.974591   0.000000
    18  O    4.839303   4.412815   0.000000
    19  H    5.290613   4.988070   0.970092   0.000000
    20  O    5.311756   4.924825   3.596924   4.341547   0.000000
    21  H    5.471915   5.001017   4.260826   5.092215   0.969920
    22  O    2.934206   2.096622   2.960929   3.784431   3.643557
    23  H    3.361199   2.622248   2.266127   3.018109   3.957968
    24  O    6.829073   7.090101   5.872811   5.927568   4.451344
    25  H    6.294954   6.510850   5.695101   5.910658   3.783416
    26  H    7.701748   7.903664   6.378104   6.431574   4.742121
    27  H    6.191166   6.337031   4.463521   4.459100   3.700406
    28  O    5.307979   5.412954   5.197155   5.637905   2.763464
    29  H    4.473338   4.630525   4.547712   4.950088   2.777983
    30  H    5.511873   5.447280   4.726818   5.248267   1.893836
                   21         22         23         24         25
    21  H    0.000000
    22  O    3.714184   0.000000
    23  H    4.200241   0.974886   0.000000
    24  O    5.180327   6.850401   6.962795   0.000000
    25  H    4.407789   6.281779   6.516704   1.008043   0.000000
    26  H    5.442062   7.499859   7.601685   0.968857   1.579473
    27  H    4.585880   5.842332   5.800822   1.503075   1.835097
    28  O    3.203381   5.164129   5.567224   2.471340   1.507921
    29  H    3.332289   4.513383   4.859563   2.657772   1.904678
    30  H    2.380101   4.824832   5.197893   2.895197   2.042155
                   26         27         28         29         30
    26  H    0.000000
    27  H    2.025476   0.000000
    28  O    2.997209   2.640756   0.000000
    29  H    3.391846   2.453981   0.983364   0.000000
    30  H    3.238284   2.713781   0.975912   1.499068   0.000000
 Symmetry turned off by external request.
 Stoichiometry    C6H16O8
 Framework group  C1[X(C6H16O8)]
 Deg. of freedom    84
 Full point group                 C1      NOp   1
 Rotational constants (GHZ):      0.8384925      0.4993800      0.4140833
 Standard basis: 6-31G(d) (6D, 7F)
   242 basis functions,   456 primitive gaussians,   242 cartesian basis functions
    58 alpha electrons       58 beta electrons
       nuclear repulsion energy      1134.9172701890 Hartrees.
 NAtoms=   30 NActive=   30 NUniq=   30 SFac= 1.00D+00 NAtFMM=   60 NAOKFM=F Big=F
 Integral buffers will be    131072 words long.
 Raffenetti 2 integral format.
 Two-electron integral symmetry is turned off.
 One-electron integrals computed using PRISM.
 NBasis=   242 RedAO= T EigKep=  1.56D-03  NBF=   242
 NBsUse=   242 1.00D-06 EigRej= -1.00D+00 NBFU=   242
 Initial guess from the checkpoint file:  "/scratch/10461027.yak.local/Gau-6433.chk"
 B after Tr=     0.000030    0.000019   -0.000076
         Rot=    1.000000    0.000003   -0.000011   -0.000003 Ang=   0.00 deg.
 ExpMin= 1.61D-01 ExpMax= 5.48D+03 ExpMxC= 8.25D+02 IAcc=1 IRadAn=         1 AccDes= 0.00D+00
 Harris functional with IExCor=  402 and IRadAn=       1 diagonalized for initial guess.
 HarFok:  IExCor=  402 AccDes= 0.00D+00 IRadAn=         1 IDoV= 1 UseB2=F ITyADJ=14
 ICtDFT=  3500011 ScaDFX=  1.000000  1.000000  1.000000  1.000000
 FoFCou: FMM=F IPFlag=           0 FMFlag=      100000 FMFlg1=           0
         NFxFlg=           0 DoJE=T BraDBF=F KetDBF=T FulRan=T
         wScrn=  0.000000 ICntrl=     500 IOpCl=  0 I1Cent=   200000004 NGrid=           0
         NMat0=    1 NMatS0=      1 NMatT0=    0 NMatD0=    1 NMtDS0=    0 NMtDT0=    0
 Symmetry not used in FoFCou.
 Requested convergence on RMS density matrix=1.00D-08 within 128 cycles.
 Requested convergence on MAX density matrix=1.00D-06.
 Requested convergence on             energy=1.00D-06.
 No special actions if energy rises.
 Integral accuracy reduced to 1.0D-05 until final iterations.
 Initial convergence to 1.0D-05 achieved.  Increase integral accuracy.
 SCF Done:  E(RB3LYP) =  -839.983214213     A.U. after    9 cycles
            NFock=  9  Conv=0.98D-08     -V/T= 2.0085
 DoSCS=F DFT=T ScalE2(SS,OS)=  1.000000  1.000000
 Range of M.O.s used for correlation:     1   242
 NBasis=   242 NAE=    58 NBE=    58 NFC=     0 NFV=     0
 NROrb=    242 NOA=    58 NOB=    58 NVA=   184 NVB=   184
 Symmetrizing basis deriv contribution to polar:
 IMax=3 JMax=2 DiffMx= 0.00D+00
 Calling FoFJK, ICntrl=      2147 FMM=F ISym2X=0 I1Cent= 0 IOpClX= 0 NMat=1 NMatS=1 NMatT=0.
 -------------------------------------------------------------------
 Center     Atomic                   Forces (Hartrees/Bohr)
 Number     Number              X              Y              Z
 -------------------------------------------------------------------
      1        8           0.001233579   -0.008866088   -0.007563200
      2        6           0.000423374   -0.000795184   -0.000493410
      3        6          -0.000117199    0.002592853   -0.000993589
      4        6           0.000168079   -0.001207899   -0.000018825
      5        6          -0.011777802    0.006483734    0.000114540
      6        6          -0.000989978   -0.002421284   -0.002073097
      7        1          -0.000049430   -0.000139686   -0.000187139
      8        1          -0.000294640   -0.000106468   -0.000072032
      9        1           0.000093681    0.000053339   -0.000112370
     10        1           0.000415839    0.000522841   -0.000364272
     11        6           0.001981787   -0.000843282   -0.000436933
     12        1           0.000105653   -0.000015094   -0.000012596
     13        1           0.000194771   -0.000151207   -0.000007723
     14        1          -0.000354325   -0.000135388   -0.000126677
     15        8          -0.008818176   -0.010015227    0.002157709
     16        8           0.002271838   -0.000793658   -0.000308272
     17        1           0.000089210    0.000117674    0.000227233
     18        8           0.001926549    0.000612717   -0.000060469
     19        1           0.000261455   -0.000704720    0.000161914
     20        8          -0.001316169   -0.003547872   -0.000327574
     21        1          -0.000116211    0.000328829   -0.000077111
     22        8           0.000170748    0.000404502    0.000341828
     23        1          -0.000064785   -0.000073739    0.000093389
     24        8           0.016765612    0.009450819   -0.008843558
     25        1           0.000771184    0.001123666    0.000620002
     26        1           0.000374455   -0.000336853   -0.000563037
     27        1          -0.001188748   -0.000834737   -0.001490618
     28        8          -0.002901222    0.008084492    0.018868496
     29        1           0.001123361    0.001142076    0.001437065
     30        1          -0.000382492    0.000070848    0.000110327
 -------------------------------------------------------------------
 Cartesian Forces:  Max     0.018868496 RMS     0.004005447
 IRC-IRC-IRC-IRC-IRC-IRC-IRC-IRC-IRC-IRC-IRC-IRC-IRC-IRC-IRC-IRC-IRC-IRC
 Error in corrector energy =          -0.0000278921
 Magnitude of corrector gradient =     0.0377678409
 Magnitude of analytic gradient =      0.0379990069
 Magnitude of difference =             0.0056171243
 Angle between gradients (degrees)=    8.4961
 Pt 10 Step number  20 out of a maximum of  20
 Modified Bulirsch-Stoer Extrapolation Cycles:
    EPS =    0.000010000000000
 Maximum DWI energy   std dev =  0.000025696 at pt    29
 Maximum DWI gradient std dev =  0.123804987 at pt    29
 CORRECTOR INTEGRATION CONVERGENCE:
   Recorrection delta-x convergence threshold:    0.010000
   Delta-x Convergence NOT Met
 Maximum number of corrector steps exceded.
 Error termination via Lnk1e in /global/software/gaussian/g09.e01/l123.exe at Sat Jan 14 02:31:39 2017.
 Job cpu time:       0 days  2 hours 44 minutes 45.1 seconds.
 File lengths (MBytes):  RWF=    220 Int=      0 D2E=      0 Chk=      8 Scr=      1
