 Entering Gaussian System, Link 0=g09
 Initial command:
 /global/software/gaussian/g09.e01/l1.exe "/scratch/10452992.yak.local/Gau-8186.inp" -scrdir="/scratch/10452992.yak.local/"
 Entering Link 1 = /global/software/gaussian/g09.e01/l1.exe PID=      8187.
  
 Copyright (c) 1988,1990,1992,1993,1995,1998,2003,2009,2015,
            Gaussian, Inc.  All Rights Reserved.
  
 This is part of the Gaussian(R) 09 program.  It is based on
 the Gaussian(R) 03 system (copyright 2003, Gaussian, Inc.),
 the Gaussian(R) 98 system (copyright 1998, Gaussian, Inc.),
 the Gaussian(R) 94 system (copyright 1995, Gaussian, Inc.),
 the Gaussian 92(TM) system (copyright 1992, Gaussian, Inc.),
 the Gaussian 90(TM) system (copyright 1990, Gaussian, Inc.),
 the Gaussian 88(TM) system (copyright 1988, Gaussian, Inc.),
 the Gaussian 86(TM) system (copyright 1986, Carnegie Mellon
 University), and the Gaussian 82(TM) system (copyright 1983,
 Carnegie Mellon University). Gaussian is a federally registered
 trademark of Gaussian, Inc.
  
 This software contains proprietary and confidential information,
 including trade secrets, belonging to Gaussian, Inc.
  
 This software is provided under written license and may be
 used, copied, transmitted, or stored only in accord with that
 written license.
  
 The following legend is applicable only to US Government
 contracts under FAR:
  
                    RESTRICTED RIGHTS LEGEND
  
 Use, reproduction and disclosure by the US Government is
 subject to restrictions as set forth in subparagraphs (a)
 and (c) of the Commercial Computer Software - Restricted
 Rights clause in FAR 52.227-19.
  
 Gaussian, Inc.
 340 Quinnipiac St., Bldg. 40, Wallingford CT 06492
  
  
 ---------------------------------------------------------------
 Warning -- This program may not be used in any manner that
 competes with the business of Gaussian, Inc. or will provide
 assistance to any competitor of Gaussian, Inc.  The licensee
 of this program is prohibited from giving any competitor of
 Gaussian, Inc. access to this program.  By using this program,
 the user acknowledges that Gaussian, Inc. is engaged in the
 business of creating and licensing software in the field of
 computational chemistry and represents and warrants to the
 licensee that it is not a competitor of Gaussian, Inc. and that
 it will not use this program in any manner prohibited above.
 ---------------------------------------------------------------
  

 Cite this work as:
 Gaussian 09, Revision E.01,
 M. J. Frisch, G. W. Trucks, H. B. Schlegel, G. E. Scuseria, 
 M. A. Robb, J. R. Cheeseman, G. Scalmani, V. Barone, B. Mennucci, 
 G. A. Petersson, H. Nakatsuji, M. Caricato, X. Li, H. P. Hratchian, 
 A. F. Izmaylov, J. Bloino, G. Zheng, J. L. Sonnenberg, M. Hada, 
 M. Ehara, K. Toyota, R. Fukuda, J. Hasegawa, M. Ishida, T. Nakajima, 
 Y. Honda, O. Kitao, H. Nakai, T. Vreven, J. A. Montgomery, Jr., 
 J. E. Peralta, F. Ogliaro, M. Bearpark, J. J. Heyd, E. Brothers, 
 K. N. Kudin, V. N. Staroverov, T. Keith, R. Kobayashi, J. Normand, 
 K. Raghavachari, A. Rendell, J. C. Burant, S. S. Iyengar, J. Tomasi, 
 M. Cossi, N. Rega, J. M. Millam, M. Klene, J. E. Knox, J. B. Cross, 
 V. Bakken, C. Adamo, J. Jaramillo, R. Gomperts, R. E. Stratmann, 
 O. Yazyev, A. J. Austin, R. Cammi, C. Pomelli, J. W. Ochterski, 
 R. L. Martin, K. Morokuma, V. G. Zakrzewski, G. A. Voth, 
 P. Salvador, J. J. Dannenberg, S. Dapprich, A. D. Daniels, 
 O. Farkas, J. B. Foresman, J. V. Ortiz, J. Cioslowski, 
 and D. J. Fox, Gaussian, Inc., Wallingford CT, 2013.
 
 ******************************************
 Gaussian 09:  ES64L-G09RevE.01 30-Nov-2015
                12-Jan-2017 
 ******************************************
 %NPROCS=4
 Will use up to    4 processors via shared memory.
 ----------------------------------------------------------------------
 # opt=(calcfc,ts,noeigentest,maxcycle=1000,cartesian) b3lyp 6-31g(d) f
 req
 ----------------------------------------------------------------------
 1/5=1,6=1000,10=4,11=1,14=-1,18=10,26=3,38=1/1,3;
 2/12=2,17=6,18=5,29=2,40=1/2;
 3/5=1,6=6,7=1,11=2,16=1,25=1,30=1,71=2,74=-5,140=1/1,2,3;
 4//1;
 5/5=2,38=5/2;
 8/6=4,10=90,11=11/1;
 11/6=1,8=1,9=11,15=111,16=1/1,2,10;
 10/6=1,13=1/2;
 6/7=2,8=2,9=2,10=2,28=1/1;
 7/7=1,10=1,18=20,25=1/1,2,3,16;
 1/5=1,6=1000,10=4,11=1,14=-1,18=10,26=3/3(2);
 2/29=1/2;
 99/12=1/99;
 2/29=1/2;
 3/5=1,6=6,7=1,11=2,16=1,25=1,30=1,71=1,74=-5/1,2,3;
 4/5=5,16=3,69=1/1;
 5/5=2,38=5/2;
 7/7=1/1,2,3,16;
 1/5=1,6=1000,11=1,14=-1,18=10,26=3/3(-5);
 2/29=1/2;
 6/7=2,8=2,9=2,10=2,19=2,28=1/1;
 99/9=1,12=1/99;
 -------------------------
 boat4_Alpha_B3LYP_6-31G_d
 -------------------------
 Symbolic Z-matrix:
 Charge =  0 Multiplicity = 1
 8                    0    -1.2586    0.43204  -0.70773 
 6                    0     1.04662   0.32675  -0.14187 
 6                    0    -0.39685  -1.75182   0.439 
 6                    0     1.00434  -1.1921    0.16678 
 6                    0    -1.51902  -1.27771  -0.48366 
 6                    0    -0.27503   1.06052   0.12239 
 1                    0     1.56356  -1.3334    1.10382 
 1                    0    -0.54598   0.97601   1.18577 
 1                    0     1.24389   0.42204  -1.22 
 6                    0    -0.21265   2.53209  -0.31236 
 1                    0     0.10165   2.58181  -1.36506 
 1                    0    -1.19843   3.00619  -0.23164 
 1                    0    -0.32714  -2.84265   0.28032 
 8                    0     0.76862   3.28009   0.42043 
 1                    0     0.45039   3.38738   1.33266 
 8                    0    -0.75993  -1.45146   1.77636 
 1                    0    -1.73824  -1.51646   1.76113 
 8                    0     1.56046  -1.94806  -0.89 
 1                    0     2.50251  -1.66689  -0.95897 
 8                    0     2.12193   0.899     0.61644 
 1                    0     2.04408   1.87197   0.53413 
 1                    0    -1.38126  -1.51536  -1.54286 
 8                    0    -2.70642  -1.42229   0.04337 
 8                    0    -3.62588   0.69256  -0.57844 
 1                    0    -3.4391   -0.41273  -0.32298 
 1                    0    -2.41754   0.80253  -0.62266 
 1                    0    -3.98019   1.1035    0.22645 
 8                    0     4.04619  -0.71543  -0.5518 
 1                    0     4.49933  -1.19501   0.16243 
 1                    0     3.56706   0.01305  -0.09339 
 

 GradGradGradGradGradGradGradGradGradGradGradGradGradGradGradGradGradGrad
 Berny optimization.
 Initialization pass.
 No Z-matrix variables, so optimization will use Cartesian coordinates.
 Trust Radius=3.00D-01 FncErr=1.00D-07 GrdErr=1.00D-06
 Number of steps in this run=    180 maximum allowed number of steps=    180.
 Search for a saddle point of order  1.
 GradGradGradGradGradGradGradGradGradGradGradGradGradGradGradGradGradGrad

 ---------------------------------------------------------------------------------------------------
                            Z-MATRIX (ANGSTROMS AND DEGREES)
   CD    Cent   Atom    N1       Length/X        N2       Alpha/Y        N3        Beta/Z          J
 ---------------------------------------------------------------------------------------------------
      1      1  O        0  -1.258596          0.432044         -0.707726
      2      2  C        0   1.046619          0.326752         -0.141869
      3      3  C        0  -0.396851         -1.751822          0.438998
      4      4  C        0   1.004343         -1.192100          0.166783
      5      5  C        0  -1.519015         -1.277710         -0.483657
      6      6  C        0  -0.275034          1.060519          0.122387
      7      7  H        0   1.563557         -1.333400          1.103819
      8      8  H        0  -0.545979          0.976013          1.185770
      9      9  H        0   1.243893          0.422036         -1.219995
     10     10  C        0  -0.212645          2.532088         -0.312355
     11     11  H        0   0.101650          2.581812         -1.365064
     12     12  H        0  -1.198427          3.006192         -0.231643
     13     13  H        0  -0.327139         -2.842651          0.280315
     14     14  O        0   0.768622          3.280090          0.420427
     15     15  H        0   0.450393          3.387377          1.332655
     16     16  O        0  -0.759930         -1.451456          1.776360
     17     17  H        0  -1.738235         -1.516462          1.761129
     18     18  O        0   1.560458         -1.948058         -0.890000
     19     19  H        0   2.502514         -1.666886         -0.958966
     20     20  O        0   2.121926          0.898998          0.616440
     21     21  H        0   2.044080          1.871973          0.534125
     22     22  H        0  -1.381260         -1.515356         -1.542861
     23     23  O        0  -2.706424         -1.422290          0.043374
     24     24  O        0  -3.625884          0.692561         -0.578436
     25     25  H        0  -3.439103         -0.412733         -0.322982
     26     26  H        0  -2.417542          0.802525         -0.622658
     27     27  H        0  -3.980191          1.103496          0.226447
     28     28  O        0   4.046192         -0.715429         -0.551797
     29     29  H        0   4.499332         -1.195012          0.162431
     30     30  H        0   3.567057          0.013051         -0.093388
 ---------------------------------------------------------------------------------------------------
                         Z-Matrix orientation:                         
 ---------------------------------------------------------------------
 Center     Atomic      Atomic             Coordinates (Angstroms)
 Number     Number       Type             X           Y           Z
 ---------------------------------------------------------------------
      1          8           0       -1.258596    0.432044   -0.707726
      2          6           0        1.046619    0.326752   -0.141869
      3          6           0       -0.396851   -1.751822    0.438998
      4          6           0        1.004343   -1.192100    0.166783
      5          6           0       -1.519015   -1.277710   -0.483657
      6          6           0       -0.275034    1.060519    0.122387
      7          1           0        1.563557   -1.333400    1.103819
      8          1           0       -0.545979    0.976013    1.185770
      9          1           0        1.243893    0.422036   -1.219995
     10          6           0       -0.212645    2.532088   -0.312355
     11          1           0        0.101650    2.581812   -1.365064
     12          1           0       -1.198427    3.006192   -0.231643
     13          1           0       -0.327139   -2.842651    0.280315
     14          8           0        0.768622    3.280090    0.420427
     15          1           0        0.450393    3.387377    1.332655
     16          8           0       -0.759930   -1.451456    1.776360
     17          1           0       -1.738235   -1.516462    1.761129
     18          8           0        1.560458   -1.948058   -0.890000
     19          1           0        2.502514   -1.666886   -0.958966
     20          8           0        2.121926    0.898998    0.616440
     21          1           0        2.044080    1.871973    0.534125
     22          1           0       -1.381260   -1.515356   -1.542861
     23          8           0       -2.706424   -1.422290    0.043374
     24          8           0       -3.625884    0.692561   -0.578436
     25          1           0       -3.439103   -0.412733   -0.322982
     26          1           0       -2.417542    0.802525   -0.622658
     27          1           0       -3.980191    1.103496    0.226447
     28          8           0        4.046192   -0.715429   -0.551797
     29          1           0        4.499332   -1.195012    0.162431
     30          1           0        3.567057    0.013051   -0.093388
 ---------------------------------------------------------------------
                    Distance matrix (angstroms):
                    1          2          3          4          5
     1  O    0.000000
     2  C    2.375983   0.000000
     3  C    2.612824   2.596436   0.000000
     4  C    2.919504   1.550472   1.533210   0.000000
     5  C    1.743928   3.045258   1.528178   2.607247   0.000000
     6  C    1.432293   1.534605   2.832727   2.590959   2.717001
     7  H    3.789860   2.138941   2.111934   1.100328   3.467770
     8  H    2.095007   2.172679   2.832135   2.853515   2.968679
     9  H    2.554402   1.100160   3.189037   2.141488   3.326408
    10  C    2.379184   2.545254   4.353200   3.947177   4.031192
    11  H    2.627521   2.733947   4.720543   4.171789   4.277773
    12  H    2.618494   3.496811   4.871445   4.757793   4.303267
    13  H    3.545062   3.480024   1.104513   2.123688   2.110275
    14  O    3.673378   3.019216   5.165153   4.485575   5.179208
    15  H    3.977159   3.449222   5.284677   4.757912   5.379646
    16  O    3.157043   3.178875   1.417950   2.402220   2.390413
    17  H    3.181505   3.843729   1.898087   3.188869   2.268066
    18  O    3.693938   2.449182   2.373985   1.413339   3.177678
    19  H    4.314461   2.600360   3.219912   1.933197   4.068178
    20  O    3.660518   1.434846   3.660952   2.413270   4.382319
    21  H    3.810939   1.959491   4.370250   3.256461   4.863335
    22  H    2.122466   3.354212   2.225476   2.952707   1.094242
    23  O    2.469597   4.144731   2.366271   3.719947   1.307136
    24  O    2.385086   4.707089   4.175744   5.054335   2.886148
    25  H    2.369871   4.549873   3.410142   4.537785   2.112046
    26  H    1.219692   3.529579   3.425638   4.038693   2.270253
    27  H    2.954760   5.099785   4.586758   5.488069   3.497396
    28  O    5.429713   3.201815   4.668663   3.161711   5.593955
    29  H    6.046339   3.785445   4.935497   3.494993   6.053492
    30  H    4.882611   2.540348   4.371588   2.843867   5.261796
                    6          7          8          9         10
     6  C    0.000000
     7  H    3.174031   0.000000
     8  H    1.100607   3.128937   0.000000
     9  H    2.125274   2.929821   3.049301   0.000000
    10  C    1.535711   4.483574   2.185603   2.719859   0.000000
    11  H    2.160725   4.854013   3.082980   2.447529   1.099750
    12  H    2.182575   5.314515   2.560542   3.690478   1.096839
    13  H    3.906711   2.555529   3.930640   3.921384   5.408529
    14  O    2.470737   4.731093   2.760923   3.329465   1.435048
    15  H    2.721261   4.855640   2.613237   3.992357   1.969060
    16  O    3.046435   2.421743   2.507424   4.062440   4.531101
    17  H    3.386335   3.371557   2.822223   4.640901   4.797658
    18  O    3.666810   2.086415   4.158857   2.413805   4.852760
    19  H    4.040153   2.290837   4.569258   2.452725   5.041981
    20  O    2.452671   2.352215   2.729063   2.090676   2.996642
    21  H    2.491240   3.290877   2.817054   2.412375   2.499017
    22  H    3.260662   3.963580   3.788145   3.278591   4.388805
    23  O    3.475952   4.400589   3.424098   4.539014   4.688559
    24  O    3.443072   5.819347   3.560700   4.919300   3.886497
    25  H    3.518545   5.282991   3.546141   4.840653   4.368308
    26  H    2.282979   4.836533   2.608306   3.729301   2.819441
    27  H    3.706867   6.118937   3.567964   5.463299   4.065167
    28  O    4.720329   3.047364   5.193087   3.097288   5.361100
    29  H    5.280492   3.086120   5.587104   3.888937   6.026560
    30  H    3.988159   2.694485   4.413684   2.614116   4.547487
                   11         12         13         14         15
    11  H    0.000000
    12  H    1.776216   0.000000
    13  H    5.684710   5.935504   0.000000
    14  O    2.029882   2.090334   6.221598   0.000000
    15  H    2.836943   2.304547   6.365943   0.972080   0.000000
    16  O    5.184411   4.908664   2.088273   5.153887   5.007600
    17  H    5.473035   4.971613   2.437782   5.575726   5.387144
    18  O    4.782628   5.708719   2.394359   5.447729   5.885517
    19  H    4.896989   6.005299   3.305326   5.420487   5.916781
    20  O    3.292375   4.022966   4.484511   2.745806   3.082047
    21  H    2.807815   3.519475   5.283444   1.903290   2.339645
    22  H    4.360897   4.711382   2.489348   5.610062   5.971628
    23  O    5.089382   4.686272   2.781108   5.859223   5.895815
    24  O    4.252360   3.371306   4.910896   5.196606   5.246936
    25  H    4.752911   4.088768   3.994094   5.647526   5.684202
    26  H    3.172280   2.548584   4.297959   4.168692   4.327789
    27  H    4.623824   3.401222   5.377710   5.227467   5.105868
    28  O    5.205056   6.438866   4.933914   5.258503   5.771824
    29  H    5.994768   7.090125   5.101317   5.831921   6.225883
    30  H    4.497192   5.629196   4.843496   4.332296   4.809706
                   16         17         18         19         20
    16  O    0.000000
    17  H    0.980581   0.000000
    18  O    3.569354   4.253955   0.000000
    19  H    4.262858   5.040387   0.985537   0.000000
    20  O    3.895529   4.695275   3.269608   3.034883   0.000000
    21  H    4.522256   5.224264   4.105443   3.868204   0.979549
    22  H    3.377479   3.323219   3.044202   3.930343   4.771163
    23  O    2.606325   1.974067   4.399307   5.310136   5.387926
    24  O    4.284340   3.730491   5.828214   6.577922   5.874322
    25  H    3.558673   2.907695   5.260641   6.105750   5.790354
    26  H    3.685566   3.394348   4.843724   5.515256   4.706532
    27  H    4.393187   3.774360   6.423179   7.148824   6.117985
    28  O    5.390813   6.280993   2.795108   1.858494   2.770190
    29  H    5.507301   6.447202   3.211179   2.338264   3.200478
    30  H    4.935945   5.824497   2.916673   2.169024   1.837705
                   21         22         23         24         25
    21  H    0.000000
    22  H    5.246029   0.000000
    23  O    5.801749   2.069025   0.000000
    24  O    5.897228   3.292924   2.388441   0.000000
    25  H    6.001651   2.634122   1.300093   1.149704   0.000000
    26  H    4.731589   2.700597   2.340268   1.214141   1.615625
    27  H    6.080877   4.091855   2.834712   0.970689   1.701058
    28  O    3.447075   5.574884   6.815549   7.800250   7.494906
    29  H    3.946241   6.131232   7.210322   8.374422   7.991642
    30  H    2.483711   5.377996   6.437039   7.241230   7.022840
                   26         27         28         29         30
    26  H    0.000000
    27  H    1.803728   0.000000
    28  O    6.639960   8.266618   0.000000
    29  H    7.242214   8.785758   0.972346   0.000000
    30  H    6.059606   7.632321   0.985085   1.547254   0.000000
 Stoichiometry    C6H16O8
 Framework group  C1[X(C6H16O8)]
 Deg. of freedom    84
 Full point group                 C1      NOp   1
 Largest Abelian subgroup         C1      NOp   1
 Largest concise Abelian subgroup C1      NOp   1
                         Standard orientation:                         
 ---------------------------------------------------------------------
 Center     Atomic      Atomic             Coordinates (Angstroms)
 Number     Number       Type             X           Y           Z
 ---------------------------------------------------------------------
      1          8           0       -1.258596    0.432044   -0.707726
      2          6           0        1.046619    0.326752   -0.141869
      3          6           0       -0.396851   -1.751822    0.438998
      4          6           0        1.004343   -1.192100    0.166783
      5          6           0       -1.519015   -1.277710   -0.483657
      6          6           0       -0.275034    1.060519    0.122387
      7          1           0        1.563557   -1.333400    1.103819
      8          1           0       -0.545979    0.976013    1.185770
      9          1           0        1.243893    0.422036   -1.219995
     10          6           0       -0.212645    2.532088   -0.312355
     11          1           0        0.101650    2.581812   -1.365064
     12          1           0       -1.198427    3.006192   -0.231643
     13          1           0       -0.327139   -2.842651    0.280315
     14          8           0        0.768622    3.280090    0.420427
     15          1           0        0.450393    3.387377    1.332655
     16          8           0       -0.759930   -1.451456    1.776360
     17          1           0       -1.738235   -1.516462    1.761129
     18          8           0        1.560458   -1.948058   -0.890000
     19          1           0        2.502514   -1.666886   -0.958966
     20          8           0        2.121926    0.898998    0.616440
     21          1           0        2.044080    1.871973    0.534125
     22          1           0       -1.381260   -1.515356   -1.542861
     23          8           0       -2.706424   -1.422290    0.043374
     24          8           0       -3.625884    0.692561   -0.578436
     25          1           0       -3.439103   -0.412733   -0.322982
     26          1           0       -2.417542    0.802525   -0.622658
     27          1           0       -3.980191    1.103496    0.226447
     28          8           0        4.046192   -0.715429   -0.551797
     29          1           0        4.499332   -1.195012    0.162431
     30          1           0        3.567057    0.013051   -0.093388
 ---------------------------------------------------------------------
 Rotational constants (GHZ):      0.7645072      0.5043678      0.3514916
 Standard basis: 6-31G(d) (6D, 7F)
 There are   242 symmetry adapted cartesian basis functions of A   symmetry.
 There are   242 symmetry adapted basis functions of A   symmetry.
   242 basis functions,   456 primitive gaussians,   242 cartesian basis functions
    58 alpha electrons       58 beta electrons
       nuclear repulsion energy      1109.2067043436 Hartrees.
 NAtoms=   30 NActive=   30 NUniq=   30 SFac= 1.00D+00 NAtFMM=   60 NAOKFM=F Big=F
 Integral buffers will be    131072 words long.
 Raffenetti 2 integral format.
 Two-electron integral symmetry is turned on.
 One-electron integrals computed using PRISM.
 NBasis=   242 RedAO= T EigKep=  1.35D-03  NBF=   242
 NBsUse=   242 1.00D-06 EigRej= -1.00D+00 NBFU=   242
 ExpMin= 1.61D-01 ExpMax= 5.48D+03 ExpMxC= 8.25D+02 IAcc=1 IRadAn=         1 AccDes= 0.00D+00
 Harris functional with IExCor=  402 and IRadAn=       1 diagonalized for initial guess.
 HarFok:  IExCor=  402 AccDes= 0.00D+00 IRadAn=         1 IDoV= 1 UseB2=F ITyADJ=14
 ICtDFT=  3500011 ScaDFX=  1.000000  1.000000  1.000000  1.000000
 FoFCou: FMM=F IPFlag=           0 FMFlag=      100000 FMFlg1=           0
         NFxFlg=           0 DoJE=T BraDBF=F KetDBF=T FulRan=T
         wScrn=  0.000000 ICntrl=     500 IOpCl=  0 I1Cent=   200000004 NGrid=           0
         NMat0=    1 NMatS0=      1 NMatT0=    0 NMatD0=    1 NMtDS0=    0 NMtDT0=    0
 Petite list used in FoFCou.
 Requested convergence on RMS density matrix=1.00D-08 within 128 cycles.
 Requested convergence on MAX density matrix=1.00D-06.
 Requested convergence on             energy=1.00D-06.
 No special actions if energy rises.
 Integral accuracy reduced to 1.0D-05 until final iterations.
 Initial convergence to 1.0D-05 achieved.  Increase integral accuracy.
 SCF Done:  E(RB3LYP) =  -839.960404715     A.U. after   14 cycles
            NFock= 14  Conv=0.52D-08     -V/T= 2.0086
 DoSCS=F DFT=T ScalE2(SS,OS)=  1.000000  1.000000
 Range of M.O.s used for correlation:     1   242
 NBasis=   242 NAE=    58 NBE=    58 NFC=     0 NFV=     0
 NROrb=    242 NOA=    58 NOB=    58 NVA=   184 NVB=   184
 Symmetrizing basis deriv contribution to polar:
 IMax=3 JMax=2 DiffMx= 0.00D+00
 G2DrvN: will do    31 centers at a time, making    1 passes.
 Calling FoFCou, ICntrl=  3107 FMM=F I1Cent=   0 AccDes= 0.00D+00.
 End of G2Drv F.D. properties file   721 does not exist.
 End of G2Drv F.D. properties file   722 does not exist.
 End of G2Drv F.D. properties file   788 does not exist.
          IDoAtm=111111111111111111111111111111
          Differentiating once with respect to nuclear coordinates.
          There are    93 degrees of freedom in the 1st order CPHF.  IDoFFX=6 NUNeed=     0.
     87 vectors produced by pass  0 Test12= 1.15D-14 1.08D-09 XBig12= 1.09D-01 7.16D-02.
 AX will form    87 AO Fock derivatives at one time.
     87 vectors produced by pass  1 Test12= 1.15D-14 1.08D-09 XBig12= 1.24D-02 1.56D-02.
     87 vectors produced by pass  2 Test12= 1.15D-14 1.08D-09 XBig12= 1.33D-04 1.51D-03.
     87 vectors produced by pass  3 Test12= 1.15D-14 1.08D-09 XBig12= 3.87D-07 6.50D-05.
     87 vectors produced by pass  4 Test12= 1.15D-14 1.08D-09 XBig12= 5.64D-10 2.00D-06.
     67 vectors produced by pass  5 Test12= 1.15D-14 1.08D-09 XBig12= 4.35D-13 7.12D-08.
      1 vectors produced by pass  6 Test12= 1.15D-14 1.08D-09 XBig12= 3.02D-16 1.28D-09.
 InvSVY:  IOpt=1 It=  1 EMax= 5.55D-16
 Solved reduced A of dimension   503 with    93 vectors.
 End of Minotr F.D. properties file   721 does not exist.
 End of Minotr F.D. properties file   722 does not exist.
 End of Minotr F.D. properties file   788 does not exist.

 **********************************************************************

            Population analysis using the SCF density.

 **********************************************************************

 Orbital symmetries:
       Occupied  (A) (A) (A) (A) (A) (A) (A) (A) (A) (A) (A) (A)
                 (A) (A) (A) (A) (A) (A) (A) (A) (A) (A) (A) (A)
                 (A) (A) (A) (A) (A) (A) (A) (A) (A) (A) (A) (A)
                 (A) (A) (A) (A) (A) (A) (A) (A) (A) (A) (A) (A)
                 (A) (A) (A) (A) (A) (A) (A) (A) (A) (A)
       Virtual   (A) (A) (A) (A) (A) (A) (A) (A) (A) (A) (A) (A)
                 (A) (A) (A) (A) (A) (A) (A) (A) (A) (A) (A) (A)
                 (A) (A) (A) (A) (A) (A) (A) (A) (A) (A) (A) (A)
                 (A) (A) (A) (A) (A) (A) (A) (A) (A) (A) (A) (A)
                 (A) (A) (A) (A) (A) (A) (A) (A) (A) (A) (A) (A)
                 (A) (A) (A) (A) (A) (A) (A) (A) (A) (A) (A) (A)
                 (A) (A) (A) (A) (A) (A) (A) (A) (A) (A) (A) (A)
                 (A) (A) (A) (A) (A) (A) (A) (A) (A) (A) (A) (A)
                 (A) (A) (A) (A) (A) (A) (A) (A) (A) (A) (A) (A)
                 (A) (A) (A) (A) (A) (A) (A) (A) (A) (A) (A) (A)
                 (A) (A) (A) (A) (A) (A) (A) (A) (A) (A) (A) (A)
                 (A) (A) (A) (A) (A) (A) (A) (A) (A) (A) (A) (A)
                 (A) (A) (A) (A) (A) (A) (A) (A) (A) (A) (A) (A)
                 (A) (A) (A) (A) (A) (A) (A) (A) (A) (A) (A) (A)
                 (A) (A) (A) (A) (A) (A) (A) (A) (A) (A) (A) (A)
                 (A) (A) (A) (A)
 The electronic state is 1-A.
 Alpha  occ. eigenvalues --  -19.19205 -19.18053 -19.17761 -19.16296 -19.14478
 Alpha  occ. eigenvalues --  -19.13863 -19.12743 -19.12138 -10.29171 -10.26217
 Alpha  occ. eigenvalues --  -10.25771 -10.24377 -10.23469 -10.23257  -1.07113
 Alpha  occ. eigenvalues --   -1.05989  -1.03479  -1.02571  -1.01350  -1.00389
 Alpha  occ. eigenvalues --   -0.99538  -0.98939  -0.77974  -0.75695  -0.69919
 Alpha  occ. eigenvalues --   -0.64701  -0.62831  -0.57048  -0.56373  -0.55303
 Alpha  occ. eigenvalues --   -0.53631  -0.52656  -0.51992  -0.51123  -0.49774
 Alpha  occ. eigenvalues --   -0.48149  -0.45955  -0.45343  -0.44807  -0.43526
 Alpha  occ. eigenvalues --   -0.42736  -0.40344  -0.39775  -0.39230  -0.38311
 Alpha  occ. eigenvalues --   -0.37696  -0.36220  -0.35480  -0.34673  -0.33356
 Alpha  occ. eigenvalues --   -0.31144  -0.30692  -0.29491  -0.28934  -0.28207
 Alpha  occ. eigenvalues --   -0.26760  -0.25667  -0.24955
 Alpha virt. eigenvalues --    0.02137   0.04325   0.04916   0.07118   0.09848
 Alpha virt. eigenvalues --    0.10458   0.10848   0.12516   0.13964   0.14665
 Alpha virt. eigenvalues --    0.15299   0.16625   0.17047   0.17692   0.18830
 Alpha virt. eigenvalues --    0.20264   0.20933   0.21320   0.23198   0.23865
 Alpha virt. eigenvalues --    0.24143   0.24946   0.26476   0.27739   0.30177
 Alpha virt. eigenvalues --    0.31241   0.33198   0.35205   0.50982   0.52409
 Alpha virt. eigenvalues --    0.53643   0.54094   0.54965   0.55863   0.60409
 Alpha virt. eigenvalues --    0.61491   0.61705   0.63283   0.65153   0.65435
 Alpha virt. eigenvalues --    0.66444   0.67183   0.71365   0.73403   0.74394
 Alpha virt. eigenvalues --    0.75470   0.76201   0.77797   0.78587   0.80082
 Alpha virt. eigenvalues --    0.80513   0.82013   0.83129   0.84037   0.84872
 Alpha virt. eigenvalues --    0.86174   0.86336   0.88028   0.88308   0.89177
 Alpha virt. eigenvalues --    0.91135   0.91873   0.92372   0.93172   0.94255
 Alpha virt. eigenvalues --    0.95970   0.98245   1.00176   1.01600   1.01913
 Alpha virt. eigenvalues --    1.04163   1.05295   1.06372   1.07797   1.09219
 Alpha virt. eigenvalues --    1.10328   1.10969   1.12487   1.13937   1.15851
 Alpha virt. eigenvalues --    1.17102   1.18523   1.21800   1.22521   1.24299
 Alpha virt. eigenvalues --    1.28092   1.31071   1.33368   1.35364   1.38827
 Alpha virt. eigenvalues --    1.41103   1.44184   1.45007   1.47404   1.48317
 Alpha virt. eigenvalues --    1.50227   1.54805   1.56783   1.57708   1.60605
 Alpha virt. eigenvalues --    1.61484   1.62567   1.66341   1.67539   1.69051
 Alpha virt. eigenvalues --    1.69368   1.69816   1.72284   1.72872   1.73960
 Alpha virt. eigenvalues --    1.74899   1.75774   1.77270   1.79345   1.80228
 Alpha virt. eigenvalues --    1.81203   1.82889   1.83765   1.85276   1.87522
 Alpha virt. eigenvalues --    1.88616   1.90335   1.91432   1.92411   1.94335
 Alpha virt. eigenvalues --    1.96049   1.96856   2.00415   2.03226   2.04900
 Alpha virt. eigenvalues --    2.05349   2.07879   2.10575   2.11295   2.14044
 Alpha virt. eigenvalues --    2.17568   2.20700   2.23811   2.25948   2.26254
 Alpha virt. eigenvalues --    2.28891   2.33295   2.34752   2.36313   2.37564
 Alpha virt. eigenvalues --    2.43463   2.44554   2.48967   2.49145   2.51043
 Alpha virt. eigenvalues --    2.52181   2.54002   2.55633   2.57144   2.57714
 Alpha virt. eigenvalues --    2.60665   2.62854   2.64570   2.65824   2.67742
 Alpha virt. eigenvalues --    2.71597   2.77477   2.81598   2.86042   2.88857
 Alpha virt. eigenvalues --    2.90780   2.95822   2.96525   3.00246   3.07746
 Alpha virt. eigenvalues --    3.72901   3.74277   3.79967   3.83271   3.92514
 Alpha virt. eigenvalues --    3.97344   4.04426   4.12588   4.25926   4.33987
 Alpha virt. eigenvalues --    4.44000   4.52878   4.61248   4.81133
          Condensed to atoms (all electrons):
               1          2          3          4          5          6
     1  O    8.616669  -0.039220  -0.010604  -0.000650   0.070274   0.136051
     2  C   -0.039220   5.030444  -0.025463   0.314629  -0.018667   0.307293
     3  C   -0.010604  -0.025463   5.076699   0.310763   0.267322  -0.007260
     4  C   -0.000650   0.314629   0.310763   4.914694  -0.025349  -0.025508
     5  C    0.070274  -0.018667   0.267322  -0.025349   4.782723  -0.008840
     6  C    0.136051   0.307293  -0.007260  -0.025508  -0.008840   5.027905
     7  H    0.000172  -0.066036  -0.044658   0.351288   0.006326   0.001890
     8  H   -0.033230  -0.051239  -0.003987  -0.008191   0.000234   0.348658
     9  H    0.004914   0.345067  -0.000093  -0.053204   0.001983  -0.046616
    10  C   -0.032751  -0.026165   0.000245   0.003557   0.000929   0.314888
    11  H    0.005022  -0.008993   0.000011  -0.000030  -0.000041  -0.038331
    12  H    0.000883   0.004775   0.000020  -0.000136  -0.000112  -0.045128
    13  H    0.001954   0.005599   0.350800  -0.050088  -0.042194   0.000524
    14  O    0.001482  -0.000596   0.000010  -0.000016  -0.000012  -0.036178
    15  H   -0.000018  -0.001269  -0.000001   0.000005   0.000000  -0.001304
    16  O   -0.001699   0.000373   0.209342  -0.041896  -0.022442  -0.000100
    17  H    0.000340  -0.000206  -0.049175   0.007252  -0.013281   0.000558
    18  O   -0.000196  -0.049637  -0.047682   0.231960   0.003249   0.003904
    19  H   -0.000010   0.000682   0.005454  -0.025060  -0.000163   0.000087
    20  O    0.001323   0.186359   0.002017  -0.037770   0.000145  -0.023407
    21  H    0.000059  -0.018600  -0.000178   0.004265  -0.000016  -0.009271
    22  H   -0.040841   0.000162  -0.069694  -0.001287   0.362312   0.003553
    23  O   -0.046077   0.000141  -0.053443   0.002561   0.325406   0.000726
    24  O   -0.097139  -0.000038  -0.000765   0.000029   0.013189   0.004341
    25  H    0.007982  -0.000014   0.004056  -0.000101  -0.023116  -0.000494
    26  H    0.107030   0.002000   0.001237  -0.000186  -0.009730  -0.007130
    27  H    0.004049   0.000021  -0.000026  -0.000004  -0.000228  -0.000092
    28  O    0.000000   0.002723   0.000161   0.005966  -0.000001   0.000028
    29  H   -0.000000  -0.000504   0.000018   0.000671  -0.000000  -0.000008
    30  H   -0.000010  -0.006439   0.000041  -0.000683  -0.000005   0.000708
               7          8          9         10         11         12
     1  O    0.000172  -0.033230   0.004914  -0.032751   0.005022   0.000883
     2  C   -0.066036  -0.051239   0.345067  -0.026165  -0.008993   0.004775
     3  C   -0.044658  -0.003987  -0.000093   0.000245   0.000011   0.000020
     4  C    0.351288  -0.008191  -0.053204   0.003557  -0.000030  -0.000136
     5  C    0.006326   0.000234   0.001983   0.000929  -0.000041  -0.000112
     6  C    0.001890   0.348658  -0.046616   0.314888  -0.038331  -0.045128
     7  H    0.634230   0.001302   0.007353  -0.000259  -0.000001   0.000006
     8  H    0.001302   0.618426   0.007242  -0.052983   0.005684  -0.004617
     9  H    0.007353   0.007242   0.631050  -0.014731   0.007425  -0.000019
    10  C   -0.000259  -0.052983  -0.014731   4.971211   0.366129   0.363365
    11  H   -0.000001   0.005684   0.007425   0.366129   0.550734  -0.036458
    12  H    0.000006  -0.004617  -0.000019   0.363365  -0.036458   0.602815
    13  H   -0.004677   0.000190  -0.000337   0.000017  -0.000001  -0.000000
    14  O    0.000000   0.001507   0.000162   0.215069  -0.033551  -0.028159
    15  H    0.000001   0.004424   0.000113  -0.027588   0.006747  -0.007188
    16  O    0.004521   0.016120   0.000021   0.000335  -0.000005   0.000001
    17  H   -0.000330  -0.000423   0.000012  -0.000023   0.000000  -0.000000
    18  O   -0.035826   0.000016   0.006144  -0.000050  -0.000013   0.000001
    19  H   -0.003778  -0.000000   0.000876  -0.000002   0.000001  -0.000000
    20  O    0.003200   0.004300  -0.038653   0.000839   0.000229  -0.000171
    21  H    0.000099  -0.000170  -0.001714  -0.005144  -0.000855   0.000897
    22  H   -0.000087   0.000110   0.000358  -0.000096  -0.000005   0.000003
    23  O   -0.000077   0.000922   0.000004  -0.000046   0.000003   0.000009
    24  O   -0.000000   0.000404   0.000003  -0.000457   0.000011   0.000284
    25  H    0.000005  -0.000049   0.000002   0.000007   0.000002  -0.000012
    26  H    0.000003   0.000051  -0.000024  -0.002767  -0.000000   0.004697
    27  H    0.000000   0.000059   0.000000  -0.000071  -0.000002   0.000276
    28  O    0.002019   0.000000   0.000839  -0.000003   0.000000  -0.000000
    29  H    0.000411   0.000000  -0.000022   0.000000   0.000000   0.000000
    30  H    0.000238  -0.000027  -0.001876   0.000003  -0.000010   0.000001
              13         14         15         16         17         18
     1  O    0.001954   0.001482  -0.000018  -0.001699   0.000340  -0.000196
     2  C    0.005599  -0.000596  -0.001269   0.000373  -0.000206  -0.049637
     3  C    0.350800   0.000010  -0.000001   0.209342  -0.049175  -0.047682
     4  C   -0.050088  -0.000016   0.000005  -0.041896   0.007252   0.231960
     5  C   -0.042194  -0.000012   0.000000  -0.022442  -0.013281   0.003249
     6  C    0.000524  -0.036178  -0.001304  -0.000100   0.000558   0.003904
     7  H   -0.004677   0.000000   0.000001   0.004521  -0.000330  -0.035826
     8  H    0.000190   0.001507   0.004424   0.016120  -0.000423   0.000016
     9  H   -0.000337   0.000162   0.000113   0.000021   0.000012   0.006144
    10  C    0.000017   0.215069  -0.027588   0.000335  -0.000023  -0.000050
    11  H   -0.000001  -0.033551   0.006747  -0.000005   0.000000  -0.000013
    12  H   -0.000000  -0.028159  -0.007188   0.000001  -0.000000   0.000001
    13  H    0.602801  -0.000000  -0.000000  -0.032369   0.000492   0.008002
    14  O   -0.000000   8.226492   0.234977  -0.000000   0.000000   0.000000
    15  H   -0.000000   0.234977   0.385137  -0.000004   0.000000  -0.000000
    16  O   -0.032369  -0.000000  -0.000004   8.320236   0.222380   0.001179
    17  H    0.000492   0.000000   0.000000   0.222380   0.372045  -0.000118
    18  O    0.008002   0.000000  -0.000000   0.001179  -0.000118   8.358416
    19  H   -0.000051   0.000000  -0.000000  -0.000094   0.000008   0.212600
    20  O   -0.000075  -0.019162   0.002147  -0.000127   0.000007   0.000936
    21  H    0.000005   0.056234  -0.003500   0.000003  -0.000001  -0.000133
    22  H    0.002672   0.000001  -0.000000   0.003145   0.002191   0.003576
    23  O   -0.001771   0.000000  -0.000000  -0.022070   0.054049   0.000007
    24  O    0.000002   0.000000   0.000000  -0.000020   0.000343  -0.000000
    25  H   -0.000106   0.000000   0.000000   0.000152  -0.001117   0.000001
    26  H   -0.000081   0.000055  -0.000006  -0.000129   0.000006   0.000004
    27  H    0.000000   0.000000  -0.000000   0.000014  -0.000022   0.000000
    28  O    0.000002  -0.000000   0.000000   0.000000  -0.000000  -0.023721
    29  H   -0.000000   0.000000  -0.000000  -0.000000   0.000000   0.001262
    30  H   -0.000004   0.000030  -0.000004  -0.000002   0.000000   0.003230
              19         20         21         22         23         24
     1  O   -0.000010   0.001323   0.000059  -0.040841  -0.046077  -0.097139
     2  C    0.000682   0.186359  -0.018600   0.000162   0.000141  -0.000038
     3  C    0.005454   0.002017  -0.000178  -0.069694  -0.053443  -0.000765
     4  C   -0.025060  -0.037770   0.004265  -0.001287   0.002561   0.000029
     5  C   -0.000163   0.000145  -0.000016   0.362312   0.325406   0.013189
     6  C    0.000087  -0.023407  -0.009271   0.003553   0.000726   0.004341
     7  H   -0.003778   0.003200   0.000099  -0.000087  -0.000077  -0.000000
     8  H   -0.000000   0.004300  -0.000170   0.000110   0.000922   0.000404
     9  H    0.000876  -0.038653  -0.001714   0.000358   0.000004   0.000003
    10  C   -0.000002   0.000839  -0.005144  -0.000096  -0.000046  -0.000457
    11  H    0.000001   0.000229  -0.000855  -0.000005   0.000003   0.000011
    12  H   -0.000000  -0.000171   0.000897   0.000003   0.000009   0.000284
    13  H   -0.000051  -0.000075   0.000005   0.002672  -0.001771   0.000002
    14  O    0.000000  -0.019162   0.056234   0.000001   0.000000   0.000000
    15  H   -0.000000   0.002147  -0.003500  -0.000000  -0.000000   0.000000
    16  O   -0.000094  -0.000127   0.000003   0.003145  -0.022070  -0.000020
    17  H    0.000008   0.000007  -0.000001   0.002191   0.054049   0.000343
    18  O    0.212600   0.000936  -0.000133   0.003576   0.000007  -0.000000
    19  H    0.325074   0.000370  -0.000038  -0.000030   0.000001   0.000000
    20  O    0.000370   8.350891   0.214154  -0.000003  -0.000000   0.000000
    21  H   -0.000038   0.214154   0.339373  -0.000000   0.000000  -0.000000
    22  H   -0.000030  -0.000003  -0.000000   0.625140  -0.050452   0.000084
    23  O    0.000001  -0.000000   0.000000  -0.050452   8.400234  -0.096544
    24  O    0.000000   0.000000  -0.000000   0.000084  -0.096544   8.494370
    25  H   -0.000000  -0.000000   0.000000  -0.001748   0.126615   0.138145
    26  H    0.000000  -0.000013   0.000006   0.001695   0.012850   0.131240
    27  H   -0.000000  -0.000000   0.000000   0.000035   0.005644   0.228303
    28  O    0.067485  -0.021666   0.000391   0.000000   0.000000   0.000000
    29  H   -0.003737   0.000968  -0.000012  -0.000000  -0.000000  -0.000000
    30  H   -0.007185   0.058991  -0.000869  -0.000000  -0.000000  -0.000000
              25         26         27         28         29         30
     1  O    0.007982   0.107030   0.004049   0.000000  -0.000000  -0.000010
     2  C   -0.000014   0.002000   0.000021   0.002723  -0.000504  -0.006439
     3  C    0.004056   0.001237  -0.000026   0.000161   0.000018   0.000041
     4  C   -0.000101  -0.000186  -0.000004   0.005966   0.000671  -0.000683
     5  C   -0.023116  -0.009730  -0.000228  -0.000001  -0.000000  -0.000005
     6  C   -0.000494  -0.007130  -0.000092   0.000028  -0.000008   0.000708
     7  H    0.000005   0.000003   0.000000   0.002019   0.000411   0.000238
     8  H   -0.000049   0.000051   0.000059   0.000000   0.000000  -0.000027
     9  H    0.000002  -0.000024   0.000000   0.000839  -0.000022  -0.001876
    10  C    0.000007  -0.002767  -0.000071  -0.000003   0.000000   0.000003
    11  H    0.000002  -0.000000  -0.000002   0.000000   0.000000  -0.000010
    12  H   -0.000012   0.004697   0.000276  -0.000000   0.000000   0.000001
    13  H   -0.000106  -0.000081   0.000000   0.000002  -0.000000  -0.000004
    14  O    0.000000   0.000055   0.000000  -0.000000   0.000000   0.000030
    15  H    0.000000  -0.000006  -0.000000   0.000000  -0.000000  -0.000004
    16  O    0.000152  -0.000129   0.000014   0.000000  -0.000000  -0.000002
    17  H   -0.001117   0.000006  -0.000022  -0.000000   0.000000   0.000000
    18  O    0.000001   0.000004   0.000000  -0.023721   0.001262   0.003230
    19  H   -0.000000   0.000000  -0.000000   0.067485  -0.003737  -0.007185
    20  O   -0.000000  -0.000013  -0.000000  -0.021666   0.000968   0.058991
    21  H    0.000000   0.000006   0.000000   0.000391  -0.000012  -0.000869
    22  H   -0.001748   0.001695   0.000035   0.000000  -0.000000  -0.000000
    23  O    0.126615   0.012850   0.005644   0.000000  -0.000000  -0.000000
    24  O    0.138145   0.131240   0.228303   0.000000  -0.000000  -0.000000
    25  H    0.309743  -0.020996  -0.006510   0.000000   0.000000   0.000000
    26  H   -0.020996   0.312302  -0.003292   0.000000  -0.000000   0.000000
    27  H   -0.006510  -0.003292   0.366306  -0.000000   0.000000   0.000000
    28  O    0.000000   0.000000  -0.000000   8.326613   0.240343   0.209923
    29  H    0.000000  -0.000000   0.000000   0.240343   0.381149  -0.015603
    30  H    0.000000   0.000000   0.000000   0.209923  -0.015603   0.329452
 Mulliken charges:
               1
     1  O   -0.655759
     2  C    0.112817
     3  C    0.084832
     4  C    0.122520
     5  C    0.330104
     6  C    0.098551
     7  H    0.142664
     8  H    0.145269
     9  H    0.143722
    10  C   -0.073458
    11  H    0.176298
    12  H    0.143969
    13  H    0.158694
    14  O   -0.618348
    15  H    0.407332
    16  O   -0.656867
    17  H    0.405013
    18  O   -0.677110
    19  H    0.427510
    20  O   -0.685830
    21  H    0.425014
    22  H    0.159207
    23  O   -0.658695
    24  O   -0.815786
    25  H    0.467553
    26  H    0.471177
    27  H    0.405540
    28  O   -0.811104
    29  H    0.395066
    30  H    0.430103
 Sum of Mulliken charges =  -0.00000
 Mulliken charges with hydrogens summed into heavy atoms:
               1
     1  O   -0.655759
     2  C    0.256539
     3  C    0.243526
     4  C    0.265185
     5  C    0.489311
     6  C    0.243820
    10  C    0.246808
    14  O   -0.211016
    16  O   -0.251853
    18  O   -0.249600
    20  O   -0.260816
    23  O   -0.658695
    24  O    0.528484
    28  O    0.014065
 APT charges:
               1
     1  O   -0.424278
     2  C   -0.139181
     3  C   -0.432868
     4  C   -0.306957
     5  C   -0.234381
     6  C   -0.163302
     7  H    0.398028
     8  H    0.300725
     9  H    0.342068
    10  C   -0.707725
    11  H    0.400129
    12  H    0.494872
    13  H    0.535830
    14  O   -0.747897
    15  H    0.651464
    16  O   -0.738321
    17  H    0.611026
    18  O   -0.771937
    19  H    0.607042
    20  O   -0.810342
    21  H    0.594243
    22  H    0.416850
    23  O   -0.370327
    24  O   -1.057687
    25  H    0.336112
    26  H    0.401010
    27  H    0.737761
    28  O   -0.919314
    29  H    0.822903
    30  H    0.174453
 Sum of APT charges =  -0.00000
 APT charges with hydrogens summed into heavy atoms:
               1
     1  O   -0.424278
     2  C    0.202887
     3  C    0.102962
     4  C    0.091071
     5  C    0.182469
     6  C    0.137423
    10  C    0.187276
    14  O   -0.096433
    16  O   -0.127295
    18  O   -0.164896
    20  O   -0.216099
    23  O   -0.370327
    24  O    0.417196
    28  O    0.078043
 Electronic spatial extent (au):  <R**2>=           3231.4086
 Charge=              0.0000 electrons
 Dipole moment (field-independent basis, Debye):
    X=             -1.1438    Y=              4.1208    Z=              2.7574  Tot=              5.0885
 Quadrupole moment (field-independent basis, Debye-Ang):
   XX=            -82.1720   YY=            -82.2422   ZZ=            -86.7101
   XY=             -7.1446   XZ=              0.4822   YZ=              4.2470
 Traceless Quadrupole moment (field-independent basis, Debye-Ang):
   XX=              1.5361   YY=              1.4659   ZZ=             -3.0020
   XY=             -7.1446   XZ=              0.4822   YZ=              4.2470
 Octapole moment (field-independent basis, Debye-Ang**2):
  XXX=              9.6775  YYY=             15.7548  ZZZ=              0.3020  XYY=             -4.6181
  XXY=              5.7343  XXZ=             55.1348  XZZ=             -4.1109  YZZ=             16.7849
  YYZ=             19.7276  XYZ=            -15.1843
 Hexadecapole moment (field-independent basis, Debye-Ang**3):
 XXXX=          -1931.9287 YYYY=          -1392.6824 ZZZZ=           -341.1260 XXXY=           -138.1953
 XXXZ=             25.1846 YYYX=            -48.2639 YYYZ=             50.1060 ZZZX=             -6.7877
 ZZZY=             29.5475 XXYY=           -541.0560 XXZZ=           -413.9571 YYZZ=           -254.0108
 XXYZ=             -0.9093 YYXZ=              8.8908 ZZXY=             16.2747
 N-N= 1.109206704344D+03 E-N=-4.190636021020D+03  KE= 8.327747541301D+02
  Exact polarizability:   0.000   0.000   0.000   0.000   0.000   0.000
 Approx polarizability: 145.892   0.235 137.407  -1.835   4.288 126.037
 Calling FoFJK, ICntrl=    100147 FMM=F ISym2X=0 I1Cent= 0 IOpClX= 0 NMat=1 NMatS=1 NMatT=0.
 ***** Axes restored to original set *****
 -------------------------------------------------------------------
 Center     Atomic                   Forces (Hartrees/Bohr)
 Number     Number              X              Y              Z
 -------------------------------------------------------------------
      1        8           0.000492324   -0.000725089    0.000810113
      2        6          -0.000589208   -0.000087303    0.000119460
      3        6          -0.000905042   -0.001175048    0.000313180
      4        6          -0.000286003    0.000091106    0.000144903
      5        6          -0.000344542    0.001072776    0.001940265
      6        6          -0.002553575   -0.001031006    0.000418040
      7        1          -0.000017876    0.000071857    0.000126689
      8        1           0.000513672    0.000062480   -0.000944095
      9        1           0.000132838    0.000114148   -0.000308812
     10        6           0.003691443    0.000517391   -0.003332848
     11        1          -0.001884572    0.000188040    0.003553540
     12        1          -0.001477671    0.000024636    0.000178055
     13        1           0.000117815    0.000945566    0.000411820
     14        8          -0.000402557    0.000154079    0.000682234
     15        1           0.000451820   -0.000504812   -0.000957074
     16        8          -0.000754237    0.000261827   -0.000817696
     17        1           0.000867794    0.000222173    0.000098113
     18        8           0.000765194    0.000289173   -0.000342258
     19        1          -0.000562786   -0.000233811    0.000091053
     20        8           0.000272305    0.000253275   -0.000019714
     21        1           0.000025603   -0.000258862   -0.000008315
     22        1          -0.000040460   -0.000814952   -0.000823274
     23        8           0.001430942    0.000704802   -0.001570155
     24        8           0.000716190   -0.001433783   -0.000608166
     25        1          -0.000065887    0.000323867   -0.000029933
     26        1          -0.000306143    0.000800164    0.000274500
     27        1           0.000178820    0.000376350    0.000573478
     28        8           0.001102667   -0.000987829    0.002011022
     29        1          -0.001424999    0.001705681   -0.002097438
     30        1           0.000856130   -0.000926897    0.000113315
 -------------------------------------------------------------------
 Cartesian Forces:  Max     0.003691443 RMS     0.001033993

 GradGradGradGradGradGradGradGradGradGradGradGradGradGradGradGradGradGrad
 Berny optimization.
 Search for a saddle point.
 Step number   1 out of a maximum of  180
 All quantities printed in internal units (Hartrees-Bohrs-Radians)
 Swapping is turned off.
 Second derivative matrix not updated -- analytic derivatives used.
 ITU=  0
     Eigenvalues ---   -0.12483   0.00044   0.00075   0.00121   0.00180
     Eigenvalues ---    0.00239   0.00338   0.00461   0.00510   0.00609
     Eigenvalues ---    0.00923   0.01058   0.01185   0.01282   0.01450
     Eigenvalues ---    0.01564   0.01855   0.02061   0.02405   0.02421
     Eigenvalues ---    0.02748   0.02988   0.03302   0.03398   0.03536
     Eigenvalues ---    0.03938   0.04317   0.04434   0.04795   0.04967
     Eigenvalues ---    0.05412   0.05611   0.05986   0.06133   0.07255
     Eigenvalues ---    0.07334   0.07944   0.08459   0.09194   0.09774
     Eigenvalues ---    0.10078   0.11157   0.11826   0.12361   0.12663
     Eigenvalues ---    0.13583   0.14504   0.15356   0.16948   0.17081
     Eigenvalues ---    0.18491   0.19508   0.20562   0.21723   0.22632
     Eigenvalues ---    0.24207   0.26560   0.28843   0.30998   0.34146
     Eigenvalues ---    0.38264   0.41929   0.52353   0.56774   0.59622
     Eigenvalues ---    0.61818   0.63703   0.65715   0.69643   0.72470
     Eigenvalues ---    0.76175   0.78391   0.79940   0.81515   0.83243
     Eigenvalues ---    0.86456   0.91115   0.92830   0.96075   0.97935
     Eigenvalues ---    1.00719   1.03263   1.06694   1.07246
 Eigenvectors required to have negative eigenvalues:
                          X26       Y25       Y5        X25       Y1
   1                    0.60260   0.48865  -0.32536  -0.29446   0.25469
                          Y23       X24       Z25       Y24       X23
   1                   -0.17603  -0.12497  -0.12026  -0.11649   0.10177
 RFO step:  Lambda0=1.701197207D-06 Lambda=-4.29867676D-04.
 Linear search not attempted -- option 19 set.
 Maximum step size (   0.300) exceeded in Quadratic search.
    -- Step size scaled by   0.933
 B after Tr=    -0.000671    0.001404   -0.002888
         Rot=    1.000000    0.000391    0.000410    0.000068 Ang=   0.07 deg.
 Variable       Old X    -DE/DX   Delta X   Delta X   Delta X     New X
                                 (Linear)    (Quad)   (Total)
    X1       -2.37840   0.00049   0.00000  -0.00556  -0.00503  -2.38344
    Y1        0.81644  -0.00073   0.00000  -0.00236  -0.00167   0.81478
    Z1       -1.33741   0.00081   0.00000   0.01164   0.00616  -1.33125
    X2        1.97782  -0.00059   0.00000  -0.00632  -0.00667   1.97115
    Y2        0.61747  -0.00009   0.00000   0.00498   0.00590   0.62337
    Z2       -0.26809   0.00012   0.00000  -0.01701  -0.01877  -0.28686
    X3       -0.74994  -0.00091   0.00000  -0.00617  -0.00797  -0.75791
    Y3       -3.31046  -0.00118   0.00000   0.01631   0.01847  -3.29199
    Z3        0.82959   0.00031   0.00000   0.01104   0.01010   0.83969
    X4        1.89793  -0.00029   0.00000  -0.00307  -0.00432   1.89362
    Y4       -2.25274   0.00009   0.00000   0.01201   0.01342  -2.23932
    Z4        0.31517   0.00014   0.00000   0.01479   0.01520   0.33038
    X5       -2.87052  -0.00034   0.00000   0.01617   0.01594  -2.85458
    Y5       -2.41452   0.00107   0.00000   0.00014   0.00120  -2.41332
    Z5       -0.91398   0.00194   0.00000  -0.02063  -0.02397  -0.93795
    X6       -0.51974  -0.00255   0.00000  -0.00652  -0.00711  -0.52685
    Y6        2.00409  -0.00103   0.00000  -0.00282  -0.00116   2.00293
    Z6        0.23128   0.00042   0.00000   0.00789   0.00301   0.23429
    X7        2.95469  -0.00002   0.00000  -0.01178  -0.01452   2.94018
    Y7       -2.51976   0.00007   0.00000   0.03547   0.03813  -2.48163
    Z7        2.08592   0.00013   0.00000   0.02407   0.02554   2.11145
    X8       -1.03175   0.00051   0.00000   0.01144   0.00917  -1.02258
    Y8        1.84440   0.00006   0.00000  -0.02210  -0.01880   1.82559
    Z8        2.24078  -0.00094   0.00000   0.00748   0.00233   2.24311
    X9        2.35062   0.00013   0.00000  -0.03098  -0.02963   2.32099
    Y9        0.79753   0.00011   0.00000  -0.00946  -0.01019   0.78734
    Z9       -2.30546  -0.00031   0.00000  -0.02362  -0.02522  -2.33068
   X10       -0.40184   0.00369   0.00000  -0.03331  -0.03288  -0.43472
   Y10        4.78495   0.00052   0.00000   0.00841   0.00944   4.79439
   Z10       -0.59027  -0.00333   0.00000   0.03580   0.02881  -0.56146
   X11        0.19209  -0.00188   0.00000  -0.11263  -0.11054   0.08156
   Y11        4.87892   0.00019   0.00000   0.04044   0.03984   4.91876
   Z11       -2.57960   0.00355   0.00000   0.02542   0.01875  -2.56085
   X12       -2.26470  -0.00148   0.00000  -0.03985  -0.03949  -2.30419
   Y12        5.68088   0.00002   0.00000  -0.00792  -0.00646   5.67442
   Z12       -0.43774   0.00018   0.00000   0.11474   0.10553  -0.33221
   X13       -0.61820   0.00012   0.00000  -0.00228  -0.00415  -0.62235
   Y13       -5.37183   0.00095   0.00000   0.01507   0.01701  -5.35482
   Z13        0.52972   0.00041   0.00000   0.04450   0.04529   0.57501
   X14        1.45249  -0.00040   0.00000   0.00334   0.00286   1.45535
   Y14        6.19847   0.00015   0.00000  -0.00141   0.00041   6.19888
   Z14        0.79449   0.00068   0.00000  -0.00752  -0.01406   0.78043
   X15        0.85112   0.00045   0.00000   0.07628   0.07438   0.92550
   Y15        6.40121  -0.00050   0.00000  -0.06624  -0.06297   6.33824
   Z15        2.51835  -0.00096   0.00000   0.02361   0.01654   2.53489
   X16       -1.43606  -0.00075   0.00000  -0.03131  -0.03509  -1.47115
   Y16       -2.74285   0.00026   0.00000   0.05365   0.05787  -2.68498
   Z16        3.35683  -0.00082   0.00000  -0.00493  -0.00692   3.34991
   X17       -3.28479   0.00087   0.00000  -0.02860  -0.03237  -3.31715
   Y17       -2.86570   0.00022   0.00000   0.04262   0.04706  -2.81864
   Z17        3.32805   0.00010   0.00000  -0.01937  -0.02277   3.30528
   X18        2.94884   0.00077   0.00000   0.00901   0.00919   2.95803
   Y18       -3.68130   0.00029   0.00000  -0.00926  -0.00954  -3.69083
   Z18       -1.68186  -0.00034   0.00000   0.03571   0.03813  -1.64373
   X19        4.72907  -0.00056   0.00000   0.00993   0.01029   4.73935
   Y19       -3.14996  -0.00023   0.00000  -0.01619  -0.01681  -3.16676
   Z19       -1.81218   0.00009   0.00000   0.03844   0.04191  -1.77027
   X20        4.00986   0.00027   0.00000   0.01523   0.01387   4.02373
   Y20        1.69886   0.00025   0.00000   0.01101   0.01274   1.71160
   Z20        1.16490  -0.00002   0.00000  -0.05050  -0.05142   1.11348
   X21        3.86275   0.00003   0.00000   0.02640   0.02544   3.88819
   Y21        3.53752  -0.00026   0.00000   0.00856   0.01016   3.54768
   Z21        1.00935  -0.00001   0.00000  -0.07843  -0.08090   0.92845
   X22       -2.61020  -0.00004   0.00000   0.05551   0.05685  -2.55335
   Y22       -2.86361  -0.00081   0.00000  -0.00554  -0.00608  -2.86969
   Z22       -2.91558  -0.00082   0.00000  -0.01780  -0.02054  -2.93612
   X23       -5.11440   0.00143   0.00000   0.00320   0.00215  -5.11225
   Y23       -2.68774   0.00070   0.00000  -0.02139  -0.01929  -2.70702
   Z23        0.08196  -0.00157   0.00000  -0.06430  -0.06926   0.01270
   X24       -6.85193   0.00072   0.00000  -0.00138  -0.00098  -6.85291
   Y24        1.30875  -0.00143   0.00000  -0.00458  -0.00310   1.30565
   Z24       -1.09309  -0.00061   0.00000   0.00800  -0.00153  -1.09462
   X25       -6.49896  -0.00007   0.00000  -0.00216  -0.00241  -6.50137
   Y25       -0.77995   0.00032   0.00000  -0.00307  -0.00129  -0.78125
   Z25       -0.61035  -0.00003   0.00000  -0.03653  -0.04414  -0.65448
   X26       -4.56849  -0.00031   0.00000  -0.00199  -0.00150  -4.56999
   Y26        1.51655   0.00080   0.00000   0.00113   0.00224   1.51879
   Z26       -1.17665   0.00027   0.00000   0.01313   0.00531  -1.17135
   X27       -7.52147   0.00018   0.00000   0.01137   0.01060  -7.51087
   Y27        2.08531   0.00038   0.00000  -0.03405  -0.03127   2.05403
   Z27        0.42792   0.00057   0.00000   0.03026   0.01960   0.44752
   X28        7.64619   0.00110   0.00000   0.02783   0.02783   7.67402
   Y28       -1.35196  -0.00099   0.00000  -0.03351  -0.03396  -1.38592
   Z28       -1.04275   0.00201   0.00000  -0.00263   0.00186  -1.04089
   X29        8.50251  -0.00142   0.00000   0.04169   0.04046   8.54297
   Y29       -2.25825   0.00171   0.00000  -0.02082  -0.02033  -2.27858
   Z29        0.30695  -0.00210   0.00000  -0.01056  -0.00466   0.30229
   X30        6.74076   0.00086   0.00000   0.03614   0.03562   6.77638
   Y30        0.02466  -0.00093   0.00000  -0.03134  -0.03099  -0.00633
   Z30       -0.17648   0.00011   0.00000  -0.00258   0.00010  -0.17638
         Item               Value     Threshold  Converged?
 Maximum Force            0.003691     0.000450     NO 
 RMS     Force            0.001034     0.000300     NO 
 Maximum Displacement     0.110536     0.001800     NO 
 RMS     Displacement     0.031444     0.001200     NO 
 Predicted change in Energy=-2.326166D-04
 GradGradGradGradGradGradGradGradGradGradGradGradGradGradGradGradGradGrad

                          Input orientation:                          
 ---------------------------------------------------------------------
 Center     Atomic      Atomic             Coordinates (Angstroms)
 Number     Number       Type             X           Y           Z
 ---------------------------------------------------------------------
      1          8           0       -1.261260    0.431162   -0.704465
      2          6           0        1.043089    0.329873   -0.151800
      3          6           0       -0.401070   -1.742046    0.444344
      4          6           0        1.002059   -1.184998    0.174828
      5          6           0       -1.510579   -1.277073   -0.496342
      6          6           0       -0.278798    1.059906    0.123980
      7          1           0        1.555875   -1.313222    1.117332
      8          1           0       -0.541124    0.966062    1.187001
      9          1           0        1.228214    0.416645   -1.233340
     10          6           0       -0.230043    2.537084   -0.297110
     11          1           0        0.043157    2.602894   -1.355141
     12          1           0       -1.219325    3.002774   -0.175800
     13          1           0       -0.329334   -2.833649    0.304280
     14          8           0        0.770137    3.280308    0.412987
     15          1           0        0.489753    3.354053    1.341406
     16          8           0       -0.778501   -1.420833    1.772696
     17          1           0       -1.755362   -1.491559    1.749078
     18          8           0        1.565320   -1.953105   -0.869822
     19          1           0        2.507957   -1.675779   -0.936786
     20          8           0        2.129266    0.905739    0.589231
     21          1           0        2.057544    1.877352    0.491314
     22          1           0       -1.351174   -1.518575   -1.553730
     23          8           0       -2.705286   -1.432495    0.006721
     24          8           0       -3.626404    0.690921   -0.579247
     25          1           0       -3.440378   -0.413418   -0.346338
     26          1           0       -2.418336    0.803709   -0.619850
     27          1           0       -3.974582    1.086948    0.236820
     28          8           0        4.060918   -0.733400   -0.550813
     29          1           0        4.520744   -1.205771    0.159967
     30          1           0        3.585905   -0.003347   -0.093337
 ---------------------------------------------------------------------
                    Distance matrix (angstroms):
                    1          2          3          4          5
     1  O    0.000000
     2  C    2.371860   0.000000
     3  C    2.604328   2.594963   0.000000
     4  C    2.916804   1.550227   1.533530   0.000000
     5  C    1.738834   3.036808   1.527122   2.602364   0.000000
     6  C    1.430689   1.535053   2.822857   2.585106   2.713587
     7  H    3.781279   2.138553   2.113394   1.100666   3.465312
     8  H    2.093407   2.169529   2.811584   2.834249   2.967346
     9  H    2.545074   1.100695   3.182631   2.144608   3.303458
    10  C    2.379969   2.552207   4.346258   3.949012   4.028307
    11  H    2.615588   2.759441   4.723769   4.196239   4.266823
    12  H    2.625725   3.501926   4.854630   4.753411   4.301705
    13  H    3.541898   3.478422   1.102887   2.123068   2.111696
    14  O    3.673269   3.016381   5.157204   4.477663   5.176704
    15  H    3.974283   3.417823   5.250573   4.714483   5.368983
    16  O    3.130378   3.175979   1.417797   2.403995   2.388543
    17  H    3.156084   3.842172   1.897151   3.189924   2.268884
    18  O    3.701571   2.449545   2.374504   1.413699   3.171381
    19  H    4.324370   2.604742   3.220924   1.935014   4.062215
    20  O    3.659854   1.435455   3.665291   2.411121   4.380823
    21  H    3.812585   1.958930   4.375732   3.254565   4.863883
    22  H    2.128571   3.333866   2.223722   2.938860   1.096268
    23  O    2.462563   4.145043   2.365745   3.719399   1.305585
    24  O    2.382658   4.702896   4.167715   5.050780   2.890777
    25  H    2.364344   4.548823   3.409959   4.538964   2.119557
    26  H    1.218514   3.524919   3.418003   4.035539   2.273529
    27  H    2.945877   5.089323   4.562484   5.471064   3.492482
    28  O    5.450265   3.224446   4.681564   3.176021   5.598225
    29  H    6.071109   3.814379   4.959104   3.518777   6.067346
    30  H    4.904823   2.565223   4.382710   2.853852   5.268675
                    6          7          8          9         10
     6  C    0.000000
     7  H    3.159827   0.000000
     8  H    1.098924   3.097966   0.000000
     9  H    2.127719   2.936914   3.048027   0.000000
    10  C    1.536798   4.473814   2.183453   2.738486   0.000000
    11  H    2.161543   4.872105   3.079462   2.489755   1.094714
    12  H    2.179265   5.291667   2.542710   3.714418   1.100119
    13  H    3.898055   2.554753   3.906642   3.918500   5.405210
    14  O    2.472645   4.713173   2.770241   3.334786   1.434218
    15  H    2.708488   4.792733   2.605581   3.975300   1.967303
    16  O    3.020270   2.427013   2.469140   4.054563   4.500001
    17  H    3.366179   3.375677   2.798251   4.630096   4.769010
    18  O    3.669694   2.087659   4.145982   2.421054   4.869613
    19  H    4.046628   2.292883   4.559242   2.470612   5.064982
    20  O    2.457437   2.351905   2.737142   2.091142   3.002203
    21  H    2.502327   3.289883   2.840335   2.407465   2.507970
    22  H    3.257801   3.953186   3.786979   3.240519   4.391401
    23  O    3.480469   4.405131   3.439439   4.519900   4.687932
    24  O    3.440515   5.809560   3.565710   4.906157   3.875975
    25  H    3.519584   5.283419   3.558057   4.824056   4.360520
    26  H    2.279593   4.826339   2.610554   3.717999   2.810227
    27  H    3.697605   6.092788   3.564561   5.447914   4.050870
    28  O    4.743883   3.064987   5.204513   3.132516   5.401183
    29  H    5.307560   3.117458   5.603050   3.926104   6.065300
    30  H    4.014183   2.702316   4.428475   2.652303   4.588766
                   11         12         13         14         15
    11  H    0.000000
    12  H    1.773305   0.000000
    13  H    5.696352   5.923376   0.000000
    14  O    2.028218   2.093240   6.212980   0.000000
    15  H    2.834617   2.312197   6.327258   0.972633   0.000000
    16  O    5.162253   4.853788   2.086634   5.133012   4.959235
    17  H    5.443840   4.918488   2.433557   5.561835   5.355997
    18  O    4.828006   5.726836   2.396578   5.446699   5.849129
    19  H    4.955533   6.029974   3.306226   5.422610   5.878990
    20  O    3.318549   4.024411   4.484298   2.741691   3.041054
    21  H    2.827289   3.528382   5.284476   1.905738   2.315442
    22  H    4.355468   4.728496   2.495151   5.603322   5.959307
    23  O    5.068824   4.681133   2.774332   5.869765   5.907682
    24  O    4.209908   3.361765   4.906514   5.197983   5.265352
    25  H    4.717079   4.078300   3.994923   5.652311   5.699846
    26  H    3.136346   2.543756   4.295151   4.167332   4.336791
    27  H    4.579810   3.381137   5.353826   5.230127   5.127394
    28  O    5.283957   6.479243   4.941310   5.279015   5.748129
    29  H    6.070442   7.125516   5.118014   5.852860   6.199733
    30  H    4.575556   5.668668   4.847453   4.355147   4.787148
                   16         17         18         19         20
    16  O    0.000000
    17  H    0.979703   0.000000
    18  O    3.572073   4.254244   0.000000
    19  H    4.266977   5.042191   0.984865   0.000000
    20  O    3.907510   4.709843   3.258813   3.022643   0.000000
    21  H    4.534656   5.241162   4.094799   3.855786   0.979164
    22  H    3.376776   3.327558   3.026959   3.911294   4.752162
    23  O    2.613677   1.985360   4.390608   5.303517   5.401810
    24  O    4.254609   3.699341   5.833464   6.584792   5.877008
    25  H    3.548348   2.896970   5.263238   6.109408   5.799689
    26  H    3.655396   3.364464   4.850982   5.524190   4.706694
    27  H    4.343134   3.722978   6.415379   7.143761   6.116698
    28  O    5.412137   6.300271   2.795972   1.857079   2.778085
    29  H    5.543387   6.480467   3.217687   2.339890   3.218992
    30  H    4.953724   5.842808   2.913289   2.161112   1.847738
                   21         22         23         24         25
    21  H    0.000000
    22  H    5.228181   0.000000
    23  O    5.820178   2.067858   0.000000
    24  O    5.904319   3.317856   2.387617   0.000000
    25  H    6.014684   2.654042   1.305193   1.143861   0.000000
    26  H    4.735070   2.721025   2.339988   1.214001   1.612692
    27  H    6.089010   4.108174   2.830486   0.971613   1.696038
    28  O    3.451893   5.559953   6.825035   7.818211   7.510901
    29  H    3.960151   6.124869   7.231210   8.397613   8.016460
    30  H    2.492937   5.366881   6.452253   7.261923   7.042785
                   26         27         28         29         30
    26  H    0.000000
    27  H    1.798891   0.000000
    28  O    6.659445   8.276672   0.000000
    29  H    7.266151   8.799604   0.969424   0.000000
    30  H    6.081075   7.645830   0.983818   1.543991   0.000000
 Stoichiometry    C6H16O8
 Framework group  C1[X(C6H16O8)]
 Deg. of freedom    84
 Full point group                 C1      NOp   1
 Largest Abelian subgroup         C1      NOp   1
 Largest concise Abelian subgroup C1      NOp   1
                         Standard orientation:                         
 ---------------------------------------------------------------------
 Center     Atomic      Atomic             Coordinates (Angstroms)
 Number     Number       Type             X           Y           Z
 ---------------------------------------------------------------------
      1          8           0       -1.263070    0.423006   -0.701759
      2          6           0        1.042147    0.332426   -0.150862
      3          6           0       -0.393216   -1.743576    0.452279
      4          6           0        1.007445   -1.181688    0.179982
      5          6           0       -1.505394   -1.285628   -0.488701
      6          6           0       -0.282397    1.057946    0.124076
      7          1           0        1.562592   -1.305100    1.122345
      8          1           0       -0.543415    0.965995    1.187584
      9          1           0        1.225977    0.416946   -1.232801
     10          6           0       -0.239901    2.534137   -0.301132
     11          1           0        0.032107    2.598111   -1.359583
     12          1           0       -1.230925    2.996215   -0.180230
     13          1           0       -0.317251   -2.835266    0.315165
     14          8           0        0.757930    3.283299    0.406023
     15          1           0        0.478068    3.358492    1.334484
     16          8           0       -0.770760   -1.420199    1.780073
     17          1           0       -1.747352   -1.494883    1.757518
     18          8           0        1.572847   -1.950429   -0.863044
     19          1           0        2.514312   -1.669535   -0.931609
     20          8           0        2.126669    0.914661    0.587613
     21          1           0        2.050988    1.885706    0.487080
     22          1           0       -1.345954   -1.529414   -1.545561
     23          8           0       -2.699031   -1.444419    0.015848
     24          8           0       -3.629120    0.673684   -0.575160
     25          1           0       -3.438488   -0.429258   -0.339370
     26          1           0       -2.421548    0.791172   -0.617146
     27          1           0       -3.978159    1.070573    0.240120
     28          8           0        4.063841   -0.719912   -0.549617
     29          1           0        4.526170   -1.188481    0.162056
     30          1           0        3.586323    0.009503   -0.093735
 ---------------------------------------------------------------------
 Rotational constants (GHZ):      0.7667589      0.5034333      0.3508440
 Standard basis: 6-31G(d) (6D, 7F)
 There are   242 symmetry adapted cartesian basis functions of A   symmetry.
 There are   242 symmetry adapted basis functions of A   symmetry.
   242 basis functions,   456 primitive gaussians,   242 cartesian basis functions
    58 alpha electrons       58 beta electrons
       nuclear repulsion energy      1109.4657981673 Hartrees.
 NAtoms=   30 NActive=   30 NUniq=   30 SFac= 1.00D+00 NAtFMM=   60 NAOKFM=F Big=F
 Integral buffers will be    131072 words long.
 Raffenetti 2 integral format.
 Two-electron integral symmetry is turned on.
 One-electron integrals computed using PRISM.
 NBasis=   242 RedAO= T EigKep=  1.33D-03  NBF=   242
 NBsUse=   242 1.00D-06 EigRej= -1.00D+00 NBFU=   242
 Initial guess from the checkpoint file:  "/scratch/10452992.yak.local/Gau-8187.chk"
 B after Tr=    -0.000000   -0.000000    0.000000
         Rot=    0.999996    0.002172    0.000317   -0.001856 Ang=   0.33 deg.
 ExpMin= 1.61D-01 ExpMax= 5.48D+03 ExpMxC= 8.25D+02 IAcc=1 IRadAn=         1 AccDes= 0.00D+00
 Harris functional with IExCor=  402 and IRadAn=       1 diagonalized for initial guess.
 HarFok:  IExCor=  402 AccDes= 0.00D+00 IRadAn=         1 IDoV= 1 UseB2=F ITyADJ=14
 ICtDFT=  3500011 ScaDFX=  1.000000  1.000000  1.000000  1.000000
 FoFCou: FMM=F IPFlag=           0 FMFlag=      100000 FMFlg1=           0
         NFxFlg=           0 DoJE=T BraDBF=F KetDBF=T FulRan=T
         wScrn=  0.000000 ICntrl=     500 IOpCl=  0 I1Cent=   200000004 NGrid=           0
         NMat0=    1 NMatS0=      1 NMatT0=    0 NMatD0=    1 NMtDS0=    0 NMtDT0=    0
 Petite list used in FoFCou.
 Requested convergence on RMS density matrix=1.00D-08 within 128 cycles.
 Requested convergence on MAX density matrix=1.00D-06.
 Requested convergence on             energy=1.00D-06.
 No special actions if energy rises.
 Integral accuracy reduced to 1.0D-05 until final iterations.
 Initial convergence to 1.0D-05 achieved.  Increase integral accuracy.
 SCF Done:  E(RB3LYP) =  -839.960641894     A.U. after   11 cycles
            NFock= 11  Conv=0.53D-08     -V/T= 2.0086
 Calling FoFJK, ICntrl=      2127 FMM=F ISym2X=0 I1Cent= 0 IOpClX= 0 NMat=1 NMatS=1 NMatT=0.
 ***** Axes restored to original set *****
 -------------------------------------------------------------------
 Center     Atomic                   Forces (Hartrees/Bohr)
 Number     Number              X              Y              Z
 -------------------------------------------------------------------
      1        8           0.000023573   -0.000118485    0.000075761
      2        6           0.000002050    0.000035697   -0.000020640
      3        6          -0.000151085   -0.000133070    0.000052295
      4        6           0.000019093    0.000022348    0.000023334
      5        6          -0.000111800    0.000029936    0.000179625
      6        6          -0.000215003    0.000013681   -0.000031353
      7        1          -0.000025514    0.000027675   -0.000034670
      8        1           0.000066292    0.000019783   -0.000119448
      9        1          -0.000005482    0.000002501    0.000054132
     10        6           0.000191057    0.000209661   -0.000350270
     11        1          -0.000382289    0.000068123    0.000719660
     12        1           0.000352159   -0.000198027   -0.000018489
     13        1          -0.000008313    0.000153493    0.000078086
     14        8          -0.000611623    0.000097946    0.001200240
     15        1           0.000482559   -0.000221509   -0.001382709
     16        8          -0.000100019   -0.000009281   -0.000201104
     17        1           0.000093221    0.000025748    0.000001400
     18        8           0.000034865    0.000069979    0.000052543
     19        1          -0.000043426   -0.000024216    0.000029549
     20        8          -0.000047633    0.000078814   -0.000060107
     21        1          -0.000003087   -0.000140073   -0.000047089
     22        1          -0.000013736   -0.000022112    0.000060447
     23        8           0.000309777    0.000112366   -0.000305807
     24        8           0.000000481   -0.000059380    0.000130653
     25        1           0.000007529    0.000020823    0.000011517
     26        1          -0.000044955    0.000052657    0.000016783
     27        1           0.000088248   -0.000079273   -0.000133610
     28        8           0.000065340   -0.000091292    0.000171112
     29        1          -0.000064530    0.000133854   -0.000163121
     30        1           0.000092251   -0.000078369    0.000011280
 -------------------------------------------------------------------
 Cartesian Forces:  Max     0.001382709 RMS     0.000252623

 GradGradGradGradGradGradGradGradGradGradGradGradGradGradGradGradGradGrad
 Berny optimization.
 Search for a saddle point.
 Step number   2 out of a maximum of  180
 All quantities printed in internal units (Hartrees-Bohrs-Radians)
 Swapping is turned off.
 Update second derivatives using D2CorN and points    1    2
 ITU=  0  0
     Eigenvalues ---   -0.12484   0.00043   0.00074   0.00120   0.00181
     Eigenvalues ---    0.00240   0.00338   0.00461   0.00510   0.00609
     Eigenvalues ---    0.00923   0.01058   0.01185   0.01282   0.01450
     Eigenvalues ---    0.01564   0.01855   0.02061   0.02405   0.02421
     Eigenvalues ---    0.02748   0.02988   0.03303   0.03398   0.03536
     Eigenvalues ---    0.03938   0.04318   0.04434   0.04796   0.04966
     Eigenvalues ---    0.05411   0.05611   0.05986   0.06135   0.07257
     Eigenvalues ---    0.07335   0.07942   0.08458   0.09196   0.09773
     Eigenvalues ---    0.10080   0.11156   0.11826   0.12361   0.12661
     Eigenvalues ---    0.13584   0.14505   0.15354   0.16946   0.17077
     Eigenvalues ---    0.18488   0.19505   0.20559   0.21718   0.22654
     Eigenvalues ---    0.24200   0.26553   0.28846   0.30996   0.34144
     Eigenvalues ---    0.38253   0.41919   0.52354   0.56774   0.59618
     Eigenvalues ---    0.61821   0.63710   0.65701   0.69644   0.72469
     Eigenvalues ---    0.76151   0.78396   0.79937   0.81514   0.83245
     Eigenvalues ---    0.86450   0.91097   0.92842   0.96105   0.97925
     Eigenvalues ---    1.00697   1.03238   1.06700   1.07257
 Eigenvectors required to have negative eigenvalues:
                          X26       Y25       Y5        X25       Y1
   1                    0.60257   0.48858  -0.32540  -0.29441   0.25475
                          Y23       X24       Z25       Y24       X23
   1                   -0.17619  -0.12502  -0.12033  -0.11661   0.10189
 RFO step:  Lambda0=6.515087400D-09 Lambda=-3.69097057D-05.
 Linear search not attempted -- option 19 set.
 B after Tr=    -0.000227    0.000073   -0.001562
         Rot=    1.000000    0.000125    0.000197    0.000093 Ang=   0.03 deg.
 Variable       Old X    -DE/DX   Delta X   Delta X   Delta X     New X
                                 (Linear)    (Quad)   (Total)
    X1       -2.38344   0.00002   0.00000  -0.01129  -0.01085  -2.39428
    Y1        0.81478  -0.00012   0.00000   0.01005   0.01025   0.82502
    Z1       -1.33125   0.00008   0.00000   0.01770   0.01499  -1.31626
    X2        1.97115   0.00000   0.00000  -0.00529  -0.00528   1.96587
    Y2        0.62337   0.00004   0.00000   0.00167   0.00130   0.62467
    Z2       -0.28686  -0.00002   0.00000  -0.01193  -0.01288  -0.29974
    X3       -0.75791  -0.00015   0.00000  -0.00620  -0.00737  -0.76528
    Y3       -3.29199  -0.00013   0.00000   0.00546   0.00588  -3.28611
    Z3        0.83969   0.00005   0.00000  -0.00395  -0.00499   0.83470
    X4        1.89362   0.00002   0.00000  -0.00343  -0.00421   1.88941
    Y4       -2.23932   0.00002   0.00000   0.00707   0.00688  -2.23244
    Z4        0.33038   0.00002   0.00000   0.01149   0.01123   0.34161
    X5       -2.85458  -0.00011   0.00000   0.00617   0.00586  -2.84872
    Y5       -2.41332   0.00003   0.00000   0.00308   0.00345  -2.40987
    Z5       -0.93795   0.00018   0.00000  -0.01829  -0.02037  -0.95832
    X6       -0.52685  -0.00022   0.00000   0.00018   0.00023  -0.52662
    Y6        2.00293   0.00001   0.00000   0.00486   0.00509   2.00803
    Z6        0.23429  -0.00003   0.00000   0.00771   0.00544   0.23973
    X7        2.94018  -0.00003   0.00000  -0.01823  -0.01976   2.92042
    Y7       -2.48163   0.00003   0.00000   0.02453   0.02460  -2.45703
    Z7        2.11145  -0.00003   0.00000   0.02292   0.02312   2.13457
    X8       -1.02258   0.00007   0.00000   0.01430   0.01353  -1.00905
    Y8        1.82559   0.00002   0.00000   0.00029   0.00111   1.82671
    Z8        2.24311  -0.00012   0.00000   0.01044   0.00803   2.25113
    X9        2.32099  -0.00001   0.00000  -0.02674  -0.02590   2.29509
    Y9        0.78734   0.00000   0.00000  -0.01214  -0.01308   0.77427
    Z9       -2.33068   0.00005   0.00000  -0.01690  -0.01776  -2.34843
   X10       -0.43472   0.00019   0.00000  -0.00792  -0.00703  -0.44175
   Y10        4.79439   0.00021   0.00000   0.00695   0.00697   4.80137
   Z10       -0.56146  -0.00035   0.00000   0.01405   0.01112  -0.55034
   X11        0.08156  -0.00038   0.00000  -0.04338  -0.04168   0.03988
   Y11        4.91876   0.00007   0.00000   0.01298   0.01241   4.93116
   Z11       -2.56085   0.00072   0.00000   0.00664   0.00386  -2.55698
   X12       -2.30419   0.00035   0.00000  -0.00391  -0.00296  -2.30715
[...]
 .00143684,-0.00045055,0.00031901,-0.00036038,0.00007140,0.00296387,0.0
 0047722,0.00136482,-0.00220298,-0.00056095,-0.00381788,0.00107571,0.00
 041263,-0.00053847,-0.00059287,-0.00029643,0.00004701,0.00013812,0.001
 21779,0.00012118,0.00040493,-0.00056334,-0.00000978,0.00150830,0.00094
 977,-0.00163824,0.07850209,-0.07409091,0.00641930,-0.10109529,0.267571
 25,0.00982166,-0.00276193,0.01365927,0.00033615,0.00072254,0.00057602,
 -0.00059632,-0.00111683,0.00001477,0.00020059,0.00025056,-0.00041503,0
 .00740230,0.00830295,-0.00396699,0.00374329,-0.00268072,-0.00058131,-0
 .00013829,-0.00005739,0.00002786,0.00039306,0.00002628,0.00024298,-0.0
 0007552,-0.00000479,-0.00002073,-0.00029746,-0.00004891,-0.00040388,-0
 .00016210,0.00000473,0.00008794,0.00000441,0.00019396,-0.00015826,0.00
 006272,-0.00007792,0.00015355,-0.00008032,-0.00023175,0.00011750,0.000
 06532,0.00008267,0.00000379,-0.00031141,0.00039277,0.00014562,0.000431
 36,-0.00067321,0.00028055,-0.00027974,-0.00005819,0.00019684,0.0001311
 0,0.00006452,-0.00001943,0.00044341,-0.00022824,0.00004004,-0.00002910
 ,-0.00002148,-0.00002947,-0.00070089,-0.00042452,0.00038988,-0.0148774
 0,0.01451067,0.01366257,-0.14408524,0.13197187,0.43885744,-0.00609841,
 0.01684290,-0.00036460,-0.00052848,-0.00044690,-0.00014749,0.00060778,
 0.00217853,0.00132986,-0.00082232,-0.00004500,0.00094225,-0.04410493,-
 0.00601392,0.00628741,-0.00238919,0.00099836,-0.00219108,0.00043796,0.
 00010604,-0.00001862,0.00021237,-0.00009204,0.00033414,0.00003874,0.00
 004911,-0.00003978,0.00165474,-0.00122671,0.00085689,-0.00000044,-0.00
 000366,-0.00002905,-0.00038559,0.00040845,0.00014058,-0.00011921,0.000
 46523,-0.00015663,-0.00004686,0.00147031,-0.00000613,0.00012134,-0.000
 32888,-0.00007175,0.00234913,-0.00013010,0.00168659,-0.00142348,-0.000
 10450,-0.00322784,0.00093259,-0.00003851,-0.00040806,-0.00051118,-0.00
 013753,0.00004957,0.00062666,0.00064188,0.00015405,0.00002023,-0.00029
 978,0.00000174,0.00128786,0.00012023,-0.00098316,0.00368614,-0.0202307
 9,0.00408158,-0.04814141,-0.01901537,0.01361967,0.07543625,0.01975892,
 -0.02921196,0.00106695,0.00049022,0.00202765,0.00074819,-0.00777661,-0
 .00634870,0.00120498,0.00082158,0.00207998,-0.00349371,0.04534815,0.04
 331880,-0.02563627,0.00171719,-0.00510417,0.00075502,-0.00138821,-0.00
 057827,0.00025374,-0.00023759,0.00069240,-0.00018803,-0.00003413,-0.00
 016373,0.00011893,-0.00293844,0.00115120,-0.00133166,0.00003404,0.0000
 1305,0.00001450,0.00063758,-0.00091689,-0.00022587,0.00074018,-0.00072
 609,0.00068525,0.00085051,-0.00157882,0.00031190,-0.00031725,0.0003385
 2,-0.00001765,-0.00466060,-0.00086723,-0.00225220,0.00346004,0.0009990
 1,0.00619371,-0.00151782,-0.00062440,0.00073747,0.00081997,0.00041657,
 -0.00006637,0.00061379,-0.00160372,-0.00006248,-0.00047746,0.00048332,
 0.00002636,-0.00262591,-0.00074684,0.00298352,-0.05432818,0.00354597,0
 .00993799,0.02247011,-0.05505118,-0.00099165,0.04244160,0.05951024,-0.
 00075900,0.00795408,-0.00082882,-0.00025963,-0.00027584,-0.00016988,0.
 00071154,0.00118688,-0.00108693,-0.00044239,-0.00013964,0.00057966,-0.
 00659262,-0.01720317,0.00756487,-0.00109790,0.00105034,-0.00059830,0.0
 0019016,0.00003821,0.00001206,-0.00007746,-0.00011974,-0.00003777,0.00
 005798,0.00001162,-0.00003185,0.00058961,-0.00042550,0.00039995,0.0000
 2368,0.00001621,-0.00002503,-0.00011543,0.00012149,0.00004380,-0.00000
 971,0.00013955,-0.00006331,0.00003987,0.00055894,-0.00001341,0.0000264
 9,-0.00011882,-0.00002080,-0.00059452,-0.00057011,0.00013977,-0.000196
 34,0.00107837,0.00022423,0.00032432,0.00000227,-0.00021764,-0.00017514
 ,-0.00005059,0.00001509,0.00013134,0.00024324,0.00001457,-0.00000185,-
 0.00007586,0.00001540,0.00162250,0.00130547,-0.00064236,0.01144513,0.0
 0596559,-0.02978608,0.00682944,0.02686718,-0.05462909,-0.02327828,0.00
 227454,0.07026181,-0.00562475,-0.01987294,0.00878307,-0.00021407,0.003
 52506,0.00288540,-0.00237863,-0.00582289,-0.00286524,-0.00190007,0.003
 07525,-0.00080913,0.03781957,0.05058225,-0.01182412,-0.01135522,-0.019
 05838,-0.01442169,0.00006907,-0.00045981,0.00021056,0.00220259,0.00238
 715,0.00302251,-0.00045751,0.00012622,0.00022814,0.00039182,-0.0049479
 2,0.00054849,-0.00010008,-0.00007106,0.00002989,-0.00049746,0.00050575
 ,0.00009934,0.00111571,-0.00112795,0.00195053,0.00097081,0.00384838,0.
 00051988,0.00025810,-0.00115561,-0.00040909,-0.00187184,-0.00074349,0.
 00188575,0.00169353,0.00021415,0.00008616,0.00114719,-0.00179598,-0.00
 050422,-0.00088958,0.00028006,0.00009373,0.00706786,-0.00027272,0.0013
 0028,-0.00080520,-0.00113495,-0.00001467,-0.00062867,-0.00382375,0.000
 98377,-0.04475568,0.01690240,0.00410808,-0.00986187,0.01925859,-0.0090
 9435,0.01905322,-0.06709615,0.01045613,0.00620043,0.00786979,-0.047563
 65,-0.01122363,-0.00042497,-0.00227977,-0.00179803,-0.00001350,-0.0020
 8471,-0.00084364,0.00006304,-0.00031835,-0.00021256,0.01455334,-0.0122
 5222,-0.00134563,-0.00819834,0.00744930,0.00644686,-0.00006620,0.00001
 900,0.00000270,-0.00008295,-0.00028051,-0.00081603,0.00012101,-0.00002
 743,0.00006694,-0.00395165,0.00212760,-0.00081555,0.00006049,-0.000099
 88,0.00007256,0.00086432,-0.00145889,-0.00045424,0.00025345,-0.0000163
 7,0.00038316,0.00132602,-0.00115237,0.00047885,-0.00017403,0.00032568,
 -0.00007038,-0.00057672,0.00055331,-0.00028398,0.00024191,-0.00033203,
 0.00071061,-0.00028786,0.00023356,0.00013473,0.00016790,-0.00002149,-0
 .00001740,-0.00221268,-0.00004251,-0.00030225,-0.00003200,0.00065691,-
 0.00000436,-0.00017930,-0.00092586,0.00012910,0.00221375,0.00233182,0.
 00017105,-0.01553068,-0.04470527,-0.00771295,-0.02766353,-0.00692629,0
 .00224578,0.02041314,0.10577098,0.01440698,-0.01547892,-0.03094113,-0.
 00037866,-0.00159210,-0.00195187,0.00021214,0.00155535,0.00057712,0.00
 011045,-0.00030089,0.00007051,-0.00613969,-0.00029815,0.00244650,-0.01
 339717,0.00784840,0.00038943,0.00002956,0.00001843,-0.00001248,-0.0007
 4459,0.00020754,-0.00034369,-0.00000289,0.00003538,0.00021435,0.000487
 44,0.00059422,0.00090513,0.00043462,-0.00000486,-0.00017906,0.00011446
 ,-0.00059300,0.00033216,-0.00016725,0.00013865,-0.00030020,0.00011145,
 -0.00004622,-0.00028640,-0.00016862,-0.00003511,-0.00002355,0.00058685
 ,-0.00061775,-0.00036878,-0.00027522,0.00071752,-0.00033150,0.00012991
 ,0.00008102,-0.00004660,-0.00003910,-0.00005158,-0.00000207,-0.0012990
 9,0.00019463,0.00020853,0.00009491,0.00015401,0.00002248,0.00023163,-0
 .00040740,-0.00041267,0.00344151,-0.00296798,-0.00149254,-0.02255040,-
 0.01814988,-0.03910334,0.00242290,0.00810945,0.00358392,-0.00035134,0.
 01465247,0.06828356,-0.00583683,-0.00105653,-0.00366887,-0.00031801,-0
 .00037055,-0.00044096,-0.00006334,0.00024479,0.00014826,-0.00008946,0.
 00007465,0.00010832,-0.00138952,-0.00050693,0.00082587,-0.00163315,0.0
 0105665,0.00083760,0.00004373,-0.00000945,0.00000548,-0.00022583,0.000
 05785,-0.00031046,0.00010088,-0.00003554,0.00000347,-0.00070164,0.0000
 6434,-0.00007738,0.00014880,-0.00000580,-0.00005151,0.00015830,-0.0004
 0622,0.00007755,0.00003948,-0.00004158,-0.00002491,0.00047067,0.000160
 31,0.00014287,-0.00011541,-0.00008196,-0.00006363,0.00029463,-0.000414
 60,0.00003649,-0.00008902,0.00046996,-0.00023966,0.00019837,-0.0001223
 5,-0.00010651,-0.00012106,0.00000269,0.00000387,0.00000078,0.00003639,
 0.00000977,-0.00011665,0.00007845,0.00001425,0.00005938,0.00003434,-0.
 00016580,0.00195574,-0.00146631,-0.00085434,-0.08341442,0.05332045,0.1
 3413026,-0.00200203,0.00357723,0.00111933,0.00372194,0.01117295,0.0226
 2019,0.08892509,-0.00457103,0.00052602,-0.00095311,0.00000491,-0.00012
 780,-0.00005666,0.00015814,0.00001231,-0.00001152,0.00017148,0.0000309
 2,-0.00004300,0.00015369,0.00022512,0.00002530,0.00034071,0.00068739,0
 .00048344,-0.00002678,-0.00000370,0.00000194,-0.00000457,0.00001972,-0
 .00010470,0.00000719,-0.00001018,0.00000017,-0.00074255,0.00049599,-0.
 00006558,0.00009948,-0.00004786,-0.00001017,0.00016695,-0.00024419,-0.
 00001274,-0.00005842,0.00003763,-0.00002560,0.00031563,-0.00034129,0.0
 0007986,-0.00012569,0.00013000,-0.00002807,-0.00010283,0.00012355,0.00
 005360,0.00025963,-0.00033517,-0.00000818,-0.00015431,-0.00003620,0.00
 005468,0.00007961,0.00003238,-0.00000174,-0.00027306,-0.00016787,-0.00
 007460,-0.00006740,0.00017575,0.00000136,-0.00017960,-0.00010474,0.000
 08814,0.00086420,-0.00324703,0.00518216,0.05381228,-0.10114052,-0.1394
 1941,0.00993033,-0.00401291,-0.03212088,0.00582820,0.00112062,0.006274
 26,-0.06586489,0.10622311,-0.00316002,0.00087398,-0.00001187,-0.000010
 69,0.00000362,-0.00006399,-0.00015193,-0.00001739,0.00031739,-0.000031
 92,-0.00003037,-0.00006948,0.00026495,0.00013287,-0.00025015,-0.000151
 24,0.00001235,0.00056255,-0.00004544,0.00000008,-0.00000308,-0.0000363
 4,-0.00000382,-0.00011425,0.00002915,-0.00001689,-0.00002136,0.0002203
 8,-0.00006358,-0.00001937,0.00001399,0.00002243,-0.00002330,-0.0000338
 0,0.00008209,0.00008249,-0.00000785,-0.00003639,-0.00005509,-0.0001761
 0,-0.00003207,-0.00010628,-0.00002281,-0.00002689,0.00004219,0.0000701
 0,-0.00017323,-0.00032536,-0.00008213,0.00028911,0.00023128,0.00002682
 ,0.00002453,-0.00002859,0.00000226,-0.00000780,0.00000107,-0.00009783,
 0.00001400,-0.00005632,0.00002147,-0.00001897,0.00002064,0.00002294,0.
 00012304,0.00000226,-0.00229653,0.00305262,-0.00141228,0.15773108,-0.1
 6417125,-0.36913602,-0.00099798,-0.00117107,0.00529502,0.00297677,0.00
 044384,-0.00121673,-0.15408139,0.16069730,0.36635816,-0.00155089,0.000
 34286,-0.00021658,0.00204792,0.00073665,0.00163686,0.00059183,0.000504
 25,-0.00061889,0.00273448,-0.00416059,-0.00460030,0.00143806,-0.000123
 27,0.00034857,0.00079558,-0.00006466,-0.00015334,0.00010999,0.00052382
 ,-0.00003598,-0.00008056,0.00005849,0.00003411,-0.00006926,-0.00027171
 ,-0.00010839,-0.00007666,-0.00049749,0.00027047,0.00004025,-0.00004228
 ,-0.00002815,-0.00013562,0.00023604,-0.00002994,0.00001464,0.00014266,
 -0.00002927,-0.00052216,0.00140664,-0.00007254,0.00001211,-0.00043491,
 -0.00015483,-0.00119566,0.00003710,0.00089400,0.00015254,0.00002722,0.
 00005113,-0.01640789,-0.00665031,-0.00098182,-0.00227082,0.00508321,0.
 00520104,-0.00537361,0.01003104,0.00365594,-0.00212088,-0.00177462,0.0
 0085361,0.00011305,0.00000828,0.00006982,-0.00168222,0.00035853,0.0000
 1975,-0.00113556,0.00060758,-0.00013328,0.00060769,-0.00081450,0.00021
 153,0.00145741,-0.00029676,-0.00002401,0.00016315,-0.00009031,-0.00000
 306,0.25716217,0.00152071,0.00100396,0.00030059,-0.00389234,-0.0037435
 4,-0.00243042,0.00015838,0.00066877,0.00002695,0.00196711,-0.00497076,
 -0.00350923,0.00016273,-0.00173542,0.00033438,-0.00025479,0.00097029,0
 .00015686,0.00026196,0.00013335,0.00004812,0.00000632,-0.00010545,0.00
 004135,0.00021297,0.00022309,0.00034355,-0.00088422,-0.00023031,-0.000
 38770,-0.00003717,0.00002719,-0.00000515,0.00016866,0.00007037,0.00000
 797,0.00030782,0.00034811,-0.00008253,0.00115173,-0.00057896,0.0003791
 7,-0.00013435,0.00019324,0.00006905,-0.00085858,0.00042707,0.00042673,
 0.00006595,-0.00011861,0.00020373,-0.01207748,0.00331726,-0.00024604,0
 .00659254,-0.00713198,0.00494763,0.01294029,-0.00400179,-0.00309952,0.
 00042577,0.00179492,-0.00028987,0.00006212,0.00013715,0.00006813,-0.00
 029738,0.00064578,-0.00015676,0.00028785,0.00039300,-0.00008679,0.0001
 5566,-0.00057234,0.00005272,-0.00052041,0.00007380,0.00010986,-0.00000
 673,-0.00004091,0.00001012,-0.27950169,0.39900170,0.00084290,0.0001233
 4,0.00022244,-0.00107019,-0.00140222,-0.00238321,0.00000533,0.00009838
 ,0.00070510,0.00005622,-0.00122901,-0.00296131,-0.00010136,-0.00026562
 ,-0.00032045,-0.00005922,0.00047111,0.00052346,-0.00013704,-0.00005983
 ,0.00140214,-0.00015054,0.00003479,0.00003332,0.00060697,-0.00011752,0
 .00075013,-0.00031786,-0.00002711,-0.00036208,0.00001550,-0.00001073,0
 .00005127,0.00008282,-0.00000744,0.00004318,0.00013492,0.00015336,-0.0
 0000669,0.00062929,-0.00058112,0.00026624,-0.00010728,0.00015872,0.000
 02740,-0.00014507,0.00007455,0.00014571,-0.00006022,-0.00000448,0.0000
 5566,-0.00481928,-0.00133649,0.00424451,0.00278443,0.00170920,-0.00577
 472,0.00385661,-0.00442999,0.00319952,0.00156821,0.00097410,-0.0006146
 0,0.00002836,0.00003405,0.00008000,0.00029514,0.00002318,0.00011183,0.
 00028779,-0.00005703,0.00002345,-0.00008656,0.00006049,-0.00004622,-0.
 00038938,0.00009468,0.00002602,-0.00002770,0.00000992,-0.00000428,0.08
 185716,-0.01060410,0.44261664,0.00029186,-0.00014860,0.00005162,0.0001
 4301,0.00018557,-0.00032902,-0.00009606,-0.00021904,0.00044750,-0.0006
 7837,0.00058808,-0.00064449,-0.00030321,0.00019154,-0.00024163,-0.0001
 2786,-0.00000246,0.00011739,-0.00028292,-0.00005348,0.00067225,-0.0000
 1984,0.00001574,-0.00000809,0.00006375,-0.00009167,0.00015569,0.000065
 60,0.00011086,-0.00003588,-0.00000756,0.00000470,0.00000609,0.00002627
 ,-0.00005475,0.00000452,-0.00001189,0.00000292,0.00000927,0.00005389,-
 0.00024360,-0.00001231,-0.00000149,0.00008880,0.00002221,0.00025395,-0
 .00003438,-0.00014208,-0.00006373,0.00001510,-0.00000198,0.00026055,-0
 .00158129,0.00102020,-0.00159946,0.00237831,-0.00334628,-0.00042071,-0
 .00021292,0.00081560,0.00013153,0.00023877,0.00016741,-0.00000957,-0.0
 0001503,0.00001596,0.00047896,-0.00015606,0.00006068,0.00026258,-0.000
 19241,0.00004360,-0.00016772,0.00026310,-0.00006057,-0.00031751,0.0000
 6904,-0.00000207,-0.00004224,0.00002586,-0.00000135,-0.11757289,0.1206
 0557,-0.14723313,0.12990879,-0.00019500,-0.00014849,-0.00003538,0.0001
 4787,0.00028931,0.00007037,0.00000216,0.00007978,0.00001892,-0.0001050
 4,0.00014665,-0.00008588,0.00005837,0.00019763,-0.00003946,0.00009251,
 -0.00008829,0.00004360,-0.00008709,0.00014515,0.00006317,-0.00001506,0
 .00002240,0.00000380,-0.00007868,-0.00006135,0.00002365,0.00008424,0.0
 0003965,0.00005829,0.00000283,-0.00000398,-0.00000419,-0.00002480,-0.0
 0000125,-0.00000407,-0.00004114,-0.00003672,-0.00000114,-0.00014426,0.
 00000430,-0.00006187,0.00004334,-0.00001641,0.00000469,-0.00000029,-0.
 00008750,0.00000813,-0.00001159,0.00002833,-0.00001120,-0.00139134,-0.
 00200309,0.00068697,0.00119423,0.00379349,-0.00187680,0.00028563,-0.00
 035698,-0.00136800,0.00009962,-0.00003465,0.00001579,0.00000381,-0.000
 01434,0.00000035,-0.00005286,-0.00007350,0.00002679,-0.00007138,-0.000
 03312,0.00000365,0.00000366,0.00004530,0.00000269,0.00010904,-0.000012
 41,-0.00000782,0.00000989,0.00000579,-0.00000094,0.11448627,-0.1330821
 4,0.13014764,-0.13098916,0.14688418,-0.00003436,-0.00001334,-0.0000195
 1,-0.00022380,-0.00013112,-0.00022189,-0.00003960,0.00005139,-0.000018
 04,-0.00006372,0.00011743,0.00064579,0.00003042,0.00000138,0.00005370,
 -0.00000528,0.00000711,0.00003961,-0.00000270,0.00001749,-0.00017004,0
 .00000330,-0.00000068,-0.00000147,-0.00003212,0.00003121,0.00001602,0.
 00000572,-0.00000235,0.00000664,0.00000075,-0.00000238,-0.00000349,-0.
 00000711,0.00000381,0.00000214,-0.00000207,-0.00001541,-0.00000036,-0.
 00001074,-0.00000209,-0.00001248,0.00001750,-0.00001245,0.00001129,-0.
 00002344,-0.00001075,-0.00005489,0.00001650,0.00000021,0.00000555,0.00
 076648,-0.00030202,0.00003245,-0.00087493,0.00078835,-0.00123891,0.001
 25905,-0.00050125,-0.00109700,-0.00002854,-0.00001781,-0.00000111,-0.0
 0000521,0.00000272,-0.00001577,-0.00007327,0.00000956,-0.00003333,-0.0
 0003974,0.00002107,-0.00001102,0.00002366,-0.00002974,0.00001230,0.000
 04724,-0.00000839,0.00000480,0.00000919,-0.00000253,0.00000312,-0.1838
 5698,0.17669805,-0.30262464,0.17051689,-0.16235316,0.29147399,0.002463
 36,0.00054671,0.00046216,-0.00982606,-0.00274509,-0.00328256,-0.000317
 61,0.00032238,0.00059779,0.00016687,-0.00273860,-0.00075654,-0.0008861
 5,-0.00132551,-0.00007283,-0.00085576,0.00066168,0.00018287,-0.0000740
 4,-0.00028809,0.00043174,0.00006326,-0.00014589,0.00001417,0.00046818,
 0.00048135,0.00056815,-0.00061309,0.00031284,-0.00061359,-0.00004792,0
 .00004914,0.00004232,0.00021877,-0.00015286,0.00004609,0.00029966,0.00
 028636,-0.00004925,0.00137778,-0.00186517,0.00035677,-0.00009538,0.000
 54964,0.00020064,0.00008964,0.00031661,-0.00024575,-0.00007827,-0.0000
 9127,0.00014189,-0.00387596,0.00186646,0.00095731,0.00639518,-0.003245
 31,-0.00118639,-0.00032572,-0.00422847,-0.00077451,0.00303126,0.003409
 02,-0.00078796,0.00000063,0.00011157,0.00003205,0.00100037,0.00022656,
 -0.00010018,0.00108071,-0.00016250,0.00003252,-0.00033147,0.00016865,-
 0.00011823,-0.00151110,0.00030102,0.00010510,-0.00012230,0.00004314,0.
 00000850,-0.11724620,0.15141098,0.06165318,-0.01021769,0.01658420,0.01
 262692,0.12976903,-0.00209905,-0.00077378,-0.00035867,0.00340211,0.005
 98934,0.00455247,0.00002937,-0.00041505,0.00048987,-0.00294323,0.00268
 540,0.00107847,0.00016701,0.00173776,-0.00037719,0.00003380,-0.0012089
 0,-0.00079482,-0.00000466,-0.00019271,0.00060489,0.00011975,0.00005599
 ,-0.00003442,-0.00059723,-0.00012553,-0.00095250,0.00084485,0.00005882
 ,0.00045095,0.00004021,-0.00002109,-0.00000169,-0.00018412,-0.00001995
 ,-0.00001907,-0.00014809,-0.00023192,0.00005359,-0.00105459,0.00064003
 ,-0.00030714,0.00012094,-0.00027504,-0.00010505,0.00042837,-0.00040426
 ,-0.00019200,-0.00003973,0.00011050,-0.00014198,0.00427268,-0.00006042
 ,-0.00048689,-0.00480093,-0.00520960,-0.00359113,-0.00848140,-0.006292
 97,0.00054837,0.00188231,-0.00274570,-0.00107538,-0.00002627,-0.000142
 52,-0.00001745,0.00005151,-0.00057389,0.00019468,-0.00053917,-0.000261
 31,0.00006951,-0.00003507,0.00041153,-0.00001502,0.00084835,-0.0001625
 8,-0.00013953,0.00002847,0.00001409,-0.00001133,0.16013245,-0.25311685
 ,-0.11403482,0.00921091,-0.01562774,-0.01434431,-0.16065956,0.27615832
 ,-0.00116031,-0.00007796,-0.00022064,-0.00030976,0.00302403,0.00370330
 ,-0.00003555,0.00004467,-0.00023298,-0.00074121,0.00080049,0.00190662,
 0.00014660,0.00040118,0.00014621,-0.00003140,-0.00082562,-0.00091101,0
 .00009142,0.00032260,-0.00053023,0.00019538,-0.00003173,-0.00002087,-0
 .00112709,-0.00001297,-0.00108088,0.00036648,-0.00002036,0.00040921,-0
 .00003100,0.00002144,-0.00006894,-0.00008318,0.00000952,-0.00006012,-0
 .00006865,-0.00010628,0.00001068,-0.00070963,0.00071853,-0.00028137,0.
 00012199,-0.00017042,-0.00003306,0.00003534,-0.00010632,-0.00008618,0.
 00003357,0.00001472,-0.00003578,0.00170447,0.00033546,-0.00115327,-0.0
 0122873,-0.00277945,-0.00040107,0.00161074,-0.00063910,-0.00701505,-0.
 00215103,-0.00098174,0.00048923,-0.00002890,-0.00004587,-0.00005149,-0
 .00023027,-0.00007795,-0.00004368,-0.00033623,0.00003519,-0.00000550,0
 .00007610,-0.00001628,0.00003502,0.00046751,-0.00012431,-0.00005190,0.
 00002038,-0.00001364,0.00000161,0.09594339,-0.16332685,-0.13942981,-0.
 02206800,0.03467144,0.01321655,-0.07047240,0.12895757,0.13179541\\-0.0
 0000150,-0.00000077,-0.00000017,-0.00000167,-0.00000410,-0.00000178,-0
 .00000321,0.00000235,0.00000723,-0.00000287,-0.00000078,0.00000323,-0.
 00000397,-0.00000043,0.00000833,0.00000131,-0.00000055,-0.00000298,-0.
 00000040,0.00000132,0.00000126,0.00000069,0.00000148,0.00000095,-0.000
 00103,-0.00000263,-0.00000600,0.00000493,-0.00000243,-0.00000568,0.000
 00054,-0.00000164,-0.00001049,-0.00000492,0.00000369,-0.00000098,-0.00
 000171,0.00000125,0.00000440,-0.00000020,-0.00000208,0.00004716,0.0000
 1220,0.00000207,-0.00006255,-0.00000092,0.00000788,0.00000435,0.000002
 80,0.00000349,0.00000307,-0.00000616,-0.00000671,0.00000608,0.00000078
 ,-0.00000237,0.00000112,0.00000582,0.00000935,-0.00000630,0.00000265,-
 0.00000762,-0.00000465,-0.00000275,-0.00000081,0.00000644,0.00000108,0
 .00000802,0.00000608,0.,0.00000378,0.00000436,-0.00000087,0.00000191,0
 .00000414,0.00000005,0.00000072,-0.00000011,0.00000102,0.00000010,-0.0
 0000127,-0.00000066,-0.00001250,-0.00000751,0.00000208,-0.00000403,0.0
 0000162,-0.00000309,0.00000205,0.00000065\\\@


 HICKORY, DICKORY, DOCK
 TWO MICE RAN UP THE CLOCK
 THE CLOCK STRUCK ONE...
 THE OTHER ESCAPED WITH MINOR INJURIES.
 Job cpu time:       0 days  0 hours 39 minutes 15.2 seconds.
 File lengths (MBytes):  RWF=    220 Int=      0 D2E=      0 Chk=      6 Scr=      1
 Normal termination of Gaussian 09 at Thu Jan 12 01:13:30 2017.
