 Entering Gaussian System, Link 0=g09
 Initial command:
 /global/software/gaussian/g09.e01/l1.exe "/scratch/10453029.yak.local/Gau-2348.inp" -scrdir="/scratch/10453029.yak.local/"
 Entering Link 1 = /global/software/gaussian/g09.e01/l1.exe PID=      2349.
  
 Copyright (c) 1988,1990,1992,1993,1995,1998,2003,2009,2015,
            Gaussian, Inc.  All Rights Reserved.
  
 This is part of the Gaussian(R) 09 program.  It is based on
 the Gaussian(R) 03 system (copyright 2003, Gaussian, Inc.),
 the Gaussian(R) 98 system (copyright 1998, Gaussian, Inc.),
 the Gaussian(R) 94 system (copyright 1995, Gaussian, Inc.),
 the Gaussian 92(TM) system (copyright 1992, Gaussian, Inc.),
 the Gaussian 90(TM) system (copyright 1990, Gaussian, Inc.),
 the Gaussian 88(TM) system (copyright 1988, Gaussian, Inc.),
 the Gaussian 86(TM) system (copyright 1986, Carnegie Mellon
 University), and the Gaussian 82(TM) system (copyright 1983,
 Carnegie Mellon University). Gaussian is a federally registered
 trademark of Gaussian, Inc.
  
 This software contains proprietary and confidential information,
 including trade secrets, belonging to Gaussian, Inc.
  
 This software is provided under written license and may be
 used, copied, transmitted, or stored only in accord with that
 written license.
  
 The following legend is applicable only to US Government
 contracts under FAR:
  
                    RESTRICTED RIGHTS LEGEND
  
 Use, reproduction and disclosure by the US Government is
 subject to restrictions as set forth in subparagraphs (a)
 and (c) of the Commercial Computer Software - Restricted
 Rights clause in FAR 52.227-19.
  
 Gaussian, Inc.
 340 Quinnipiac St., Bldg. 40, Wallingford CT 06492
  
  
 ---------------------------------------------------------------
 Warning -- This program may not be used in any manner that
 competes with the business of Gaussian, Inc. or will provide
 assistance to any competitor of Gaussian, Inc.  The licensee
 of this program is prohibited from giving any competitor of
 Gaussian, Inc. access to this program.  By using this program,
 the user acknowledges that Gaussian, Inc. is engaged in the
 business of creating and licensing software in the field of
 computational chemistry and represents and warrants to the
 licensee that it is not a competitor of Gaussian, Inc. and that
 it will not use this program in any manner prohibited above.
 ---------------------------------------------------------------
  

 Cite this work as:
 Gaussian 09, Revision E.01,
 M. J. Frisch, G. W. Trucks, H. B. Schlegel, G. E. Scuseria, 
 M. A. Robb, J. R. Cheeseman, G. Scalmani, V. Barone, B. Mennucci, 
 G. A. Petersson, H. Nakatsuji, M. Caricato, X. Li, H. P. Hratchian, 
 A. F. Izmaylov, J. Bloino, G. Zheng, J. L. Sonnenberg, M. Hada, 
 M. Ehara, K. Toyota, R. Fukuda, J. Hasegawa, M. Ishida, T. Nakajima, 
 Y. Honda, O. Kitao, H. Nakai, T. Vreven, J. A. Montgomery, Jr., 
 J. E. Peralta, F. Ogliaro, M. Bearpark, J. J. Heyd, E. Brothers, 
 K. N. Kudin, V. N. Staroverov, T. Keith, R. Kobayashi, J. Normand, 
 K. Raghavachari, A. Rendell, J. C. Burant, S. S. Iyengar, J. Tomasi, 
 M. Cossi, N. Rega, J. M. Millam, M. Klene, J. E. Knox, J. B. Cross, 
 V. Bakken, C. Adamo, J. Jaramillo, R. Gomperts, R. E. Stratmann, 
 O. Yazyev, A. J. Austin, R. Cammi, C. Pomelli, J. W. Ochterski, 
 R. L. Martin, K. Morokuma, V. G. Zakrzewski, G. A. Voth, 
 P. Salvador, J. J. Dannenberg, S. Dapprich, A. D. Daniels, 
 O. Farkas, J. B. Foresman, J. V. Ortiz, J. Cioslowski, 
 and D. J. Fox, Gaussian, Inc., Wallingford CT, 2013.
 
 ******************************************
 Gaussian 09:  ES64L-G09RevE.01 30-Nov-2015
                12-Jan-2017 
 ******************************************
 %NPROCS=4
 Will use up to    4 processors via shared memory.
 ----------------------------------------------------------------------
 # opt=(calcfc,ts,noeigentest,maxcycle=1000,cartesian) freq b3lyp/6-31g
 (d)
 ----------------------------------------------------------------------
 1/5=1,6=1000,10=4,11=1,14=-1,18=10,26=3,38=1/1,3;
 2/12=2,17=6,18=5,29=2,40=1/2;
 3/5=1,6=6,7=1,11=2,16=1,25=1,30=1,71=2,74=-5,140=1/1,2,3;
 4//1;
 5/5=2,38=5/2;
 8/6=4,10=90,11=11/1;
 11/6=1,8=1,9=11,15=111,16=1/1,2,10;
 10/6=1,13=1/2;
 6/7=2,8=2,9=2,10=2,28=1/1;
 7/7=1,10=1,18=20,25=1/1,2,3,16;
 1/5=1,6=1000,10=4,11=1,14=-1,18=10,26=3/3(2);
 2/29=1/2;
 99/12=1/99;
 2/29=1/2;
 3/5=1,6=6,7=1,11=2,16=1,25=1,30=1,71=1,74=-5/1,2,3;
 4/5=5,16=3,69=1/1;
 5/5=2,38=5/2;
 7/7=1/1,2,3,16;
 1/5=1,6=1000,11=1,14=-1,18=10,26=3/3(-5);
 2/29=1/2;
 6/7=2,8=2,9=2,10=2,19=2,28=1/1;
 99/9=1,12=1/99;
 -------------------------
 boat4_Alpha_B3LYP_6-31G_d
 -------------------------
 Symbolic Z-matrix:
 Charge =  0 Multiplicity = 1
 8                    0    -0.62629   0.32367   0.56319 
 6                    0     1.66668   0.18345  -0.24529 
 6                    0     0.25086  -1.93066  -0.20318 
 6                    0     1.58048  -1.27478   0.20733 
 6                    0    -0.87961  -0.92979  -0.51149 
 6                    0     0.60591   1.0473    0.45861 
 1                    0     1.629    -1.29969   1.30678 
 1                    0     0.96952   1.22259   1.48213 
 1                    0     1.52224   0.22277  -1.33724 
 6                    0     0.40292   2.39621  -0.24773 
 1                    0     0.06508   2.23178  -1.27614 
 1                    0    -0.36416   2.99268   0.26367 
 1                    0     0.43828  -2.46782  -1.14986 
 8                    0     1.63777   3.1186   -0.35173 
 1                    0     1.83552   3.49231   0.52185 
 8                    0    -0.17685  -2.81637   0.80556 
 1                    0    -1.15312  -2.79627   0.73541 
 8                    0     2.64869  -2.01338  -0.36352 
 1                    0     3.44437  -1.47278  -0.21875 
 8                    0     2.97467   0.64642   0.07648 
 1                    0     3.02398   1.5557   -0.2704 
 1                    0    -0.73206  -0.39131  -1.4615 
 8                    0    -2.06649  -1.40123  -0.28083 
 8                    0    -3.77347   0.24048  -0.87464 
 1                    0    -3.05654  -0.58771  -0.70497 
 1                    0    -3.33649   1.00895   0.06961 
 1                    0    -4.66286  -0.10289  -0.69784 
 8                    0    -2.70003   1.54472   0.86205 
 1                    0    -1.67244   0.97678   0.75753 
 1                    0    -3.05764   1.32136   1.73774 
 

 GradGradGradGradGradGradGradGradGradGradGradGradGradGradGradGradGradGrad
 Berny optimization.
 Initialization pass.
 No Z-matrix variables, so optimization will use Cartesian coordinates.
 Trust Radius=3.00D-01 FncErr=1.00D-07 GrdErr=1.00D-06
 Number of steps in this run=    180 maximum allowed number of steps=    180.
 Search for a saddle point of order  1.
 GradGradGradGradGradGradGradGradGradGradGradGradGradGradGradGradGradGrad

 ---------------------------------------------------------------------------------------------------
                            Z-MATRIX (ANGSTROMS AND DEGREES)
   CD    Cent   Atom    N1       Length/X        N2       Alpha/Y        N3        Beta/Z          J
 ---------------------------------------------------------------------------------------------------
      1      1  O        0  -0.626289          0.323671          0.563190
      2      2  C        0   1.666682          0.183450         -0.245289
      3      3  C        0   0.250861         -1.930656         -0.203177
      4      4  C        0   1.580476         -1.274782          0.207327
      5      5  C        0  -0.879612         -0.929789         -0.511485
      6      6  C        0   0.605909          1.047301          0.458609
      7      7  H        0   1.629000         -1.299687          1.306778
      8      8  H        0   0.969515          1.222593          1.482127
      9      9  H        0   1.522239          0.222768         -1.337238
     10     10  C        0   0.402918          2.396211         -0.247730
     11     11  H        0   0.065080          2.231782         -1.276136
     12     12  H        0  -0.364155          2.992680          0.263671
     13     13  H        0   0.438284         -2.467815         -1.149862
     14     14  O        0   1.637766          3.118600         -0.351728
     15     15  H        0   1.835523          3.492313          0.521853
     16     16  O        0  -0.176848         -2.816374          0.805556
     17     17  H        0  -1.153118         -2.796268          0.735408
     18     18  O        0   2.648686         -2.013384         -0.363520
     19     19  H        0   3.444373         -1.472775         -0.218748
     20     20  O        0   2.974665          0.646415          0.076482
     21     21  H        0   3.023983          1.555703         -0.270399
     22     22  H        0  -0.732064         -0.391305         -1.461497
     23     23  O        0  -2.066491         -1.401229         -0.280831
     24     24  O        0  -3.773472          0.240475         -0.874637
     25     25  H        0  -3.056537         -0.587708         -0.704973
     26     26  H        0  -3.336485          1.008952          0.069608
     27     27  H        0  -4.662856         -0.102891         -0.697836
     28     28  O        0  -2.700033          1.544715          0.862046
     29     29  H        0  -1.672438          0.976779          0.757529
     30     30  H        0  -3.057639          1.321358          1.737736
 ---------------------------------------------------------------------------------------------------
                         Z-Matrix orientation:                         
 ---------------------------------------------------------------------
 Center     Atomic      Atomic             Coordinates (Angstroms)
 Number     Number       Type             X           Y           Z
 ---------------------------------------------------------------------
      1          8           0       -0.626289    0.323671    0.563190
      2          6           0        1.666682    0.183450   -0.245289
      3          6           0        0.250861   -1.930656   -0.203177
      4          6           0        1.580476   -1.274782    0.207327
      5          6           0       -0.879612   -0.929789   -0.511485
      6          6           0        0.605909    1.047301    0.458609
      7          1           0        1.629000   -1.299687    1.306778
      8          1           0        0.969515    1.222593    1.482127
      9          1           0        1.522239    0.222768   -1.337238
     10          6           0        0.402918    2.396211   -0.247730
     11          1           0        0.065080    2.231782   -1.276136
     12          1           0       -0.364155    2.992680    0.263671
     13          1           0        0.438284   -2.467815   -1.149862
     14          8           0        1.637766    3.118600   -0.351728
     15          1           0        1.835523    3.492313    0.521853
     16          8           0       -0.176848   -2.816374    0.805556
     17          1           0       -1.153118   -2.796268    0.735408
     18          8           0        2.648686   -2.013384   -0.363520
     19          1           0        3.444373   -1.472775   -0.218748
     20          8           0        2.974665    0.646415    0.076482
     21          1           0        3.023983    1.555703   -0.270399
     22          1           0       -0.732064   -0.391305   -1.461497
     23          8           0       -2.066491   -1.401229   -0.280831
     24          8           0       -3.773472    0.240475   -0.874637
     25          1           0       -3.056537   -0.587708   -0.704973
     26          1           0       -3.336485    1.008952    0.069608
     27          1           0       -4.662856   -0.102891   -0.697836
     28          8           0       -2.700033    1.544715    0.862046
     29          1           0       -1.672438    0.976779    0.757529
     30          1           0       -3.057639    1.321358    1.737736
 ---------------------------------------------------------------------
                    Distance matrix (angstroms):
                    1          2          3          4          5
     1  O    0.000000
     2  C    2.435368   0.000000
     3  C    2.537460   2.544753   0.000000
     4  C    2.748000   1.529292   1.538363   0.000000
     5  C    1.670407   2.791733   1.541025   2.586067   0.000000
     6  C    1.432791   1.538490   3.071196   2.530809   2.656452
     7  H    2.876551   2.147097   2.139475   1.100803   3.120263
     8  H    2.049170   2.133032   3.646874   2.869716   3.467926
     9  H    2.870188   1.102163   2.745857   2.152145   2.789112
    10  C    2.451995   2.548218   4.329767   3.881998   3.574455
    11  H    2.738978   2.797041   4.302516   4.097936   3.387132
    12  H    2.698525   3.503586   4.983516   4.689989   4.031417
    13  H    3.443872   3.058827   1.104482   2.137731   2.123652
    14  O    3.711421   2.937222   5.238374   4.429179   4.769923
    15  H    4.012794   3.400822   5.696088   4.784263   5.291005
    16  O    3.181292   3.674483   1.408891   2.413001   2.405759
    17  H    3.168790   4.218028   1.897731   3.172747   2.261259
    18  O    4.128690   2.409230   2.404604   1.418616   3.693908
    19  H    4.517625   2.429809   3.226208   1.922200   4.367765
    20  O    3.648002   1.424322   3.760135   2.377369   4.205422
    21  H    3.941733   1.930278   4.455269   3.213033   4.633988
    22  H    2.149822   2.750180   2.217907   2.985523   1.101934
    23  O    2.400382   4.055743   2.378328   3.681665   1.297744
    24  O    3.461073   5.476733   4.621680   5.668457   3.142582
    25  H    2.888763   4.807784   3.604745   4.775589   2.212117
    26  H    2.838731   5.080580   4.645940   5.423183   3.183176
    27  H    4.250413   6.352152   5.265931   6.416529   3.877038
    28  O    2.425011   4.706106   4.681952   5.167299   3.365069
    29  H    1.248497   3.575575   3.615966   3.994208   2.423628
    30  H    2.878611   5.248469   5.028808   5.531203   3.856223
                    6          7          8          9         10
     6  C    0.000000
     7  H    2.697120   0.000000
     8  H    1.100239   2.612961   0.000000
     9  H    2.178206   3.052882   3.042034   0.000000
    10  C    1.536124   4.192784   2.165829   2.676520   0.000000
    11  H    2.169062   4.646350   3.073187   2.482576   1.094893
    12  H    2.182550   4.846148   2.529134   3.714001   1.098047
    13  H    3.869279   2.969412   4.563845   2.906769   4.947104
    14  O    2.451868   4.719320   2.721108   3.061114   1.434403
    15  H    2.737523   4.860249   2.612226   3.774161   1.961136
    16  O    3.957406   2.410944   4.252664   4.088379   5.349447
    17  H    4.236014   3.210358   4.605910   4.535193   5.509051
    18  O    3.770494   2.083031   4.086267   2.686519   4.949890
    19  H    3.855707   2.377555   4.035208   2.796513   4.921417
    20  O    2.432640   2.666787   2.515640   2.070657   3.127424
    21  H    2.576239   3.547776   2.720873   2.273785   2.752626
    22  H    2.747101   3.750084   3.763637   2.339745   3.245252
    23  O    3.699161   4.023365   4.382898   4.078277   4.529859
    24  O    4.648386   6.026390   5.386540   5.315907   4.741566
    25  H    4.176205   5.148622   4.926428   4.692741   4.591369
    26  H    3.961725   5.613951   4.536793   5.119033   4.001041
    27  H    5.515450   6.711054   6.183264   6.226579   5.666584
    28  O    3.367408   5.198936   3.735485   4.940848   3.403668
    29  H    2.298954   4.047649   2.750524   3.893911   2.707847
    30  H    3.890097   5.387039   4.036466   5.624735   4.131929
                   11         12         13         14         15
    11  H    0.000000
    12  H    1.770371   0.000000
    13  H    4.716083   5.697279   0.000000
    14  O    2.028378   2.098156   5.769212   0.000000
    15  H    2.820669   2.270435   6.345867   0.970522   0.000000
    16  O    5.465881   5.837279   2.079312   6.313165   6.627945
    17  H    5.550820   5.861477   2.488912   6.629974   6.965905
    18  O    5.052655   5.876330   2.389711   5.230617   5.635408
    19  H    5.124591   5.888795   3.300553   4.935812   5.271526
    20  O    3.578917   4.085060   4.199473   2.842949   3.097602
    21  H    3.197452   3.718819   4.862920   2.090660   2.406358
    22  H    2.747796   3.816139   2.403898   4.378026   5.060501
    23  O    4.328163   4.743508   2.857747   5.844262   6.310053
    24  O    4.342924   4.527010   5.014925   6.151303   6.632153
    25  H    4.245026   4.583271   3.993307   5.991492   6.487212
    26  H    3.857069   3.578768   5.274836   5.419531   5.755109
    27  H    5.304574   5.383854   5.640818   7.084888   7.526092
    28  O    3.562265   2.812647   5.476970   4.771463   4.947741
    29  H    2.954623   2.453438   4.467495   4.095766   4.323106
    30  H    4.434374   3.495861   5.909106   5.444517   5.489486
                   16         17         18         19         20
    16  O    0.000000
    17  H    0.978993   0.000000
    18  O    3.161515   4.034137   0.000000
    19  H    3.995960   4.878419   0.972797   0.000000
    20  O    4.738617   5.415242   2.715584   2.190606   0.000000
    21  H    5.524315   6.115511   3.589972   3.057953   0.974455
    22  H    3.365821   3.284437   3.907194   4.489613   4.145128
    23  O    2.598773   1.952723   4.755467   5.511678   5.452868
    24  O    5.010297   4.322072   6.825338   7.447329   6.826915
    25  H    3.942240   3.251990   5.890561   6.578874   6.205572
    26  H    5.015780   4.437351   6.718957   7.226490   6.321558
    27  H    5.454122   4.650455   7.564417   8.236096   7.713155
    28  O    5.038725   4.610110   6.539945   6.930158   5.798815
    29  H    4.077635   3.808683   5.373075   5.756317   4.708347
    30  H    5.127255   4.646150   6.935267   7.342423   6.293171
                   21         22         23         24         25
    21  H    0.000000
    22  H    4.395161   0.000000
    23  O    5.886976   2.048076   0.000000
    24  O    6.949843   3.161283   2.441635   0.000000
    25  H    6.461872   2.452362   1.349779   1.108453   0.000000
    26  H    6.392972   3.329867   2.746755   1.293489   1.796572
    27  H    7.875350   4.014659   2.932693   0.969620   1.677903
    28  O    5.834973   3.608314   3.222752   2.422681   2.670182
    29  H    4.842330   2.771287   2.624574   2.760517   2.549953
    30  H    6.408873   4.310059   3.531213   2.916371   3.100220
                   26         27         28         29         30
    26  H    0.000000
    27  H    1.893258   0.000000
    28  O    1.148943   3.000085   0.000000
    29  H    1.800923   3.496623   1.178739   0.000000
    30  H    1.719885   3.246108   0.971907   1.731566   0.000000
 Stoichiometry    C6H16O8
 Framework group  C1[X(C6H16O8)]
 Deg. of freedom    84
 Full point group                 C1      NOp   1
 Largest Abelian subgroup         C1      NOp   1
 Largest concise Abelian subgroup C1      NOp   1
                         Standard orientation:                         
 ---------------------------------------------------------------------
 Center     Atomic      Atomic             Coordinates (Angstroms)
 Number     Number       Type             X           Y           Z
 ---------------------------------------------------------------------
      1          8           0       -0.626289    0.323671    0.563190
      2          6           0        1.666682    0.183450   -0.245289
      3          6           0        0.250861   -1.930656   -0.203177
      4          6           0        1.580476   -1.274782    0.207327
      5          6           0       -0.879612   -0.929789   -0.511485
      6          6           0        0.605909    1.047301    0.458609
      7          1           0        1.629000   -1.299687    1.306778
      8          1           0        0.969515    1.222593    1.482127
      9          1           0        1.522239    0.222768   -1.337238
     10          6           0        0.402918    2.396211   -0.247730
     11          1           0        0.065080    2.231782   -1.276136
     12          1           0       -0.364154    2.992680    0.263671
     13          1           0        0.438284   -2.467815   -1.149862
     14          8           0        1.637767    3.118600   -0.351728
     15          1           0        1.835524    3.492313    0.521853
     16          8           0       -0.176848   -2.816374    0.805556
     17          1           0       -1.153118   -2.796268    0.735408
     18          8           0        2.648686   -2.013384   -0.363520
     19          1           0        3.444373   -1.472775   -0.218748
     20          8           0        2.974665    0.646415    0.076482
     21          1           0        3.023983    1.555703   -0.270399
     22          1           0       -0.732064   -0.391305   -1.461497
     23          8           0       -2.066491   -1.401229   -0.280831
     24          8           0       -3.773472    0.240476   -0.874637
     25          1           0       -3.056537   -0.587708   -0.704973
     26          1           0       -3.336485    1.008952    0.069608
     27          1           0       -4.662856   -0.102890   -0.697836
     28          8           0       -2.700033    1.544715    0.862046
     29          1           0       -1.672438    0.976779    0.757529
     30          1           0       -3.057639    1.321358    1.737736
 ---------------------------------------------------------------------
 Rotational constants (GHZ):      0.7166596      0.5304097      0.3327557
 Standard basis: 6-31G(d) (6D, 7F)
 There are   242 symmetry adapted cartesian basis functions of A   symmetry.
 There are   242 symmetry adapted basis functions of A   symmetry.
   242 basis functions,   456 primitive gaussians,   242 cartesian basis functions
    58 alpha electrons       58 beta electrons
       nuclear repulsion energy      1103.5766247903 Hartrees.
 NAtoms=   30 NActive=   30 NUniq=   30 SFac= 1.00D+00 NAtFMM=   60 NAOKFM=F Big=F
 Integral buffers will be    131072 words long.
 Raffenetti 2 integral format.
 Two-electron integral symmetry is turned on.
 One-electron integrals computed using PRISM.
 NBasis=   242 RedAO= T EigKep=  1.36D-03  NBF=   242
 NBsUse=   242 1.00D-06 EigRej= -1.00D+00 NBFU=   242
 ExpMin= 1.61D-01 ExpMax= 5.48D+03 ExpMxC= 8.25D+02 IAcc=1 IRadAn=         1 AccDes= 0.00D+00
 Harris functional with IExCor=  402 and IRadAn=       1 diagonalized for initial guess.
 HarFok:  IExCor=  402 AccDes= 0.00D+00 IRadAn=         1 IDoV= 1 UseB2=F ITyADJ=14
 ICtDFT=  3500011 ScaDFX=  1.000000  1.000000  1.000000  1.000000
 FoFCou: FMM=F IPFlag=           0 FMFlag=      100000 FMFlg1=           0
         NFxFlg=           0 DoJE=T BraDBF=F KetDBF=T FulRan=T
         wScrn=  0.000000 ICntrl=     500 IOpCl=  0 I1Cent=   200000004 NGrid=           0
         NMat0=    1 NMatS0=      1 NMatT0=    0 NMatD0=    1 NMtDS0=    0 NMtDT0=    0
 Petite list used in FoFCou.
 Requested convergence on RMS density matrix=1.00D-08 within 128 cycles.
 Requested convergence on MAX density matrix=1.00D-06.
 Requested convergence on             energy=1.00D-06.
 No special actions if energy rises.
 Integral accuracy reduced to 1.0D-05 until final iterations.
 Initial convergence to 1.0D-05 achieved.  Increase integral accuracy.
 SCF Done:  E(RB3LYP) =  -839.961540602     A.U. after   14 cycles
            NFock= 14  Conv=0.64D-08     -V/T= 2.0086
 DoSCS=F DFT=T ScalE2(SS,OS)=  1.000000  1.000000
 Range of M.O.s used for correlation:     1   242
 NBasis=   242 NAE=    58 NBE=    58 NFC=     0 NFV=     0
 NROrb=    242 NOA=    58 NOB=    58 NVA=   184 NVB=   184
 Symmetrizing basis deriv contribution to polar:
 IMax=3 JMax=2 DiffMx= 0.00D+00
 G2DrvN: will do    31 centers at a time, making    1 passes.
 Calling FoFCou, ICntrl=  3107 FMM=F I1Cent=   0 AccDes= 0.00D+00.
 End of G2Drv F.D. properties file   721 does not exist.
 End of G2Drv F.D. properties file   722 does not exist.
 End of G2Drv F.D. properties file   788 does not exist.
          IDoAtm=111111111111111111111111111111
          Differentiating once with respect to nuclear coordinates.
          There are    93 degrees of freedom in the 1st order CPHF.  IDoFFX=6 NUNeed=     0.
     87 vectors produced by pass  0 Test12= 1.15D-14 1.08D-09 XBig12= 1.14D-01 7.05D-02.
 AX will form    87 AO Fock derivatives at one time.
     87 vectors produced by pass  1 Test12= 1.15D-14 1.08D-09 XBig12= 1.17D-02 1.16D-02.
     87 vectors produced by pass  2 Test12= 1.15D-14 1.08D-09 XBig12= 1.28D-04 2.07D-03.
     87 vectors produced by pass  3 Test12= 1.15D-14 1.08D-09 XBig12= 3.12D-07 5.71D-05.
     87 vectors produced by pass  4 Test12= 1.15D-14 1.08D-09 XBig12= 4.17D-10 1.93D-06.
     68 vectors produced by pass  5 Test12= 1.15D-14 1.08D-09 XBig12= 3.50D-13 6.66D-08.
      3 vectors produced by pass  6 Test12= 1.15D-14 1.08D-09 XBig12= 2.85D-16 1.57D-09.
 InvSVY:  IOpt=1 It=  1 EMax= 4.16D-16
 Solved reduced A of dimension   506 with    93 vectors.
 End of Minotr F.D. properties file   721 does not exist.
 End of Minotr F.D. properties file   722 does not exist.
 End of Minotr F.D. properties file   788 does not exist.

 **********************************************************************

            Population analysis using the SCF density.

 **********************************************************************

 Orbital symmetries:
       Occupied  (A) (A) (A) (A) (A) (A) (A) (A) (A) (A) (A) (A)
                 (A) (A) (A) (A) (A) (A) (A) (A) (A) (A) (A) (A)
                 (A) (A) (A) (A) (A) (A) (A) (A) (A) (A) (A) (A)
                 (A) (A) (A) (A) (A) (A) (A) (A) (A) (A) (A) (A)
                 (A) (A) (A) (A) (A) (A) (A) (A) (A) (A)
       Virtual   (A) (A) (A) (A) (A) (A) (A) (A) (A) (A) (A) (A)
                 (A) (A) (A) (A) (A) (A) (A) (A) (A) (A) (A) (A)
                 (A) (A) (A) (A) (A) (A) (A) (A) (A) (A) (A) (A)
                 (A) (A) (A) (A) (A) (A) (A) (A) (A) (A) (A) (A)
                 (A) (A) (A) (A) (A) (A) (A) (A) (A) (A) (A) (A)
                 (A) (A) (A) (A) (A) (A) (A) (A) (A) (A) (A) (A)
                 (A) (A) (A) (A) (A) (A) (A) (A) (A) (A) (A) (A)
                 (A) (A) (A) (A) (A) (A) (A) (A) (A) (A) (A) (A)
                 (A) (A) (A) (A) (A) (A) (A) (A) (A) (A) (A) (A)
                 (A) (A) (A) (A) (A) (A) (A) (A) (A) (A) (A) (A)
                 (A) (A) (A) (A) (A) (A) (A) (A) (A) (A) (A) (A)
                 (A) (A) (A) (A) (A) (A) (A) (A) (A) (A) (A) (A)
                 (A) (A) (A) (A) (A) (A) (A) (A) (A) (A) (A) (A)
                 (A) (A) (A) (A) (A) (A) (A) (A) (A) (A) (A) (A)
                 (A) (A) (A) (A) (A) (A) (A) (A) (A) (A) (A) (A)
                 (A) (A) (A) (A)
 The electronic state is 1-A.
 Alpha  occ. eigenvalues --  -19.18897 -19.18101 -19.17328 -19.16223 -19.15129
 Alpha  occ. eigenvalues --  -19.12801 -19.11655 -19.11366 -10.28427 -10.25265
 Alpha  occ. eigenvalues --  -10.25243 -10.24069 -10.22549 -10.22306  -1.06585
 Alpha  occ. eigenvalues --   -1.05083  -1.03654  -1.02809  -1.01748  -1.00380
 Alpha  occ. eigenvalues --   -0.99397  -0.97362  -0.77814  -0.75163  -0.68744
 Alpha  occ. eigenvalues --   -0.63551  -0.62492  -0.57506  -0.55865  -0.55282
 Alpha  occ. eigenvalues --   -0.53729  -0.53386  -0.52572  -0.50367  -0.49533
 Alpha  occ. eigenvalues --   -0.48765  -0.46019  -0.45383  -0.44318  -0.42898
 Alpha  occ. eigenvalues --   -0.41390  -0.41120  -0.39843  -0.38897  -0.37319
 Alpha  occ. eigenvalues --   -0.36996  -0.36288  -0.34650  -0.33095  -0.32758
 Alpha  occ. eigenvalues --   -0.32369  -0.30807  -0.29080  -0.27751  -0.26895
 Alpha  occ. eigenvalues --   -0.25949  -0.25615  -0.23590
 Alpha virt. eigenvalues --    0.03413   0.04310   0.06884   0.08217   0.08479
 Alpha virt. eigenvalues --    0.09298   0.11486   0.12776   0.13605   0.14643
 Alpha virt. eigenvalues --    0.15798   0.16463   0.17213   0.18289   0.19284
 Alpha virt. eigenvalues --    0.19666   0.21081   0.23319   0.24540   0.25139
 Alpha virt. eigenvalues --    0.25664   0.26576   0.28261   0.30320   0.30504
 Alpha virt. eigenvalues --    0.32768   0.34107   0.39289   0.51101   0.52306
 Alpha virt. eigenvalues --    0.53471   0.55539   0.57043   0.58030   0.60693
 Alpha virt. eigenvalues --    0.61196   0.62155   0.63714   0.64833   0.65801
 Alpha virt. eigenvalues --    0.67298   0.68656   0.71992   0.72810   0.73322
 Alpha virt. eigenvalues --    0.75338   0.76518   0.77380   0.77945   0.79960
 Alpha virt. eigenvalues --    0.80363   0.80833   0.83574   0.83891   0.84727
 Alpha virt. eigenvalues --    0.85549   0.85933   0.87275   0.87999   0.89857
 Alpha virt. eigenvalues --    0.90307   0.91524   0.92859   0.93870   0.94625
 Alpha virt. eigenvalues --    0.96896   0.97095   1.00325   1.00618   1.02451
 Alpha virt. eigenvalues --    1.03757   1.05289   1.06423   1.08135   1.08891
 Alpha virt. eigenvalues --    1.09712   1.11048   1.13911   1.15482   1.16899
 Alpha virt. eigenvalues --    1.18575   1.20409   1.21434   1.26776   1.27946
 Alpha virt. eigenvalues --    1.29789   1.31619   1.33439   1.37175   1.40528
 Alpha virt. eigenvalues --    1.43307   1.46494   1.46921   1.50356   1.52323
 Alpha virt. eigenvalues --    1.53404   1.55112   1.56835   1.59459   1.59851
 Alpha virt. eigenvalues --    1.61279   1.65243   1.67118   1.68541   1.69814
 Alpha virt. eigenvalues --    1.70062   1.70844   1.72101   1.72464   1.73796
 Alpha virt. eigenvalues --    1.74839   1.75741   1.76703   1.77699   1.79858
 Alpha virt. eigenvalues --    1.80262   1.82763   1.84114   1.85457   1.86475
 Alpha virt. eigenvalues --    1.89313   1.90926   1.91811   1.93890   1.95303
 Alpha virt. eigenvalues --    1.97022   1.99907   2.01695   2.04007   2.04173
 Alpha virt. eigenvalues --    2.07739   2.10097   2.11138   2.12629   2.15621
 Alpha virt. eigenvalues --    2.20737   2.22917   2.25046   2.27976   2.29436
 Alpha virt. eigenvalues --    2.31189   2.32915   2.36084   2.39413   2.40506
 Alpha virt. eigenvalues --    2.41475   2.45866   2.48486   2.49782   2.50923
 Alpha virt. eigenvalues --    2.53081   2.54380   2.56860   2.59242   2.61544
 Alpha virt. eigenvalues --    2.61747   2.65689   2.67660   2.71980   2.75229
 Alpha virt. eigenvalues --    2.77800   2.81557   2.82787   2.85935   2.91410
 Alpha virt. eigenvalues --    2.94427   2.96851   2.98109   3.01579   3.08887
 Alpha virt. eigenvalues --    3.73060   3.74964   3.80875   3.84842   3.88475
 Alpha virt. eigenvalues --    3.95115   4.06544   4.19552   4.24523   4.38011
 Alpha virt. eigenvalues --    4.45764   4.47955   4.66007   4.82063
          Condensed to atoms (all electrons):
               1          2          3          4          5          6
     1  O    8.651083  -0.025675  -0.023529  -0.000223   0.055663   0.120088
     2  C   -0.025675   5.003732  -0.023932   0.317523  -0.000793   0.289021
     3  C   -0.023529  -0.023932   4.978632   0.311909   0.284625  -0.010925
     4  C   -0.000223   0.317523   0.311909   4.914269  -0.031863  -0.033872
     5  C    0.055663  -0.000793   0.284625  -0.031863   4.762037  -0.009945
     6  C    0.120088   0.289021  -0.010925  -0.033872  -0.009945   5.046077
     7  H    0.001091  -0.054198  -0.049327   0.346379   0.001145  -0.001351
     8  H   -0.032528  -0.045204   0.000103  -0.007971   0.001557   0.352554
     9  H    0.002293   0.345270  -0.005531  -0.045297  -0.000014  -0.056283
    10  C   -0.025827  -0.032992  -0.000179   0.003906  -0.001789   0.327836
    11  H    0.003327  -0.009902   0.000006  -0.000076   0.000763  -0.040760
    12  H    0.001533   0.004985  -0.000007  -0.000095  -0.000063  -0.044078
    13  H    0.002611  -0.000235   0.339312  -0.056070  -0.045327   0.000848
    14  O    0.001539   0.001559  -0.000001   0.000091   0.000041  -0.040108
    15  H    0.000011  -0.001756   0.000001  -0.000009  -0.000001  -0.001098
    16  O   -0.000348   0.002315   0.257424  -0.045982  -0.020144   0.000607
    17  H    0.000861  -0.000347  -0.049100   0.006799  -0.018101   0.000005
    18  O    0.000018  -0.032468  -0.036318   0.233581   0.001822   0.003551
    19  H   -0.000009  -0.014103   0.006456  -0.030394  -0.000260   0.000819
    20  O    0.001406   0.222273   0.002243  -0.037251   0.000217  -0.041330
    21  H    0.000029  -0.021525  -0.000200   0.005258   0.000003  -0.004830
    22  H   -0.054731  -0.003074  -0.073413   0.001546   0.351427   0.007238
    23  O   -0.048703   0.000172  -0.043326   0.001967   0.335903   0.001943
    24  O   -0.000834   0.000000  -0.000169   0.000001   0.008376   0.000011
    25  H    0.002582   0.000010   0.002555  -0.000032  -0.016198  -0.000153
    26  H    0.004751   0.000008   0.000069  -0.000003  -0.000454  -0.000177
    27  H    0.000012  -0.000000   0.000001  -0.000000  -0.000289   0.000001
    28  O   -0.094853  -0.000077  -0.000050   0.000004   0.003009   0.004047
    29  H    0.104366   0.001658   0.000643   0.000003  -0.001231  -0.005723
    30  H    0.004454   0.000004   0.000002  -0.000000  -0.000174  -0.000048
               7          8          9         10         11         12
     1  O    0.001091  -0.032528   0.002293  -0.025827   0.003327   0.001533
     2  C   -0.054198  -0.045204   0.345270  -0.032992  -0.009902   0.004985
     3  C   -0.049327   0.000103  -0.005531  -0.000179   0.000006  -0.000007
     4  C    0.346379  -0.007971  -0.045297   0.003906  -0.000076  -0.000095
     5  C    0.001145   0.001557  -0.000014  -0.001789   0.000763  -0.000063
     6  C   -0.001351   0.352554  -0.056283   0.327836  -0.040760  -0.044078
     7  H    0.635448   0.004985   0.007833   0.000005   0.000002   0.000008
     8  H    0.004985   0.631807   0.007455  -0.058112   0.005901  -0.004916
     9  H    0.007833   0.007455   0.662059  -0.008349   0.005330   0.000091
    10  C    0.000005  -0.058112  -0.008349   4.963846   0.370576   0.363016
    11  H    0.000002   0.005901   0.005330   0.370576   0.562997  -0.036780
    12  H    0.000008  -0.004916   0.000091   0.363016  -0.036780   0.589017
    13  H    0.007004   0.000012   0.002768   0.000016  -0.000005  -0.000000
    14  O   -0.000011   0.002248   0.000124   0.219564  -0.033804  -0.026565
    15  H    0.000001   0.004673   0.000156  -0.029160   0.006845  -0.008313
    16  O    0.005524   0.000009  -0.000019  -0.000002   0.000000  -0.000000
    17  H   -0.000085   0.000007   0.000012  -0.000001   0.000000   0.000000
    18  O   -0.039869  -0.000074   0.001973  -0.000053  -0.000002   0.000000
    19  H   -0.001922   0.000026   0.000058  -0.000015   0.000000   0.000000
    20  O   -0.001623   0.004995  -0.040823  -0.000138   0.000080  -0.000218
    21  H   -0.000237  -0.000259  -0.004503  -0.004198  -0.000054   0.000448
    22  H   -0.000015  -0.000338   0.001545   0.000103   0.001172  -0.000015
    23  O   -0.000080  -0.000077   0.000037  -0.000018  -0.000037   0.000005
    24  O   -0.000000   0.000000   0.000000  -0.000014   0.000010   0.000013
    25  H    0.000001   0.000004  -0.000001   0.000008  -0.000005  -0.000009
    26  H    0.000000   0.000003  -0.000000   0.000039   0.000029   0.000144
    27  H    0.000000  -0.000000   0.000000   0.000000  -0.000000  -0.000000
    28  O    0.000001   0.000064   0.000005  -0.000747   0.000053   0.004135
    29  H   -0.000053  -0.001557  -0.000142  -0.001109  -0.000530   0.002644
    30  H   -0.000000   0.000017  -0.000000  -0.000040   0.000002  -0.000006
              13         14         15         16         17         18
     1  O    0.002611   0.001539   0.000011  -0.000348   0.000861   0.000018
     2  C   -0.000235   0.001559  -0.001756   0.002315  -0.000347  -0.032468
     3  C    0.339312  -0.000001   0.000001   0.257424  -0.049100  -0.036318
     4  C   -0.056070   0.000091  -0.000009  -0.045982   0.006799   0.233581
     5  C   -0.045327   0.000041  -0.000001  -0.020144  -0.018101   0.001822
     6  C    0.000848  -0.040108  -0.001098   0.000607   0.000005   0.003551
     7  H    0.007004  -0.000011   0.000001   0.005524  -0.000085  -0.039869
     8  H    0.000012   0.002248   0.004673   0.000009   0.000007  -0.000074
     9  H    0.002768   0.000124   0.000156  -0.000019   0.000012   0.001973
    10  C    0.000016   0.219564  -0.029160  -0.000002  -0.000001  -0.000053
    11  H   -0.000005  -0.033804   0.006845   0.000000   0.000000  -0.000002
    12  H   -0.000000  -0.026565  -0.008313  -0.000000   0.000000   0.000000
    13  H    0.639749  -0.000000  -0.000000  -0.039230   0.002264   0.003662
    14  O   -0.000000   8.228129   0.235031   0.000000  -0.000000  -0.000000
    15  H   -0.000000   0.235031   0.390355  -0.000000  -0.000000   0.000000
    16  O   -0.039230   0.000000  -0.000000   8.283296   0.228911   0.001070
    17  H    0.002264  -0.000000  -0.000000   0.228911   0.367666  -0.000153
    18  O    0.003662  -0.000000   0.000000   0.001070  -0.000153   8.284142
    19  H   -0.000230   0.000006  -0.000001  -0.000155   0.000016   0.233952
    20  O   -0.000142  -0.011918   0.002006  -0.000009   0.000001  -0.007452
    21  H    0.000009   0.042375  -0.002261   0.000001  -0.000000   0.000122
    22  H    0.003683  -0.000029  -0.000000   0.002993   0.002441  -0.000024
    23  O   -0.001617   0.000000  -0.000000  -0.022360   0.051685  -0.000009
    24  O    0.000003   0.000000  -0.000000  -0.000002   0.000089  -0.000000
    25  H   -0.000134  -0.000000   0.000000   0.000075  -0.000536   0.000000
    26  H   -0.000001   0.000000   0.000000  -0.000000  -0.000013   0.000000
    27  H   -0.000000  -0.000000  -0.000000   0.000001  -0.000013   0.000000
    28  O    0.000001   0.000007   0.000001   0.000001   0.000004   0.000000
    29  H   -0.000047  -0.000029  -0.000018  -0.000050  -0.000017   0.000001
    30  H   -0.000000  -0.000000  -0.000000  -0.000000   0.000000   0.000000
              19         20         21         22         23         24
     1  O   -0.000009   0.001406   0.000029  -0.054731  -0.048703  -0.000834
     2  C   -0.014103   0.222273  -0.021525  -0.003074   0.000172   0.000000
     3  C    0.006456   0.002243  -0.000200  -0.073413  -0.043326  -0.000169
     4  C   -0.030394  -0.037251   0.005258   0.001546   0.001967   0.000001
     5  C   -0.000260   0.000217   0.000003   0.351427   0.335903   0.008376
     6  C    0.000819  -0.041330  -0.004830   0.007238   0.001943   0.000011
     7  H   -0.001922  -0.001623  -0.000237  -0.000015  -0.000080  -0.000000
     8  H    0.000026   0.004995  -0.000259  -0.000338  -0.000077   0.000000
     9  H    0.000058  -0.040823  -0.004503   0.001545   0.000037   0.000000
    10  C   -0.000015  -0.000138  -0.004198   0.000103  -0.000018  -0.000014
    11  H    0.000000   0.000080  -0.000054   0.001172  -0.000037   0.000010
    12  H    0.000000  -0.000218   0.000448  -0.000015   0.000005   0.000013
    13  H   -0.000230  -0.000142   0.000009   0.003683  -0.001617   0.000003
    14  O    0.000006  -0.011918   0.042375  -0.000029   0.000000   0.000000
    15  H   -0.000001   0.002006  -0.002261  -0.000000  -0.000000  -0.000000
    16  O   -0.000155  -0.000009   0.000001   0.002993  -0.022360  -0.000002
    17  H    0.000016   0.000001  -0.000000   0.002441   0.051685   0.000089
    18  O    0.233952  -0.007452   0.000122  -0.000024  -0.000009  -0.000000
    19  H    0.374194   0.025109  -0.000547   0.000009   0.000001   0.000000
    20  O    0.025109   8.327903   0.223359   0.000004  -0.000000   0.000000
    21  H   -0.000547   0.223359   0.355964  -0.000007  -0.000000  -0.000000
    22  H    0.000009   0.000004  -0.000007   0.699317  -0.052902   0.002330
    23  O    0.000001  -0.000000  -0.000000  -0.052902   8.405388  -0.089172
    24  O    0.000000   0.000000  -0.000000   0.002330  -0.089172   8.501050
    25  H   -0.000000  -0.000000   0.000000  -0.005918   0.124602   0.136015
    26  H   -0.000000  -0.000000   0.000000  -0.000181   0.005635   0.136172
    27  H   -0.000000  -0.000000  -0.000000  -0.000083   0.004268   0.230177
    28  O   -0.000000   0.000000  -0.000000  -0.000235  -0.002361  -0.098553
    29  H    0.000000  -0.000014   0.000003   0.001353   0.007059   0.004165
    30  H    0.000000  -0.000000   0.000000   0.000013   0.000398   0.004606
              25         26         27         28         29         30
     1  O    0.002582   0.004751   0.000012  -0.094853   0.104366   0.004454
     2  C    0.000010   0.000008  -0.000000  -0.000077   0.001658   0.000004
     3  C    0.002555   0.000069   0.000001  -0.000050   0.000643   0.000002
     4  C   -0.000032  -0.000003  -0.000000   0.000004   0.000003  -0.000000
     5  C   -0.016198  -0.000454  -0.000289   0.003009  -0.001231  -0.000174
     6  C   -0.000153  -0.000177   0.000001   0.004047  -0.005723  -0.000048
     7  H    0.000001   0.000000   0.000000   0.000001  -0.000053  -0.000000
     8  H    0.000004   0.000003  -0.000000   0.000064  -0.001557   0.000017
     9  H   -0.000001  -0.000000   0.000000   0.000005  -0.000142  -0.000000
    10  C    0.000008   0.000039   0.000000  -0.000747  -0.001109  -0.000040
    11  H   -0.000005   0.000029  -0.000000   0.000053  -0.000530   0.000002
    12  H   -0.000009   0.000144  -0.000000   0.004135   0.002644  -0.000006
    13  H   -0.000134  -0.000001  -0.000000   0.000001  -0.000047  -0.000000
    14  O   -0.000000   0.000000  -0.000000   0.000007  -0.000029  -0.000000
    15  H    0.000000   0.000000  -0.000000   0.000001  -0.000018  -0.000000
    16  O    0.000075  -0.000000   0.000001   0.000001  -0.000050  -0.000000
    17  H   -0.000536  -0.000013  -0.000013   0.000004  -0.000017   0.000000
    18  O    0.000000   0.000000   0.000000   0.000000   0.000001   0.000000
    19  H   -0.000000  -0.000000  -0.000000  -0.000000   0.000000   0.000000
    20  O   -0.000000  -0.000000  -0.000000   0.000000  -0.000014  -0.000000
    21  H    0.000000   0.000000  -0.000000  -0.000000   0.000003   0.000000
    22  H   -0.005918  -0.000181  -0.000083  -0.000235   0.001353   0.000013
    23  O    0.124602   0.005635   0.004268  -0.002361   0.007059   0.000398
    24  O    0.136015   0.136172   0.230177  -0.098553   0.004165   0.004606
    25  H    0.306136  -0.013240  -0.003810   0.008113  -0.000725  -0.000330
    26  H   -0.013240   0.292197  -0.004716   0.129790  -0.007276  -0.004292
    27  H   -0.003810  -0.004716   0.367225   0.004053  -0.000119  -0.000279
    28  O    0.008113   0.129790   0.004053   8.496510   0.136051   0.231502
    29  H   -0.000725  -0.007276  -0.000119   0.136051   0.282219  -0.004968
    30  H   -0.000330  -0.004292  -0.000279   0.231502  -0.004968   0.356202
 Mulliken charges:
               1
     1  O   -0.650459
     2  C    0.077750
     3  C    0.132026
     4  C    0.145903
     5  C    0.340058
     6  C    0.136034
     7  H    0.139346
     8  H    0.134616
     9  H    0.123955
    10  C   -0.086174
    11  H    0.164864
    12  H    0.155027
    13  H    0.141097
    14  O   -0.618249
    15  H    0.403538
    16  O   -0.653924
    17  H    0.407606
    18  O   -0.647472
    19  H    0.406989
    20  O   -0.668678
    21  H    0.411048
    22  H    0.115791
    23  O   -0.678399
    24  O   -0.834273
    25  H    0.460990
    26  H    0.461515
    27  H    0.403572
    28  O   -0.820475
    29  H    0.483444
    30  H    0.412937
 Sum of Mulliken charges =  -0.00000
 Mulliken charges with hydrogens summed into heavy atoms:
               1
     1  O   -0.650459
     2  C    0.201704
     3  C    0.273123
     4  C    0.285248
     5  C    0.455848
     6  C    0.270650
    10  C    0.233716
    14  O   -0.214710
    16  O   -0.246318
    18  O   -0.240483
    20  O   -0.257629
    23  O   -0.678399
    24  O    0.030289
    28  O    0.537420
 APT charges:
               1
     1  O   -0.393825
     2  C   -0.144139
     3  C   -0.344738
     4  C   -0.196927
     5  C   -0.175683
     6  C   -0.267849
     7  H    0.344134
     8  H    0.389820
     9  H    0.300257
    10  C   -0.567018
    11  H    0.315931
    12  H    0.449333
    13  H    0.451905
    14  O   -0.865122
    15  H    0.742728
    16  O   -0.619316
    17  H    0.528517
    18  O   -0.789925
    19  H    0.682345
    20  O   -0.809015
    21  H    0.621983
    22  H    0.283787
    23  O   -0.404743
    24  O   -1.356990
    25  H    0.324248
    26  H    0.404701
    27  H    1.016843
    28  O   -1.083815
    29  H    0.397027
    30  H    0.765547
 Sum of APT charges =  -0.00000
 APT charges with hydrogens summed into heavy atoms:
               1
     1  O   -0.393825
     2  C    0.156118
     3  C    0.107167
     4  C    0.147206
     5  C    0.108104
     6  C    0.121970
    10  C    0.198247
    14  O   -0.122394
    16  O   -0.090799
    18  O   -0.107579
    20  O   -0.187032
    23  O   -0.404743
    24  O   -0.015899
    28  O    0.483460
 Electronic spatial extent (au):  <R**2>=           3294.2960
 Charge=              0.0000 electrons
 Dipole moment (field-independent basis, Debye):
    X=             -3.2473    Y=              5.1074    Z=              1.8266  Tot=              6.3219
 Quadrupole moment (field-independent basis, Debye-Ang):
   XX=            -70.2503   YY=            -92.9798   ZZ=            -81.4146
   XY=              7.4402   XZ=             -4.8951   YZ=              8.3585
 Traceless Quadrupole moment (field-independent basis, Debye-Ang):
   XX=             11.2979   YY=            -11.4316   ZZ=              0.1337
   XY=              7.4402   XZ=             -4.8951   YZ=              8.3585
 Octapole moment (field-independent basis, Debye-Ang**2):
  XXX=            -98.3173  YYY=             48.4367  ZZZ=             12.5276  XYY=             -4.7511
  XXY=              5.4969  XXZ=             27.3625  XZZ=            -11.2600  YZZ=              9.5621
  YYZ=             15.5053  XYZ=             -0.0585
 Hexadecapole moment (field-independent basis, Debye-Ang**3):
 XXXX=          -1488.4167 YYYY=          -1603.5062 ZZZZ=           -235.4442 XXXY=             53.5406
 XXXZ=            -68.2234 YYYX=            102.7787 YYYZ=             85.7283 ZZZX=            -37.6742
 ZZZY=             15.6211 XXYY=           -605.0923 XXZZ=           -362.6999 YYZZ=           -296.0010
 XXYZ=             28.2548 YYXZ=             29.6799 ZZXY=             -2.0330
 N-N= 1.103576624790D+03 E-N=-4.179856109012D+03  KE= 8.328142206573D+02
  Exact polarizability:   0.000   0.000   0.000   0.000   0.000   0.000
 Approx polarizability: 151.188   6.900 132.377   1.345   4.362 121.776
 Calling FoFJK, ICntrl=    100147 FMM=F ISym2X=0 I1Cent= 0 IOpClX= 0 NMat=1 NMatS=1 NMatT=0.
 ***** Axes restored to original set *****
 -------------------------------------------------------------------
 Center     Atomic                   Forces (Hartrees/Bohr)
 Number     Number              X              Y              Z
 -------------------------------------------------------------------
      1        8          -0.000177885   -0.000178051    0.000036885
      2        6           0.000016600   -0.000000067   -0.000005963
      3        6          -0.000017178   -0.000079650    0.000070635
      4        6           0.000003776   -0.000004533    0.000006079
      5        6          -0.000090603   -0.000000684    0.000014325
      6        6           0.000186277    0.000116942    0.000030871
      7        1           0.000001566    0.000001147   -0.000010558
      8        1          -0.000011554   -0.000009308   -0.000050623
      9        1          -0.000012763   -0.000002865   -0.000009124
     10        6          -0.000000492    0.000016729   -0.000028717
     11        1           0.000019548   -0.000005305    0.000028672
     12        1          -0.000027224   -0.000008451   -0.000009625
     13        1           0.000002770   -0.000041442   -0.000015957
     14        8          -0.000023432   -0.000017916    0.000042931
     15        1          -0.000040532   -0.000030201   -0.000005299
     16        8          -0.000000641    0.000089271   -0.000015119
     17        1           0.000022574    0.000000450    0.000004835
     18        8          -0.000049881   -0.000037922    0.000010378
     19        1           0.000042381    0.000030579    0.000016668
     20        8           0.000017348    0.000006969   -0.000033772
     21        1          -0.000007474    0.000008259   -0.000017993
     22        1           0.000004098    0.000012107    0.000009399
     23        8           0.000094046    0.000056618   -0.000044811
     24        8           0.000160743   -0.000018852   -0.000132043
     25        1           0.000032078    0.000083342   -0.000078655
     26        1          -0.000002134    0.000011113   -0.000040567
     27        1          -0.000140926   -0.000112803    0.000145650
     28        8          -0.000145086    0.000161025    0.000504071
     29        1          -0.000002690   -0.000022968    0.000043099
     30        1           0.000146689   -0.000023534   -0.000465672
 -------------------------------------------------------------------
 Cartesian Forces:  Max     0.000504071 RMS     0.000096373

 GradGradGradGradGradGradGradGradGradGradGradGradGradGradGradGradGradGrad
 Berny optimization.
 Search for a saddle point.
 Step number   1 out of a maximum of  180
 All quantities printed in internal units (Hartrees-Bohrs-Radians)
 Swapping is turned off.
 Second derivative matrix not updated -- analytic derivatives used.
 ITU=  0
     Eigenvalues ---   -0.08119   0.00029   0.00052   0.00088   0.00176
     Eigenvalues ---    0.00223   0.00309   0.00427   0.00533   0.00671
     Eigenvalues ---    0.00854   0.00930   0.01078   0.01221   0.01363
     Eigenvalues ---    0.01467   0.01691   0.01814   0.02089   0.02331
     Eigenvalues ---    0.02537   0.02874   0.02967   0.03209   0.03558
     Eigenvalues ---    0.03948   0.04241   0.04673   0.05162   0.05642
     Eigenvalues ---    0.05884   0.06299   0.06541   0.06871   0.07392
     Eigenvalues ---    0.07839   0.08208   0.08844   0.09153   0.09473
     Eigenvalues ---    0.10288   0.10706   0.11765   0.13384   0.13521
     Eigenvalues ---    0.14351   0.14832   0.15174   0.15572   0.17552
     Eigenvalues ---    0.18709   0.19757   0.20434   0.21390   0.22328
     Eigenvalues ---    0.23167   0.25462   0.29543   0.30677   0.33344
     Eigenvalues ---    0.35889   0.38751   0.43494   0.51896   0.57371
     Eigenvalues ---    0.60485   0.63727   0.65868   0.67238   0.70822
     Eigenvalues ---    0.72197   0.75968   0.78469   0.80147   0.82434
     Eigenvalues ---    0.87411   0.92054   0.94695   1.00593   1.01252
     Eigenvalues ---    1.01776   1.04434   1.05293   1.10904
 Eigenvectors required to have negative eigenvalues:
                          X29       Z26       X25       Y26       X26
   1                    0.50446   0.37606  -0.36387   0.30566   0.22104
                          Y5        Y25       Y29       Y1        Y23
   1                   -0.21671   0.20623  -0.19674   0.17580  -0.13736
 RFO step:  Lambda0=6.052123178D-09 Lambda=-1.09232088D-05.
 Linear search not attempted -- option 19 set.
 B after Tr=    -0.000328    0.000865   -0.000267
         Rot=    1.000000   -0.000003    0.000030    0.000033 Ang=  -0.01 deg.
 Variable       Old X    -DE/DX   Delta X   Delta X   Delta X     New X
                                 (Linear)    (Quad)   (Total)
    X1       -1.18351  -0.00018   0.00000  -0.00057  -0.00092  -1.18443
    Y1        0.61165  -0.00018   0.00000  -0.00153  -0.00059   0.61106
    Z1        1.06427   0.00004   0.00000  -0.00473  -0.00506   1.05921
    X2        3.14957   0.00002   0.00000   0.00019  -0.00009   3.14949
    Y2        0.34667  -0.00000   0.00000  -0.00104  -0.00038   0.34629
    Z2       -0.46353  -0.00001   0.00000  -0.00340  -0.00348  -0.46700
    X3        0.47406  -0.00002   0.00000  -0.00069  -0.00123   0.47283
    Y3       -3.64841  -0.00008   0.00000  -0.00119  -0.00036  -3.64877
    Z3       -0.38395   0.00007   0.00000   0.00703   0.00677  -0.37718
    X4        2.98667   0.00000   0.00000   0.00239   0.00188   2.98854
    Y4       -2.40899  -0.00000   0.00000  -0.00095  -0.00029  -2.40928
    Z4        0.39179   0.00001   0.00000  -0.00210  -0.00220   0.38959
    X5       -1.66223  -0.00009   0.00000   0.00375   0.00337  -1.65886
    Y5       -1.75705  -0.00000   0.00000  -0.00033   0.00065  -1.75640
    Z5       -0.96657   0.00001   0.00000  -0.00506  -0.00543  -0.97200
    X6        1.14500   0.00019   0.00000   0.00063   0.00038   1.14539
    Y6        1.97911   0.00012   0.00000  -0.00176  -0.00097   1.97814
    Z6        0.86665   0.00003   0.00000  -0.00165  -0.00184   0.86480
    X7        3.07836   0.00000   0.00000   0.00926   0.00863   3.08699
    Y7       -2.45605   0.00000   0.00000   0.00016   0.00081  -2.45525
    Z7        2.46945  -0.00001   0.00000  -0.00242  -0.00252   2.46693
    X8        1.83212  -0.00001   0.00000  -0.00028  -0.00062   1.83149
    Y8        2.31037  -0.00001   0.00000  -0.00449  -0.00376   2.30661
    Z8        2.80081  -0.00005   0.00000  -0.00103  -0.00118   2.79964
    X9        2.87661  -0.00001   0.00000  -0.00268  -0.00283   2.87378
    Y9        0.42097  -0.00000   0.00000  -0.00194  -0.00125   0.41972
    Z9       -2.52701  -0.00001   0.00000  -0.00304  -0.00313  -2.53014
   X10        0.76140  -0.00000   0.00000   0.00078   0.00077   0.76218
   Y10        4.52818   0.00002   0.00000  -0.00011   0.00071   4.52889
   Z10       -0.46814  -0.00003   0.00000   0.00197   0.00178  -0.46636
   X11        0.12298   0.00002   0.00000   0.00741   0.00751   0.13049
   Y11        4.21746  -0.00001   0.00000   0.00269   0.00357   4.22102
   Z11       -2.41155   0.00003   0.00000  -0.00055  -0.00079  -2.41234
   X12       -0.68815  -0.00003   0.00000  -0.00409  -0.00407  -0.69223
   Y12        5.65535  -0.00001   0.00000  -0.00434  -0.00344   5.65191
   Z12        0.49827  -0.00001   0.00000  -0.00024  -0.00052   0.49775
   X13        0.82824   0.00000   0.00000  -0.00370  -0.00420   0.82403
   Y13       -4.66349  -0.00004   0.00000  -0.01565  -0.01482  -4.67832
   Z13       -2.17292  -0.00002   0.00000   0.01458   0.01434  -2.15859
   X14        3.09493  -0.00002   0.00000  -0.00074  -0.00065   3.09428
   Y14        5.89330  -0.00002   0.00000   0.00343   0.00409   5.89739
   Z14       -0.66467   0.00004   0.00000   0.01196   0.01191  -0.65276
   X15        3.46864  -0.00004   0.00000  -0.00408  -0.00404   3.46460
   Y15        6.59952  -0.00003   0.00000  -0.00496  -0.00433   6.59518
   Z15        0.98616  -0.00001   0.00000   0.01628   0.01626   1.00241
   X16       -0.33419  -0.00000   0.00000  -0.00472  -0.00549  -0.33969
   Y16       -5.32218   0.00009   0.00000   0.01582   0.01670  -5.30548
   Z16        1.52228  -0.00002   0.00000   0.02027   0.01995   1.54223
   X17       -2.17908   0.00002   0.00000  -0.00420  -0.00496  -2.18404
   Y17       -5.28418   0.00000   0.00000   0.01183   0.01283  -5.27135
   Z17        1.38972   0.00000   0.00000   0.01350   0.01307   1.40279
   X18        5.00529  -0.00005   0.00000  -0.00106  -0.00160   5.00369
   Y18       -3.80474  -0.00004   0.00000  -0.00164  -0.00110  -3.80584
   Z18       -0.68695   0.00001   0.00000  -0.00780  -0.00779  -0.69475
   X19        6.50892   0.00004   0.00000   0.00053   0.00004   6.50897
   Y19       -2.78314   0.00003   0.00000  -0.00319  -0.00275  -2.78589
   Z19       -0.41337   0.00002   0.00000  -0.01016  -0.01005  -0.42342
   X20        5.62130   0.00002   0.00000   0.00053   0.00027   5.62158
   Y20        1.22155   0.00001   0.00000   0.00042   0.00091   1.22246
   Z20        0.14453  -0.00003   0.00000  -0.00727  -0.00720   0.13733
   X21        5.71450  -0.00001   0.00000  -0.00251  -0.00261   5.71188
   Y21        2.93985   0.00001   0.00000   0.00204   0.00253   2.94238
   Z21       -0.51098  -0.00002   0.00000  -0.00364  -0.00355  -0.51453
   X22       -1.38340   0.00000   0.00000   0.01218   0.01197  -1.37143
   Y22       -0.73946   0.00001   0.00000  -0.00265  -0.00168  -0.74114
   Z22       -2.76183   0.00001   0.00000  -0.00514  -0.00550  -2.76733
   X23       -3.90510   0.00009   0.00000   0.00118   0.00071  -3.90439
   Y23       -2.64794   0.00006   0.00000   0.00273   0.00386  -2.64408
   Z23       -0.53069  -0.00004   0.00000  -0.01305  -0.01357  -0.54426
   X24       -7.13083   0.00016   0.00000  -0.00430  -0.00450  -7.13533
   Y24        0.45443  -0.00002   0.00000   0.00187   0.00321   0.45764
   Z24       -1.65282  -0.00013   0.00000  -0.00297  -0.00366  -1.65649
   X25       -5.77602   0.00003   0.00000   0.00265   0.00233  -5.77368
   Y25       -1.11061   0.00008   0.00000   0.00685   0.00810  -1.10251
   Z25       -1.33221  -0.00008   0.00000  -0.01262  -0.01324  -1.34544
   X26       -6.30504  -0.00000   0.00000   0.00163   0.00142  -6.30362
   Y26        1.90664   0.00001   0.00000   0.00196   0.00324   1.90988
   Z26        0.13154  -0.00004   0.00000  -0.00429  -0.00493   0.12661
   X27       -8.81152  -0.00014   0.00000   0.00313   0.00287  -8.80865
   Y27       -0.19444  -0.00011   0.00000  -0.00788  -0.00643  -0.20087
   Z27       -1.31872   0.00015   0.00000   0.01854   0.01775  -1.30097
   X28       -5.10232  -0.00015   0.00000  -0.00092  -0.00116  -5.10348
   Y28        2.91909   0.00016   0.00000  -0.00240  -0.00121   2.91788
   Z28        1.62903   0.00050   0.00000   0.00158   0.00102   1.63005
   X29       -3.16045  -0.00000   0.00000  -0.00069  -0.00098  -3.16143
   Y29        1.84584  -0.00002   0.00000  -0.00146  -0.00039   1.84545
   Z29        1.43152   0.00004   0.00000  -0.00238  -0.00282   1.42870
   X30       -5.77810   0.00015   0.00000  -0.00184  -0.00220  -5.78030
   Y30        2.49700  -0.00002   0.00000  -0.01867  -0.01745   2.47956
   Z30        3.28385  -0.00047   0.00000  -0.00381  -0.00441   3.27944
         Item               Value     Threshold  Converged?
 Maximum Force            0.000504     0.000450     NO 
 RMS     Force            0.000096     0.000300     YES
 Maximum Displacement     0.019953     0.001800     NO 
 RMS     Displacement     0.006658     0.001200     NO 
 Predicted change in Energy=-5.480123D-06
 GradGradGradGradGradGradGradGradGradGradGradGradGradGradGradGradGradGrad

                          Input orientation:                          
 ---------------------------------------------------------------------
 Center     Atomic      Atomic             Coordinates (Angstroms)
 Number     Number       Type             X           Y           Z
 ---------------------------------------------------------------------
      1          8           0       -0.626774    0.323359    0.560511
      2          6           0        1.666637    0.183249   -0.247128
      3          6           0        0.250209   -1.930846   -0.199594
      4          6           0        1.581470   -1.274934    0.206165
      5          6           0       -0.877831   -0.929445   -0.514360
      6          6           0        0.606112    1.046787    0.457635
      7          1           0        1.633564   -1.299260    1.305444
      8          1           0        0.969185    1.220604    1.481505
      9          1           0        1.520740    0.222109   -1.338894
     10          6           0        0.403328    2.396587   -0.246789
     11          1           0        0.069053    2.233669   -1.276553
     12          1           0       -0.366311    2.990862    0.263397
     13          1           0        0.436060   -2.475659   -1.142275
     14          8           0        1.637424    3.120767   -0.345426
     15          1           0        1.833385    3.490021    0.530455
     16          8           0       -0.179754   -2.807539    0.816115
     17          1           0       -1.155743   -2.789478    0.742324
     18          8           0        2.647840   -2.013966   -0.367644
     19          1           0        3.444396   -1.474228   -0.224066
     20          8           0        2.974810    0.646898    0.072673
     21          1           0        3.022599    1.557042   -0.272277
     22          1           0       -0.725728   -0.392195   -1.464405
     23          8           0       -2.066115   -1.399188   -0.288012
     24          8           0       -3.775854    0.242173   -0.876575
     25          1           0       -3.055302   -0.583424   -0.711977
     26          1           0       -3.335734    1.010666    0.067001
     27          1           0       -4.661337   -0.106296   -0.688444
     28          8           0       -2.700647    1.544074    0.862587
     29          1           0       -1.672957    0.976571    0.756036
     30          1           0       -3.058802    1.312124    1.735404
 ---------------------------------------------------------------------
                    Distance matrix (angstroms):
                    1          2          3          4          5
     1  O    0.000000
     2  C    2.435497   0.000000
     3  C    2.535409   2.545177   0.000000
     4  C    2.748898   1.529388   1.538543   0.000000
     5  C    1.669699   2.789949   1.540895   2.585861   0.000000
     6  C    1.433158   1.538539   3.070003   2.530800   2.655627
     7  H    2.880443   2.146953   2.139559   1.100782   3.123389
     8  H    2.049480   2.133241   3.643440   2.868640   3.466649
     9  H    2.868764   1.102156   2.747265   2.152215   2.785511
    10  C    2.451758   2.548492   4.330398   3.882428   3.574276
    11  H    2.740121   2.795748   4.305327   4.098310   3.388630
    12  H    2.696607   3.503741   4.981733   4.689791   4.029313
    13  H    3.444357   3.063560   1.104541   2.138222   2.123997
    14  O    3.711173   2.939307   5.240651   4.430527   4.770667
    15  H    4.010117   3.401055   5.694314   4.782616   5.289046
    16  O    3.172961   3.672119   1.408944   2.413053   2.405143
    17  H    3.162691   4.216866   1.897673   3.173901   2.261905
    18  O    4.128881   2.409365   2.404949   1.418651   3.691621
    19  H    4.518994   2.430677   3.226752   1.922320   4.366086
    20  O    3.648845   1.424275   3.760630   2.377531   4.203844
    21  H    3.941248   1.930433   4.456096   3.213386   4.631909
    22  H    2.149905   2.745234   2.218028   2.982146   1.101979
    23  O    2.399762   4.054531   2.378201   3.683005   1.297656
    24  O    3.462443   5.479086   4.624879   5.672289   3.146813
    25  H    2.887772   4.806306   3.606174   4.777115   2.213632
    26  H    2.838028   5.080060   4.645703   5.424225   3.184854
    27  H    4.245254   6.349949   5.262247   6.413944   3.875925
    28  O    2.425354   4.707067   4.680903   5.168580   3.367037
    29  H    1.248766   3.576113   3.614536   3.995363   2.424671
    30  H    2.876246   5.247339   5.021019   5.528432   3.852624
                    6          7          8          9         10
     6  C    0.000000
     7  H    2.697847   0.000000
     8  H    1.100157   2.611918   0.000000
     9  H    2.178108   3.052837   3.042343   0.000000
    10  C    1.535999   4.193113   2.165671   2.677622   0.000000
    11  H    2.168992   4.647149   3.073015   2.481462   1.094850
    12  H    2.182375   4.846701   2.530050   3.714067   1.098088
    13  H    3.872500   2.968040   4.564078   2.914299   4.953962
    14  O    2.451510   4.718265   2.719345   3.066400   1.434280
    15  H    2.735122   4.855692   2.607985   3.777758   1.960809
    16  O    3.949927   2.408832   4.241314   4.088338   5.343470
    17  H    4.231089   3.212179   4.598094   4.534830   5.504936
    18  O    3.770670   2.082974   4.086524   2.685836   4.950295
    19  H    3.856954   2.376789   4.037049   2.796579   4.922583
    20  O    2.432867   2.665744   2.517236   2.070577   3.126658
    21  H    2.575372   3.546419   2.721295   2.274929   2.750649
    22  H    2.745671   3.749812   3.761946   2.332325   3.245714
    23  O    3.698591   4.029481   4.382642   4.074124   4.528548
    24  O    4.650715   6.033162   5.388253   5.316771   4.743806
    25  H    4.175108   5.154404   4.925685   4.688504   4.589007
    26  H    3.961319   5.618134   4.536213   5.117001   3.999978
    27  H    5.512632   6.710033   6.178359   6.224870   5.666596
    28  O    3.368372   5.202505   3.735687   4.941074   3.404725
    29  H    2.299593   4.051462   2.750777   3.893282   2.707963
    30  H    3.890333   5.387253   4.037019   5.622423   4.134186
                   11         12         13         14         15
    11  H    0.000000
    12  H    1.770404   0.000000
    13  H    4.725515   5.701102   0.000000
    14  O    2.028233   2.098212   5.779120   0.000000
    15  H    2.820739   2.271375   6.351368   0.970524   0.000000
    16  O    5.463967   5.827672   2.079583   6.308417   6.617673
    17  H    5.550495   5.853623   2.486772   6.626913   6.957865
    18  O    5.051600   5.876362   2.388552   5.233251   5.635937
    19  H    5.123395   5.890343   3.300918   4.939014   5.273370
    20  O    3.575148   4.085785   4.203773   2.843139   3.097703
    21  H    3.192151   3.718535   4.869267   2.090286   2.407284
    22  H    2.749932   3.815699   2.407143   4.379213   5.059657
    23  O    4.328256   4.739823   2.854722   5.843756   6.307166
    24  O    4.348488   4.525463   5.019704   6.154023   6.632633
    25  H    4.244567   4.577941   3.994411   5.989746   6.483506
    26  H    3.859203   3.574524   5.276669   5.418018   5.751676
    27  H    5.310169   5.380115   5.639442   7.085618   7.523338
    28  O    3.566889   2.810933   5.478746   4.771175   4.945145
    29  H    2.957416   2.450997   4.468717   4.095048   4.320041
    30  H    4.438987   3.497781   5.902745   5.445694   5.488955
                   16         17         18         19         20
    16  O    0.000000
    17  H    0.978942   0.000000
    18  O    3.166438   4.037411   0.000000
    19  H    3.999270   4.881094   0.972848   0.000000
    20  O    4.736783   5.414664   2.716797   2.192656   0.000000
    21  H    5.521706   6.113935   3.591886   3.060856   0.974494
    22  H    3.366414   3.286569   3.900511   4.483210   4.139602
    23  O    2.600175   1.955320   4.754542   5.511394   5.452292
    24  O    5.009779   4.321658   6.827373   7.450089   6.829081
    25  H    3.943416   3.254227   5.889894   6.578577   6.204162
    26  H    5.009997   4.432777   6.718666   7.227004   6.321022
    27  H    5.444722   4.640663   7.560832   8.233456   7.710859
    28  O    5.029274   4.602268   6.540598   6.931992   5.799974
    29  H    4.068508   3.801424   5.373570   5.757979   4.709290
    30  H    5.109368   4.629361   6.931915   7.341313   6.293781
                   21         22         23         24         25
    21  H    0.000000
    22  H    4.389835   0.000000
    23  O    5.885113   2.048066   0.000000
    24  O    6.950758   3.170369   2.442065   0.000000
    25  H    6.458778   2.455531   1.350447   1.108106   0.000000
    26  H    6.390777   3.335469   2.746881   1.294072   1.796265
    27  H    7.872913   4.021551   2.926959   0.970002   1.675575
    28  O    5.834692   3.614462   3.223243   2.423985   2.670445
    29  H    4.841758   2.775090   2.624660   2.761691   2.549416
    30  H    6.408916   4.311232   3.525741   2.912284   3.095608
                   26         27         28         29         30
    26  H    0.000000
    27  H    1.890906   0.000000
    28  O    1.149268   2.995618   0.000000
    29  H    1.800210   3.491352   1.178795   0.000000
    30  H    1.717888   3.233431   0.971538   1.729833   0.000000
 Stoichiometry    C6H16O8
 Framework group  C1[X(C6H16O8)]
 Deg. of freedom    84
 Full point group                 C1      NOp   1
 Largest Abelian subgroup         C1      NOp   1
 Largest concise Abelian subgroup C1      NOp   1
                         Standard orientation:                         
 ---------------------------------------------------------------------
 Center     Atomic      Atomic             Coordinates (Angstroms)
 Number     Number       Type             X           Y           Z
 ---------------------------------------------------------------------
      1          8           0       -0.626482    0.322513    0.560751
      2          6           0        1.666937    0.182529   -0.246888
      3          6           0        0.250625   -1.931644   -0.199353
      4          6           0        1.581849   -1.275659    0.206405
      5          6           0       -0.877470   -0.930305   -0.514119
      6          6           0        0.606364    1.046009    0.457876
      7          1           0        1.633945   -1.299982    1.305685
      8          1           0        0.969429    1.219846    1.481746
      9          1           0        1.521038    0.221380   -1.338653
     10          6           0        0.403507    2.395797   -0.246548
     11          1           0        0.069241    2.232861   -1.276312
     12          1           0       -0.366165    2.990030    0.263637
     13          1           0        0.436506   -2.476446   -1.142035
     14          8           0        1.637563    3.120045   -0.345185
     15          1           0        1.833504    3.489309    0.530696
     16          8           0       -0.179291   -2.808361    0.816355
     17          1           0       -1.155281   -2.790353    0.742565
     18          8           0        2.648260   -2.014633   -0.367403
     19          1           0        3.444787   -1.474852   -0.223825
     20          8           0        2.975085    0.646249    0.072914
     21          1           0        3.022824    1.556396   -0.272036
     22          1           0       -0.725397   -0.393046   -1.464165
     23          8           0       -2.065729   -1.400112   -0.287771
     24          8           0       -3.775558    0.241155   -0.876335
     25          1           0       -3.054960   -0.584402   -0.711736
     26          1           0       -3.335479    1.009672    0.067242
     27          1           0       -4.661021   -0.107362   -0.688203
     28          8           0       -2.700421    1.543115    0.862828
     29          1           0       -1.672701    0.975668    0.756277
     30          1           0       -3.058564    1.311146    1.735645
 ---------------------------------------------------------------------
 Rotational constants (GHZ):      0.7169896      0.5300863      0.3328473
 Standard basis: 6-31G(d) (6D, 7F)
 There are   242 symmetry adapted cartesian basis functions of A   symmetry.
 There are   242 symmetry adapted basis functions of A   symmetry.
   242 basis functions,   456 primitive gaussians,   242 cartesian basis functions
    58 alpha electrons       58 beta electrons
       nuclear repulsion energy      1103.5936058157 Hartrees.
 NAtoms=   30 NActive=   30 NUniq=   30 SFac= 1.00D+00 NAtFMM=   60 NAOKFM=F Big=F
 Integral buffers will be    131072 words long.
 Raffenetti 2 integral format.
 Two-electron integral symmetry is turned on.
 One-electron integrals computed using PRISM.
 NBasis=   242 RedAO= T EigKep=  1.36D-03  NBF=   242
 NBsUse=   242 1.00D-06 EigRej= -1.00D+00 NBFU=   242
 Initial guess from the checkpoint file:  "/scratch/10453029.yak.local/Gau-2349.chk"
 B after Tr=    -0.000000   -0.000000    0.000000
         Rot=    1.000000   -0.000004    0.000056    0.000032 Ang=  -0.01 deg.
 Requested convergence on RMS density matrix=1.00D-08 within 128 cycles.
 Requested convergence on MAX density matrix=1.00D-06.
 Requested convergence on             energy=1.00D-06.
 No special actions if energy rises.
 SCF Done:  E(RB3LYP) =  -839.961546079     A.U. after    8 cycles
            NFock=  8  Conv=0.92D-08     -V/T= 2.0086
 Calling FoFJK, ICntrl=      2127 FMM=F ISym2X=0 I1Cent= 0 IOpClX= 0 NMat=1 NMatS=1 NMatT=0.
 ***** Axes restored to original set *****
 -------------------------------------------------------------------
 Center     Atomic                   Forces (Hartrees/Bohr)
 Number     Number              X              Y              Z
 -------------------------------------------------------------------
      1        8           0.000000462   -0.000000928   -0.000003166
      2        6           0.000000266    0.000001153    0.000001933
      3        6           0.000000378   -0.000016949   -0.000000001
      4        6          -0.000000464   -0.000004659    0.000005305
      5        6          -0.000002809   -0.000008320    0.000001184
      6        6           0.000000218    0.000001545    0.000000315
      7        1          -0.000000037    0.000000415   -0.000002753
      8        1          -0.000001459    0.000000217   -0.000000471
      9        1           0.000001083    0.000000149    0.000001823
     10        6          -0.000000830    0.000002936   -0.000002811
     11        1           0.000001720    0.000001361    0.000004167
     12        1           0.000002042   -0.000001451   -0.000003153
     13        1          -0.000003110    0.000009307    0.000021439
     14        8          -0.000004638    0.000002381    0.000012853
     15        1          -0.000004317   -0.000004769   -0.000011729
     16        8           0.000000374    0.000023549   -0.000024646
     17        1           0.000007628   -0.000001244    0.000002513
     18        8          -0.000000366    0.000003230    0.000005909
     19        1          -0.000001045    0.000000576    0.000001665
     20        8          -0.000001885    0.000005441    0.000001818
     21        1          -0.000000176   -0.000002056    0.000002536
     22        1          -0.000000426   -0.000003872    0.000005365
     23        8           0.000007548    0.000002897   -0.000004298
     24        8          -0.000068081   -0.000035385    0.000017626
     25        1          -0.000003399    0.000000104   -0.000002487
     26        1          -0.000001641    0.000000499   -0.000002731
     27        1           0.000077209    0.000027209   -0.000020357
     28        8          -0.000014980   -0.000009184    0.000030175
     29        1          -0.000001945    0.000001136   -0.000000484
     30        1           0.000012679    0.000004712   -0.000037538
 -------------------------------------------------------------------
 Cartesian Forces:  Max     0.000077209 RMS     0.000014546

 GradGradGradGradGradGradGradGradGradGradGradGradGradGradGradGradGradGrad
 Berny optimization.
 Search for a saddle point.
 Step number   2 out of a maximum of  180
 All quantities printed in internal units (Hartrees-Bohrs-Radians)
 Swapping is turned off.
 Update second derivatives using D2CorN and points    1    2
 ITU=  0  0
     Eigenvalues ---   -0.08119   0.00029   0.00052   0.00088   0.00176
     Eigenvalues ---    0.00223   0.00309   0.00427   0.00533   0.00671
     Eigenvalues ---    0.00854   0.00930   0.01078   0.01221   0.01363
     Eigenvalues ---    0.01467   0.01691   0.01814   0.02089   0.02332
     Eigenvalues ---    0.02537   0.02874   0.02968   0.03209   0.03557
     Eigenvalues ---    0.03948   0.04241   0.04672   0.05162   0.05642
     Eigenvalues ---    0.05884   0.06299   0.06542   0.06871   0.07391
     Eigenvalues ---    0.07839   0.08207   0.08843   0.09153   0.09474
     Eigenvalues ---    0.10288   0.10706   0.11765   0.13386   0.13522
     Eigenvalues ---    0.14350   0.14832   0.15173   0.15572   0.17552
     Eigenvalues ---    0.18709   0.19757   0.20435   0.21393   0.22327
     Eigenvalues ---    0.23169   0.25461   0.29546   0.30678   0.33344
     Eigenvalues ---    0.35888   0.38748   0.43493   0.51897   0.57372
     Eigenvalues ---    0.60482   0.63730   0.65869   0.67235   0.70823
     Eigenvalues ---    0.72193   0.75967   0.78468   0.80147   0.82435
     Eigenvalues ---    0.87409   0.92055   0.94703   1.00586   1.01251
     Eigenvalues ---    1.01764   1.04430   1.05297   1.10904
 Eigenvectors required to have negative eigenvalues:
                          X29       Z26       X25       Y26       X26
   1                    0.50444   0.37603  -0.36386   0.30567   0.22103
                          Y5        Y25       Y29       Y1        Y23
   1                   -0.21672   0.20626  -0.19674   0.17580  -0.13734
 RFO step:  Lambda0=2.647860403D-11 Lambda=-3.61203073D-08.
 Linear search not attempted -- option 19 set.
 B after Tr=    -0.000002    0.000031    0.000028
         Rot=    1.000000    0.000003   -0.000005    0.000001 Ang=   0.00 deg.
 Variable       Old X    -DE/DX   Delta X   Delta X   Delta X     New X
                                 (Linear)    (Quad)   (Total)
    X1       -1.18443   0.00000   0.00000  -0.00001   0.00000  -1.18443
    Y1        0.61106  -0.00000   0.00000   0.00006   0.00010   0.61116
    Z1        1.05921  -0.00000   0.00000  -0.00014  -0.00010   1.05911
    X2        3.14949   0.00000   0.00000  -0.00003  -0.00004   3.14945
    Y2        0.34629   0.00000   0.00000  -0.00001   0.00001   0.34631
    Z2       -0.46700   0.00000   0.00000  -0.00011  -0.00011  -0.46712
    X3        0.47283   0.00000   0.00000  -0.00009  -0.00010   0.47273
    Y3       -3.64877  -0.00002   0.00000   0.00002   0.00004  -3.64873
    Z3       -0.37718  -0.00000   0.00000   0.00030   0.00034  -0.37684
    X4        2.98854  -0.00000   0.00000   0.00001   0.00000   2.98855
    Y4       -2.40928  -0.00000   0.00000   0.00001   0.00004  -2.40924
    Z4        0.38959   0.00001   0.00000  -0.00002  -0.00001   0.38958
    X5       -1.65886  -0.00000   0.00000  -0.00002  -0.00003  -1.65889
    Y5       -1.75640  -0.00001   0.00000  -0.00003   0.00000  -1.75640
    Z5       -0.97200   0.00000   0.00000   0.00007   0.00012  -0.97188
    X6        1.14539   0.00000   0.00000  -0.00001   0.00000   1.14539
    Y6        1.97814   0.00000   0.00000   0.00003   0.00007   1.97821
    Z6        0.86480   0.00000   0.00000  -0.00012  -0.00012   0.86469
    X7        3.08699  -0.00000   0.00000   0.00025   0.00027   3.08726
    Y7       -2.45525   0.00000   0.00000   0.00007   0.00010  -2.45514
    Z7        2.46693  -0.00000   0.00000  -0.00004  -0.00004   2.46690
    X8        1.83149  -0.00000   0.00000  -0.00001   0.00002   1.83152
    Y8        2.30661   0.00000   0.00000   0.00006   0.00010   2.30671
    Z8        2.79964  -0.00000   0.00000  -0.00013  -0.00013   2.79951
    X9        2.87378   0.00000   0.00000  -0.00009  -0.00012   2.87366
    Y9        0.41972   0.00000   0.00000  -0.00008  -0.00007   0.41965
    Z9       -2.53014   0.00000   0.00000  -0.00010  -0.00010  -2.53025
   X10        0.76218  -0.00000   0.00000  -0.00002  -0.00002   0.76216
   Y10        4.52889   0.00000   0.00000   0.00001   0.00004   4.52893
   Z10       -0.46636  -0.00000   0.00000  -0.00015  -0.00016  -0.46652
   X11        0.13049   0.00000   0.00000  -0.00001  -0.00002   0.13047
   Y11        4.22102   0.00000   0.00000  -0.00001   0.00001   4.22103
   Z11       -2.41234   0.00000   0.00000  -0.00014  -0.00013  -2.41247
   X12       -0.69223   0.00000   0.00000  -0.00004  -0.00002  -0.69225
   Y12        5.65191  -0.00000   0.00000  -0.00001   0.00003   5.65194
   Z12        0.49775  -0.00000   0.00000  -0.00017  -0.00016   0.49759
   X13        0.82403  -0.00000   0.00000  -0.00022  -0.00025   0.82378
   Y13       -4.67832   0.00001   0.00000  -0.00031  -0.00030  -4.67861
   Z13       -2.15859   0.00002   0.00000   0.00054   0.00058  -2.15800
   X14        3.09428  -0.00000   0.00000  -0.00006  -0.00006   3.09423
   Y14        5.89739   0.00000   0.00000   0.00003   0.00005   5.89745
   Z14       -0.65276   0.00001   0.00000  -0.00015  -0.00018  -0.65294
   X15        3.46460  -0.00000   0.00000  -0.00005  -0.00003   3.46457
   Y15        6.59518  -0.00000   0.00000  -0.00001   0.00002   6.59520
   Z15        1.00241  -0.00001   0.00000  -0.00016  -0.00021   1.00221
   X16       -0.33969   0.00000   0.00000  -0.00008  -0.00008  -0.33977
   Y16       -5.30548   0.00002   0.00000   0.00048   0.00052  -5.30496
[...]
 00017685,-0.00026844,0.00002461,0.00308910,-0.00013732,-0.00001175,-0.
 00219580,0.00286552,-0.00216599,0.00137199,0.00044224,-0.00003270,0.00
 010616,-0.00021191,0.00001123,0.00031334,0.00103601,0.00023074,0.00019
 324,-0.00035355,-0.00000066,0.00166844,0.00219957,-0.00179959,0.067479
 18,-0.01860523,0.01242572,0.09452294,0.25934669,-0.00671177,0.00454062
 ,0.00328070,0.00020532,-0.00030884,-0.00049529,-0.00087181,-0.00079439
 ,-0.00025186,0.00027661,-0.00008065,-0.00011455,-0.00186404,-0.0000208
 7,-0.00313823,0.00129605,0.00146787,0.00033259,-0.00001331,-0.00003659
 ,0.00005539,0.00001643,-0.00013181,0.00001805,-0.00005340,0.00003820,0
 .00016251,0.00066537,-0.00015674,-0.00085337,-0.00011341,0.00006015,0.
 00017902,0.00006519,0.00053303,0.00002680,-0.00009290,0.00019320,0.000
 10749,-0.00072982,-0.00039817,0.00036580,0.00018053,0.00012167,0.00000
 064,-0.00001743,0.00021542,0.00031099,0.00011549,-0.00035123,-0.000060
 16,-0.00046823,0.00031012,0.00017891,0.00008453,-0.00007893,-0.0000302
 3,-0.00069399,0.00013525,0.00025973,0.00020082,-0.00002523,-0.00013983
 ,-0.00084308,0.00026959,0.00068907,-0.00762287,0.00688587,0.01035385,-
 0.04627898,-0.02814083,0.11759670,-0.00028306,0.01443282,0.00741276,-0
 .00084407,-0.00097955,-0.00042458,0.00379259,0.00044045,0.00340193,-0.
 00170571,-0.00135448,0.00009214,-0.04576773,-0.02045861,-0.00357361,-0
 .00283329,-0.00021747,0.00148044,0.00031285,0.00019506,0.00015749,0.00
 099244,0.00079522,0.00008223,-0.00003055,-0.00001387,0.00026731,0.0010
 0687,-0.00129958,0.00026351,0.00011196,-0.00019908,-0.00002018,-0.0000
 3059,0.00050817,0.00024303,0.00001649,0.00028582,-0.00026818,-0.000013
 32,0.00158437,-0.00041595,0.00006796,-0.00048795,0.00000885,0.00571564
 ,-0.00167404,0.00068666,-0.00362455,0.00562150,-0.00399097,0.00209684,
 0.00001018,-0.00018463,-0.00003278,-0.00006879,0.00000550,0.00131260,0
 .00113384,0.00016433,-0.00004338,-0.00041141,0.00010803,0.00297040,0.0
 0309758,-0.00259135,0.02576399,-0.02193546,0.01237626,-0.07050375,-0.0
 0727490,-0.01051909,0.08073516,0.00071548,-0.01306543,-0.00636521,0.00
 058984,0.00104991,0.00042991,-0.00531535,-0.00201273,-0.00063081,0.001
 41167,0.00179000,0.00005539,0.01810079,0.03198128,-0.00529274,0.001529
 13,-0.00056120,-0.00138572,-0.00031062,-0.00021256,-0.00019499,-0.0007
 1016,-0.00060496,-0.00000095,0.00000332,0.00000725,-0.00019369,-0.0010
 8229,0.00091063,-0.00036743,-0.00015435,0.00012888,0.00014055,0.000025
 34,-0.00050305,-0.00022759,-0.00024951,0.00000417,0.00009038,0.0003477
 4,-0.00110672,0.00037333,-0.00006773,0.00036209,-0.00001989,-0.0031256
 6,0.00059452,0.00000183,0.00240520,-0.00360614,0.00216583,-0.00183914,
 -0.00027935,0.00008853,-0.00006300,0.00015813,-0.00001234,-0.00077605,
 -0.00107254,-0.00016466,-0.00007175,0.00036769,-0.00006804,-0.00344625
 ,-0.00332552,0.00248316,-0.03505087,-0.02329406,0.00017787,0.04019832,
 -0.09812923,0.01465897,0.00680348,0.10640413,0.00089207,0.00454542,0.0
 0154636,-0.00026471,-0.00027360,0.00013805,0.00324575,0.00286748,0.001
 91847,-0.00034990,-0.00094422,0.00022500,-0.00461481,-0.01167877,0.001
 62586,-0.00123665,-0.00051762,0.00050996,0.00016765,0.00013862,0.00006
 089,0.00032790,0.00029182,-0.00000609,0.00002739,-0.00000152,-0.000061
 73,0.00031428,-0.00036080,0.00039296,0.00005505,-0.00001702,-0.0000973
 6,-0.00002909,0.00006990,0.00004179,-0.00021864,0.00013569,-0.00019885
 ,0.00007566,0.00053288,-0.00025852,-0.00002166,-0.00016485,0.00000254,
 0.00057113,-0.00014610,-0.00001659,-0.00064614,0.00057594,-0.00075067,
 0.00085303,-0.00001474,-0.00010953,0.00002079,-0.00005577,0.00001223,0
 .00046342,0.00026475,-0.00009918,-0.00003906,-0.00010221,0.00008292,0.
 00185487,-0.00022490,-0.00085314,0.00634471,0.00457605,-0.02459966,-0.
 01322974,0.01324295,-0.03628232,-0.01052331,0.00561176,0.05389312,0.00
 764075,-0.00610064,-0.00263982,-0.00021555,0.00065756,0.00054139,-0.00
 069300,-0.00015370,-0.00057404,-0.00013634,0.00072132,0.00001616,0.005
 25461,0.00949608,0.00312549,-0.00142635,-0.00202924,-0.00078239,-0.000
 06597,-0.00003153,-0.00008609,-0.00002585,0.00005240,0.00007591,0.0000
 5503,-0.00005261,-0.00014916,-0.00098780,0.00001333,0.00044556,-0.0000
 1181,-0.00001463,0.00004361,-0.00013255,-0.00059146,-0.00008039,0.0001
 4701,-0.00028312,0.00000930,0.00107438,0.00040275,-0.00019853,-0.00016
 905,-0.00009884,-0.00001686,-0.00070352,-0.00044565,-0.00002095,0.0005
 1311,-0.00020174,0.00044646,0.00012717,-0.00049403,-0.00012604,-0.0001
 4650,0.00017267,0.00000410,0.00077310,-0.00038757,-0.00025586,-0.00028
 988,0.00010339,0.00012001,-0.00001737,-0.00074506,0.00005474,-0.013531
 54,0.00188739,-0.00472135,-0.03720607,0.02925870,0.02442318,0.02453431
 ,-0.00737189,0.01409074,0.09588635,0.00848306,-0.01184202,-0.00698879,
 -0.00000336,0.00067090,0.00058507,-0.00068506,-0.00056254,-0.00129489,
 0.00019105,0.00080116,-0.00003772,0.01175732,0.01037209,0.00341909,-0.
 00031680,-0.00121656,-0.00089079,-0.00010908,-0.00005482,-0.00009965,-
 0.00033671,-0.00016481,-0.00000565,0.00005089,-0.00003010,-0.00018454,
 -0.00138716,0.00047044,0.00059291,-0.00000702,0.00005532,-0.00002070,-
 0.00005383,-0.00069547,-0.00028436,0.00017031,-0.00036068,0.00005490,0
 .00101473,-0.00012459,-0.00012700,-0.00022033,0.00004824,-0.00002201,-
 0.00126223,-0.00004888,-0.00016099,0.00085221,-0.00078080,0.00075444,-
 0.00024012,-0.00043567,-0.00007485,-0.00011322,0.00016897,0.00000349,0
 .00037410,-0.00057526,-0.00025476,-0.00026069,0.00020323,0.00008901,-0
 .00015001,-0.00095181,-0.00007173,-0.01608422,0.00435223,-0.00145096,0
 .00863875,-0.00430005,0.01469251,0.01618010,-0.02645580,-0.00734032,-0
 .00807385,0.05708391,0.01294329,-0.01319329,-0.00839544,-0.00010028,0.
 00098703,0.00086322,-0.00081680,-0.00057574,-0.00135935,-0.00003547,0.
 00100025,0.00004683,0.01098874,0.01182465,0.00558892,-0.00142051,-0.00
 262266,-0.00100968,-0.00012536,-0.00004446,-0.00014793,-0.00030941,0.0
 0001161,-0.00003540,0.00009573,-0.00008066,-0.00029799,-0.00139172,0.0
 0066444,0.00135345,0.00022432,-0.00007419,-0.00035504,-0.00020098,-0.0
 0115890,0.00000554,0.00026127,-0.00047599,0.00002441,0.00122449,0.0002
 3426,-0.00050388,-0.00033079,-0.00007569,-0.00000877,-0.00124634,-0.00
 018741,-0.00038670,0.00079801,-0.00058955,0.00093580,-0.00002555,-0.00
 058947,-0.00018682,-0.00017139,0.00020699,0.00002618,0.00085942,-0.000
 59636,-0.00042741,-0.00033642,0.00014816,0.00017503,0.00020199,-0.0010
 5735,-0.00053425,-0.01916920,0.00483723,-0.00591197,0.00815907,0.01505
 980,-0.02140592,0.02663838,-0.02109332,0.00863521,-0.01546411,-0.00734
 221,0.06524042,0.00065869,0.00004644,-0.00004558,-0.00007340,-0.000008
 68,0.00002148,0.00007252,0.00022117,0.00000247,-0.00010693,-0.00002601
 ,-0.00000345,0.00028564,-0.00054277,0.00006796,-0.00024776,-0.00015643
 ,-0.00000156,0.00000946,0.00000658,0.00000488,0.00003925,0.00003685,0.
 00001139,0.00000100,-0.00000756,0.00000297,-0.00005085,-0.00005720,0.0
 0004554,0.00000154,-0.00000670,0.00000227,-0.00000829,-0.00003177,-0.0
 0000005,0.00001800,-0.00001249,-0.00000241,0.00010200,0.00011717,-0.00
 003452,-0.00001358,-0.00003590,-0.00000097,-0.00000466,-0.00008524,0.0
 0000688,-0.00008013,0.00006212,0.00003352,0.00012830,-0.00003823,-0.00
 001816,-0.00001580,0.00001079,0.00000023,0.00013774,0.00003459,-0.0000
 0928,-0.00003007,-0.00001312,0.00001370,0.00014858,-0.00007862,0.00000
 626,0.00110849,0.00265624,-0.00155019,-0.41973006,-0.14157230,0.079454
 68,-0.01854675,-0.01258739,0.00645948,-0.00560463,-0.00345777,-0.00133
 297,0.44008898,-0.00009626,-0.00002830,-0.00002400,0.00000821,0.000006
 92,-0.00000572,0.00006644,-0.00000984,0.00004424,0.00001589,-0.0000137
 1,0.00001256,-0.00129905,-0.00025334,0.00017084,0.00006204,0.00003301,
 -0.00000102,0.00000479,0.00000349,0.00000026,-0.00000565,-0.00000460,-
 0.00000152,-0.00000141,0.00000243,0.00000224,0.00000882,0.00002731,0.0
 0000425,0.00000486,0.00000193,-0.00000786,0.00000477,0.00000904,-0.000
 00227,0.00000172,0.00000575,-0.00000994,-0.00001690,-0.00004971,0.0000
 0615,-0.00000780,0.00001959,-0.00000143,0.00022845,-0.00013838,0.00006
 960,-0.00002436,0.00022657,-0.00014234,-0.00000373,-0.00001316,0.00000
 453,0.00000404,0.00000527,-0.00000360,-0.00002163,-0.00002472,0.000002
 10,-0.00000071,0.00001168,-0.00000185,-0.00017066,0.00014443,-0.000132
 23,0.00325984,-0.00612162,0.00300406,-0.16627556,-0.10295899,0.0271490
 5,0.01922069,0.01879796,-0.00790152,-0.00859727,-0.00026895,0.01136092
 ,0.15398307,0.09237513,0.00029812,0.00010935,-0.00000867,-0.00005045,-
 0.00000921,0.00002548,-0.00001657,0.00011076,0.00015942,-0.00008415,-0
 .00000457,0.00001249,-0.00043119,-0.00038462,-0.00014898,-0.00018015,-
 0.00010213,-0.00000021,0.00000106,-0.00000011,-0.00000958,0.00002487,0
 .00002198,0.00000408,-0.00000175,-0.00000219,-0.00000283,-0.00002338,-
 0.00005390,0.00001231,-0.00000631,-0.00001160,0.00000960,-0.00000175,-
 0.00001142,0.00000165,0.00002954,-0.00001185,-0.00003950,0.00006095,0.
 00008896,-0.00002323,-0.00000557,-0.00002425,0.00000366,0.00009902,-0.
 00008341,-0.00009952,-0.00009761,0.00013708,0.00007676,0.00010266,-0.0
 0002995,-0.00003950,-0.00001187,0.00000438,0.00000975,0.00009713,0.000
 02379,-0.00001899,-0.00002107,-0.00000899,0.00001873,-0.00005756,0.000
 08133,-0.00000712,0.00029100,0.00102463,-0.00057172,0.10162844,0.02990
 472,-0.03279480,-0.00460236,-0.00060988,-0.00008372,-0.01088140,0.0019
 5507,0.01155139,-0.08445352,-0.02816199,0.02996278,-0.07106113,0.04823
 562,0.02593814,-0.00023510,-0.00311485,-0.00178701,0.00100666,0.000688
 80,0.00402804,0.00158348,-0.00174582,0.00008032,-0.01995819,-0.0211665
 6,-0.01223373,0.00643560,0.01358476,0.00294370,0.00005609,-0.00000934,
 0.00011491,-0.00070780,-0.00064825,-0.00038504,-0.00011783,0.00024515,
 0.00046622,0.00030716,0.00077240,-0.00127588,-0.00013793,0.00008848,0.
 00033405,-0.00080241,-0.00008929,0.00033518,-0.00077035,0.00133093,-0.
 00027919,-0.00163679,-0.00218530,0.00083887,0.00019016,0.00062063,0.00
 007193,0.00113967,0.00137043,-0.00078000,-0.00074392,-0.00017866,-0.00
 017188,-0.00097724,0.00114958,0.00026909,0.00039218,-0.00042054,0.0000
 2504,-0.00363258,0.00055773,0.00086814,0.00061284,0.00028543,-0.000350
 57,-0.00011305,0.00211087,0.00147191,0.02102498,-0.00081077,0.00223169
 ,-0.00084386,-0.04208911,-0.04267295,-0.02078188,0.01513024,-0.0060930
 3,-0.05994625,-0.00874670,0.02363710,0.00270981,0.00055425,-0.00044415
 ,0.27014891,0.04022974,-0.00255311,-0.00680334,0.00053001,0.00188785,0
 .00056103,0.00000055,0.00021137,-0.00049112,-0.00108037,0.00027505,0.0
 0006959,-0.00124396,0.00204448,0.00332170,-0.00244122,-0.00955715,-0.0
 0197103,0.00005613,0.00004229,0.00001437,0.00086870,0.00054802,0.00037
 483,0.00002220,-0.00015529,-0.00014289,0.00248110,-0.00260269,-0.00058
 381,-0.00009952,0.00007134,0.00004111,-0.00056242,0.00129242,0.0004769
 6,0.00020119,-0.00029195,0.00003750,-0.00121170,0.00176370,-0.00011534
 ,0.00037479,-0.00046266,0.00001966,0.00061935,-0.00063668,0.00030308,-
 0.00043604,0.00085188,-0.00043546,0.00072461,-0.00015318,-0.00009849,-
 0.00009623,0.00005314,-0.00001332,0.00207056,0.00030244,-0.00035308,0.
 00003342,-0.00056131,0.00012109,0.00025110,-0.00024575,-0.00081448,0.0
 0312603,-0.00326374,-0.00095195,-0.02063449,-0.01497537,-0.03264366,-0
 .00429346,0.00452672,0.00098459,-0.01687381,-0.04882583,-0.00611176,0.
 00169012,-0.00159892,-0.00297037,0.03523530,0.16221911,0.01117581,-0.0
 0129104,0.01373162,0.00000490,-0.00017070,-0.00024687,0.00048333,0.000
 47417,0.00055398,-0.00020376,-0.00031083,-0.00009408,-0.00591676,-0.00
 399940,-0.00143132,-0.00056187,-0.00114384,0.00044277,0.00006509,0.000
 03327,0.00008157,0.00070898,0.00014308,0.00014591,-0.00003384,0.000021
 30,0.00013970,0.00028662,-0.00022288,-0.00049934,-0.00034742,0.0002042
 8,0.00045506,0.00013046,0.00057976,-0.00066236,-0.00012756,0.00015470,
 -0.00000657,-0.00005039,0.00016654,0.00031193,0.00024116,-0.00006115,-
 0.00009502,0.00065827,-0.00008948,0.00042782,-0.00045599,0.00042976,-0
 .00066970,0.00020829,0.00012888,0.00010489,0.00003471,-0.00004370,-0.0
 0004163,0.00017306,0.00026713,0.00015615,0.00006362,-0.00009275,-0.000
 07556,-0.00009699,0.00049113,0.00026900,0.00923375,-0.00346208,0.00290
 453,-0.03072447,-0.04402923,-0.03599386,-0.01326718,0.01043192,-0.0042
 2953,-0.00891638,-0.01755040,-0.04857400,0.00143238,-0.00487347,-0.007
 08623,-0.12095240,-0.05075127,0.54302292,-0.00801777,-0.02638409,-0.02
 120035,0.00004902,0.00297075,0.00164358,-0.00141911,-0.00144754,-0.006
 92867,-0.00274503,0.00207553,-0.00026405,0.03313291,0.03089116,0.01926
 365,-0.02001850,-0.01397196,-0.00328489,0.00001419,0.00005955,-0.00009
 125,0.00128782,0.00124120,0.00088931,0.00010336,-0.00031368,-0.0005049
 9,0.00233056,-0.00414446,0.00136923,0.00015139,-0.00017406,-0.00027483
 ,0.00013387,0.00082474,0.00061447,0.00142612,-0.00220887,0.00054948,0.
 00113732,0.00454873,-0.00133582,0.00009741,-0.00106659,-0.00011444,-0.
 00124506,-0.00222626,0.00169886,0.00087453,0.00053359,-0.00022955,0.00
 165607,-0.00138966,-0.00029957,-0.00049713,0.00045810,-0.00004977,0.00
 475418,-0.00015870,-0.00090477,-0.00065870,-0.00057129,0.00042695,0.00
 000587,-0.00331911,-0.00274955,-0.02449224,0.00058090,0.00176955,0.000
 12424,0.01961332,0.01415147,0.01524514,-0.01487612,0.00140986,-0.02842
 797,-0.01705285,-0.03299454,-0.00083389,0.00018274,0.00002112,-0.01683
 059,-0.00003078,0.00862311,0.04475934,-0.00950424,-0.04080488,-0.00273
 257,-0.00154063,-0.00474728,-0.00175517,0.00037672,-0.00059276,0.00026
 149,0.00127868,-0.00127038,-0.00015528,-0.00141963,-0.01500145,-0.0073
 1308,-0.00239802,0.02154500,0.00620847,-0.00000853,0.00000056,0.000062
 37,-0.00143499,-0.00112083,-0.00091434,-0.00003771,0.00033852,0.000490
 99,-0.00492284,0.00389501,0.00071668,0.00007666,-0.00008525,0.00025161
 ,0.00001350,-0.00274340,-0.00044467,-0.00025803,0.00044443,0.00001961,
 0.00151258,-0.00282411,0.00044443,-0.00033323,0.00067250,-0.00005013,0
 .00001761,0.00125506,-0.00035810,-0.00006259,-0.00074568,0.00019603,-0
 .00092657,0.00075994,0.00023078,0.00026393,-0.00028952,0.00002876,-0.0
 0430956,0.00028172,0.00102142,0.00021346,0.00080942,-0.00033644,-0.000
 24747,0.00145432,0.00142586,0.00754637,0.00133192,0.00248287,0.0011874
 5,-0.01223800,-0.00812684,-0.00947504,0.00688225,-0.00314739,0.0010400
 6,0.01824119,0.01912787,0.00038650,0.00010519,0.00012062,0.01066931,-0
 .04426859,-0.00664111,0.02396982,0.06374629,-0.01393926,-0.00206725,-0
 .01994750,0.00066176,-0.00030352,-0.00048934,0.00004652,-0.00055601,-0
 .00057566,0.00032825,-0.00043692,0.00009662,0.00457855,-0.00686132,-0.
 00312849,0.00429625,0.00422654,-0.00198224,0.00005214,-0.00002991,0.00
 006385,-0.00151490,-0.00056037,-0.00017418,-0.00006225,0.00002608,0.00
 001712,0.00096163,0.00097420,0.00028764,0.00027059,0.00000502,-0.00047
 416,0.00016994,-0.00013934,0.00026005,0.00011106,0.00002444,0.00013733
 ,-0.00088685,-0.00108494,-0.00000404,-0.00014654,0.00019243,0.00011314
 ,-0.00000236,0.00038952,-0.00044257,-0.00000953,-0.00011869,0.00034889
 ,-0.00033965,0.00036498,0.00001330,0.00010570,-0.00011977,0.00004752,-
 0.00104852,0.00007700,0.00017523,0.00020424,0.00000711,-0.00003757,0.0
 0000397,-0.00015044,-0.00072615,0.00209631,0.00216857,0.00052118,0.001
 15886,-0.00527719,-0.00491299,-0.00359823,0.00069245,-0.00093316,-0.00
 965038,0.01337401,0.01140571,0.00026853,0.00027191,0.00028404,-0.02142
 820,0.00771727,-0.05730357,0.01280509,0.00040356,0.07890210,-0.0035496
 2,0.00356779,-0.00252630,-0.00011775,0.00001102,-0.00002509,-0.0000547
 8,0.00004010,0.00011025,-0.00005972,0.00006234,0.00008733,-0.00006275,
 0.00039384,0.00025533,0.00007636,0.00004467,0.00011767,-0.00001102,0.0
 0000437,-0.00002958,-0.00023695,-0.00000683,-0.00005920,0.00003110,-0.
 00002088,-0.00003569,0.00011471,-0.00027226,-0.00001173,0.00006481,-0.
 00003558,-0.00010074,-0.00005904,0.00000734,0.00019574,0.00000983,0.00
 000162,-0.00001893,-0.00003337,0.00013428,-0.00009570,-0.00005552,-0.0
 0004871,0.00004555,0.00003972,-0.00014532,-0.00010677,0.00002508,0.000
 12864,0.00006212,0.00009487,-0.00007942,-0.00005994,-0.00002910,0.0000
 1898,0.00001027,0.00007500,-0.00000029,-0.00003899,-0.00003471,-0.0000
 0915,0.00003268,0.00001056,-0.00007309,-0.00011203,-0.00012275,-0.0001
 9910,-0.00038570,-0.00422624,-0.00358403,-0.00156860,0.00036616,-0.000
 16244,0.00009297,0.01373216,0.01084849,-0.01055999,-0.00016319,-0.0010
 8964,-0.00128314,-0.10631065,-0.03951091,0.14813144,-0.00209735,-0.011
 67355,0.02450729,0.10258414,0.00241523,-0.00281483,0.00068412,0.000059
 61,0.00003623,-0.00002840,0.00008141,-0.00000398,-0.00024572,0.0001446
 5,0.00002313,-0.00004536,0.00142024,0.00095880,-0.00004222,0.00047254,
 0.00015347,0.00036403,0.00000175,0.00000088,0.00000792,-0.00009029,-0.
 00000410,-0.00007688,0.00000766,-0.00000861,-0.00001484,-0.00011239,0.
 00007026,-0.00012410,0.00008350,-0.00002310,-0.00008386,0.00008858,0.0
 0010993,0.00023440,-0.00002515,-0.00001567,0.00004005,-0.00010745,-0.0
 0023077,0.00002397,-0.00006067,0.00008430,0.00003678,-0.00022845,0.000
 07214,0.00019994,0.00015084,-0.00023245,-0.00011404,-0.00014956,-0.000
 00051,0.00004331,0.00001463,0.00001057,-0.00000565,-0.00014692,-0.0001
 0768,-0.00001531,0.00000902,0.00004582,-0.00000116,-0.00012090,-0.0001
 1950,0.00009385,-0.00120408,0.00002137,0.00120798,-0.00235464,-0.00275
 317,0.00002325,-0.00016558,0.00026369,-0.00094649,0.00874099,0.0052269
 6,-0.00959419,-0.00053346,-0.00029145,-0.00110224,-0.05142475,-0.04593
 759,0.12120741,0.00138589,0.00496883,-0.01320941,0.04164774,0.04049703
 ,-0.00358217,0.00152335,0.00052630,0.00003541,-0.00009591,-0.00006251,
 -0.00002522,-0.00009631,0.00009505,0.00012362,-0.00001928,0.00006391,0
 .00058583,-0.00011336,-0.00037967,0.00067329,0.00060377,0.00037342,-0.
 00001935,-0.00000643,-0.00002406,-0.00013944,-0.00008233,-0.00009480,0
 .00000889,0.00000792,-0.00001671,0.00003230,0.00003864,-0.00008750,0.0
 0001632,0.00001421,-0.00003957,0.00021745,0.00017976,0.00001746,-0.000
 03354,0.00004247,-0.00001976,-0.00016322,-0.00017888,0.00003602,0.0000
 0004,0.00004347,0.00003470,-0.00010262,0.00014795,-0.00015652,0.000100
 03,-0.00016872,0.00013811,-0.00012935,0.00005933,-0.00001937,0.0000199
 8,-0.00002187,0.00001607,-0.00024607,-0.00001828,-0.00000440,0.0000431
 9,0.00001581,-0.00000178,-0.00004945,0.00000386,0.00007935,-0.00085437
 ,0.00058384,0.00037112,-0.00244800,-0.00071143,0.00255516,0.00059078,-
 0.00077465,-0.00050525,0.01116710,0.00868182,-0.01631156,-0.00038194,-
 0.00083193,-0.00119753,0.14519971,0.09120858,-0.40573819,0.00599133,-0
 .00151829,-0.00154209,-0.15663051,-0.09851714,0.42189461\\0.00000101,0
 .00000011,0.00000095,-0.00000030,-0.00000104,-0.00000192,-0.00000167,0
 .00000055,-0.00000099,-0.00000064,-0.00000069,-0.00000254,-0.00000090,
 0.00000129,0.00000051,0.00000111,-0.00000075,-0.00000029,0.00000031,-0
 .00000066,-0.00000083,0.00000102,-0.00000052,-0.00000032,-0.00000061,-
 0.00000021,-0.00000074,0.00000118,-0.00000029,0.00000055,0.00000003,0.
 00000023,0.00000036,0.00000093,0.00000005,0.00000066,-0.00000103,-0.00
 000028,-0.00000159,0.00000186,-0.00000109,-0.00000060,0.00000116,-0.00
 000056,-0.00000029,-0.00000150,-0.00000130,-0.00000040,-0.00000039,0.0
 0000019,0.00000014,-0.00000193,-0.00000197,-0.00000472,-0.00000037,-0.
 00000086,-0.00000195,0.00000060,-0.00000228,-0.00000373,0.00000029,-0.
 00000077,-0.00000118,-0.00000084,0.00000047,0.00000012,-0.00000174,0.0
 0000187,0.00000184,-0.00001041,-0.00000163,0.00000851,-0.00000130,0.00
 000102,0.00000104,0.00000005,0.00000082,0.00000119,0.00001004,0.000005
 66,-0.00000115,0.00000504,0.00000321,-0.00000235,0.00000087,0.00000005
 ,0.00000062,-0.00000183,-0.00000062,0.00000912\\\@


 ERROR IS THE FORCE THAT WELDS MEN TOGETHER....
 TRUTH IS COMMUNICATED TO MEN ONLY BY DEEDS OF TRUTH.
           TOLSTOI,MY RELIGION
 Job cpu time:       0 days  0 hours 33 minutes 42.0 seconds.
 File lengths (MBytes):  RWF=    220 Int=      0 D2E=      0 Chk=      6 Scr=      1
 Normal termination of Gaussian 09 at Thu Jan 12 02:59:05 2017.
