 Entering Gaussian System, Link 0=g09
 Initial command:
 /global/software/gaussian/g09.e01/l1.exe "/scratch/10464833.yak.local/Gau-9639.inp" -scrdir="/scratch/10464833.yak.local/"
 Entering Link 1 = /global/software/gaussian/g09.e01/l1.exe PID=      9640.
  
 Copyright (c) 1988,1990,1992,1993,1995,1998,2003,2009,2015,
            Gaussian, Inc.  All Rights Reserved.
  
 This is part of the Gaussian(R) 09 program.  It is based on
 the Gaussian(R) 03 system (copyright 2003, Gaussian, Inc.),
 the Gaussian(R) 98 system (copyright 1998, Gaussian, Inc.),
 the Gaussian(R) 94 system (copyright 1995, Gaussian, Inc.),
 the Gaussian 92(TM) system (copyright 1992, Gaussian, Inc.),
 the Gaussian 90(TM) system (copyright 1990, Gaussian, Inc.),
 the Gaussian 88(TM) system (copyright 1988, Gaussian, Inc.),
 the Gaussian 86(TM) system (copyright 1986, Carnegie Mellon
 University), and the Gaussian 82(TM) system (copyright 1983,
 Carnegie Mellon University). Gaussian is a federally registered
 trademark of Gaussian, Inc.
  
 This software contains proprietary and confidential information,
 including trade secrets, belonging to Gaussian, Inc.
  
 This software is provided under written license and may be
 used, copied, transmitted, or stored only in accord with that
 written license.
  
 The following legend is applicable only to US Government
 contracts under FAR:
  
                    RESTRICTED RIGHTS LEGEND
  
 Use, reproduction and disclosure by the US Government is
 subject to restrictions as set forth in subparagraphs (a)
 and (c) of the Commercial Computer Software - Restricted
 Rights clause in FAR 52.227-19.
  
 Gaussian, Inc.
 340 Quinnipiac St., Bldg. 40, Wallingford CT 06492
  
  
 ---------------------------------------------------------------
 Warning -- This program may not be used in any manner that
 competes with the business of Gaussian, Inc. or will provide
 assistance to any competitor of Gaussian, Inc.  The licensee
 of this program is prohibited from giving any competitor of
 Gaussian, Inc. access to this program.  By using this program,
 the user acknowledges that Gaussian, Inc. is engaged in the
 business of creating and licensing software in the field of
 computational chemistry and represents and warrants to the
 licensee that it is not a competitor of Gaussian, Inc. and that
 it will not use this program in any manner prohibited above.
 ---------------------------------------------------------------
  

 Cite this work as:
 Gaussian 09, Revision E.01,
 M. J. Frisch, G. W. Trucks, H. B. Schlegel, G. E. Scuseria, 
 M. A. Robb, J. R. Cheeseman, G. Scalmani, V. Barone, B. Mennucci, 
 G. A. Petersson, H. Nakatsuji, M. Caricato, X. Li, H. P. Hratchian, 
 A. F. Izmaylov, J. Bloino, G. Zheng, J. L. Sonnenberg, M. Hada, 
 M. Ehara, K. Toyota, R. Fukuda, J. Hasegawa, M. Ishida, T. Nakajima, 
 Y. Honda, O. Kitao, H. Nakai, T. Vreven, J. A. Montgomery, Jr., 
 J. E. Peralta, F. Ogliaro, M. Bearpark, J. J. Heyd, E. Brothers, 
 K. N. Kudin, V. N. Staroverov, T. Keith, R. Kobayashi, J. Normand, 
 K. Raghavachari, A. Rendell, J. C. Burant, S. S. Iyengar, J. Tomasi, 
 M. Cossi, N. Rega, J. M. Millam, M. Klene, J. E. Knox, J. B. Cross, 
 V. Bakken, C. Adamo, J. Jaramillo, R. Gomperts, R. E. Stratmann, 
 O. Yazyev, A. J. Austin, R. Cammi, C. Pomelli, J. W. Ochterski, 
 R. L. Martin, K. Morokuma, V. G. Zakrzewski, G. A. Voth, 
 P. Salvador, J. J. Dannenberg, S. Dapprich, A. D. Daniels, 
 O. Farkas, J. B. Foresman, J. V. Ortiz, J. Cioslowski, 
 and D. J. Fox, Gaussian, Inc., Wallingford CT, 2013.
 
 ******************************************
 Gaussian 09:  ES64L-G09RevE.01 30-Nov-2015
                15-Jan-2017 
 ******************************************
 -------------------------
 # b3lyp/6-31g(d) opt freq
 -------------------------
 1/14=-1,18=20,19=15,26=3,38=1/1,3;
 2/9=110,12=2,17=6,18=5,40=1/2;
 3/5=1,6=6,7=1,11=2,16=1,25=1,30=1,71=1,74=-5/1,2,3;
 4//1;
 5/5=2,38=5/2;
 6/7=2,8=2,9=2,10=2,28=1/1;
 7//1,2,3,16;
 1/14=-1,18=20,19=15,26=3/3(2);
 2/9=110/2;
 99//99;
 2/9=110/2;
 3/5=1,6=6,7=1,11=2,16=1,25=1,30=1,71=1,74=-5/1,2,3;
 4/5=5,16=3,69=1/1;
 5/5=2,38=5/2;
 7//1,2,3,16;
 1/14=-1,18=20,19=15,26=3/3(-5);
 2/9=110/2;
 6/7=2,8=2,9=2,10=2,19=2,28=1/1;
 99/9=1/99;
 ----------------------------------
 glo_2w_beta_ircr_boat4_B3LYP_631Gd
 ----------------------------------
 Symbolic Z-matrix:
 Charge =  0 Multiplicity = 1
 8                     0.62904  -0.21172  -0.97254 
 6                    -1.20237   0.84119   0.23367 
 6                    -1.0984   -1.68653   0.11974 
 6                    -1.94134  -0.43537  -0.16726 
 6                     0.41455  -1.3866    0.13741 
 6                     0.0223    1.04935  -0.66653 
 1                    -2.12449  -0.40927  -1.25311 
 1                    -0.34743   1.46091  -1.61822 
 1                    -0.89058   0.75198   1.28274 
 1                     0.98433  -2.1671   -0.38102 
 6                     1.01731   2.04274  -0.03967 
 1                     1.37874   1.64206   0.91066 
 1                     1.88519   2.19846  -0.69769 
 1                    -1.37495  -2.04672   1.11935 
 8                     0.88917  -1.02795   1.33435 
 8                     0.38797   3.29207   0.26719 
 1                     0.1983    3.73884  -0.5738 
 8                    -1.41209  -2.64463  -0.88547 
 1                    -1.17968  -3.52287  -0.54737 
 8                    -3.16072  -0.53719   0.54714 
 1                    -3.54679   0.35579   0.51897 
 8                    -2.12282   1.92129   0.08801 
 1                    -1.67793   2.69395   0.47755 
 8                     3.32702  -0.99861   1.12336 
 1                     3.37094  -0.65513   0.16746 
 1                     1.91314  -1.06479   1.3287 
 1                     3.69159  -0.31524   1.70394 
 8                     3.06161  -0.30119  -1.19711 
 1                     2.05537  -0.17575  -1.22495 
 1                     3.4797    0.51811  -1.49556 
 
 Add virtual bond connecting atoms H26        and O24        Dist= 2.70D+00.
 Add virtual bond connecting atoms O28        and H25        Dist= 2.73D+00.
 Add virtual bond connecting atoms H29        and O1         Dist= 2.74D+00.

 GradGradGradGradGradGradGradGradGradGradGradGradGradGradGradGradGradGrad
 Berny optimization.
 Initialization pass.
                           ----------------------------
                           !    Initial Parameters    !
                           ! (Angstroms and Degrees)  !
 --------------------------                            --------------------------
 ! Name  Definition              Value          Derivative Info.                !
 --------------------------------------------------------------------------------
 ! R1    R(1,5)                  1.6304         estimate D2E/DX2                !
 ! R2    R(1,6)                  1.4325         estimate D2E/DX2                !
 ! R3    R(1,29)                 1.4489         estimate D2E/DX2                !
 ! R4    R(2,4)                  1.5285         estimate D2E/DX2                !
 ! R5    R(2,6)                  1.5341         estimate D2E/DX2                !
 ! R6    R(2,9)                  1.098          estimate D2E/DX2                !
 ! R7    R(2,22)                 1.4266         estimate D2E/DX2                !
 ! R8    R(3,4)                  1.5357         estimate D2E/DX2                !
 ! R9    R(3,5)                  1.5425         estimate D2E/DX2                !
 ! R10   R(3,14)                 1.0979         estimate D2E/DX2                !
 ! R11   R(3,18)                 1.4237         estimate D2E/DX2                !
 ! R12   R(4,7)                  1.1015         estimate D2E/DX2                !
 ! R13   R(4,20)                 1.4169         estimate D2E/DX2                !
 ! R14   R(5,10)                 1.0966         estimate D2E/DX2                !
 ! R15   R(5,15)                 1.3366         estimate D2E/DX2                !
 ! R16   R(6,8)                  1.1008         estimate D2E/DX2                !
 ! R17   R(6,11)                 1.5394         estimate D2E/DX2                !
 ! R18   R(11,12)                1.0928         estimate D2E/DX2                !
 ! R19   R(11,13)                1.1002         estimate D2E/DX2                !
 ! R20   R(11,16)                1.4322         estimate D2E/DX2                !
 ! R21   R(15,26)                1.0246         estimate D2E/DX2                !
 ! R22   R(16,17)                0.971          estimate D2E/DX2                !
 ! R23   R(18,19)                0.9693         estimate D2E/DX2                !
 ! R24   R(20,21)                0.9733         estimate D2E/DX2                !
 ! R25   R(22,23)                0.973          estimate D2E/DX2                !
 ! R26   R(24,25)                1.0167         estimate D2E/DX2                !
 ! R27   R(24,26)                1.4303         estimate D2E/DX2                !
 ! R28   R(24,27)                0.968          estimate D2E/DX2                !
 ! R29   R(25,28)                1.4433         estimate D2E/DX2                !
 ! R30   R(28,29)                1.0144         estimate D2E/DX2                !
 ! R31   R(28,30)                0.967          estimate D2E/DX2                !
 ! A1    A(5,1,6)              115.6712         estimate D2E/DX2                !
 ! A2    A(5,1,29)             105.4255         estimate D2E/DX2                !
 ! A3    A(6,1,29)             115.6138         estimate D2E/DX2                !
 ! A4    A(4,2,6)              110.2022         estimate D2E/DX2                !
 ! A5    A(4,2,9)              108.6644         estimate D2E/DX2                !
 ! A6    A(4,2,22)             107.0744         estimate D2E/DX2                !
 ! A7    A(6,2,9)              110.1793         estimate D2E/DX2                !
 ! A8    A(6,2,22)             110.6359         estimate D2E/DX2                !
 ! A9    A(9,2,22)             110.0157         estimate D2E/DX2                !
 ! A10   A(4,3,5)              112.4647         estimate D2E/DX2                !
 ! A11   A(4,3,14)             107.4082         estimate D2E/DX2                !
 ! A12   A(4,3,18)             107.1812         estimate D2E/DX2                !
 ! A13   A(5,3,14)             107.4829         estimate D2E/DX2                !
 ! A14   A(5,3,18)             110.7976         estimate D2E/DX2                !
 ! A15   A(14,3,18)            111.5037         estimate D2E/DX2                !
 ! A16   A(2,4,3)              111.4709         estimate D2E/DX2                !
 ! A17   A(2,4,7)              108.6124         estimate D2E/DX2                !
 ! A18   A(2,4,20)             110.1096         estimate D2E/DX2                !
 ! A19   A(3,4,7)              107.146          estimate D2E/DX2                !
 ! A20   A(3,4,20)             108.6393         estimate D2E/DX2                !
 ! A21   A(7,4,20)             110.8331         estimate D2E/DX2                !
 ! A22   A(1,5,3)              105.1503         estimate D2E/DX2                !
 ! A23   A(1,5,10)              97.0464         estimate D2E/DX2                !
 ! A24   A(1,5,15)             111.6882         estimate D2E/DX2                !
 ! A25   A(3,5,10)             111.458          estimate D2E/DX2                !
 ! A26   A(3,5,15)             114.2503         estimate D2E/DX2                !
 ! A27   A(10,5,15)            115.4562         estimate D2E/DX2                !
 ! A28   A(1,6,2)              110.122          estimate D2E/DX2                !
 ! A29   A(1,6,8)              106.6608         estimate D2E/DX2                !
 ! A30   A(1,6,11)             112.4138         estimate D2E/DX2                !
 ! A31   A(2,6,8)              106.8523         estimate D2E/DX2                !
 ! A32   A(2,6,11)             111.3826         estimate D2E/DX2                !
 ! A33   A(8,6,11)             109.1395         estimate D2E/DX2                !
 ! A34   A(6,11,12)            109.346          estimate D2E/DX2                !
 ! A35   A(6,11,13)            110.9569         estimate D2E/DX2                !
 ! A36   A(6,11,16)            111.4779         estimate D2E/DX2                !
 ! A37   A(12,11,13)           108.1254         estimate D2E/DX2                !
 ! A38   A(12,11,16)           106.1913         estimate D2E/DX2                !
 ! A39   A(13,11,16)           110.5679         estimate D2E/DX2                !
 ! A40   A(5,15,26)            109.8932         estimate D2E/DX2                !
 ! A41   A(11,16,17)           107.5557         estimate D2E/DX2                !
 ! A42   A(3,18,19)            108.0973         estimate D2E/DX2                !
 ! A43   A(4,20,21)            105.1205         estimate D2E/DX2                !
 ! A44   A(2,22,23)            105.3882         estimate D2E/DX2                !
 ! A45   A(25,24,26)           101.1466         estimate D2E/DX2                !
 ! A46   A(25,24,27)           108.0081         estimate D2E/DX2                !
 ! A47   A(26,24,27)           108.595          estimate D2E/DX2                !
 ! A48   A(24,25,28)           164.2677         estimate D2E/DX2                !
 ! A49   A(25,28,29)           105.597          estimate D2E/DX2                !
 ! A50   A(25,28,30)           114.0108         estimate D2E/DX2                !
 ! A51   A(29,28,30)           108.3993         estimate D2E/DX2                !
 ! A52   L(15,26,24,11,-1)     172.3986         estimate D2E/DX2                !
 ! A53   L(1,29,28,12,-1)      176.7404         estimate D2E/DX2                !
 ! A54   L(15,26,24,11,-2)     185.3855         estimate D2E/DX2                !
 ! A55   L(1,29,28,12,-2)      165.211          estimate D2E/DX2                !
 ! D1    D(6,1,5,3)             65.9141         estimate D2E/DX2                !
 ! D2    D(6,1,5,10)          -179.5448         estimate D2E/DX2                !
 ! D3    D(6,1,5,15)           -58.5309         estimate D2E/DX2                !
 ! D4    D(29,1,5,3)          -165.0215         estimate D2E/DX2                !
 ! D5    D(29,1,5,10)          -50.4805         estimate D2E/DX2                !
 ! D6    D(29,1,5,15)           70.5335         estimate D2E/DX2                !
 ! D7    D(5,1,6,2)            -27.4073         estimate D2E/DX2                !
 ! D8    D(5,1,6,8)           -142.9973         estimate D2E/DX2                !
 ! D9    D(5,1,6,11)            97.4226         estimate D2E/DX2                !
 ! D10   D(29,1,6,2)          -151.3046         estimate D2E/DX2                !
 ! D11   D(29,1,6,8)            93.1054         estimate D2E/DX2                !
 ! D12   D(29,1,6,11)          -26.4747         estimate D2E/DX2                !
 ! D13   D(5,1,28,25)          -33.4794         estimate D2E/DX2                !
 ! D14   D(5,1,28,30)         -154.7413         estimate D2E/DX2                !
 ! D15   D(6,1,28,25)           92.6668         estimate D2E/DX2                !
 ! D16   D(6,1,28,30)          -28.5951         estimate D2E/DX2                !
 ! D17   D(6,2,4,3)             66.7766         estimate D2E/DX2                !
 ! D18   D(6,2,4,7)            -51.0462         estimate D2E/DX2                !
 ! D19   D(6,2,4,20)          -172.5762         estimate D2E/DX2                !
 ! D20   D(9,2,4,3)            -54.0388         estimate D2E/DX2                !
 ! D21   D(9,2,4,7)           -171.8616         estimate D2E/DX2                !
 ! D22   D(9,2,4,20)            66.6084         estimate D2E/DX2                !
 ! D23   D(22,2,4,3)          -172.8344         estimate D2E/DX2                !
 ! D24   D(22,2,4,7)            69.3428         estimate D2E/DX2                !
 ! D25   D(22,2,4,20)          -52.1872         estimate D2E/DX2                !
 ! D26   D(4,2,6,1)            -36.8358         estimate D2E/DX2                !
 ! D27   D(4,2,6,8)             78.6335         estimate D2E/DX2                !
 ! D28   D(4,2,6,11)          -162.255          estimate D2E/DX2                !
 ! D29   D(9,2,6,1)             83.0677         estimate D2E/DX2                !
 ! D30   D(9,2,6,8)           -161.463          estimate D2E/DX2                !
 ! D31   D(9,2,6,11)           -42.3516         estimate D2E/DX2                !
 ! D32   D(22,2,6,1)          -155.0575         estimate D2E/DX2                !
 ! D33   D(22,2,6,8)           -39.5882         estimate D2E/DX2                !
 ! D34   D(22,2,6,11)           79.5233         estimate D2E/DX2                !
 ! D35   D(4,2,22,23)          171.4333         estimate D2E/DX2                !
 ! D36   D(6,2,22,23)          -68.4545         estimate D2E/DX2                !
 ! D37   D(9,2,22,23)           53.5165         estimate D2E/DX2                !
 ! D38   D(5,3,4,2)            -24.994          estimate D2E/DX2                !
 ! D39   D(5,3,4,7)             93.7087         estimate D2E/DX2                !
 ! D40   D(5,3,4,20)          -146.4992         estimate D2E/DX2                !
 ! D41   D(14,3,4,2)            93.0624         estimate D2E/DX2                !
 ! D42   D(14,3,4,7)          -148.2348         estimate D2E/DX2                !
 ! D43   D(14,3,4,20)          -28.4428         estimate D2E/DX2                !
 ! D44   D(18,3,4,2)          -147.0008         estimate D2E/DX2                !
 ! D45   D(18,3,4,7)           -28.2981         estimate D2E/DX2                !
 ! D46   D(18,3,4,20)           91.494          estimate D2E/DX2                !
 ! D47   D(4,3,5,1)            -33.7157         estimate D2E/DX2                !
 ! D48   D(4,3,5,10)          -137.7784         estimate D2E/DX2                !
 ! D49   D(4,3,5,15)            89.0966         estimate D2E/DX2                !
 ! D50   D(14,3,5,1)          -151.728          estimate D2E/DX2                !
 ! D51   D(14,3,5,10)          104.2093         estimate D2E/DX2                !
 ! D52   D(14,3,5,15)          -28.9157         estimate D2E/DX2                !
 ! D53   D(18,3,5,1)            86.217          estimate D2E/DX2                !
 ! D54   D(18,3,5,10)          -17.8457         estimate D2E/DX2                !
 ! D55   D(18,3,5,15)         -150.9708         estimate D2E/DX2                !
 ! D56   D(4,3,18,19)         -158.2021         estimate D2E/DX2                !
 ! D57   D(5,3,18,19)           78.7544         estimate D2E/DX2                !
 ! D58   D(14,3,18,19)         -40.9184         estimate D2E/DX2                !
 ! D59   D(2,4,20,21)           43.5912         estimate D2E/DX2                !
 ! D60   D(3,4,20,21)          165.9261         estimate D2E/DX2                !
 ! D61   D(7,4,20,21)          -76.6066         estimate D2E/DX2                !
 ! D62   D(1,5,15,26)          -74.3938         estimate D2E/DX2                !
 ! D63   D(3,5,15,26)          166.4205         estimate D2E/DX2                !
 ! D64   D(10,5,15,26)          35.2116         estimate D2E/DX2                !
 ! D65   D(1,6,11,12)          -62.4534         estimate D2E/DX2                !
 ! D66   D(1,6,11,13)           56.7258         estimate D2E/DX2                !
 ! D67   D(1,6,11,16)         -179.5653         estimate D2E/DX2                !
 ! D68   D(2,6,11,12)           61.6811         estimate D2E/DX2                !
 ! D69   D(2,6,11,13)         -179.1398         estimate D2E/DX2                !
 ! D70   D(2,6,11,16)          -55.4308         estimate D2E/DX2                !
 ! D71   D(8,6,11,12)          179.4198         estimate D2E/DX2                !
 ! D72   D(8,6,11,13)          -61.4011         estimate D2E/DX2                !
 ! D73   D(8,6,11,16)           62.3079         estimate D2E/DX2                !
 ! D74   D(6,11,16,17)         -70.7529         estimate D2E/DX2                !
 ! D75   D(12,11,16,17)        170.2383         estimate D2E/DX2                !
 ! D76   D(13,11,16,17)         53.1762         estimate D2E/DX2                !
 ! D77   D(5,15,24,25)          35.8462         estimate D2E/DX2                !
 ! D78   D(5,15,24,27)         147.928          estimate D2E/DX2                !
 ! D79   D(26,24,25,28)        -19.4398         estimate D2E/DX2                !
 ! D80   D(27,24,25,28)       -133.3812         estimate D2E/DX2                !
 ! D81   D(24,25,28,29)         26.3284         estimate D2E/DX2                !
 ! D82   D(24,25,28,30)        145.2162         estimate D2E/DX2                !
 --------------------------------------------------------------------------------
 Trust Radius=3.00D-01 FncErr=1.00D-07 GrdErr=1.00D-06
 Number of steps in this run=    178 maximum allowed number of steps=    180.
 GradGradGradGradGradGradGradGradGradGradGradGradGradGradGradGradGradGrad

                          Input orientation:                          
 ---------------------------------------------------------------------
 Center     Atomic      Atomic             Coordinates (Angstroms)
 Number     Number       Type             X           Y           Z
 ---------------------------------------------------------------------
      1          8           0        0.629039   -0.211721   -0.972540
      2          6           0       -1.202373    0.841189    0.233673
      3          6           0       -1.098395   -1.686530    0.119741
      4          6           0       -1.941341   -0.435372   -0.167262
      5          6           0        0.414545   -1.386601    0.137411
      6          6           0        0.022297    1.049346   -0.666530
      7          1           0       -2.124486   -0.409269   -1.253112
      8          1           0       -0.347434    1.460911   -1.618223
      9          1           0       -0.890580    0.751980    1.282735
     10          1           0        0.984331   -2.167098   -0.381021
     11          6           0        1.017310    2.042737   -0.039673
     12          1           0        1.378740    1.642055    0.910661
     13          1           0        1.885192    2.198464   -0.697686
     14          1           0       -1.374945   -2.046722    1.119349
     15          8           0        0.889168   -1.027950    1.334348
     16          8           0        0.387968    3.292072    0.267189
     17          1           0        0.198304    3.738836   -0.573798
     18          8           0       -1.412086   -2.644634   -0.885467
     19          1           0       -1.179675   -3.522872   -0.547366
     20          8           0       -3.160722   -0.537194    0.547136
     21          1           0       -3.546794    0.355788    0.518970
     22          8           0       -2.122819    1.921290    0.088013
     23          1           0       -1.677934    2.693945    0.477553
     24          8           0        3.327022   -0.998608    1.123356
     25          1           0        3.370939   -0.655126    0.167462
     26          1           0        1.913136   -1.064792    1.328695
     27          1           0        3.691589   -0.315244    1.703940
     28          8           0        3.061611   -0.301187   -1.197112
     29          1           0        2.055365   -0.175750   -1.224950
     30          1           0        3.479703    0.518106   -1.495559
 ---------------------------------------------------------------------
                    Distance matrix (angstroms):
                    1          2          3          4          5
     1  O    0.000000
     2  C    2.432620   0.000000
     3  C    2.520351   2.532421   0.000000
     4  C    2.702840   1.528539   1.535684   0.000000
     5  C    1.630442   2.754403   1.542484   2.558879   0.000000
     6  C    1.432504   1.534116   3.059279   2.511878   2.594999
     7  H    2.774824   2.150457   2.137518   1.101496   3.055390
     8  H    2.041593   2.131782   3.672989   2.870839   3.430916
     9  H    2.885174   1.098046   2.709626   2.148580   2.754750
    10  H    2.073554   3.769524   2.195326   3.406483   1.096633
    11  C    2.470542   2.538785   4.290577   3.861466   3.486408
    12  H    2.746813   2.786009   4.223888   4.062088   3.271138
    13  H    2.731750   3.498955   4.966201   4.675553   3.963948
    14  H    3.429166   3.025596   1.097923   2.138369   2.145282
    15  O    2.460819   3.013256   2.420621   3.258491   1.336621
    16  O    3.724461   2.921838   5.197835   4.416816   4.680548
    17  H    3.993924   3.318172   5.621123   4.708223   5.179062
    18  O    3.176923   3.667072   1.423660   2.382597   2.442439
    19  H    3.796833   4.433460   1.955451   3.202697   2.752110
    20  O    4.096051   2.415229   2.399340   1.416906   3.697553
    21  H    4.470375   2.411082   3.213270   1.916854   4.344389
    22  O    3.639675   1.426554   3.750575   2.377384   4.169268
    23  H    3.983439   1.928300   4.433109   3.205900   4.598372
    24  O    3.505864   4.969085   4.589640   5.453309   3.099217
    25  H    3.002370   4.812331   4.587049   5.327349   3.045689
    26  H    2.769895   3.812903   3.304156   4.182230   1.941261
    27  H    4.068596   5.239264   5.228198   5.936811   3.786930
    28  O    2.444554   4.640445   4.578092   5.109611   3.156903
    29  H    1.448934   3.711415   3.746579   4.142435   2.452443
    30  H    2.988726   5.001646   5.331847   5.662262   3.961022
                    6          7          8          9         10
     6  C    0.000000
     7  H    2.660886   0.000000
     8  H    1.100821   2.605531   0.000000
     9  H    2.172879   3.049843   3.035317   0.000000
    10  H    3.369353   3.676309   4.057920   3.847648   0.000000
    11  C    1.539424   4.166011   2.166303   2.656099   4.223780
    12  H    2.163047   4.600265   3.067205   2.465864   4.041491
    13  H    2.189023   4.815214   2.525073   3.703956   4.468776
    14  H    3.837615   2.978529   4.566571   2.845002   2.798532
    15  O    3.011667   4.019929   4.054786   2.517602   2.061360
    16  O    2.456698   4.724793   2.729239   3.019617   5.529771
    17  H    2.696838   4.802457   2.564682   3.681534   5.961129
    18  O    3.968737   2.374770   4.304174   4.063257   2.495059
    19  H    4.729071   3.329455   5.165022   4.659099   2.559046
    20  O    3.757886   2.081116   4.073793   2.712309   4.549673
    21  H    3.824244   2.397613   4.003098   2.792092   5.263652
    22  O    2.435394   2.688889   2.505031   2.076791   5.156480
    23  H    2.627626   3.581138   2.771801   2.244877   5.608435
    24  O    4.280072   5.976107   5.202607   4.569259   3.019391
    25  H    3.848918   5.681388   4.636009   4.624319   2.877984
    26  H    3.467820   4.837130   4.491512   3.341197   2.236266
    27  H    4.576564   6.525314   5.523151   4.723627   3.886602
    28  O    3.367920   5.187525   3.860558   4.783160   2.909076
    29  H    2.438454   4.186464   2.933729   3.978412   2.413462
    30  H    3.594880   5.685573   3.943464   5.183916   3.831370
                   11         12         13         14         15
    11  C    0.000000
    12  H    1.092846   0.000000
    13  H    1.100205   1.775631   0.000000
    14  H    4.877488   4.607972   5.652585   0.000000
    15  O    3.366522   2.747384   3.940936   2.492053   0.000000
    16  O    1.432157   2.029345   2.090130   5.686542   4.478015
    17  H    1.957757   2.827285   2.287725   6.230132   5.180788
    18  O    5.346848   5.421299   5.861988   2.092407   3.582878
    19  H    6.005039   5.945402   6.492279   2.234969   3.747745
    20  O    4.945335   5.048563   5.873215   2.407302   4.154775
    21  H    4.897849   5.105760   5.863632   3.293848   4.717768
    22  O    3.145070   3.607719   4.093690   4.167504   4.395843
    23  H    2.820627   3.261489   3.784515   4.793499   4.601805
    24  O    3.992140   3.288486   3.951751   4.817370   2.447143
    25  H    3.586215   3.130214   3.331501   5.036471   2.767636
    26  H    3.511648   2.790583   3.841333   3.437948   1.024646
    27  H    3.968883   3.132025   3.917857   5.386050   2.915152
    28  O    3.318556   3.324297   2.807426   5.300558   3.414086
    29  H    2.721052   2.884973   2.438003   4.556676   2.938753
    30  H    3.241525   3.386326   2.450035   6.081422   4.136367
                   16         17         18         19         20
    16  O    0.000000
    17  H    0.970994   0.000000
    18  O    6.309777   6.590841   0.000000
    19  H    7.040204   7.391341   0.969345   0.000000
    20  O    5.228274   5.551935   3.090531   3.746566   0.000000
    21  H    4.916046   5.163808   3.941060   4.667368   0.973274
    22  O    2.866217   3.021437   4.722337   5.561666   2.707800
    23  H    2.161009   2.391110   5.516242   6.320406   3.555807
    24  O    5.270768   5.925587   5.404065   5.428954   6.529606
    25  H    4.948579   5.470099   5.286221   5.426144   6.543749
    26  H    4.736581   5.443801   4.295988   4.373470   5.160739
    27  H    5.098127   5.816072   6.178882   6.251917   6.952814
    28  O    4.712118   4.990875   5.059924   5.365625   6.466493
    29  H    4.127043   4.381399   4.270112   4.704023   5.520733
    30  H    4.512316   4.689384   5.857025   6.240062   7.027198
                   21         22         23         24         25
    21  H    0.000000
    22  O    2.159682   0.000000
    23  H    2.993548   0.972964   0.000000
    24  O    7.032000   6.268852   6.253127   0.000000
    25  H    7.000038   6.068411   6.066593   1.016682   0.000000
    26  H    5.699521   5.171548   5.267668   1.430251   1.908266
    27  H    7.365367   6.435887   6.276227   0.967974   1.605958
    28  O    6.859123   5.785263   5.851376   2.437501   1.443267
    29  H    5.891347   4.855787   5.007114   2.794414   1.974677
    30  H    7.311384   5.988729   5.935374   3.030256   2.038122
                   26         27         28         29         30
    26  H    0.000000
    27  H    1.966094   0.000000
    28  O    2.877810   2.968699   0.000000
    29  H    2.707716   3.357839   1.014416   0.000000
    30  H    3.596680   3.313029   0.967012   1.607297   0.000000
 Stoichiometry    C6H16O8
 Framework group  C1[X(C6H16O8)]
 Deg. of freedom    84
 Full point group                 C1      NOp   1
 Largest Abelian subgroup         C1      NOp   1
 Largest concise Abelian subgroup C1      NOp   1
                         Standard orientation:                         
 ---------------------------------------------------------------------
 Center     Atomic      Atomic             Coordinates (Angstroms)
 Number     Number       Type             X           Y           Z
 ---------------------------------------------------------------------
      1          8           0        0.596271   -0.224614   -0.970905
      2          6           0       -1.236864    0.827150    0.233689
      3          6           0       -1.130005   -1.700535    0.121704
      4          6           0       -1.974221   -0.450538   -0.166620
      5          6           0        0.382590   -1.398900    0.139831
      6          6           0       -0.012020    1.036002   -0.666117
      7          1           0       -2.156904   -0.425455   -1.252571
      8          1           0       -0.381782    1.446438   -1.618286
      9          1           0       -0.925445    0.739078    1.282959
     10          1           0        0.953483   -2.179148   -0.377757
     11          6           0        0.981597    2.030977   -0.039558
     12          1           0        1.343045    1.631414    0.911240
     13          1           0        1.849601    2.187181   -0.697296
     14          1           0       -1.406604   -2.060286    1.121458
     15          8           0        0.856270   -1.038819    1.336712
     16          8           0        0.350718    3.279837    0.266081
     17          1           0        0.160935    3.725756   -0.575327
     18          8           0       -1.442169   -2.659745   -0.882925
     19          1           0       -1.208929   -3.537468   -0.544059
     20          8           0       -3.193810   -0.553188    0.547304
     21          1           0       -3.580869    0.339340    0.518293
     22          8           0       -2.158452    1.906111    0.086802
     23          1           0       -1.714608    2.679556    0.475962
     24          8           0        3.294185   -1.006906    1.126799
     25          1           0        3.338150   -0.664093    0.170667
     26          1           0        1.880281   -1.074519    1.331549
     27          1           0        3.657724   -0.322699    1.707033
     28          8           0        3.029043   -0.311526   -1.194312
     29          1           0        2.022670   -0.187236   -1.222699
     30          1           0        3.446352    0.508010   -1.493186
 ---------------------------------------------------------------------
 Rotational constants (GHZ):      0.7210630      0.5553089      0.3742314
 Standard basis: 6-31G(d) (6D, 7F)
 There are   242 symmetry adapted cartesian basis functions of A   symmetry.
 There are   242 symmetry adapted basis functions of A   symmetry.
   242 basis functions,   456 primitive gaussians,   242 cartesian basis functions
    58 alpha electrons       58 beta electrons
       nuclear repulsion energy      1118.1765193874 Hartrees.
 NAtoms=   30 NActive=   30 NUniq=   30 SFac= 1.00D+00 NAtFMM=   60 NAOKFM=F Big=F
 Integral buffers will be    131072 words long.
 Raffenetti 2 integral format.
 Two-electron integral symmetry is turned on.
 One-electron integrals computed using PRISM.
 NBasis=   242 RedAO= T EigKep=  1.29D-03  NBF=   242
 NBsUse=   242 1.00D-06 EigRej= -1.00D+00 NBFU=   242
 ExpMin= 1.61D-01 ExpMax= 5.48D+03 ExpMxC= 8.25D+02 IAcc=1 IRadAn=         1 AccDes= 0.00D+00
 Harris functional with IExCor=  402 and IRadAn=       1 diagonalized for initial guess.
 HarFok:  IExCor=  402 AccDes= 0.00D+00 IRadAn=         1 IDoV= 1 UseB2=F ITyADJ=14
 ICtDFT=  3500011 ScaDFX=  1.000000  1.000000  1.000000  1.000000
 FoFCou: FMM=F IPFlag=           0 FMFlag=      100000 FMFlg1=           0
         NFxFlg=           0 DoJE=T BraDBF=F KetDBF=T FulRan=T
         wScrn=  0.000000 ICntrl=     500 IOpCl=  0 I1Cent=   200000004 NGrid=           0
         NMat0=    1 NMatS0=      1 NMatT0=    0 NMatD0=    1 NMtDS0=    0 NMtDT0=    0
 Petite list used in FoFCou.
 Requested convergence on RMS density matrix=1.00D-08 within 128 cycles.
 Requested convergence on MAX density matrix=1.00D-06.
 Requested convergence on             energy=1.00D-06.
 No special actions if energy rises.
 Integral accuracy reduced to 1.0D-05 until final iterations.
 Initial convergence to 1.0D-05 achieved.  Increase integral accuracy.
 SCF Done:  E(RB3LYP) =  -839.975690137     A.U. after   14 cycles
            NFock= 14  Conv=0.57D-08     -V/T= 2.0084

 **********************************************************************

            Population analysis using the SCF density.

 **********************************************************************

 Orbital symmetries:
       Occupied  (A) (A) (A) (A) (A) (A) (A) (A) (A) (A) (A) (A)
                 (A) (A) (A) (A) (A) (A) (A) (A) (A) (A) (A) (A)
                 (A) (A) (A) (A) (A) (A) (A) (A) (A) (A) (A) (A)
                 (A) (A) (A) (A) (A) (A) (A) (A) (A) (A) (A) (A)
                 (A) (A) (A) (A) (A) (A) (A) (A) (A) (A)
       Virtual   (A) (A) (A) (A) (A) (A) (A) (A) (A) (A) (A) (A)
                 (A) (A) (A) (A) (A) (A) (A) (A) (A) (A) (A) (A)
                 (A) (A) (A) (A) (A) (A) (A) (A) (A) (A) (A) (A)
                 (A) (A) (A) (A) (A) (A) (A) (A) (A) (A) (A) (A)
                 (A) (A) (A) (A) (A) (A) (A) (A) (A) (A) (A) (A)
                 (A) (A) (A) (A) (A) (A) (A) (A) (A) (A) (A) (A)
                 (A) (A) (A) (A) (A) (A) (A) (A) (A) (A) (A) (A)
                 (A) (A) (A) (A) (A) (A) (A) (A) (A) (A) (A) (A)
                 (A) (A) (A) (A) (A) (A) (A) (A) (A) (A) (A) (A)
                 (A) (A) (A) (A) (A) (A) (A) (A) (A) (A) (A) (A)
                 (A) (A) (A) (A) (A) (A) (A) (A) (A) (A) (A) (A)
                 (A) (A) (A) (A) (A) (A) (A) (A) (A) (A) (A) (A)
                 (A) (A) (A) (A) (A) (A) (A) (A) (A) (A) (A) (A)
                 (A) (A) (A) (A) (A) (A) (A) (A) (A) (A) (A) (A)
                 (A) (A) (A) (A) (A) (A) (A) (A) (A) (A) (A) (A)
                 (A) (A) (A) (A)
 The electronic state is 1-A.
 Alpha  occ. eigenvalues --  -19.17962 -19.16239 -19.15128 -19.15015 -19.14674
 Alpha  occ. eigenvalues --  -19.14581 -19.14262 -19.13043 -10.29310 -10.25194
 Alpha  occ. eigenvalues --  -10.24649 -10.23901 -10.23469 -10.22961  -1.06288
 Alpha  occ. eigenvalues --   -1.04887  -1.03264  -1.02413  -1.01902  -1.01113
 Alpha  occ. eigenvalues --   -0.99838  -0.98377  -0.77622  -0.76172  -0.69619
 Alpha  occ. eigenvalues --   -0.64359  -0.62546  -0.56501  -0.56047  -0.55221
 Alpha  occ. eigenvalues --   -0.54638  -0.53680  -0.52474  -0.51521  -0.49564
 Alpha  occ. eigenvalues --   -0.46779  -0.46207  -0.44443  -0.43532  -0.42633
 Alpha  occ. eigenvalues --   -0.42016  -0.41197  -0.39662  -0.38605  -0.37754
 Alpha  occ. eigenvalues --   -0.36310  -0.35831  -0.34746  -0.33519  -0.32114
 Alpha  occ. eigenvalues --   -0.31652  -0.30953  -0.29913  -0.29697  -0.27593
 Alpha  occ. eigenvalues --   -0.26695  -0.26334  -0.24890
 Alpha virt. eigenvalues --    0.03635   0.04304   0.06489   0.07583   0.08543
 Alpha virt. eigenvalues --    0.09309   0.11326   0.12826   0.13101   0.14275
 Alpha virt. eigenvalues --    0.15636   0.16448   0.17453   0.18087   0.20075
 Alpha virt. eigenvalues --    0.20259   0.20973   0.21697   0.24029   0.25329
 Alpha virt. eigenvalues --    0.26906   0.28251   0.28755   0.30041   0.31490
 Alpha virt. eigenvalues --    0.32453   0.32642   0.35979   0.51871   0.52467
 Alpha virt. eigenvalues --    0.53963   0.54505   0.55622   0.57455   0.59331
 Alpha virt. eigenvalues --    0.61090   0.62745   0.62782   0.65472   0.67616
 Alpha virt. eigenvalues --    0.69545   0.70113   0.72411   0.72844   0.74098
 Alpha virt. eigenvalues --    0.76440   0.77363   0.78155   0.79312   0.80669
 Alpha virt. eigenvalues --    0.82035   0.82452   0.83534   0.83999   0.84954
 Alpha virt. eigenvalues --    0.85514   0.86580   0.87039   0.88274   0.89611
 Alpha virt. eigenvalues --    0.90517   0.91915   0.93238   0.94494   0.96154
 Alpha virt. eigenvalues --    0.97386   0.99130   0.99888   1.02243   1.02723
 Alpha virt. eigenvalues --    1.03518   1.05160   1.06701   1.07858   1.08841
 Alpha virt. eigenvalues --    1.10982   1.12521   1.14223   1.14517   1.15097
 Alpha virt. eigenvalues --    1.19161   1.20227   1.21153   1.24393   1.26452
 Alpha virt. eigenvalues --    1.29454   1.31650   1.32873   1.37092   1.39592
 Alpha virt. eigenvalues --    1.41946   1.45305   1.47314   1.49307   1.53495
 Alpha virt. eigenvalues --    1.55058   1.56038   1.57201   1.58239   1.60275
 Alpha virt. eigenvalues --    1.62046   1.62790   1.66586   1.67662   1.69739
 Alpha virt. eigenvalues --    1.70820   1.72087   1.72598   1.72724   1.74471
 Alpha virt. eigenvalues --    1.75401   1.77151   1.77962   1.79404   1.80348
 Alpha virt. eigenvalues --    1.82128   1.83621   1.83707   1.85559   1.86625
 Alpha virt. eigenvalues --    1.88485   1.90133   1.90886   1.92917   1.95060
 Alpha virt. eigenvalues --    1.98049   2.00355   2.01316   2.04542   2.05001
 Alpha virt. eigenvalues --    2.07949   2.08819   2.10174   2.11945   2.15366
 Alpha virt. eigenvalues --    2.18514   2.19941   2.24703   2.27693   2.28374
 Alpha virt. eigenvalues --    2.29978   2.32690   2.37245   2.39442   2.41058
 Alpha virt. eigenvalues --    2.41851   2.46943   2.48608   2.50272   2.52286
 Alpha virt. eigenvalues --    2.53028   2.55202   2.55291   2.58788   2.61487
 Alpha virt. eigenvalues --    2.62455   2.67090   2.70082   2.71519   2.75115
 Alpha virt. eigenvalues --    2.75571   2.82601   2.86588   2.88266   2.91156
 Alpha virt. eigenvalues --    2.95183   2.98114   3.01014   3.06209   3.10460
 Alpha virt. eigenvalues --    3.72904   3.76589   3.80520   3.87266   3.89517
 Alpha virt. eigenvalues --    3.95002   4.05062   4.10148   4.25042   4.39375
 Alpha virt. eigenvalues --    4.45743   4.52892   4.65727   4.86636
          Condensed to atoms (all electrons):
               1          2          3          4          5          6
     1  O    8.528482  -0.029725  -0.024392  -0.002690   0.120879   0.141638
     2  C   -0.029725   5.038361  -0.023816   0.311399   0.006105   0.286271
     3  C   -0.024392  -0.023816   4.946461   0.328501   0.301313  -0.015746
     4  C   -0.002690   0.311399   0.328501   4.857590  -0.043713  -0.030164
     5  C    0.120879   0.006105   0.301313  -0.043713   4.868621  -0.021188
     6  C    0.141638   0.286271  -0.015746  -0.030164  -0.021188   5.010735
     7  H    0.001650  -0.056408  -0.051997   0.354352  -0.000530  -0.001148
     8  H   -0.033206  -0.044295   0.000400  -0.007625   0.002607   0.358883
     9  H    0.001800   0.348562  -0.007684  -0.039495  -0.001798  -0.049710
    10  H   -0.038020   0.000168  -0.051670   0.003231   0.361721   0.004527
    11  C   -0.027634  -0.033468  -0.000228   0.003873  -0.000749   0.327727
    12  H    0.000858  -0.009990  -0.000008  -0.000067   0.001225  -0.035202
    13  H    0.001277   0.005415  -0.000015  -0.000096  -0.000154  -0.047736
    14  H    0.002803  -0.002624   0.346266  -0.030575  -0.059046   0.000708
    15  O   -0.052866  -0.005622  -0.041602   0.002350   0.243201   0.007867
    16  O    0.001439   0.002208  -0.000005   0.000158   0.000032  -0.040008
    17  H    0.000025  -0.002064   0.000001  -0.000012   0.000001  -0.001031
    18  O    0.001753   0.002413   0.222236  -0.039596  -0.041524   0.000241
    19  H   -0.000095  -0.000305  -0.021343   0.006786  -0.000943  -0.000003
    20  O    0.000076  -0.030884  -0.039758   0.243330   0.002446   0.003331
    21  H   -0.000018  -0.014485   0.006775  -0.033910  -0.000302   0.000965
    22  O    0.001460   0.210279   0.002468  -0.037088   0.000066  -0.042035
    23  H    0.000003  -0.021825  -0.000240   0.005615   0.000043  -0.003916
    24  O   -0.000832  -0.000006  -0.000018   0.000001   0.005704  -0.000033
    25  H    0.002099   0.000010   0.000094  -0.000002   0.000149  -0.000276
    26  H    0.004066   0.000120   0.002621  -0.000193  -0.016738  -0.000723
    27  H    0.000035   0.000002   0.000000   0.000000  -0.000138  -0.000035
    28  O   -0.075514  -0.000078  -0.000040   0.000010   0.006018   0.001809
    29  H    0.083927   0.001464   0.000888  -0.000000  -0.006436  -0.006805
    30  H    0.003654   0.000023  -0.000004  -0.000001  -0.000122  -0.000549
               7          8          9         10         11         12
     1  O    0.001650  -0.033206   0.001800  -0.038020  -0.027634   0.000858
     2  C   -0.056408  -0.044295   0.348562   0.000168  -0.033468  -0.009990
     3  C   -0.051997   0.000400  -0.007684  -0.051670  -0.000228  -0.000008
     4  C    0.354352  -0.007625  -0.039495   0.003231   0.003873  -0.000067
     5  C   -0.000530   0.002607  -0.001798   0.361721  -0.000749   0.001225
     6  C   -0.001148   0.358883  -0.049710   0.004527   0.327727  -0.035202
     7  H    0.634385   0.004908   0.007257  -0.000256   0.000091   0.000006
     8  H    0.004908   0.628814   0.006953  -0.000203  -0.060364   0.005400
     9  H    0.007257   0.006953   0.613122   0.000278  -0.008668   0.004900
    10  H   -0.000256  -0.000203   0.000278   0.600316  -0.000147   0.000092
    11  C    0.000091  -0.060364  -0.008668  -0.000147   4.989690   0.361369
    12  H    0.000006   0.005400   0.004900   0.000092   0.361369   0.558960
    13  H    0.000007  -0.005519   0.000113   0.000008   0.349663  -0.040644
    14  H    0.006843   0.000015   0.003514   0.002962   0.000026  -0.000005
    15  O    0.000029  -0.000177   0.008942  -0.036819  -0.002980   0.007970
    16  O   -0.000012   0.001400   0.000172   0.000001   0.214783  -0.030985
    17  H    0.000002   0.005364   0.000197  -0.000000  -0.030086   0.006691
    18  O    0.001767   0.000022   0.000009   0.006330  -0.000002   0.000000
    19  H   -0.000045  -0.000000   0.000009   0.002630  -0.000000   0.000000
    20  O   -0.041735  -0.000065   0.001270  -0.000061  -0.000049  -0.000002
    21  H   -0.000978   0.000013   0.000276   0.000005  -0.000018  -0.000000
    22  O   -0.001349   0.004466  -0.037273   0.000002  -0.000315   0.000123
    23  H   -0.000272  -0.000401  -0.005248  -0.000000  -0.003600  -0.000115
    24  O   -0.000000  -0.000001  -0.000002   0.002189  -0.000579   0.002285
    25  H    0.000000   0.000002  -0.000008  -0.000929   0.000443   0.000049
    26  H    0.000004   0.000014   0.000072  -0.004383   0.000319   0.000284
    27  H   -0.000000   0.000000  -0.000005  -0.000104   0.000089   0.000656
    28  O    0.000002  -0.000075   0.000004   0.001962   0.003386  -0.000219
    29  H   -0.000039  -0.000687  -0.000124  -0.002296  -0.001964  -0.000184
    30  H   -0.000000   0.000048  -0.000000  -0.000045  -0.000437   0.000101
              13         14         15         16         17         18
     1  O    0.001277   0.002803  -0.052866   0.001439   0.000025   0.001753
     2  C    0.005415  -0.002624  -0.005622   0.002208  -0.002064   0.002413
     3  C   -0.000015   0.346266  -0.041602  -0.000005   0.000001   0.222236
     4  C   -0.000096  -0.030575   0.002350   0.000158  -0.000012  -0.039596
     5  C   -0.000154  -0.059046   0.243201   0.000032   0.000001  -0.041524
     6  C   -0.047736   0.000708   0.007867  -0.040008  -0.001031   0.000241
     7  H    0.000007   0.006843   0.000029  -0.000012   0.000002   0.001767
     8  H   -0.005519   0.000015  -0.000177   0.001400   0.005364   0.000022
     9  H    0.000113   0.003514   0.008942   0.000172   0.000197   0.000009
    10  H    0.000008   0.002962  -0.036819   0.000001  -0.000000   0.006330
    11  C    0.349663   0.000026  -0.002980   0.214783  -0.030086  -0.000002
    12  H   -0.040644  -0.000005   0.007970  -0.030985   0.006691   0.000000
    13  H    0.651747  -0.000000   0.000120  -0.028242  -0.008342  -0.000000
    14  H   -0.000000   0.598830   0.006729  -0.000000   0.000000  -0.030750
    15  O    0.000120   0.006729   8.381352   0.000018  -0.000003   0.001404
    16  O   -0.028242  -0.000000   0.000018   8.235724   0.233408   0.000000
    17  H   -0.008342   0.000000  -0.000003   0.233408   0.394716   0.000000
    18  O   -0.000000  -0.030750   0.001404   0.000000   0.000000   8.269701
    19  H    0.000000  -0.007709  -0.000082   0.000000  -0.000000   0.230408
    20  O    0.000000   0.002175  -0.000026  -0.000000   0.000000   0.001371
    21  H    0.000001  -0.000085   0.000003   0.000006  -0.000001  -0.000179
    22  O   -0.000232  -0.000100   0.000047  -0.010008   0.002569  -0.000008
    23  H    0.000418   0.000005  -0.000002   0.037191  -0.002179   0.000001
    24  O   -0.000086   0.000001  -0.083202   0.000001  -0.000000   0.000000
    25  H    0.000045  -0.000003   0.007409   0.000001   0.000000  -0.000001
    26  H   -0.000028   0.000060   0.173257   0.000001   0.000001  -0.000053
    27  H    0.000014  -0.000001   0.004266   0.000000   0.000000  -0.000000
    28  O    0.003057   0.000003  -0.001356   0.000021   0.000002   0.000001
    29  H    0.003403  -0.000053   0.002716  -0.000042  -0.000017  -0.000055
    30  H    0.004904  -0.000000   0.000011  -0.000002  -0.000002   0.000000
              19         20         21         22         23         24
     1  O   -0.000095   0.000076  -0.000018   0.001460   0.000003  -0.000832
     2  C   -0.000305  -0.030884  -0.014485   0.210279  -0.021825  -0.000006
     3  C   -0.021343  -0.039758   0.006775   0.002468  -0.000240  -0.000018
     4  C    0.006786   0.243330  -0.033910  -0.037088   0.005615   0.000001
     5  C   -0.000943   0.002446  -0.000302   0.000066   0.000043   0.005704
     6  C   -0.000003   0.003331   0.000965  -0.042035  -0.003916  -0.000033
     7  H   -0.000045  -0.041735  -0.000978  -0.001349  -0.000272  -0.000000
     8  H   -0.000000  -0.000065   0.000013   0.004466  -0.000401  -0.000001
     9  H    0.000009   0.001270   0.000276  -0.037273  -0.005248  -0.000002
    10  H    0.002630  -0.000061   0.000005   0.000002  -0.000000   0.002189
    11  C   -0.000000  -0.000049  -0.000018  -0.000315  -0.003600  -0.000579
    12  H    0.000000  -0.000002  -0.000000   0.000123  -0.000115   0.002285
    13  H    0.000000   0.000000   0.000001  -0.000232   0.000418  -0.000086
    14  H   -0.007709   0.002175  -0.000085  -0.000100   0.000005   0.000001
    15  O   -0.000082  -0.000026   0.000003   0.000047  -0.000002  -0.083202
    16  O    0.000000  -0.000000   0.000006  -0.010008   0.037191   0.000001
    17  H   -0.000000   0.000000  -0.000001   0.002569  -0.002179  -0.000000
    18  O    0.230408   0.001371  -0.000179  -0.000008   0.000001   0.000000
    19  H    0.395613  -0.000218   0.000023   0.000001  -0.000000  -0.000000
    20  O   -0.000218   8.282699   0.235670  -0.008293   0.000147  -0.000000
    21  H    0.000023   0.235670   0.369934   0.027969  -0.000701   0.000000
    22  O    0.000001  -0.008293   0.027969   8.331110   0.225305   0.000000
    23  H   -0.000000   0.000147  -0.000701   0.225305   0.361657  -0.000000
    24  O   -0.000000  -0.000000   0.000000   0.000000  -0.000000   8.451184
    25  H   -0.000000   0.000000  -0.000000  -0.000000   0.000000   0.174443
    26  H   -0.000010   0.000001  -0.000000  -0.000000   0.000000   0.117339
    27  H    0.000000   0.000000   0.000000  -0.000000   0.000000   0.232930
    28  O   -0.000000   0.000000  -0.000000   0.000000  -0.000000  -0.082733
    29  H    0.000001   0.000000   0.000000  -0.000010   0.000002   0.006587
    30  H    0.000000  -0.000000   0.000000  -0.000000   0.000000   0.003664
              25         26         27         28         29         30
     1  O    0.002099   0.004066   0.000035  -0.075514   0.083927   0.003654
     2  C    0.000010   0.000120   0.000002  -0.000078   0.001464   0.000023
     3  C    0.000094   0.002621   0.000000  -0.000040   0.000888  -0.000004
     4  C   -0.000002  -0.000193   0.000000   0.000010  -0.000000  -0.000001
     5  C    0.000149  -0.016738  -0.000138   0.006018  -0.006436  -0.000122
     6  C   -0.000276  -0.000723  -0.000035   0.001809  -0.006805  -0.000549
     7  H    0.000000   0.000004  -0.000000   0.000002  -0.000039  -0.000000
     8  H    0.000002   0.000014   0.000000  -0.000075  -0.000687   0.000048
     9  H   -0.000008   0.000072  -0.000005   0.000004  -0.000124  -0.000000
    10  H   -0.000929  -0.004383  -0.000104   0.001962  -0.002296  -0.000045
    11  C    0.000443   0.000319   0.000089   0.003386  -0.001964  -0.000437
    12  H    0.000049   0.000284   0.000656  -0.000219  -0.000184   0.000101
    13  H    0.000045  -0.000028   0.000014   0.003057   0.003403   0.004904
    14  H   -0.000003   0.000060  -0.000001   0.000003  -0.000053  -0.000000
    15  O    0.007409   0.173257   0.004266  -0.001356   0.002716   0.000011
    16  O    0.000001   0.000001   0.000000   0.000021  -0.000042  -0.000002
    17  H    0.000000   0.000001   0.000000   0.000002  -0.000017  -0.000002
    18  O   -0.000001  -0.000053  -0.000000   0.000001  -0.000055   0.000000
    19  H   -0.000000  -0.000010   0.000000  -0.000000   0.000001   0.000000
    20  O    0.000000   0.000001   0.000000   0.000000   0.000000  -0.000000
    21  H   -0.000000  -0.000000   0.000000  -0.000000   0.000000   0.000000
    22  O   -0.000000  -0.000000  -0.000000   0.000000  -0.000010  -0.000000
    23  H    0.000000   0.000000   0.000000  -0.000000   0.000002   0.000000
    24  O    0.174443   0.117339   0.232930  -0.082733   0.006587   0.003664
    25  H    0.299382  -0.010605  -0.004810   0.097091  -0.007749  -0.004552
    26  H   -0.010605   0.281897  -0.007613   0.002811  -0.000647  -0.000039
    27  H   -0.004810  -0.007613   0.377526   0.003655  -0.000246  -0.000325
    28  O    0.097091   0.002811   0.003655   8.475312   0.168874   0.233475
    29  H   -0.007749  -0.000647  -0.000246   0.168874   0.299852  -0.007197
    30  H   -0.004552  -0.000039  -0.000325   0.233475  -0.007197   0.373133
 Mulliken charges:
               1
     1  O   -0.612935
     2  C    0.062794
     3  C    0.120542
     4  C    0.148032
     5  C    0.273251
     6  C    0.151605
     7  H    0.143465
     8  H    0.133309
     9  H    0.152562
    10  H    0.148512
    11  C   -0.080169
    12  H    0.166449
    13  H    0.110904
    14  H    0.160009
    15  O   -0.622956
    16  O   -0.617259
    17  H    0.400761
    18  O   -0.625491
    19  H    0.395281
    20  O   -0.651428
    21  H    0.409037
    22  O   -0.669154
    23  H    0.408110
    24  O   -0.828837
    25  H    0.447716
    26  H    0.458164
    27  H    0.394103
    28  O   -0.837476
    29  H    0.466837
    30  H    0.394261
 Sum of Mulliken charges =  -0.00000
 Mulliken charges with hydrogens summed into heavy atoms:
               1
     1  O   -0.612935
     2  C    0.215357
     3  C    0.280551
     4  C    0.291497
     5  C    0.421763
     6  C    0.284914
    11  C    0.197184
    15  O   -0.164792
    16  O   -0.216498
    18  O   -0.230210
    20  O   -0.242391
    22  O   -0.261044
    24  O    0.012982
    28  O    0.023622
 Electronic spatial extent (au):  <R**2>=           3090.3847
 Charge=              0.0000 electrons
 Dipole moment (field-independent basis, Debye):
    X=              3.1844    Y=              3.4658    Z=             -0.4915  Tot=              4.7322
 Quadrupole moment (field-independent basis, Debye-Ang):
   XX=            -86.7941   YY=            -73.6730   ZZ=            -85.7436
   XY=              5.2796   XZ=             -0.4372   YZ=             -6.1629
 Traceless Quadrupole moment (field-independent basis, Debye-Ang):
   XX=             -4.7239   YY=              8.3973   ZZ=             -3.6734
   XY=              5.2796   XZ=             -0.4372   YZ=             -6.1629
 Octapole moment (field-independent basis, Debye-Ang**2):
  XXX=             52.7930  YYY=            -18.0084  ZZZ=              4.8231  XYY=             -7.4979
  XXY=             49.5356  XXZ=              7.6406  XZZ=             13.4998  YZZ=             17.4897
  YYZ=            -17.0846  XYZ=             -3.2947
 Hexadecapole moment (field-independent basis, Debye-Ang**3):
 XXXX=          -1763.6320 YYYY=          -1116.9720 ZZZZ=           -368.3367 XXXY=             57.5860
 XXXZ=             22.1315 YYYX=             -3.5151 YYYZ=            -68.2199 ZZZX=             17.0993
 ZZZY=             -6.4400 XXYY=           -582.6241 XXZZ=           -335.4455 YYZZ=           -298.1921
 XXYZ=              4.6489 YYXZ=            -39.4697 ZZXY=              9.9707
 N-N= 1.118176519387D+03 E-N=-4.209102177509D+03  KE= 8.330077398498D+02
 Calling FoFJK, ICntrl=      2127 FMM=F ISym2X=0 I1Cent= 0 IOpClX= 0 NMat=1 NMatS=1 NMatT=0.
 ***** Axes restored to original set *****
 -------------------------------------------------------------------
 Center     Atomic                   Forces (Hartrees/Bohr)
 Number     Number              X              Y              Z
 -------------------------------------------------------------------
      1        8          -0.012993043   -0.013589435    0.016791517
      2        6          -0.001605828    0.001241474    0.000637409
      3        6           0.000937603    0.000723094    0.000206834
      4        6          -0.000608529   -0.000041002    0.000592943
      5        6          -0.001653821    0.017557024   -0.022748919
      6        6          -0.002364687   -0.003975973    0.003546854
      7        1           0.000010911   -0.000009081    0.000020213
      8        1           0.000285973   -0.000920100   -0.000097606
      9        1          -0.000161967    0.000126711    0.000053188
     10        1          -0.000045824    0.000405329   -0.000081802
     11        6          -0.000082136   -0.001371962   -0.000088758
     12        1           0.000120660    0.000036420   -0.000009191
     13        1          -0.000077935   -0.000187743   -0.000106809
     14        1           0.000762710    0.000008396    0.000135555
     15        8          -0.015485946    0.001065873    0.004288051
     16        8          -0.000214706   -0.000425540   -0.000438875
     17        1           0.000040347    0.000027173   -0.000013253
     18        8           0.000179790    0.000327770    0.001060512
     19        1          -0.000071381    0.000007637    0.000066850
     20        8          -0.000068540   -0.000197723    0.000042821
     21        1          -0.000019234   -0.000020553    0.000065742
     22        8          -0.001432737    0.000631518    0.000612821
     23        1           0.000001445    0.000087063   -0.000163772
     24        8           0.015781841   -0.004763642    0.014016106
     25        1           0.002297220   -0.000915343    0.001761239
     26        1          -0.002060932   -0.000566541    0.000905559
     27        1           0.001213717    0.000363401   -0.000064717
     28        8           0.015647053    0.004659968   -0.016261780
     29        1           0.001985427   -0.000562837   -0.002134342
     30        1          -0.000317448    0.000278625   -0.002594389
 -------------------------------------------------------------------
 Cartesian Forces:  Max     0.022748919 RMS     0.005581147

 GradGradGradGradGradGradGradGradGradGradGradGradGradGradGradGradGradGrad
 Berny optimization.
 FormGI is forming the generalized inverse of G from B-inverse, IUseBI=4.
 Internal  Forces:  Max     0.020024960 RMS     0.003806559
 Search for a local minimum.
 Step number   1 out of a maximum of  178
 All quantities printed in internal units (Hartrees-Bohrs-Radians)
 Mixed Optimization -- RFO/linear search
 Second derivative matrix not updated -- first step.
 ITU=  0
     Eigenvalues ---    0.00235   0.00244   0.00348   0.00498   0.00632
     Eigenvalues ---    0.00678   0.00933   0.01266   0.01341   0.01379
     Eigenvalues ---    0.01468   0.01710   0.02157   0.02695   0.03252
     Eigenvalues ---    0.03906   0.04177   0.04550   0.04618   0.04797
     Eigenvalues ---    0.04811   0.04899   0.04951   0.05161   0.05452
     Eigenvalues ---    0.05718   0.05923   0.06321   0.06418   0.06701
     Eigenvalues ---    0.06984   0.07035   0.07133   0.08631   0.09127
     Eigenvalues ---    0.10186   0.10716   0.11280   0.11566   0.12063
     Eigenvalues ---    0.12967   0.13082   0.13628   0.13887   0.14024
     Eigenvalues ---    0.16000   0.16000   0.16000   0.16000   0.16453
     Eigenvalues ---    0.16497   0.17020   0.18423   0.19130   0.19940
     Eigenvalues ---    0.21060   0.22041   0.26307   0.27292   0.28217
     Eigenvalues ---    0.28567   0.28909   0.33517   0.33592   0.33659
     Eigenvalues ---    0.33899   0.33913   0.34057   0.34471   0.38683
     Eigenvalues ---    0.40681   0.41488   0.41907   0.41914   0.42930
     Eigenvalues ---    0.43697   0.44653   0.52714   0.52776   0.53174
     Eigenvalues ---    0.53511   0.53793   0.53992   0.56434
 RFO step:  Lambda=-1.26343248D-02 EMin= 2.34822474D-03
 Linear search not attempted -- first point.
 Iteration  1 RMS(Cart)=  0.04398040 RMS(Int)=  0.00065147
 Iteration  2 RMS(Cart)=  0.00112144 RMS(Int)=  0.00018617
 Iteration  3 RMS(Cart)=  0.00000133 RMS(Int)=  0.00018616
 Iteration  4 RMS(Cart)=  0.00000000 RMS(Int)=  0.00018616
 Variable       Old X    -DE/DX   Delta X   Delta X   Delta X     New X
                                 (Linear)    (Quad)   (Total)
    R1        3.08109  -0.01988   0.00000  -0.10075  -0.10119   2.97990
    R2        2.70704   0.00058   0.00000   0.00110   0.00096   2.70800
    R3        2.73809   0.02002   0.00000   0.14083   0.14067   2.87876
    R4        2.88852  -0.00173   0.00000  -0.00457  -0.00458   2.88394
    R5        2.89906   0.00080   0.00000   0.00786   0.00774   2.90680
    R6        2.07501  -0.00001   0.00000  -0.00002  -0.00002   2.07499
    R7        2.69580   0.00142   0.00000   0.00333   0.00333   2.69912
    R8        2.90202  -0.00236   0.00000  -0.00506  -0.00490   2.89712
    R9        2.91487  -0.00041   0.00000  -0.00304  -0.00290   2.91197
   R10        2.07477  -0.00007   0.00000  -0.00019  -0.00019   2.07458
   R11        2.69033  -0.00105   0.00000  -0.00244  -0.00244   2.68789
   R12        2.08153  -0.00002   0.00000  -0.00007  -0.00007   2.08146
   R13        2.67756   0.00015   0.00000   0.00033   0.00033   2.67790
   R14        2.07234  -0.00027   0.00000  -0.00078  -0.00078   2.07156
   R15        2.52585   0.00426   0.00000   0.00737   0.00719   2.53304
   R16        2.08025  -0.00035   0.00000  -0.00102  -0.00102   2.07923
   R17        2.90909  -0.00172   0.00000  -0.00560  -0.00559   2.90350
   R18        2.06518   0.00000   0.00000   0.00005   0.00006   2.06524
   R19        2.07909  -0.00002   0.00000  -0.00006  -0.00006   2.07902
   R20        2.70638  -0.00037   0.00000  -0.00088  -0.00088   2.70550
   R21        1.93630   0.01526   0.00000   0.03409   0.03415   1.97046
   R22        1.83491   0.00002   0.00000   0.00004   0.00004   1.83495
   R23        1.83180   0.00000   0.00000   0.00001   0.00001   1.83180
   R24        1.83922  -0.00001   0.00000  -0.00002  -0.00002   1.83920
   R25        1.83864   0.00000   0.00000   0.00001   0.00001   1.83864
   R26        1.92125   0.01438   0.00000   0.03301   0.03338   1.95463
   R27        2.70278   0.01704   0.00000   0.11807   0.11818   2.82096
   R28        1.82921   0.00068   0.00000   0.00123   0.00123   1.83044
   R29        2.72738   0.01647   0.00000   0.12079   0.12112   2.84850
   R30        1.91697   0.01696   0.00000   0.03685   0.03682   1.95379
   R31        1.82739   0.00090   0.00000   0.00163   0.00163   1.82901
    A1        2.01884  -0.00276   0.00000  -0.01673  -0.01692   2.00192
    A2        1.84002   0.00300   0.00000   0.00891   0.00834   1.84836
    A3        2.01784   0.00069   0.00000   0.03133   0.03179   2.04963
    A4        1.92339  -0.00179   0.00000  -0.00749  -0.00739   1.91600
    A5        1.89655   0.00123   0.00000   0.00050   0.00034   1.89690
    A6        1.86880  -0.00068   0.00000   0.00026   0.00034   1.86914
    A7        1.92299  -0.00106   0.00000  -0.00385  -0.00392   1.91908
    A8        1.93096   0.00281   0.00000   0.01152   0.01151   1.94247
    A9        1.92014  -0.00052   0.00000  -0.00102  -0.00100   1.91914
   A10        1.96288   0.00056   0.00000   0.00432   0.00442   1.96730
   A11        1.87463  -0.00061   0.00000  -0.00116  -0.00124   1.87338
   A12        1.87066   0.00079   0.00000   0.00398   0.00399   1.87466
   A13        1.87593   0.00033   0.00000  -0.00768  -0.00762   1.86831
   A14        1.93378  -0.00104   0.00000   0.00225   0.00209   1.93587
   A15        1.94611  -0.00002   0.00000  -0.00176  -0.00174   1.94437
   A16        1.94554  -0.00278   0.00000  -0.01198  -0.01205   1.93348
   A17        1.89564   0.00170   0.00000   0.00253   0.00260   1.89825
   A18        1.92178  -0.00016   0.00000   0.00407   0.00400   1.92577
   A19        1.87005  -0.00051   0.00000  -0.00166  -0.00167   1.86838
   A20        1.89611   0.00218   0.00000   0.00453   0.00459   1.90071
   A21        1.93440  -0.00047   0.00000   0.00228   0.00225   1.93665
   A22        1.83522   0.00399   0.00000   0.02575   0.02613   1.86135
   A23        1.69378  -0.00204   0.00000  -0.00560  -0.00569   1.68809
   A24        1.94933   0.00186   0.00000   0.00202   0.00156   1.95088
   A25        1.94531   0.00014   0.00000  -0.00013  -0.00031   1.94500
   A26        1.99404  -0.00442   0.00000  -0.01919  -0.01893   1.97511
   A27        2.01509   0.00140   0.00000   0.00255   0.00250   2.01759
   A28        1.92199   0.00335   0.00000   0.02540   0.02530   1.94729
   A29        1.86158  -0.00032   0.00000  -0.01097  -0.01106   1.85052
   A30        1.96199  -0.00266   0.00000  -0.01111  -0.01103   1.95096
   A31        1.86492  -0.00073   0.00000  -0.00359  -0.00340   1.86153
   A32        1.94399  -0.00053   0.00000  -0.00090  -0.00096   1.94303
   A33        1.90484   0.00096   0.00000   0.00077   0.00065   1.90549
   A34        1.90845   0.00030   0.00000   0.00243   0.00245   1.91089
   A35        1.93656  -0.00008   0.00000  -0.00187  -0.00187   1.93469
   A36        1.94566  -0.00078   0.00000  -0.00357  -0.00357   1.94209
   A37        1.88714  -0.00006   0.00000   0.00033   0.00033   1.88747
   A38        1.85339   0.00032   0.00000   0.00259   0.00259   1.85598
   A39        1.92977   0.00033   0.00000   0.00044   0.00043   1.93020
   A40        1.91800   0.00169   0.00000   0.00539   0.00505   1.92305
   A41        1.87720  -0.00001   0.00000  -0.00005  -0.00005   1.87715
   A42        1.88665  -0.00008   0.00000  -0.00046  -0.00046   1.88619
   A43        1.83470   0.00011   0.00000   0.00061   0.00061   1.83531
   A44        1.83937   0.00016   0.00000   0.00090   0.00090   1.84027
   A45        1.76534  -0.00409   0.00000  -0.02471  -0.02390   1.74144
   A46        1.88510   0.00053   0.00000  -0.00201  -0.00195   1.88314
   A47        1.89534   0.00102   0.00000   0.01019   0.01005   1.90539
   A48        2.86701  -0.00240   0.00000  -0.01117  -0.01065   2.85636
   A49        1.84302  -0.00552   0.00000  -0.03306  -0.03263   1.81039
   A50        1.98986   0.00206   0.00000   0.02518   0.02539   2.01526
   A51        1.89192   0.00171   0.00000   0.00627   0.00627   1.89820
   A52        3.00892   0.00402   0.00000   0.06279   0.06249   3.07141
   A53        3.08470   0.00065   0.00000   0.00812   0.00796   3.09267
   A54        3.23559  -0.00042   0.00000   0.01798   0.01786   3.25345
   A55        2.88348   0.00233   0.00000   0.00699   0.00652   2.89000
    D1        1.15042  -0.00151   0.00000  -0.01321  -0.01298   1.13743
    D2       -3.13365  -0.00105   0.00000  -0.00865  -0.00853   3.14101
    D3       -1.02156   0.00016   0.00000  -0.00798  -0.00814  -1.02969
    D4       -2.88017  -0.00011   0.00000   0.02370   0.02389  -2.85628
    D5       -0.88105   0.00035   0.00000   0.02826   0.02834  -0.85271
    D6        1.23104   0.00156   0.00000   0.02894   0.02873   1.25977
    D7       -0.47835   0.00127   0.00000   0.00800   0.00794  -0.47040
    D8       -2.49577   0.00061   0.00000   0.00537   0.00534  -2.49043
    D9        1.70035   0.00117   0.00000   0.01791   0.01772   1.71807
   D10       -2.64076  -0.00116   0.00000  -0.01790  -0.01747  -2.65823
   D11        1.62500  -0.00182   0.00000  -0.02052  -0.02007   1.60492
   D12       -0.46207  -0.00126   0.00000  -0.00798  -0.00769  -0.46976
   D13       -0.58433  -0.00111   0.00000  -0.00847  -0.00825  -0.59258
   D14       -2.70075  -0.00146   0.00000  -0.02432  -0.02441  -2.72515
   D15        1.61734  -0.00128   0.00000   0.00094   0.00155   1.61889
   D16       -0.49908  -0.00164   0.00000  -0.01490  -0.01461  -0.51368
   D17        1.16547  -0.00296   0.00000  -0.03017  -0.03020   1.13527
   D18       -0.89092  -0.00176   0.00000  -0.02266  -0.02272  -0.91365
   D19       -3.01202  -0.00216   0.00000  -0.02960  -0.02968  -3.04170
   D20       -0.94316  -0.00134   0.00000  -0.02116  -0.02113  -0.96428
   D21       -2.99955  -0.00014   0.00000  -0.01365  -0.01365  -3.01320
   D22        1.16254  -0.00054   0.00000  -0.02059  -0.02060   1.14193
   D23       -3.01653  -0.00100   0.00000  -0.02036  -0.02032  -3.03685
   D24        1.21026   0.00020   0.00000  -0.01285  -0.01284   1.19742
   D25       -0.91084  -0.00020   0.00000  -0.01979  -0.01980  -0.93063
   D26       -0.64291  -0.00121   0.00000   0.00161   0.00183  -0.64108
   D27        1.37241  -0.00028   0.00000  -0.00035  -0.00021   1.37220
   D28       -2.83188   0.00014   0.00000  -0.00214  -0.00206  -2.83394
   D29        1.44980  -0.00149   0.00000  -0.00497  -0.00485   1.44495
   D30       -2.81806  -0.00057   0.00000  -0.00694  -0.00689  -2.82495
   D31       -0.73917  -0.00014   0.00000  -0.00873  -0.00873  -0.74791
   D32       -2.70626  -0.00099   0.00000  -0.00117  -0.00106  -2.70733
   D33       -0.69094  -0.00007   0.00000  -0.00314  -0.00310  -0.69405
   D34        1.38794   0.00036   0.00000  -0.00492  -0.00495   1.38300
   D35        2.99208   0.00069   0.00000   0.00466   0.00456   2.99664
   D36       -1.19476  -0.00029   0.00000   0.00235   0.00242  -1.19234
   D37        0.93404  -0.00011   0.00000   0.00447   0.00449   0.93853
   D38       -0.43623  -0.00139   0.00000  -0.00025  -0.00045  -0.43668
   D39        1.63553  -0.00121   0.00000  -0.00499  -0.00507   1.63045
   D40       -2.55689  -0.00087   0.00000  -0.00073  -0.00081  -2.55771
   D41        1.62425  -0.00105   0.00000  -0.00791  -0.00804   1.61620
   D42       -2.58719  -0.00087   0.00000  -0.01266  -0.01266  -2.59985
   D43       -0.49642  -0.00053   0.00000  -0.00840  -0.00840  -0.50482
   D44       -2.56565  -0.00098   0.00000  -0.00846  -0.00860  -2.57425
   D45       -0.49389  -0.00080   0.00000  -0.01320  -0.01322  -0.50712
   D46        1.59687  -0.00046   0.00000  -0.00894  -0.00896   1.58791
   D47       -0.58845  -0.00180   0.00000  -0.01086  -0.01076  -0.59921
   D48       -2.40469  -0.00141   0.00000  -0.01661  -0.01660  -2.42129
   D49        1.55503   0.00066   0.00000  -0.00178  -0.00211   1.55292
   D50       -2.64815  -0.00159   0.00000  -0.00704  -0.00692  -2.65508
   D51        1.81880  -0.00120   0.00000  -0.01280  -0.01277   1.80602
   D52       -0.50467   0.00087   0.00000   0.00204   0.00172  -0.50295
   D53        1.50477  -0.00114   0.00000  -0.00130  -0.00116   1.50361
   D54       -0.31147  -0.00075   0.00000  -0.00705  -0.00700  -0.31847
   D55       -2.63494   0.00132   0.00000   0.00779   0.00749  -2.62745
   D56       -2.76115   0.00033   0.00000   0.00513   0.00519  -2.75596
   D57        1.37452  -0.00023   0.00000  -0.00419  -0.00422   1.37030
   D58       -0.71416   0.00006   0.00000   0.00516   0.00513  -0.70903
   D59        0.76081   0.00126   0.00000   0.00461   0.00467   0.76548
   D60        2.89596  -0.00088   0.00000  -0.00472  -0.00476   2.89119
   D61       -1.33704  -0.00046   0.00000  -0.00268  -0.00270  -1.33974
   D62       -1.29842  -0.00078   0.00000   0.00362   0.00413  -1.29428
   D63        2.90459  -0.00423   0.00000  -0.01791  -0.01760   2.88699
   D64        0.61456  -0.00132   0.00000  -0.00060  -0.00052   0.61404
   D65       -1.09002  -0.00120   0.00000  -0.01877  -0.01870  -1.10872
   D66        0.99005  -0.00112   0.00000  -0.01796  -0.01790   0.97215
   D67       -3.13401  -0.00131   0.00000  -0.02133  -0.02127   3.12791
   D68        1.07654   0.00081   0.00000   0.00566   0.00557   1.08211
   D69       -3.12658   0.00089   0.00000   0.00646   0.00637  -3.12021
   D70       -0.96745   0.00070   0.00000   0.00309   0.00300  -0.96445
   D71        3.13147   0.00020   0.00000   0.00119   0.00122   3.13269
   D72       -1.07165   0.00028   0.00000   0.00199   0.00202  -1.06963
   D73        1.08748   0.00009   0.00000  -0.00138  -0.00134   1.08613
   D74       -1.23487   0.00016   0.00000   0.00134   0.00134  -1.23353
   D75        2.97122   0.00003   0.00000  -0.00122  -0.00122   2.97000
   D76        0.92810  -0.00026   0.00000  -0.00331  -0.00331   0.92479
   D77        0.62563  -0.00080   0.00000   0.00292   0.00279   0.62842
   D78        2.58183  -0.00103   0.00000   0.00360   0.00351   2.58534
   D79       -0.33929  -0.00152   0.00000  -0.00447  -0.00425  -0.34354
   D80       -2.32794  -0.00103   0.00000  -0.00412  -0.00426  -2.33220
   D81        0.45952  -0.00147   0.00000  -0.02667  -0.02646   0.43306
   D82        2.53450  -0.00186   0.00000  -0.02664  -0.02657   2.50793
         Item               Value     Threshold  Converged?
 Maximum Force            0.020025     0.000450     NO 
 RMS     Force            0.003807     0.000300     NO 
 Maximum Displacement     0.177701     0.001800     NO 
 RMS     Displacement     0.044164     0.001200     NO 
 Predicted change in Energy=-6.850760D-03
 GradGradGradGradGradGradGradGradGradGradGradGradGradGradGradGradGradGrad

                          Input orientation:                          
 ---------------------------------------------------------------------
 Center     Atomic      Atomic             Coordinates (Angstroms)
 Number     Number       Type             X           Y           Z
 ---------------------------------------------------------------------
      1          8           0        0.627174   -0.209485   -0.961351
      2          6           0       -1.237905    0.848636    0.239627
      3          6           0       -1.104910   -1.662234    0.107655
      4          6           0       -1.971402   -0.427147   -0.164593
      5          6           0        0.402470   -1.342388    0.112260
      6          6           0        0.000695    1.041617   -0.651844
      7          1           0       -2.160916   -0.398305   -1.249244
      8          1           0       -0.359885    1.445926   -1.609517
      9          1           0       -0.933039    0.761063    1.290851
     10          1           0        0.978908   -2.121185   -0.400474
     11          6           0        0.990839    2.035438   -0.025219
     12          1           0        1.345411    1.642826    0.931082
     13          1           0        1.863030    2.184129   -0.679093
     14          1           0       -1.359817   -2.025830    1.111661
     15          8           0        0.861363   -0.981993    1.319025
     16          8           0        0.358273    3.287074    0.262885
     17          1           0        0.176566    3.725232   -0.584387
     18          8           0       -1.415985   -2.628386   -0.888799
     19          1           0       -1.166269   -3.501397   -0.549495
     20          8           0       -3.183856   -0.548455    0.558843
     21          1           0       -3.581176    0.339819    0.540313
     22          8           0       -2.159766    1.928998    0.087728
     23          1           0       -1.717103    2.703723    0.475691
     24          8           0        3.386312   -1.037764    1.162235
     25          1           0        3.456004   -0.700175    0.187021
     26          1           0        1.903432   -1.016244    1.332590
     27          1           0        3.782429   -0.367351    1.738318
     28          8           0        3.148179   -0.334433   -1.242529
     29          1           0        2.123883   -0.193859   -1.244705
     30          1           0        3.573738    0.472198   -1.566602
 ---------------------------------------------------------------------
                    Distance matrix (angstroms):
                    1          2          3          4          5
     1  O    0.000000
     2  C    2.457740   0.000000
     3  C    2.500674   2.517850   0.000000
     4  C    2.726682   1.526117   1.533090   0.000000
     5  C    1.576896   2.740007   1.540948   2.559215   0.000000
     6  C    1.433013   1.538211   3.018279   2.506760   2.535499
     7  H    2.809267   2.150243   2.133972   1.101460   3.052201
     8  H    2.033418   2.132371   3.628277   2.862375   3.364579
     9  H    2.906655   1.098037   2.702195   2.146709   2.756296
    10  H    2.023091   3.760828   2.193429   3.410239   1.096221
    11  C    2.459324   2.538886   4.252363   3.854688   3.431441
    12  H    2.743761   2.789690   4.195894   4.060362   3.235909
    13  H    2.708578   3.499055   4.921600   4.667583   3.898178
    14  H    3.397738   3.006303   1.097820   2.135099   2.138119
    15  O    2.419034   2.987177   2.407566   3.245540   1.340428
    16  O    3.714430   2.914500   5.163395   4.405174   4.632123
    17  H    3.978335   3.309764   5.580850   4.693852   5.120266
    18  O    3.167151   3.659882   1.422371   2.382943   2.441862
    19  H    3.771306   4.421610   1.954005   3.201157   2.749579
    20  O    4.117019   2.416710   2.401268   1.417082   3.700203
    21  H    4.501882   2.416656   3.213611   1.917421   4.345398
    22  O    3.666157   1.428315   3.743001   2.377091   4.155433
    23  H    4.005934   1.930468   4.424004   3.205773   4.582105
    24  O    3.578897   5.078690   4.655446   5.553235   3.177822
    25  H    3.092218   4.943113   4.661952   5.445632   3.121233
    26  H    2.746245   3.813180   3.311781   4.195584   1.961749
    27  H    4.155571   5.378518   5.312426   6.060628   3.875420
    28  O    2.539712   4.778511   4.655623   5.232652   3.223406
    29  H    1.523375   3.819903   3.796065   4.241747   2.474618
    30  H    3.084358   5.153259   5.408206   5.789907   4.020975
                    6          7          8          9         10
     6  C    0.000000
     7  H    2.665112   0.000000
     8  H    1.100282   2.602824   0.000000
     9  H    2.173622   3.050229   3.034745   0.000000
    10  H    3.320151   3.680655   3.997303   3.850127   0.000000
    11  C    1.536465   4.165921   2.163788   2.656572   4.173544
    12  H    2.162260   4.605905   3.066178   2.469468   4.009382
    13  H    2.185032   4.815202   2.520314   3.704564   4.403978
    14  H    3.790801   2.977326   4.523026   2.825070   2.786625
    15  O    2.952976   4.008848   3.995321   2.501783   2.065974
    16  O    2.450851   4.713265   2.722401   3.017438   5.484022
    17  H    2.690218   4.786378   2.556151   3.678864   5.904081
    18  O    3.941072   2.378677   4.270222   4.058630   2.496243
    19  H    4.691616   3.332890   5.123466   4.648638   2.555186
    20  O    3.759716   2.082818   4.080950   2.704968   4.552184
    21  H    3.839735   2.400933   4.027649   2.784489   5.266497
    22  O    2.449899   2.683995   2.520629   2.077603   5.147193
    23  H    2.642870   3.577002   2.787864   2.247925   5.596059
    24  O    4.367735   6.082423   5.280655   4.680717   3.067809
    25  H    3.959380   5.805495   4.732262   4.755771   2.915549
    26  H    3.434119   4.854548   4.454310   3.347556   2.253696
    27  H    4.690370   6.652055   5.626254   4.869208   3.938286
    28  O    3.485552   5.309483   3.951059   4.926913   2.933816
    29  H    2.527016   4.289676   2.998514   4.084813   2.395471
    30  H    3.731978   5.809023   4.052577   5.344111   3.849498
                   11         12         13         14         15
    11  C    0.000000
    12  H    1.092876   0.000000
    13  H    1.100171   1.775838   0.000000
    14  H    4.828248   4.561787   5.596186   0.000000
    15  O    3.305850   2.697123   3.875582   2.462973   0.000000
    16  O    1.431690   2.030882   2.090001   5.647938   4.426451
    17  H    1.957323   2.828297   2.286510   6.189650   5.123465
    18  O    5.318818   5.401900   5.827196   2.089993   3.573710
    19  H    5.965276   5.913009   6.443497   2.230292   3.734977
    20  O    4.944260   5.045249   5.871163   2.411506   4.138795
    21  H    4.908999   5.110947   5.876036   3.295021   4.699971
    22  O    3.154425   3.616546   4.103169   4.162814   4.372319
    23  H    2.833808   3.272900   3.797480   4.785476   4.576483
    24  O    4.073439   3.377021   4.011417   4.848151   2.530427
    25  H    3.688585   3.240044   3.406894   5.079809   2.844823
    26  H    3.462547   2.746497   3.780329   3.422991   1.042720
    27  H    4.083678   3.260597   4.004749   5.439297   3.014336
    28  O    3.428155   3.447334   2.883092   5.359577   3.494341
    29  H    2.782212   2.951861   2.458208   4.587455   2.964426
    30  H    3.389831   3.546018   2.577771   6.144364   4.218826
                   16         17         18         19         20
    16  O    0.000000
    17  H    0.971015   0.000000
    18  O    6.282280   6.557236   0.000000
    19  H    7.004822   7.350415   0.969347   0.000000
    20  O    5.229298   5.555521   3.089846   3.744188   0.000000
    21  H    4.927732   5.181370   3.942164   4.666305   0.973261
    22  O    2.866282   3.022689   4.719805   5.557183   2.721853
    23  H    2.166281   2.398589   5.512158   6.313315   3.568605
[...]
 5048,-0.00004642,-0.00579746,0.00486493,-0.00042734,0.00085623,-0.0005
 4216,0.00027744,-0.00001443,-0.00004420,-0.00002788,-0.00010144,0.0001
 3603,0.00001445,0.00006976,0.00001205,0.00001258,0.00015712,0.00022684
 ,-0.00003313,-0.00010741,-0.00005148,-0.00000164,0.00023468,0.00017121
 ,-0.00007908,-0.00026639,-0.00003320,0.00005374,0.16254531,0.41366592,
 -0.00288155,-0.00070490,0.00201184,0.00014674,0.00014565,-0.00051946,-
 0.00003266,0.00005508,0.00058580,0.00017472,0.00009277,-0.00006487,0.0
 0203097,0.00121146,-0.00438584,0.00035053,-0.00113031,0.00016777,0.000
 03591,-0.00000379,0.00006590,0.00004394,0.00007756,0.00004243,-0.00007
 705,0.00001728,0.00013161,0.00015173,0.00049905,0.00054602,0.00082821,
 -0.00019997,-0.00096281,-0.00018715,0.00018014,-0.00009565,-0.00023485
 ,-0.00045251,0.00037100,-0.00025566,-0.00007692,0.00007279,0.00233638,
 0.00122454,0.00860987,-0.00043551,0.00048767,0.00033468,0.00010784,-0.
 00010069,0.00000361,0.00005503,0.00009308,0.00026441,0.00010370,0.0000
 1919,-0.00008369,-0.00023313,-0.00007221,0.00017843,0.00005722,0.00001
 472,-0.00005419,-0.00035681,0.00004392,0.00029828,0.00012798,-0.000011
 88,-0.00014276,0.00127426,0.10202390,0.57717760,0.00153011,-0.00001549
 ,0.00038299,-0.00020458,0.00006156,0.00015043,-0.00016760,-0.00041218,
 -0.00025684,-0.00019986,0.00003837,-0.00000639,-0.00213032,-0.00087945
 ,0.00061345,-0.00066878,0.00086706,-0.00011986,0.00001341,-0.00001284,
 -0.00000216,0.00008932,-0.00011190,0.00006594,-0.00000338,0.00001891,0
 .00000570,0.00000065,-0.00031072,-0.00017484,-0.00034818,0.00052814,-0
 .00012160,-0.00011016,0.00008283,0.00028703,0.00006806,0.00018185,-0.0
 0018070,0.00008717,0.00003240,-0.00000485,-0.00125753,0.00057508,-0.00
 219016,0.00026271,-0.00063380,-0.00001641,0.00005913,0.00007372,-0.000
 01809,0.00017894,0.00021071,0.00013197,-0.00008175,-0.00008848,-0.0000
 1293,0.00031432,0.00001131,-0.00008143,-0.00007214,-0.00001465,0.00000
 773,0.00033115,-0.00018681,-0.00007777,-0.00010696,0.00005590,0.000056
 64,-0.03545950,-0.02924874,0.07163058,0.04512820,-0.00083518,-0.001047
 82,0.00034465,0.00008071,-0.00005024,-0.00019167,0.00001850,-0.0001598
 8,0.00009386,0.00007357,0.00020930,0.00002233,-0.00032865,0.00178091,-
 0.00044251,0.00013852,0.00019787,0.00029219,0.00000777,-0.00001906,0.0
 0001214,-0.00002757,-0.00007877,-0.00004173,-0.00001006,0.00001824,0.0
 0001431,-0.00006437,-0.00037230,-0.00024423,0.00085822,-0.00038469,-0.
 00030305,0.00010292,0.00007477,-0.00022778,-0.00014194,-0.00027316,0.0
 0047471,-0.00004232,-0.00002887,0.00001654,0.00023670,-0.00061367,0.00
 020004,-0.00058437,0.00035461,0.00004010,0.00008111,-0.00001356,0.0000
 2222,0.00003870,-0.00010966,-0.00005022,-0.00005715,-0.00000288,0.0000
 1139,-0.00010070,-0.00014907,0.00002068,0.00007088,0.00003044,-0.00000
 190,-0.00017455,-0.00007152,0.00005345,0.00015463,0.00001417,-0.000044
 66,-0.03466784,-0.06701163,0.10355474,0.02966153,0.06797978,0.00332279
 ,0.00119496,-0.00352818,-0.00009349,-0.00028636,0.00050594,0.00009581,
 0.00018678,-0.00043466,-0.00008136,-0.00014982,0.00010966,0.00066824,-
 0.00148869,0.00652245,0.00006472,0.00120026,-0.00007512,-0.00006008,0.
 00002090,-0.00007733,-0.00016402,-0.00002744,-0.00010804,0.00012681,-0
 .00005207,-0.00019867,-0.00000820,-0.00029970,-0.00026810,-0.00084540,
 -0.00021546,0.00155892,0.00043842,-0.00019480,-0.00046218,0.00020677,0
 .00067243,-0.00016369,0.00027887,0.00010684,-0.00013301,-0.00675938,-0
 .00086908,-0.00389592,0.00024897,-0.00021749,-0.00052323,-0.00017837,0
 .00013482,0.00002328,-0.00017695,-0.00019519,-0.00039700,-0.00003642,0
 .00003446,0.00010417,0.00007863,0.00009452,-0.00014547,-0.00003348,-0.
 00001205,0.00004687,0.00026474,0.00003901,-0.00032695,-0.00006941,-0.0
 0000341,0.00011954,0.04828747,0.05115331,-0.39382196,-0.05698697,-0.05
 807599,0.40970885,-0.00086743,-0.00524428,0.00792697,-0.00064696,0.000
 70027,-0.00077960,0.00040817,-0.00172410,0.00033038,-0.00097367,0.0008
 0623,-0.00008892,-0.01137017,0.00067651,-0.01870946,-0.00145608,0.0026
 9972,-0.00033443,0.00014408,-0.00009657,0.00010284,0.00010533,-0.00060
 174,0.00006588,-0.00031047,0.00047335,0.00038150,0.00142562,0.00145707
 ,0.00409762,0.00114207,0.00021025,-0.00038340,0.00101468,0.00058188,0.
 00004310,-0.00034353,-0.00035737,0.00057906,-0.00032548,-0.00006498,0.
 00030307,-0.39447892,-0.01052882,-0.00856538,-0.00086844,-0.00097830,-
 0.00007218,0.00029240,0.00023310,0.00000301,0.00162321,0.00164783,0.00
 145678,-0.00023951,-0.00045096,-0.00014339,0.00100592,-0.00042595,-0.0
 0016808,-0.00008652,0.00003366,-0.00000548,0.00069257,-0.00123103,0.00
 032552,0.00013589,0.00032319,0.00003280,0.00088102,0.00307563,-0.00391
 491,0.00164076,-0.00024439,0.01070641,0.39849289,-0.00037061,-0.000943
 27,-0.00019145,0.00029008,-0.00040522,-0.00093502,-0.00132283,0.001387
 34,-0.00268894,-0.00064614,0.00003780,-0.00019309,-0.01185852,-0.00100
 574,-0.00282277,0.00114154,0.00013345,0.00016024,0.00003250,0.00001425
 ,0.00000628,-0.00020552,-0.00015977,-0.00014236,0.00010505,0.00016248,
 0.00054068,-0.00130774,0.00028538,0.00144391,0.00076306,-0.00102293,0.
 00159744,0.00028542,-0.00089122,-0.00052548,-0.00014499,-0.00001863,-0
 .00008331,0.00015226,-0.00013332,-0.00032120,0.00535308,-0.01854445,-0
 .00762135,-0.00065654,0.00071228,-0.00047498,-0.00005760,0.00010248,0.
 00002078,-0.00052359,-0.00053942,-0.00061805,-0.00019638,-0.00001757,-
 0.00000038,-0.00015325,-0.00008152,0.00005639,0.00002155,0.00002720,0.
 00000323,0.00000946,-0.00041441,0.00046695,0.00028616,0.00011947,-0.00
 005613,0.00638566,-0.00815822,-0.00343985,-0.00127006,0.00031977,0.001
 97028,0.00946656,0.02987806,0.00269033,-0.00013334,0.00124858,-0.00032
 650,-0.00019594,-0.00005196,0.00147066,-0.00081879,-0.00491437,-0.0002
 2575,-0.00029732,0.00011995,-0.04976838,-0.00367962,-0.00814801,-0.000
 83655,0.00144320,-0.00018013,0.00006924,-0.00002678,0.00000195,0.00005
 878,-0.00023146,0.00004673,-0.00011768,0.00035245,0.00013839,0.0006579
 9,-0.00015538,0.00046505,-0.00004417,0.00039835,0.00009491,0.00001661,
 0.00004475,0.00017446,0.00004130,0.00007711,-0.00011319,-0.00006541,-0
 .00029280,0.00035721,0.03128453,-0.00736217,-0.04969738,0.00009241,-0.
 00047638,-0.00010804,0.00002844,0.00006609,-0.00001350,-0.00144080,-0.
 00108719,-0.00041062,-0.00015494,0.00001904,-0.00001769,0.00018275,0.0
 0019042,-0.00004788,-0.00011037,-0.00003006,0.00004159,0.00044280,-0.0
 0019774,-0.00000142,-0.00006864,0.00008355,0.00007302,-0.00149704,-0.0
 0224929,-0.01377396,0.00709380,0.00080472,0.00093058,0.01485342,0.0135
 0030,0.07364290,0.00006613,0.00041958,0.00023319,-0.00015642,0.0001507
 9,0.00000487,-0.00004119,-0.00017882,-0.00001363,-0.00008584,-0.000103
 96,-0.00001002,0.00021848,-0.00036061,-0.00021500,-0.00020156,-0.00044
 989,-0.00005053,0.00001532,0.00001153,0.00001066,0.00012016,0.00009513
 ,0.00010808,-0.00004212,-0.00001924,0.00003605,0.00011816,0.00015396,0
 .00019212,-0.00024712,0.00071342,-0.00096858,-0.00052631,0.00021146,0.
 00042438,0.00002504,0.00002205,-0.00006121,0.00000301,0.00001282,-0.00
 000409,-0.00248067,0.00197896,0.00137958,0.00034505,-0.00051409,0.0002
 5614,0.00008675,0.00000302,-0.00000498,0.00007190,0.00015948,0.0001068
 8,-0.00000920,-0.00002978,-0.00001417,0.00018039,0.00008726,-0.0000112
 3,-0.00007768,-0.00002496,-0.00001098,0.00018211,-0.00003312,0.0000287
 0,-0.00014238,0.00002339,0.00000777,-0.05594314,-0.13163474,-0.0704996
 4,0.00211171,0.00652779,0.00446039,0.00195065,-0.00564404,-0.00378869,
 0.05454031,0.00006461,-0.00031870,0.00009274,0.00002680,-0.00005360,-0
 .00008717,-0.00003771,0.00003427,0.00002509,0.00002302,0.00007324,0.00
 001329,-0.00002416,0.00010456,-0.00037149,-0.00002181,0.00040225,0.000
 04721,-0.00000061,-0.00000557,0.00000377,-0.00005661,-0.00006291,-0.00
 003892,0.00000556,0.00002195,-0.00000170,0.00001817,-0.00002243,0.0000
 5944,0.00017851,-0.00028371,0.00019001,0.00029583,0.00003925,-0.000179
 12,-0.00003352,-0.00000600,0.00017664,-0.00001440,-0.00001058,0.000009
 25,0.00115582,0.00011915,0.00019212,-0.00025845,0.00010691,-0.00006654
 ,0.00002648,0.00000746,0.00000909,0.00000484,-0.00003425,0.00000300,0.
 00001019,0.00000461,-0.00000433,-0.00007159,-0.00005900,0.00001999,0.0
 0003455,0.00001650,-0.00000200,-0.00007021,-0.00005156,0.00001828,0.00
 009404,0.00001441,-0.00001663,-0.13061828,-0.34769945,-0.20884371,0.00
 170175,0.00500385,0.00960696,-0.00128995,-0.00088482,0.00012084,0.1287
 5613,0.34409961,0.00038457,0.00013533,0.00004095,-0.00007382,0.0000889
 2,0.00015710,-0.00008986,-0.00008680,0.00001202,-0.00011177,-0.0000198
 8,-0.00001092,-0.00023945,-0.00034886,-0.00029839,-0.00017223,0.000049
 45,-0.00017406,0.00000356,-0.00000549,-0.00000978,0.00004129,-0.000002
 14,0.00003247,-0.00000836,0.00001018,0.00000691,-0.00007290,0.00001473
 ,-0.00002862,-0.00035784,0.00028772,0.00010129,-0.00024655,0.00006567,
 0.00034089,0.00010883,0.00009884,-0.00032974,0.00001892,0.00001791,0.0
 0000158,0.00211882,-0.00001140,-0.00031041,0.00036184,-0.00036971,-0.0
 0003369,-0.00002045,0.00001600,-0.00001778,0.00012825,0.00010761,0.000
 05751,-0.00004203,-0.00003600,0.00000686,0.00016923,0.00002747,-0.0000
 7028,-0.00004025,-0.00000850,0.00001886,0.00016824,-0.00005854,-0.0000
 6454,-0.00009544,0.00001063,0.00006331,-0.05012604,-0.15564960,-0.1531
 4176,-0.01651351,-0.04470600,-0.01758558,-0.00330528,0.00053509,0.0012
 8641,0.06762896,0.19775805,0.17120746,-0.01712124,-0.00014401,0.008668
 16,0.00081940,0.00085115,-0.00071319,0.00066809,-0.00019948,0.00143021
 ,0.00102062,0.00005179,-0.00015179,-0.00194979,0.00579142,-0.00599727,
 0.00001619,-0.00623717,0.00066944,0.00000473,0.00001881,0.00004250,-0.
 00008750,0.00047752,-0.00008997,-0.00015392,-0.00005902,0.00016956,0.0
 0007320,-0.00026904,-0.00000568,0.00004303,-0.00070738,-0.00066703,-0.
 00012851,-0.00003398,0.00010425,-0.00058255,0.00027035,0.00011273,-0.0
 0055816,-0.00025517,0.00009300,0.00206498,-0.00051285,0.00323647,0.000
 03114,0.00151386,0.00049494,-0.00017790,-0.00036555,0.00003839,-0.0004
 9799,-0.00063727,-0.00044620,0.00014362,0.00021004,0.00005477,-0.00082
 036,-0.00008356,0.00025142,0.00023165,0.00004608,-0.00002496,-0.001425
 89,0.00082173,0.00050491,0.00012849,-0.00026751,-0.00018565,0.00723098
 ,0.00162008,-0.00198870,-0.01075482,-0.00420245,-0.00041781,-0.0028124
 4,0.00006686,-0.00086266,-0.00062480,0.00021620,0.00112956,0.55480211,
 -0.00109055,0.00658894,-0.00051613,-0.00006181,0.00049303,0.00042112,-
 0.00002834,0.00023366,-0.00058016,-0.00007600,-0.00040089,-0.00016197,
 0.00162225,-0.00229723,0.00018121,-0.00090467,-0.00165212,-0.00041489,
 0.00000503,0.00002111,0.00000472,-0.00002993,0.00020346,0.00000072,-0.
 00000209,-0.00005608,0.00000390,0.00012141,0.00084440,-0.00001837,-0.0
 0337985,-0.00029323,0.00209653,0.00016543,-0.00005779,-0.00005370,0.00
 139521,0.00082719,-0.00124204,0.00012313,0.00007070,0.00001264,-0.0004
 4812,0.00100451,-0.00004451,0.00195936,-0.00086242,-0.00053010,-0.0003
 8015,0.00010512,-0.00007511,-0.00018677,0.00027845,0.00031191,0.000138
 26,0.00001963,-0.00008947,0.00020348,0.00031250,0.00001727,-0.00014430
 ,-0.00006915,-0.00001024,0.00021672,0.00026107,-0.00001250,-0.00039761
 ,-0.00007182,0.00007923,0.00056626,0.00433507,0.00685351,-0.00266959,-
 0.00565941,-0.00534882,0.00077513,-0.00065236,-0.00023299,0.00009865,-
 0.00073877,0.00249223,0.07474066,0.32014265,0.00476691,-0.00099922,0.0
 0338388,-0.00010841,0.00017066,0.00002580,-0.00021870,-0.00048804,-0.0
 0023840,-0.00017849,0.00000419,-0.00020994,-0.00129994,-0.00046205,-0.
 00207272,-0.00038494,0.00048618,-0.00055194,0.00005654,-0.00002691,0.0
 0007649,0.00033432,-0.00018431,0.00017210,-0.00007196,0.00003434,0.000
 12356,-0.00013199,0.00006930,0.00000975,-0.00095608,0.00028638,0.00019
 738,-0.00030376,0.00010276,0.00044800,0.00021276,0.00019580,-0.0007558
 8,-0.00002936,0.00001923,0.00007850,0.00301267,0.00076330,0.00146617,0
 .00079193,-0.00067576,0.00007814,0.00002646,0.00000608,-0.00012014,0.0
 0017487,0.00042569,0.00056542,-0.00000792,-0.00009063,-0.00013940,0.00
 028983,0.00005038,0.00008023,-0.00009031,-0.00003420,-0.00004693,0.000
 33226,-0.00017305,0.00010548,-0.00017404,0.00003433,-0.00001699,-0.000
 14006,0.00503820,-0.01977495,0.00132443,-0.00398773,-0.00376867,-0.004
 22764,-0.00098060,0.00022867,0.00103876,0.00081969,-0.00014556,-0.0856
 1417,-0.25061318,0.23355029,-0.00052894,-0.00085099,-0.00530816,-0.001
 08568,-0.00164890,0.00076492,-0.00082746,0.00045069,-0.00211731,-0.001
 38080,-0.00004717,0.00024250,0.00251401,-0.01016173,0.00928371,-0.0004
 3899,0.01048977,-0.00116083,-0.00001145,-0.00002687,-0.00006122,0.0001
 1529,-0.00081129,0.00027217,0.00024205,0.00010526,-0.00027041,0.000055
 23,0.00077670,-0.00004365,0.00282581,0.00109736,-0.00015950,0.00005035
 ,0.00001736,-0.00016943,-0.00044197,-0.00050563,0.00068598,0.00083739,
 0.00036953,-0.00012761,-0.00296955,0.00087192,-0.00491349,-0.00130574,
 -0.00161126,-0.00044315,0.00040374,0.00041651,-0.00003170,0.00056766,0
 .00086759,0.00064457,-0.00011955,-0.00025733,-0.00010459,0.00096997,0.
 00006715,-0.00030416,-0.00026615,-0.00004828,0.00002499,0.00190605,-0.
 00119930,-0.00071717,0.00001986,0.00038968,0.00021902,-0.00219264,-0.0
 0111987,0.00460806,-0.00138938,0.00241609,-0.00839361,0.00409319,0.000
 10414,0.00026723,0.00018101,-0.00013916,-0.00037823,-0.43358084,0.0143
 5767,0.01445425,0.44101186,0.00050370,-0.00997935,0.00167031,-0.000012
 27,-0.00072653,-0.00008528,0.00007601,-0.00070960,0.00084344,0.0000862
 9,0.00031116,0.00012857,-0.00382500,0.00289284,0.00101633,0.00304268,0
 .00163654,-0.00106172,-0.00000076,-0.00001134,-0.00000381,0.00016122,-
 0.00025107,0.00010568,-0.00000213,0.00005528,-0.00002332,-0.00019286,-
 0.00135768,0.00015012,0.00261832,-0.00032472,-0.00141938,-0.00022966,0
 .00006650,0.00010654,-0.00098262,-0.00083253,0.00026799,-0.00018857,-0
 .00009330,-0.00002082,-0.00001248,-0.00101702,-0.00042408,-0.00137185,
 0.00064738,0.00044042,0.00024792,-0.00009783,0.00003073,0.00023829,-0.
 00019537,-0.00035464,-0.00016268,-0.00004905,0.00008903,-0.00006919,-0
 .00023486,-0.00004653,0.00009140,0.00003900,0.00000753,0.00008052,-0.0
 0027590,-0.00008953,0.00027176,0.00007926,-0.00003830,-0.00015362,-0.0
 0104116,0.00054141,0.00083035,0.00121971,-0.00095470,0.00014510,0.0006
 6512,0.00034810,-0.00032173,0.00014420,-0.00030085,0.06004293,-0.04142
 891,0.02367224,-0.02099982,0.05043458,-0.00386781,0.00159548,-0.003676
 77,0.00031946,0.00017269,-0.00030213,0.00024882,0.00047902,0.00078488,
 0.00042238,-0.00002772,0.00014448,0.00277745,0.00295911,-0.00229586,0.
 00110629,-0.00329991,0.00016680,-0.00003004,0.00003083,-0.00003444,-0.
 00044682,0.00050404,-0.00013323,-0.00001305,-0.00004163,-0.00002001,0.
 00000573,-0.00014999,0.00020072,0.00044808,-0.00064838,-0.00030098,0.0
 0008430,-0.00008282,-0.00030233,-0.00002278,-0.00042659,0.00014048,-0.
 00021782,-0.00012801,-0.00001363,-0.00033598,-0.00071424,0.00062932,-0
 .00036737,0.00100734,0.00013547,-0.00010952,-0.00008928,0.00010718,-0.
 00014860,-0.00043344,-0.00051719,0.00004054,0.00011389,0.00010157,-0.0
 0043683,-0.00004006,0.00001737,0.00011633,0.00003548,0.00002221,-0.000
 68731,0.00040123,0.00012755,0.00013194,-0.00009997,-0.00005027,0.00300
 544,-0.00010654,-0.00140728,-0.00748995,-0.00000292,0.00303609,-0.0001
 2631,0.00067695,-0.00140660,-0.00033959,0.00002761,-0.00008925,-0.0210
 1717,0.02506237,-0.03289237,-0.00313679,-0.02530514,0.03873651,-0.0020
 0585,0.00174423,-0.00016136,-0.00011024,0.00027105,0.00005922,-0.00008
 393,-0.00007167,-0.00010869,-0.00009102,-0.00007252,0.00000233,0.00025
 472,-0.00024170,-0.00003435,-0.00050963,-0.00049916,0.00019286,0.00000
 007,0.00000217,-0.00001180,-0.00013271,0.00009495,-0.00005187,0.000022
 20,-0.00000879,-0.00000738,0.00000020,0.00004967,0.00000986,-0.0010523
 2,0.00020376,0.00051602,0.00015605,-0.00000026,-0.00012057,0.00052533,
 0.00027331,-0.00004118,0.00002927,0.00001590,-0.00000151,0.00017850,0.
 00020284,-0.00006036,0.00051772,-0.00047829,-0.00024865,-0.00008699,0.
 00012528,0.00001999,0.00007847,0.00011072,0.00004960,-0.00002957,-0.00
 003125,-0.00000619,0.00018509,0.00006584,-0.00005218,-0.00006249,-0.00
 001290,0.00000808,0.00011711,-0.00002223,-0.00002088,-0.00012227,0.000
 01336,0.00004566,-0.00036140,-0.00007233,-0.00296616,0.00113930,0.0010
 1388,0.00505591,-0.00026882,-0.00010556,0.00005729,0.00036226,0.000023
 96,-0.00036804,-0.09600149,-0.08668886,0.06712176,-0.00925432,-0.03991
 124,0.03008699,0.10660678,0.00113728,-0.00044582,-0.00034201,0.0000229
 7,-0.00015099,-0.00013984,-0.00001516,0.00011744,0.00006825,-0.0000039
 4,0.00008167,0.00007574,-0.00003763,-0.00013304,0.00005356,-0.00010920
 ,0.00063388,0.00026115,-0.00000971,0.00000032,-0.00001204,0.00000355,-
 0.00002991,0.00000163,0.00000628,0.00001131,-0.00000769,0.00004319,0.0
 0001856,0.00001079,0.00091153,-0.00012092,-0.00055309,-0.00010988,0.00
 000619,0.00006689,-0.00018237,-0.00013958,0.00008142,0.00000350,-0.000
 00638,-0.00001150,0.00000483,-0.00009637,-0.00005491,-0.00050979,0.000
 16085,0.00012476,0.00018514,-0.00001424,-0.00000058,0.00002177,-0.0000
 8825,-0.00008958,-0.00000819,0.00000670,0.00002457,-0.00007861,-0.0000
 7898,-0.00001345,0.00004210,0.00002368,0.00000723,-0.00006618,-0.00007
 445,-0.00000032,0.00011907,0.00002269,-0.00002420,0.00001273,0.0006195
 4,-0.00209892,0.00092324,-0.00115722,0.00197554,-0.00006705,0.00002780
 ,0.00001833,-0.00011043,0.00003910,-0.00011206,-0.13276502,-0.28150133
 ,0.22653694,0.00663015,0.00043465,-0.00146944,0.12400584,0.28183308,-0
 .00059753,-0.00054965,0.00032815,0.00003815,-0.00015456,-0.00018476,0.
 00005581,0.00011977,0.00017363,0.00004617,0.00010554,0.00010197,-0.000
 11999,0.00038678,-0.00041256,0.00012648,0.00022626,0.00047006,-0.00001
 223,-0.00000171,-0.00001816,-0.00006368,0.00000216,-0.00006824,0.00000
 910,0.00001344,-0.00001438,0.00008841,0.00002633,-0.00005879,0.0012080
 8,-0.00009582,-0.00083927,-0.00005941,0.00002572,0.00000792,-0.0001977
 8,-0.00060961,0.00031427,-0.00003811,-0.00002379,-0.00000476,0.0001685
 2,-0.00021903,0.00016115,-0.00074617,0.00046549,0.00020167,0.00014044,
 -0.00004516,0.00006515,-0.00001825,-0.00013173,-0.00012222,0.00000624,
 0.00002118,0.00002598,-0.00015318,-0.00009311,-0.00000855,0.00006313,0
 .00002536,0.00001230,-0.00017503,-0.00000763,0.00000563,0.00016028,0.0
 0000860,-0.00002317,-0.00071630,-0.00111143,-0.00263286,0.00250377,0.0
 0234234,0.00324743,-0.00038393,0.00011642,0.00003435,0.00007583,0.0004
 1854,-0.00102325,0.10118194,0.22240682,-0.17985599,-0.00362638,0.00070
 967,-0.00090830,-0.09896441,-0.22437718,0.18102562\\0.00000863,-0.0000
 0119,0.00000088,0.00002070,-0.00000401,-0.00000048,0.00001878,0.000006
 62,0.00001954,-0.00002449,0.00000638,0.00000983,-0.00002444,-0.0000087
 0,-0.00004205,-0.00000322,0.00000235,0.00000293,0.00000126,0.00000218,
 -0.00000168,0.00000311,-0.00000288,-0.00000347,0.00000010,0.00000831,-
 0.00000380,-0.00000420,-0.00000163,0.00001061,0.00000421,0.00000050,-0
 .00000858,0.00000359,-0.00000032,-0.00000360,0.00000603,-0.00000591,-0
 .00000417,-0.00000887,0.00000523,0.00000505,0.00000489,-0.00000525,0.0
 0003750,0.00000953,-0.00000242,-0.00000661,0.00000937,-0.00000213,-0.0
 0000828,-0.00001438,0.00000473,0.00000460,-0.00000499,0.00000314,0.000
 00876,0.00000945,0.00000817,-0.00001199,0.00000497,0.00001370,0.000003
 43,-0.00000458,0.00001637,-0.00000643,0.00000640,0.00000504,-0.0000051
 2,0.00003176,-0.00000148,0.00000193,0.00000061,-0.00002136,-0.00000143
 ,-0.00001610,0.00001119,-0.00000496,-0.00001350,-0.00000317,0.00000207
 ,-0.00002956,-0.00001338,0.00001613,-0.00000428,-0.00000824,-0.0000177
 5,0.00000923,-0.00001185,0.00000715\\\@


 I DON'T PRETEND TO UNDERSTAND THE UNIVERSE --
 IT'S A GREAT DEAL BIGGER THAN I AM.
       -- ATTR. TO WILLIAM ALLINGHAM (1828-89)
 Job cpu time:       0 days  0 hours 31 minutes 23.8 seconds.
 File lengths (MBytes):  RWF=    221 Int=      0 D2E=      0 Chk=      6 Scr=      1
 Normal termination of Gaussian 09 at Sun Jan 15 21:50:15 2017.
