 Entering Gaussian System, Link 0=g09
 Initial command:
 /global/software/gaussian/g09.e01/l1.exe "/scratch/10464839.yak.local/Gau-15607.inp" -scrdir="/scratch/10464839.yak.local/"
 Entering Link 1 = /global/software/gaussian/g09.e01/l1.exe PID=     15608.
  
 Copyright (c) 1988,1990,1992,1993,1995,1998,2003,2009,2015,
            Gaussian, Inc.  All Rights Reserved.
  
 This is part of the Gaussian(R) 09 program.  It is based on
 the Gaussian(R) 03 system (copyright 2003, Gaussian, Inc.),
 the Gaussian(R) 98 system (copyright 1998, Gaussian, Inc.),
 the Gaussian(R) 94 system (copyright 1995, Gaussian, Inc.),
 the Gaussian 92(TM) system (copyright 1992, Gaussian, Inc.),
 the Gaussian 90(TM) system (copyright 1990, Gaussian, Inc.),
 the Gaussian 88(TM) system (copyright 1988, Gaussian, Inc.),
 the Gaussian 86(TM) system (copyright 1986, Carnegie Mellon
 University), and the Gaussian 82(TM) system (copyright 1983,
 Carnegie Mellon University). Gaussian is a federally registered
 trademark of Gaussian, Inc.
  
 This software contains proprietary and confidential information,
 including trade secrets, belonging to Gaussian, Inc.
  
 This software is provided under written license and may be
 used, copied, transmitted, or stored only in accord with that
 written license.
  
 The following legend is applicable only to US Government
 contracts under FAR:
  
                    RESTRICTED RIGHTS LEGEND
  
 Use, reproduction and disclosure by the US Government is
 subject to restrictions as set forth in subparagraphs (a)
 and (c) of the Commercial Computer Software - Restricted
 Rights clause in FAR 52.227-19.
  
 Gaussian, Inc.
 340 Quinnipiac St., Bldg. 40, Wallingford CT 06492
  
  
 ---------------------------------------------------------------
 Warning -- This program may not be used in any manner that
 competes with the business of Gaussian, Inc. or will provide
 assistance to any competitor of Gaussian, Inc.  The licensee
 of this program is prohibited from giving any competitor of
 Gaussian, Inc. access to this program.  By using this program,
 the user acknowledges that Gaussian, Inc. is engaged in the
 business of creating and licensing software in the field of
 computational chemistry and represents and warrants to the
 licensee that it is not a competitor of Gaussian, Inc. and that
 it will not use this program in any manner prohibited above.
 ---------------------------------------------------------------
  

 Cite this work as:
 Gaussian 09, Revision E.01,
 M. J. Frisch, G. W. Trucks, H. B. Schlegel, G. E. Scuseria, 
 M. A. Robb, J. R. Cheeseman, G. Scalmani, V. Barone, B. Mennucci, 
 G. A. Petersson, H. Nakatsuji, M. Caricato, X. Li, H. P. Hratchian, 
 A. F. Izmaylov, J. Bloino, G. Zheng, J. L. Sonnenberg, M. Hada, 
 M. Ehara, K. Toyota, R. Fukuda, J. Hasegawa, M. Ishida, T. Nakajima, 
 Y. Honda, O. Kitao, H. Nakai, T. Vreven, J. A. Montgomery, Jr., 
 J. E. Peralta, F. Ogliaro, M. Bearpark, J. J. Heyd, E. Brothers, 
 K. N. Kudin, V. N. Staroverov, T. Keith, R. Kobayashi, J. Normand, 
 K. Raghavachari, A. Rendell, J. C. Burant, S. S. Iyengar, J. Tomasi, 
 M. Cossi, N. Rega, J. M. Millam, M. Klene, J. E. Knox, J. B. Cross, 
 V. Bakken, C. Adamo, J. Jaramillo, R. Gomperts, R. E. Stratmann, 
 O. Yazyev, A. J. Austin, R. Cammi, C. Pomelli, J. W. Ochterski, 
 R. L. Martin, K. Morokuma, V. G. Zakrzewski, G. A. Voth, 
 P. Salvador, J. J. Dannenberg, S. Dapprich, A. D. Daniels, 
 O. Farkas, J. B. Foresman, J. V. Ortiz, J. Cioslowski, 
 and D. J. Fox, Gaussian, Inc., Wallingford CT, 2013.
 
 ******************************************
 Gaussian 09:  ES64L-G09RevE.01 30-Nov-2015
                15-Jan-2017 
 ******************************************
 -------------------------
 # b3lyp/6-31g(d) opt freq
 -------------------------
 1/14=-1,18=20,19=15,26=3,38=1/1,3;
 2/9=110,12=2,17=6,18=5,40=1/2;
 3/5=1,6=6,7=1,11=2,16=1,25=1,30=1,71=1,74=-5/1,2,3;
 4//1;
 5/5=2,38=5/2;
 6/7=2,8=2,9=2,10=2,28=1/1;
 7//1,2,3,16;
 1/14=-1,18=20,19=15,26=3/3(2);
 2/9=110/2;
 99//99;
 2/9=110/2;
 3/5=1,6=6,7=1,11=2,16=1,25=1,30=1,71=1,74=-5/1,2,3;
 4/5=5,16=3,69=1/1;
 5/5=2,38=5/2;
 7//1,2,3,16;
 1/14=-1,18=20,19=15,26=3/3(-5);
 2/9=110/2;
 6/7=2,8=2,9=2,10=2,19=2,28=1/1;
 99/9=1/99;
 -----------------------------------
 glo_2w_alpha_ircr_boat4_B3LYP_631Gd
 -----------------------------------
 Symbolic Z-matrix:
 Charge =  0 Multiplicity = 1
 8                    -0.62362   0.35997   0.58565 
 6                     1.64164   0.21185  -0.24652 
 6                     0.23234  -1.91206  -0.20073 
 6                     1.55797  -1.24707   0.20652 
 6                    -0.91869  -0.9601   -0.55322 
 6                     0.59494   1.08987   0.46535 
 1                     1.60996  -1.27321   1.30546 
 1                     0.97464   1.27152   1.48154 
 1                     1.4912    0.25201  -1.33762 
 6                     0.3805    2.42842  -0.24798 
 1                     0.04628   2.25836  -1.2766 
 1                    -0.3913    3.02187   0.25949 
 1                     0.43398  -2.46129  -1.13915 
 8                     1.6149    3.14798  -0.34711 
 1                     1.80723   3.52606   0.52576 
 8                    -0.20038  -2.78236   0.81567 
 1                    -1.17722  -2.75539   0.74766 
 8                     2.62429  -1.98599  -0.36861 
 1                     3.4224   -1.44923  -0.22214 
 8                     2.95004   0.67326   0.07129 
 1                     3.00097   1.58261  -0.27547 
 1                    -0.76697  -0.3651   -1.46846 
 8                    -2.07551  -1.39471  -0.28521 
 8                    -3.8355    0.26642  -0.90881 
 1                    -3.18897  -0.50703  -0.76596 
 1                    -3.31616   1.15635   0.17277 
 1                    -4.71949  -0.0939   -0.74432 
 8                    -2.7328    1.60255   0.88627 
 1                    -1.4941    0.92751   0.73315 
 1                    -3.10517   1.3366    1.74134 
 
 Add virtual bond connecting atoms H29        and O28        Dist= 2.68D+00.
 Add virtual bond connecting atoms O23        and H25        Dist= 2.84D+00.
 Add virtual bond connecting atoms H26        and O24        Dist= 2.82D+00.

 GradGradGradGradGradGradGradGradGradGradGradGradGradGradGradGradGradGrad
 Berny optimization.
 Initialization pass.
                           ----------------------------
                           !    Initial Parameters    !
                           ! (Angstroms and Degrees)  !
 --------------------------                            --------------------------
 ! Name  Definition              Value          Derivative Info.                !
 --------------------------------------------------------------------------------
 ! R1    R(1,6)                  1.4255         estimate D2E/DX2                !
 ! R2    R(1,29)                 1.0496         estimate D2E/DX2                !
 ! R3    R(2,4)                  1.5299         estimate D2E/DX2                !
 ! R4    R(2,6)                  1.5405         estimate D2E/DX2                !
 ! R5    R(2,9)                  1.1022         estimate D2E/DX2                !
 ! R6    R(2,20)                 1.4233         estimate D2E/DX2                !
 ! R7    R(3,4)                  1.538          estimate D2E/DX2                !
 ! R8    R(3,5)                  1.5347         estimate D2E/DX2                !
 ! R9    R(3,13)                 1.1059         estimate D2E/DX2                !
 ! R10   R(3,16)                 1.4063         estimate D2E/DX2                !
 ! R11   R(4,7)                  1.1005         estimate D2E/DX2                !
 ! R12   R(4,18)                 1.4191         estimate D2E/DX2                !
 ! R13   R(5,22)                 1.1021         estimate D2E/DX2                !
 ! R14   R(5,23)                 1.2645         estimate D2E/DX2                !
 ! R15   R(6,8)                  1.0999         estimate D2E/DX2                !
 ! R16   R(6,10)                 1.5318         estimate D2E/DX2                !
 ! R17   R(10,11)                1.0949         estimate D2E/DX2                !
 ! R18   R(10,12)                1.0979         estimate D2E/DX2                !
 ! R19   R(10,14)                1.4322         estimate D2E/DX2                !
 ! R20   R(14,15)                0.9705         estimate D2E/DX2                !
 ! R21   R(16,17)                0.9796         estimate D2E/DX2                !
 ! R22   R(18,19)                0.9729         estimate D2E/DX2                !
 ! R23   R(20,21)                0.9746         estimate D2E/DX2                !
 ! R24   R(23,25)                1.503          estimate D2E/DX2                !
 ! R25   R(24,25)                1.0182         estimate D2E/DX2                !
 ! R26   R(24,26)                1.4938         estimate D2E/DX2                !
 ! R27   R(24,27)                0.9687         estimate D2E/DX2                !
 ! R28   R(26,28)                1.024          estimate D2E/DX2                !
 ! R29   R(28,29)                1.419          estimate D2E/DX2                !
 ! R30   R(28,30)                0.9698         estimate D2E/DX2                !
 ! A1    A(6,1,29)             116.3564         estimate D2E/DX2                !
 ! A2    A(4,2,6)              111.6849         estimate D2E/DX2                !
 ! A3    A(4,2,9)              108.6888         estimate D2E/DX2                !
 ! A4    A(4,2,20)             107.0544         estimate D2E/DX2                !
 ! A5    A(6,2,9)              110.118          estimate D2E/DX2                !
 ! A6    A(6,2,20)             109.6723         estimate D2E/DX2                !
 ! A7    A(9,2,20)             109.555          estimate D2E/DX2                !
 ! A8    A(4,3,5)              116.0446         estimate D2E/DX2                !
 ! A9    A(4,3,13)             106.3964         estimate D2E/DX2                !
 ! A10   A(4,3,16)             109.9629         estimate D2E/DX2                !
 ! A11   A(5,3,13)             104.4728         estimate D2E/DX2                !
 ! A12   A(5,3,16)             108.608          estimate D2E/DX2                !
 ! A13   A(13,3,16)            111.2259         estimate D2E/DX2                !
 ! A14   A(2,4,3)              112.3977         estimate D2E/DX2                !
 ! A15   A(2,4,7)              108.407          estimate D2E/DX2                !
 ! A16   A(2,4,18)             109.5985         estimate D2E/DX2                !
 ! A17   A(3,4,7)              107.1505         estimate D2E/DX2                !
 ! A18   A(3,4,18)             108.3738         estimate D2E/DX2                !
 ! A19   A(7,4,18)             110.9067         estimate D2E/DX2                !
 ! A20   A(3,5,22)             114.9831         estimate D2E/DX2                !
 ! A21   A(3,5,23)             115.1036         estimate D2E/DX2                !
 ! A22   A(22,5,23)            119.1763         estimate D2E/DX2                !
 ! A23   A(1,6,2)              109.1453         estimate D2E/DX2                !
 ! A24   A(1,6,8)              107.5583         estimate D2E/DX2                !
 ! A25   A(1,6,10)             111.5337         estimate D2E/DX2                !
 ! A26   A(2,6,8)              106.6484         estimate D2E/DX2                !
 ! A27   A(2,6,10)             112.2075         estimate D2E/DX2                !
 ! A28   A(8,6,10)             109.5264         estimate D2E/DX2                !
 ! A29   A(6,10,11)            110.1515         estimate D2E/DX2                !
 ! A30   A(6,10,12)            110.8238         estimate D2E/DX2                !
 ! A31   A(6,10,14)            110.5229         estimate D2E/DX2                !
 ! A32   A(11,10,12)           107.6756         estimate D2E/DX2                !
 ! A33   A(11,10,14)           106.0281         estimate D2E/DX2                !
 ! A34   A(12,10,14)           111.4877         estimate D2E/DX2                !
 ! A35   A(10,14,15)           107.7147         estimate D2E/DX2                !
 ! A36   A(3,16,17)            103.8644         estimate D2E/DX2                !
 ! A37   A(4,18,19)            105.5529         estimate D2E/DX2                !
 ! A38   A(2,20,21)            105.7282         estimate D2E/DX2                !
 ! A39   A(5,23,25)            114.0142         estimate D2E/DX2                !
 ! A40   A(25,24,26)            97.4811         estimate D2E/DX2                !
 ! A41   A(25,24,27)           105.8484         estimate D2E/DX2                !
 ! A42   A(26,24,27)           114.5772         estimate D2E/DX2                !
 ! A43   A(23,25,24)           164.5779         estimate D2E/DX2                !
 ! A44   A(24,26,28)           164.1923         estimate D2E/DX2                !
 ! A45   A(26,28,29)           102.4053         estimate D2E/DX2                !
 ! A46   A(26,28,30)           106.0292         estimate D2E/DX2                !
 ! A47   A(29,28,30)           107.4494         estimate D2E/DX2                !
 ! A48   L(1,29,28,11,-1)      181.8553         estimate D2E/DX2                !
 ! A49   L(1,29,28,11,-2)      175.2769         estimate D2E/DX2                !
 ! D1    D(29,1,6,2)          -159.145          estimate D2E/DX2                !
 ! D2    D(29,1,6,8)            85.5181         estimate D2E/DX2                !
 ! D3    D(29,1,6,10)          -34.5967         estimate D2E/DX2                !
 ! D4    D(6,1,28,26)          130.8524         estimate D2E/DX2                !
 ! D5    D(6,1,28,30)         -118.5295         estimate D2E/DX2                !
 ! D6    D(6,2,4,3)             65.4006         estimate D2E/DX2                !
 ! D7    D(6,2,4,7)            -52.8476         estimate D2E/DX2                !
 ! D8    D(6,2,4,18)          -174.0262         estimate D2E/DX2                !
 ! D9    D(9,2,4,3)            -56.2852         estimate D2E/DX2                !
 ! D10   D(9,2,4,7)           -174.5334         estimate D2E/DX2                !
 ! D11   D(9,2,4,18)            64.288          estimate D2E/DX2                !
 ! D12   D(20,2,4,3)          -174.5381         estimate D2E/DX2                !
 ! D13   D(20,2,4,7)            67.2137         estimate D2E/DX2                !
 ! D14   D(20,2,4,18)          -53.9649         estimate D2E/DX2                !
 ! D15   D(4,2,6,1)            -39.1064         estimate D2E/DX2                !
 ! D16   D(4,2,6,8)             76.8142         estimate D2E/DX2                !
 ! D17   D(4,2,6,10)          -163.2589         estimate D2E/DX2                !
 ! D18   D(9,2,6,1)             81.7506         estimate D2E/DX2                !
 ! D19   D(9,2,6,8)           -162.3289         estimate D2E/DX2                !
 ! D20   D(9,2,6,10)           -42.4019         estimate D2E/DX2                !
 ! D21   D(20,2,6,1)          -157.6181         estimate D2E/DX2                !
 ! D22   D(20,2,6,8)           -41.6975         estimate D2E/DX2                !
 ! D23   D(20,2,6,10)           78.2294         estimate D2E/DX2                !
 ! D24   D(4,2,20,21)          176.4891         estimate D2E/DX2                !
 ! D25   D(6,2,20,21)          -62.1702         estimate D2E/DX2                !
 ! D26   D(9,2,20,21)           58.8018         estimate D2E/DX2                !
 ! D27   D(5,3,4,2)            -18.9209         estimate D2E/DX2                !
 ! D28   D(5,3,4,7)            100.0658         estimate D2E/DX2                !
 ! D29   D(5,3,4,18)          -140.1975         estimate D2E/DX2                !
 ! D30   D(13,3,4,2)            96.7853         estimate D2E/DX2                !
 ! D31   D(13,3,4,7)          -144.2281         estimate D2E/DX2                !
 ! D32   D(13,3,4,18)          -24.4913         estimate D2E/DX2                !
 ! D33   D(16,3,4,2)          -142.6573         estimate D2E/DX2                !
 ! D34   D(16,3,4,7)           -23.6707         estimate D2E/DX2                !
 ! D35   D(16,3,4,18)           96.0661         estimate D2E/DX2                !
 ! D36   D(4,3,5,22)            67.0444         estimate D2E/DX2                !
 ! D37   D(4,3,5,23)          -148.6417         estimate D2E/DX2                !
 ! D38   D(13,3,5,22)          -49.739          estimate D2E/DX2                !
 ! D39   D(13,3,5,23)           94.5748         estimate D2E/DX2                !
 ! D40   D(16,3,5,22)         -168.5186         estimate D2E/DX2                !
 ! D41   D(16,3,5,23)          -24.2047         estimate D2E/DX2                !
 ! D42   D(4,3,16,17)          149.2454         estimate D2E/DX2                !
 ! D43   D(5,3,16,17)           21.2786         estimate D2E/DX2                !
 ! D44   D(13,3,16,17)         -93.1568         estimate D2E/DX2                !
 ! D45   D(2,4,18,19)           47.228          estimate D2E/DX2                !
 ! D46   D(3,4,18,19)          170.2154         estimate D2E/DX2                !
 ! D47   D(7,4,18,19)          -72.4297         estimate D2E/DX2                !
 ! D48   D(3,5,23,25)         -174.109          estimate D2E/DX2                !
 ! D49   D(22,5,23,25)         -31.3809         estimate D2E/DX2                !
 ! D50   D(1,6,10,11)          -63.6469         estimate D2E/DX2                !
 ! D51   D(1,6,10,12)           55.405          estimate D2E/DX2                !
 ! D52   D(1,6,10,14)          179.5186         estimate D2E/DX2                !
 ! D53   D(2,6,10,11)           59.167          estimate D2E/DX2                !
 ! D54   D(2,6,10,12)          178.2188         estimate D2E/DX2                !
 ! D55   D(2,6,10,14)          -57.6675         estimate D2E/DX2                !
 ! D56   D(8,6,10,11)          177.4036         estimate D2E/DX2                !
 ! D57   D(8,6,10,12)          -63.5445         estimate D2E/DX2                !
 ! D58   D(8,6,10,14)           60.5691         estimate D2E/DX2                !
 ! D59   D(6,10,14,15)         -76.1982         estimate D2E/DX2                !
 ! D60   D(11,10,14,15)        164.4437         estimate D2E/DX2                !
 ! D61   D(12,10,14,15)         47.5335         estimate D2E/DX2                !
 ! D62   D(5,23,25,24)         -65.1162         estimate D2E/DX2                !
 ! D63   D(26,24,25,23)         -4.6081         estimate D2E/DX2                !
 ! D64   D(27,24,25,23)       -122.8596         estimate D2E/DX2                !
 ! D65   D(25,24,26,28)         20.0115         estimate D2E/DX2                !
 ! D66   D(27,24,26,28)        131.2922         estimate D2E/DX2                !
 ! D67   D(24,26,28,29)          5.6623         estimate D2E/DX2                !
 ! D68   D(24,26,28,30)       -106.8354         estimate D2E/DX2                !
 --------------------------------------------------------------------------------
 Trust Radius=3.00D-01 FncErr=1.00D-07 GrdErr=1.00D-06
 Number of steps in this run=    157 maximum allowed number of steps=    180.
 GradGradGradGradGradGradGradGradGradGradGradGradGradGradGradGradGradGrad

                          Input orientation:                          
 ---------------------------------------------------------------------
 Center     Atomic      Atomic             Coordinates (Angstroms)
 Number     Number       Type             X           Y           Z
 ---------------------------------------------------------------------
      1          8           0       -0.623615    0.359973    0.585650
      2          6           0        1.641635    0.211854   -0.246521
      3          6           0        0.232337   -1.912056   -0.200729
      4          6           0        1.557968   -1.247073    0.206520
      5          6           0       -0.918690   -0.960100   -0.553216
      6          6           0        0.594941    1.089873    0.465347
      7          1           0        1.609963   -1.273207    1.305458
      8          1           0        0.974636    1.271517    1.481535
      9          1           0        1.491201    0.252013   -1.337622
     10          6           0        0.380497    2.428422   -0.247979
     11          1           0        0.046275    2.258359   -1.276605
     12          1           0       -0.391296    3.021866    0.259489
     13          1           0        0.433977   -2.461291   -1.139147
     14          8           0        1.614897    3.147979   -0.347110
     15          1           0        1.807233    3.526056    0.525764
     16          8           0       -0.200376   -2.782358    0.815665
     17          1           0       -1.177218   -2.755390    0.747664
     18          8           0        2.624287   -1.985987   -0.368609
     19          1           0        3.422402   -1.449229   -0.222139
     20          8           0        2.950040    0.673256    0.071293
     21          1           0        3.000970    1.582607   -0.275470
     22          1           0       -0.766970   -0.365096   -1.468463
     23          8           0       -2.075505   -1.394712   -0.285205
     24          8           0       -3.835504    0.266418   -0.908814
     25          1           0       -3.188969   -0.507028   -0.765955
     26          1           0       -3.316158    1.156349    0.172766
     27          1           0       -4.719489   -0.093903   -0.744321
     28          8           0       -2.732802    1.602553    0.886274
     29          1           0       -1.494095    0.927506    0.733146
     30          1           0       -3.105166    1.336601    1.741339
 ---------------------------------------------------------------------
                    Distance matrix (angstroms):
                    1          2          3          4          5
     1  O    0.000000
     2  C    2.417810   0.000000
     3  C    2.552090   2.549355   0.000000
     4  C    2.735990   1.529939   1.537970   0.000000
     5  C    1.768241   2.832455   1.534709   2.606413   0.000000
     6  C    1.425519   1.540533   3.096242   2.540813   2.744256
     7  H    2.859068   2.148266   2.138827   1.100478   3.153853
     8  H    2.046443   2.133999   3.676433   2.882574   3.564409
     9  H    2.860608   1.102154   2.749629   2.153158   2.809286
    10  C    2.445743   2.550224   4.343263   3.886164   3.641859
    11  H    2.742374   2.791851   4.310973   4.095477   3.436994
    12  H    2.691845   3.505000   4.994427   4.693216   4.098132
    13  H    3.471737   3.066092   1.105869   2.132721   2.103948
    14  O    3.695126   2.937969   5.247557   4.430150   4.830927
    15  H    3.992078   3.407019   5.707990   4.790283   5.359146
    16  O    3.179038   3.672404   1.406315   2.412453   2.389652
    17  H    3.168314   4.211754   1.896709   3.170031   2.232082
    18  O    4.118617   2.410605   2.398974   1.419085   3.693130
    19  H    4.505107   2.435349   3.223536   1.923728   4.381089
    20  O    3.624047   1.423313   3.760817   2.375671   4.245578
    21  H    3.920966   1.930698   4.459101   3.212734   4.680410
    22  H    2.183038   2.761773   2.235811   2.998131   1.102146
    23  O    2.438297   4.049652   2.366625   3.669566   1.264491
    24  O    3.543784   5.517306   4.668454   5.711757   3.184117
    25  H    3.026478   4.911348   3.741513   4.901712   2.324801
    26  H    2.838041   5.064344   4.705999   5.434582   3.279369
    27  H    4.330244   6.387894   5.302995   6.452935   3.902934
    28  O    2.466384   4.727892   4.725050   5.195492   3.454030
    29  H    1.049564   3.362247   3.451927   3.784338   2.355605
    30  H    2.906461   5.267709   5.046219   5.547599   3.914140
                    6          7          8          9         10
     6  C    0.000000
     7  H    2.705587   0.000000
     8  H    1.099909   2.628738   0.000000
     9  H    2.180823   3.053895   3.042018   0.000000
    10  C    1.531840   4.198430   2.163943   2.675396   0.000000
    11  H    2.168131   4.645872   3.072954   2.473249   1.094850
    12  H    2.178907   4.852498   2.534342   3.710343   1.097891
    13  H    3.900138   2.961517   4.592836   2.918755   4.970547
    14  O    2.436431   4.719946   2.697218   3.063174   1.432247
    15  H    2.721817   4.866186   2.586438   3.780402   1.959350
    16  O    3.968554   2.407231   4.272931   4.087234   5.349858
    17  H    4.243383   3.205679   4.624394   4.529167   5.503607
    18  O    3.778180   2.083125   4.093374   2.689147   4.953398
    19  H    3.861892   2.376862   4.036895   2.805007   4.928492
    20  O    2.423910   2.666025   2.499784   2.071400   3.128113
    21  H    2.565263   3.548226   2.699976   2.275533   2.753732
    22  H    2.776933   3.764188   3.796601   2.344628   3.257300
    23  O    3.723946   4.015924   4.419673   4.067023   4.544192
    24  O    4.711182   6.076723   5.464562   5.343956   4.783893
    25  H    4.287677   5.282758   5.054705   4.775661   4.650404
    26  H    3.922591   5.608244   4.487433   5.119550   3.931978
    27  H    5.577436   6.756798   6.264333   6.248547   5.711246
    28  O    3.393213   5.225449   3.769485   4.961035   3.414853
    29  H    2.112380   3.847838   2.602511   3.695452   2.594118
    30  H    3.921712   5.406804   4.088584   5.637634   4.159243
                   11         12         13         14         15
    11  H    0.000000
    12  H    1.770310   0.000000
    13  H    4.737542   5.718590   0.000000
    14  O    2.028783   2.099685   5.786692   0.000000
    15  H    2.820738   2.271264   6.364439   0.970487   0.000000
    16  O    5.463264   5.833935   2.080091   6.310005   6.626509
    17  H    5.543670   5.850870   2.498499   6.621495   6.957927
    18  O    5.048275   5.879357   2.370042   5.232298   5.643589
    19  H    5.124094   5.896350   3.285705   4.941357   5.284088
    20  O    3.572287   4.088510   4.197752   2.842872   3.106609
    21  H    3.192042   3.723589   4.867084   2.092061   2.417432
    22  H    2.753306   3.820793   2.438187   4.390036   5.073906
    23  O    4.339326   4.758089   2.857325   5.853114   6.320386
    24  O    4.378505   4.562893   5.071678   6.190782   6.672611
    25  H    4.286599   4.618615   4.133298   6.050755   6.549530
    26  H    3.823749   3.470229   5.373262   5.343423   5.655904
    27  H    5.341252   5.426685   5.684947   7.126852   7.570688
    28  O    3.582094   2.808907   5.535851   4.776198   4.943860
    29  H    2.860596   2.413889   4.325146   3.970300   4.206452
    30  H    4.459731   3.521518   5.936895   5.470074   5.513892
                   16         17         18         19         20
    16  O    0.000000
    17  H    0.979577   0.000000
    18  O    3.164717   4.036024   0.000000
    19  H    3.997348   4.878840   0.972908   0.000000
    20  O    4.735027   5.408082   2.714996   2.194122   0.000000
    21  H    5.521966   6.109196   3.589628   3.061450   0.974555
    22  H    3.373637   3.285274   3.916324   4.503277   4.155140
    23  O    2.579454   1.930073   4.737574   5.498539   5.446071
    24  O    5.048071   4.352209   6.862510   7.489470   6.868023
    25  H    4.075578   3.375399   6.011585   6.700276   6.307257
    26  H    5.063085   4.495250   6.742125   7.235550   6.285612
    27  H    5.484864   4.675170   7.592904   8.270428   7.750834
    28  O    5.064150   4.629333   6.568923   6.959058   5.815710
    29  H    3.929836   3.696531   5.163659   5.543770   4.500336
    30  H    5.124500   4.631281   6.951122   7.363779   6.316217
                   21         22         23         24         25
    21  H    0.000000
    22  H    4.406149   0.000000
    23  O    5.885161   2.042663   0.000000
    24  O    6.990769   3.182439   2.499167   0.000000
    25  H    6.551526   2.525815   1.502966   1.018153   0.000000
    26  H    6.347339   3.392166   2.873477   1.493825   1.914209
    27  H    7.914291   4.027448   2.982204   0.968668   1.585444
    28  O    5.850315   3.644300   3.284509   2.494704   2.718139
    29  H    4.653179   2.654546   2.601494   2.935177   2.679140
    30  H    6.435288   4.320389   3.553471   2.949915   3.113280
                   26         27         28         29         30
    26  H    0.000000
    27  H    2.091295   0.000000
    28  O    1.023961   3.079566   0.000000
    29  H    1.919976   3.691795   1.418990   0.000000
    30  H    1.592931   3.291031   0.969805   1.944058   0.000000
 Stoichiometry    C6H16O8
 Framework group  C1[X(C6H16O8)]
 Deg. of freedom    84
 Full point group                 C1      NOp   1
 Largest Abelian subgroup         C1      NOp   1
 Largest concise Abelian subgroup C1      NOp   1
                         Standard orientation:                         
 ---------------------------------------------------------------------
 Center     Atomic      Atomic             Coordinates (Angstroms)
 Number     Number       Type             X           Y           Z
 ---------------------------------------------------------------------
      1          8           0       -0.599364    0.334065    0.587124
      2          6           0        1.663747    0.185301   -0.250733
      3          6           0        0.257035   -1.940027   -0.192779
      4          6           0        1.583018   -1.271947    0.208209
      5          6           0       -0.896061   -0.990768   -0.545778
      6          6           0        0.618010    1.064885    0.460610
      7          1           0        1.638080   -1.293744    1.307092
      8          1           0        1.000303    1.250918    1.475029
      9          1           0        1.510251    0.221040   -1.341561
     10          6           0        0.400049    2.400401   -0.257320
     11          1           0        0.063182    2.225953   -1.284348
     12          1           0       -0.371023    2.994932    0.249971
     13          1           0        0.456715   -2.492679   -1.129609
     14          8           0        1.633339    3.120979   -0.362666
     15          1           0        1.827650    3.502671    0.508196
     16          8           0       -0.171861   -2.806861    0.828186
     17          1           0       -1.148918   -2.781276    0.762785
     18          8           0        2.648596   -2.011873   -0.366992
     19          1           0        3.446492   -1.473636   -0.224820
     20          8           0        2.972491    0.649433    0.061661
     21          1           0        3.021412    1.557485   -0.288776
     22          1           0       -0.747558   -0.399158   -1.463749
     23          8           0       -2.051628   -1.425657   -0.272877
     24          8           0       -3.815261    0.231018   -0.898067
     25          1           0       -3.167441   -0.541126   -0.753992
     26          1           0       -3.293956    1.125746    0.178601
     27          1           0       -4.698371   -0.129672   -0.729728
     28          8           0       -2.709146    1.575391    0.888751
     29          1           0       -1.470088    0.901171    0.734821
     30          1           0       -3.078838    1.312343    1.745871
 ---------------------------------------------------------------------
 Rotational constants (GHZ):      0.7087928      0.5260735      0.3307157
 Standard basis: 6-31G(d) (6D, 7F)
 There are   242 symmetry adapted cartesian basis functions of A   symmetry.
 There are   242 symmetry adapted basis functions of A   symmetry.
   242 basis functions,   456 primitive gaussians,   242 cartesian basis functions
    58 alpha electrons       58 beta electrons
       nuclear repulsion energy      1100.3467453124 Hartrees.
 NAtoms=   30 NActive=   30 NUniq=   30 SFac= 1.00D+00 NAtFMM=   60 NAOKFM=F Big=F
 Integral buffers will be    131072 words long.
 Raffenetti 2 integral format.
 Two-electron integral symmetry is turned on.
 One-electron integrals computed using PRISM.
 NBasis=   242 RedAO= T EigKep=  1.38D-03  NBF=   242
 NBsUse=   242 1.00D-06 EigRej= -1.00D+00 NBFU=   242
 ExpMin= 1.61D-01 ExpMax= 5.48D+03 ExpMxC= 8.25D+02 IAcc=1 IRadAn=         1 AccDes= 0.00D+00
 Harris functional with IExCor=  402 and IRadAn=       1 diagonalized for initial guess.
 HarFok:  IExCor=  402 AccDes= 0.00D+00 IRadAn=         1 IDoV= 1 UseB2=F ITyADJ=14
 ICtDFT=  3500011 ScaDFX=  1.000000  1.000000  1.000000  1.000000
 FoFCou: FMM=F IPFlag=           0 FMFlag=      100000 FMFlg1=           0
         NFxFlg=           0 DoJE=T BraDBF=F KetDBF=T FulRan=T
         wScrn=  0.000000 ICntrl=     500 IOpCl=  0 I1Cent=   200000004 NGrid=           0
         NMat0=    1 NMatS0=      1 NMatT0=    0 NMatD0=    1 NMtDS0=    0 NMtDT0=    0
 Petite list used in FoFCou.
 Requested convergence on RMS density matrix=1.00D-08 within 128 cycles.
 Requested convergence on MAX density matrix=1.00D-06.
 Requested convergence on             energy=1.00D-06.
 No special actions if energy rises.
 Integral accuracy reduced to 1.0D-05 until final iterations.
 Initial convergence to 1.0D-05 achieved.  Increase integral accuracy.
 SCF Done:  E(RB3LYP) =  -839.969086564     A.U. after   14 cycles
            NFock= 14  Conv=0.39D-08     -V/T= 2.0083

 **********************************************************************

            Population analysis using the SCF density.

 **********************************************************************

 Orbital symmetries:
       Occupied  (A) (A) (A) (A) (A) (A) (A) (A) (A) (A) (A) (A)
                 (A) (A) (A) (A) (A) (A) (A) (A) (A) (A) (A) (A)
                 (A) (A) (A) (A) (A) (A) (A) (A) (A) (A) (A) (A)
                 (A) (A) (A) (A) (A) (A) (A) (A) (A) (A) (A) (A)
                 (A) (A) (A) (A) (A) (A) (A) (A) (A) (A)
       Virtual   (A) (A) (A) (A) (A) (A) (A) (A) (A) (A) (A) (A)
                 (A) (A) (A) (A) (A) (A) (A) (A) (A) (A) (A) (A)
                 (A) (A) (A) (A) (A) (A) (A) (A) (A) (A) (A) (A)
                 (A) (A) (A) (A) (A) (A) (A) (A) (A) (A) (A) (A)
                 (A) (A) (A) (A) (A) (A) (A) (A) (A) (A) (A) (A)
                 (A) (A) (A) (A) (A) (A) (A) (A) (A) (A) (A) (A)
                 (A) (A) (A) (A) (A) (A) (A) (A) (A) (A) (A) (A)
                 (A) (A) (A) (A) (A) (A) (A) (A) (A) (A) (A) (A)
                 (A) (A) (A) (A) (A) (A) (A) (A) (A) (A) (A) (A)
                 (A) (A) (A) (A) (A) (A) (A) (A) (A) (A) (A) (A)
                 (A) (A) (A) (A) (A) (A) (A) (A) (A) (A) (A) (A)
                 (A) (A) (A) (A) (A) (A) (A) (A) (A) (A) (A) (A)
                 (A) (A) (A) (A) (A) (A) (A) (A) (A) (A) (A) (A)
                 (A) (A) (A) (A) (A) (A) (A) (A) (A) (A) (A) (A)
                 (A) (A) (A) (A) (A) (A) (A) (A) (A) (A) (A) (A)
                 (A) (A) (A) (A)
 The electronic state is 1-A.
 Alpha  occ. eigenvalues --  -19.18538 -19.18410 -19.16817 -19.15524 -19.14702
 Alpha  occ. eigenvalues --  -19.13240 -19.12038 -19.12012 -10.28783 -10.25912
 Alpha  occ. eigenvalues --  -10.25630 -10.24601 -10.23076 -10.22780  -1.07296
 Alpha  occ. eigenvalues --   -1.05289  -1.03562  -1.02985  -1.02653  -1.00532
 Alpha  occ. eigenvalues --   -0.99758  -0.98290  -0.78782  -0.75529  -0.69216
 Alpha  occ. eigenvalues --   -0.64493  -0.62843  -0.56538  -0.55910  -0.55401
 Alpha  occ. eigenvalues --   -0.54106  -0.53497  -0.53081  -0.50828  -0.49758
 Alpha  occ. eigenvalues --   -0.48336  -0.46634  -0.45302  -0.44663  -0.42705
 Alpha  occ. eigenvalues --   -0.41869  -0.41545  -0.39944  -0.38693  -0.37618
 Alpha  occ. eigenvalues --   -0.37334  -0.36503  -0.34359  -0.33562  -0.33180
 Alpha  occ. eigenvalues --   -0.31625  -0.30993  -0.29797  -0.28660  -0.27540
 Alpha  occ. eigenvalues --   -0.26308  -0.26034  -0.23983
 Alpha virt. eigenvalues --    0.03000   0.04688   0.05109   0.07991   0.08348
 Alpha virt. eigenvalues --    0.09405   0.11094   0.12475   0.13434   0.14358
 Alpha virt. eigenvalues --    0.15437   0.16023   0.16808   0.17700   0.18855
 Alpha virt. eigenvalues --    0.19441   0.20802   0.22846   0.24433   0.25006
 Alpha virt. eigenvalues --    0.25628   0.26365   0.28309   0.30239   0.30983
 Alpha virt. eigenvalues --    0.32444   0.33782   0.39858   0.51193   0.52000
 Alpha virt. eigenvalues --    0.53172   0.56081   0.56496   0.58826   0.60331
 Alpha virt. eigenvalues --    0.61069   0.61834   0.64674   0.65933   0.67471
 Alpha virt. eigenvalues --    0.68943   0.70082   0.72165   0.73457   0.74770
 Alpha virt. eigenvalues --    0.75017   0.76918   0.77599   0.78013   0.79875
 Alpha virt. eigenvalues --    0.80412   0.81024   0.83360   0.83895   0.84225
 Alpha virt. eigenvalues --    0.85997   0.86267   0.87251   0.87485   0.89492
 Alpha virt. eigenvalues --    0.90145   0.91152   0.93583   0.93762   0.94228
 Alpha virt. eigenvalues --    0.96758   0.97517   1.00595   1.01103   1.02577
 Alpha virt. eigenvalues --    1.04659   1.05859   1.06005   1.07007   1.09639
 Alpha virt. eigenvalues --    1.09784   1.11160   1.13852   1.15546   1.16729
 Alpha virt. eigenvalues --    1.18601   1.19624   1.20950   1.25597   1.27725
 Alpha virt. eigenvalues --    1.29793   1.31319   1.32531   1.36542   1.39067
 Alpha virt. eigenvalues --    1.41140   1.44261   1.45189   1.49295   1.51524
 Alpha virt. eigenvalues --    1.51788   1.54338   1.56263   1.57234   1.58964
 Alpha virt. eigenvalues --    1.60062   1.64369   1.67863   1.68479   1.70179
 Alpha virt. eigenvalues --    1.70649   1.71024   1.71510   1.72049   1.73945
 Alpha virt. eigenvalues --    1.74796   1.75986   1.76436   1.77392   1.79338
 Alpha virt. eigenvalues --    1.80524   1.81437   1.83894   1.85092   1.86110
 Alpha virt. eigenvalues --    1.88794   1.89904   1.90851   1.93703   1.95326
 Alpha virt. eigenvalues --    1.95548   1.99536   2.01383   2.03171   2.04069
 Alpha virt. eigenvalues --    2.06396   2.08848   2.10092   2.13040   2.15946
 Alpha virt. eigenvalues --    2.21126   2.21537   2.25317   2.27789   2.29688
 Alpha virt. eigenvalues --    2.31505   2.32780   2.36096   2.39835   2.41205
 Alpha virt. eigenvalues --    2.42016   2.45497   2.48825   2.49206   2.49848
 Alpha virt. eigenvalues --    2.52187   2.54411   2.56047   2.59202   2.61130
 Alpha virt. eigenvalues --    2.62124   2.66312   2.67006   2.70002   2.74741
 Alpha virt. eigenvalues --    2.77434   2.80581   2.82408   2.85437   2.91456
 Alpha virt. eigenvalues --    2.94048   2.96012   2.97405   3.01332   3.08391
 Alpha virt. eigenvalues --    3.74197   3.75103   3.80819   3.84541   3.87607
 Alpha virt. eigenvalues --    3.94391   4.08018   4.20707   4.23987   4.37388
 Alpha virt. eigenvalues --    4.44699   4.46321   4.65444   4.80376
          Condensed to atoms (all electrons):
               1          2          3          4          5          6
     1  O    8.629197  -0.028546  -0.020565  -0.000113   0.023037   0.125174
     2  C   -0.028546   5.008631  -0.023288   0.315869  -0.000071   0.287538
     3  C   -0.020565  -0.023288   4.998577   0.306895   0.282066  -0.009595
     4  C   -0.000113   0.315869   0.306895   4.917970  -0.029764  -0.034369
     5  C    0.023037  -0.000071   0.282066  -0.029764   4.767506  -0.007924
     6  C    0.125174   0.287538  -0.009595  -0.034369  -0.007924   5.049756
     7  H    0.000909  -0.054378  -0.050028   0.348791   0.001436  -0.001033
     8  H   -0.032068  -0.048031  -0.000071  -0.007275   0.000857   0.354081
     9  H    0.002459   0.344925  -0.005795  -0.044400  -0.000189  -0.055846
    10  C   -0.024694  -0.031729  -0.000138   0.003715  -0.001328   0.330304
    11  H    0.003340  -0.010256  -0.000021  -0.000061   0.000452  -0.041145
    12  H    0.001085   0.004918  -0.000005  -0.000093  -0.000026  -0.043785
    13  H    0.002172  -0.000113   0.336515  -0.056074  -0.044941   0.000824
    14  O    0.001635   0.001698  -0.000001   0.000094   0.000030  -0.041667
    15  H    0.000011  -0.001779   0.000001  -0.000008  -0.000002  -0.001111
    16  O   -0.000092   0.002289   0.263658  -0.047208  -0.021594   0.000567
    17  H    0.000845  -0.000338  -0.051485   0.006812  -0.017756   0.000006
    18  O    0.000007  -0.032119  -0.036072   0.231974   0.001766   0.003528
    19  H   -0.000010  -0.013907   0.006420  -0.029827  -0.000245   0.000806
    20  O    0.001485   0.222799   0.002235  -0.037475   0.000194  -0.042377
    21  H    0.000035  -0.021343  -0.000198   0.005223  -0.000002  -0.004732
    22  H   -0.045610  -0.003070  -0.078727   0.001995   0.347386   0.006836
    23  O   -0.046200   0.000148  -0.047884   0.002001   0.377744   0.001780
    24  O   -0.000609   0.000000  -0.000132   0.000001   0.006933   0.000006
    25  H    0.001576   0.000008   0.001972  -0.000028  -0.011614  -0.000094
    26  H    0.005583   0.000010   0.000049  -0.000002   0.000090  -0.000174
    27  H    0.000004  -0.000000  -0.000002  -0.000000  -0.000283   0.000001
    28  O   -0.078637  -0.000066  -0.000026   0.000002   0.001052   0.001782
    29  H    0.129469   0.002191   0.000817  -0.000026   0.001089  -0.006082
    30  H    0.004040   0.000004  -0.000000  -0.000000  -0.000062   0.000053
               7          8          9         10         11         12
     1  O    0.000909  -0.032068   0.002459  -0.024694   0.003340   0.001085
     2  C   -0.054378  -0.048031   0.344925  -0.031729  -0.010256   0.004918
     3  C   -0.050028  -0.000071  -0.005795  -0.000138  -0.000021  -0.000005
     4  C    0.348791  -0.007275  -0.044400   0.003715  -0.000061  -0.000093
     5  C    0.001436   0.000857  -0.000189  -0.001328   0.000452  -0.000026
     6  C   -0.001033   0.354081  -0.055846   0.330304  -0.041145  -0.043785
     7  H    0.629842   0.004695   0.007718   0.000009   0.000001   0.000007
     8  H    0.004695   0.626545   0.007363  -0.055830   0.005868  -0.004935
     9  H    0.007718   0.007363   0.659396  -0.008225   0.005397   0.000093
    10  C    0.000009  -0.055830  -0.008225   4.956997   0.371312   0.364409
    11  H    0.000001   0.005868   0.005397   0.371312   0.560313  -0.036284
    12  H    0.000007  -0.004935   0.000093   0.364409  -0.036284   0.576666
    13  H    0.006866   0.000013   0.002654   0.000012  -0.000004  -0.000000
    14  O   -0.000011   0.001981   0.000137   0.221601  -0.033773  -0.025950
    15  H    0.000000   0.004878   0.000146  -0.029115   0.006808  -0.008249
    16  O    0.005821   0.000011  -0.000016  -0.000002   0.000000  -0.000000
    17  H   -0.000093   0.000006   0.000013  -0.000001   0.000000   0.000000
    18  O   -0.039515  -0.000074   0.001917  -0.000052  -0.000002   0.000000
    19  H   -0.001965   0.000028   0.000067  -0.000015   0.000001   0.000000
    20  O   -0.001573   0.005593  -0.040440  -0.000292   0.000102  -0.000214
    21  H   -0.000238  -0.000283  -0.004514  -0.004250  -0.000065   0.000436
    22  H   -0.000026  -0.000234   0.001978  -0.000166   0.001423  -0.000022
    23  O   -0.000066  -0.000074   0.000039  -0.000023  -0.000036   0.000005
    24  O   -0.000000   0.000000   0.000000  -0.000009   0.000009   0.000010
    25  H    0.000001   0.000002  -0.000001   0.000007  -0.000007  -0.000008
    26  H    0.000000   0.000005  -0.000000   0.000049   0.000028   0.000156
    27  H    0.000000  -0.000000   0.000000   0.000000  -0.000000  -0.000000
    28  O    0.000001   0.000045   0.000003  -0.000968   0.000078   0.004595
    29  H   -0.000071  -0.001869  -0.000208  -0.001272  -0.000605   0.002858
    30  H   -0.000000   0.000004  -0.000000  -0.000010  -0.000001  -0.000070
              13         14         15         16         17         18
     1  O    0.002172   0.001635   0.000011  -0.000092   0.000845   0.000007
     2  C   -0.000113   0.001698  -0.001779   0.002289  -0.000338  -0.032119
     3  C    0.336515  -0.000001   0.000001   0.263658  -0.051485  -0.036072
     4  C   -0.056074   0.000094  -0.000008  -0.047208   0.006812   0.231974
     5  C   -0.044941   0.000030  -0.000002  -0.021594  -0.017756   0.001766
     6  C    0.000824  -0.041667  -0.001111   0.000567   0.000006   0.003528
     7  H    0.006866  -0.000011   0.000000   0.005821  -0.000093  -0.039515
     8  H    0.000013   0.001981   0.004878   0.000011   0.000006  -0.000074
     9  H    0.002654   0.000137   0.000146  -0.000016   0.000013   0.001917
    10  C    0.000012   0.221601  -0.029115  -0.000002  -0.000001  -0.000052
    11  H   -0.000004  -0.033773   0.006808   0.000000   0.000000  -0.000002
    12  H   -0.000000  -0.025950  -0.008249  -0.000000   0.000000   0.000000
    13  H    0.635726  -0.000000  -0.000000  -0.038445   0.002608   0.003774
    14  O   -0.000000   8.225704   0.235639   0.000000  -0.000000  -0.000000
    15  H   -0.000000   0.235639   0.388260  -0.000000  -0.000000   0.000000
    16  O   -0.038445   0.000000  -0.000000   8.280495   0.227615   0.001046
    17  H    0.002608  -0.000000  -0.000000   0.227615   0.367835  -0.000159
    18  O    0.003774  -0.000000   0.000000   0.001046  -0.000159   8.283886
    19  H   -0.000221   0.000006  -0.000001  -0.000153   0.000016   0.233798
    20  O   -0.000148  -0.011878   0.001936  -0.000009   0.000001  -0.007431
    21  H    0.000010   0.042143  -0.002226   0.000001  -0.000000   0.000121
    22  H    0.004937  -0.000018   0.000000   0.002883   0.002687  -0.000045
    23  O   -0.002178   0.000000  -0.000000  -0.024576   0.054922  -0.000010
    24  O    0.000002   0.000000  -0.000000  -0.000001   0.000075  -0.000000
    25  H   -0.000100  -0.000000   0.000000   0.000062  -0.000487   0.000000
    26  H   -0.000001   0.000000   0.000000  -0.000000  -0.000007   0.000000
    27  H   -0.000000  -0.000000   0.000000   0.000000  -0.000011   0.000000
    28  O    0.000001   0.000007   0.000001   0.000000   0.000003   0.000000
    29  H   -0.000048  -0.000027  -0.000022  -0.000044  -0.000023   0.000001
    30  H   -0.000000  -0.000000  -0.000000   0.000000   0.000001   0.000000
              19         20         21         22         23         24
     1  O   -0.000010   0.001485   0.000035  -0.045610  -0.046200  -0.000609
     2  C   -0.013907   0.222799  -0.021343  -0.003070   0.000148   0.000000
     3  C    0.006420   0.002235  -0.000198  -0.078727  -0.047884  -0.000132
     4  C   -0.029827  -0.037475   0.005223   0.001995   0.002001   0.000001
     5  C   -0.000245   0.000194  -0.000002   0.347386   0.377744   0.006933
     6  C    0.000806  -0.042377  -0.004732   0.006836   0.001780   0.000006
     7  H   -0.001965  -0.001573  -0.000238  -0.000026  -0.000066  -0.000000
     8  H    0.000028   0.005593  -0.000283  -0.000234  -0.000074   0.000000
     9  H    0.000067  -0.040440  -0.004514   0.001978   0.000039   0.000000
    10  C   -0.000015  -0.000292  -0.004250  -0.000166  -0.000023  -0.000009
    11  H    0.000001   0.000102  -0.000065   0.001423  -0.000036   0.000009
    12  H    0.000000  -0.000214   0.000436  -0.000022   0.000005   0.000010
    13  H   -0.000221  -0.000148   0.000010   0.004937  -0.002178   0.000002
    14  O    0.000006  -0.011878   0.042143  -0.000018   0.000000   0.000000
    15  H   -0.000001   0.001936  -0.002226   0.000000  -0.000000  -0.000000
    16  O   -0.000153  -0.000009   0.000001   0.002883  -0.024576  -0.000001
    17  H    0.000016   0.000001  -0.000000   0.002687   0.054922   0.000075
    18  O    0.233798  -0.007431   0.000121  -0.000045  -0.000010  -0.000000
    19  H    0.372941   0.024885  -0.000528   0.000011   0.000001   0.000000
    20  O    0.024885   8.325843   0.223602  -0.000004  -0.000000   0.000000
    21  H   -0.000528   0.223602   0.354606  -0.000003  -0.000000   0.000000
    22  H    0.000011  -0.000004  -0.000003   0.693045  -0.053555   0.002322
    23  O    0.000001  -0.000000  -0.000000  -0.053555   8.316808  -0.065075
    24  O    0.000000   0.000000   0.000000   0.002322  -0.065075   8.441705
    25  H   -0.000000   0.000000   0.000000  -0.005625   0.098270   0.165484
    26  H    0.000000  -0.000000   0.000000  -0.000108   0.002779   0.111866
    27  H   -0.000000  -0.000000  -0.000000  -0.000082   0.003022   0.235087
    28  O   -0.000000   0.000000  -0.000000  -0.000152  -0.001595  -0.070772
    29  H    0.000000  -0.000021   0.000005   0.000923   0.006503   0.002127
    30  H    0.000000  -0.000000   0.000000   0.000013   0.000374   0.003663
              25         26         27         28         29         30
     1  O    0.001576   0.005583   0.000004  -0.078637   0.129469   0.004040
     2  C    0.000008   0.000010  -0.000000  -0.000066   0.002191   0.000004
     3  C    0.001972   0.000049  -0.000002  -0.000026   0.000817  -0.000000
     4  C   -0.000028  -0.000002  -0.000000   0.000002  -0.000026  -0.000000
     5  C   -0.011614   0.000090  -0.000283   0.001052   0.001089  -0.000062
     6  C   -0.000094  -0.000174   0.000001   0.001782  -0.006082   0.000053
     7  H    0.000001   0.000000   0.000000   0.000001  -0.000071  -0.000000
     8  H    0.000002   0.000005  -0.000000   0.000045  -0.001869   0.000004
     9  H   -0.000001  -0.000000   0.000000   0.000003  -0.000208  -0.000000
    10  C    0.000007   0.000049   0.000000  -0.000968  -0.001272  -0.000010
    11  H   -0.000007   0.000028  -0.000000   0.000078  -0.000605  -0.000001
    12  H   -0.000008   0.000156  -0.000000   0.004595   0.002858  -0.000070
    13  H   -0.000100  -0.000001  -0.000000   0.000001  -0.000048  -0.000000
    14  O   -0.000000   0.000000  -0.000000   0.000007  -0.000027  -0.000000
    15  H    0.000000   0.000000   0.000000   0.000001  -0.000022  -0.000000
    16  O    0.000062  -0.000000   0.000000   0.000000  -0.000044   0.000000
    17  H   -0.000487  -0.000007  -0.000011   0.000003  -0.000023   0.000001
    18  O    0.000000   0.000000   0.000000   0.000000   0.000001   0.000000
    19  H   -0.000000   0.000000  -0.000000  -0.000000   0.000000   0.000000
    20  O    0.000000  -0.000000  -0.000000   0.000000  -0.000021  -0.000000
    21  H    0.000000   0.000000  -0.000000  -0.000000   0.000005   0.000000
    22  H   -0.005625  -0.000108  -0.000082  -0.000152   0.000923   0.000013
    23  O    0.098270   0.002779   0.003022  -0.001595   0.006503   0.000374
    24  O    0.165484   0.111866   0.235087  -0.070772   0.002127   0.003663
    25  H    0.312849  -0.011616  -0.006440   0.007477  -0.000224  -0.000293
    26  H   -0.011616   0.297643  -0.005321   0.167548  -0.008300  -0.007266
    27  H   -0.006440  -0.005321   0.375231   0.003074  -0.000040  -0.000184
    28  O    0.007477   0.167548   0.003074   8.428479   0.126323   0.235015
    29  H   -0.000224  -0.008300  -0.000040   0.126323   0.278587  -0.006786
    30  H   -0.000293  -0.007266  -0.000184   0.235015  -0.006786   0.367750
 Mulliken charges:
               1
     1  O   -0.654918
     2  C    0.078006
     3  C    0.124831
     4  C    0.145382
     5  C    0.324163
     6  C    0.126894
     7  H    0.142897
     8  H    0.138767
     9  H    0.125328
    10  C   -0.090296
    11  H    0.167128
    12  H    0.164403
    13  H    0.146160
    14  O   -0.617351
    15  H    0.404833
    16  O   -0.652308
    17  H    0.406914
    18  O   -0.646339
    19  H    0.407891
    20  O   -0.666811
    21  H    0.412201
    22  H    0.121007
    23  O   -0.623123
    24  O   -0.832690
    25  H    0.448831
    26  H    0.446990
    27  H    0.395944
    28  O   -0.823269
    29  H    0.474775
    30  H    0.403758
 Sum of Mulliken charges =  -0.00000
 Mulliken charges with hydrogens summed into heavy atoms:
               1
     1  O   -0.180143
     2  C    0.203334
     3  C    0.270991
     4  C    0.288279
     5  C    0.445171
     6  C    0.265661
    10  C    0.241235
    14  O   -0.212517
    16  O   -0.245394
    18  O   -0.238448
    20  O   -0.254610
    23  O   -0.623123
    24  O    0.012085
    28  O    0.027479
 Electronic spatial extent (au):  <R**2>=           3319.3673
 Charge=              0.0000 electrons
 Dipole moment (field-independent basis, Debye):
    X=             -2.3045    Y=              4.6725    Z=              1.5758  Tot=              5.4429
 Quadrupole moment (field-independent basis, Debye-Ang):
   XX=            -72.9793   YY=            -92.3431   ZZ=            -81.4275
   XY=              8.9198   XZ=             -4.4108   YZ=              8.1763
 Traceless Quadrupole moment (field-independent basis, Debye-Ang):
   XX=              9.2706   YY=            -10.0931   ZZ=              0.8225
   XY=              8.9198   XZ=             -4.4108   YZ=              8.1763
 Octapole moment (field-independent basis, Debye-Ang**2):
  XXX=            -86.3735  YYY=             48.0794  ZZZ=             12.1028  XYY=             -3.0551
  XXY=              0.7263  XXZ=             26.4576  XZZ=            -10.3780  YZZ=              8.6160
  YYZ=             14.0904  XYZ=              0.7699
 Hexadecapole moment (field-independent basis, Debye-Ang**3):
 XXXX=          -1530.4361 YYYY=          -1605.9580 ZZZZ=           -242.3343 XXXY=             68.0552
 XXXZ=            -66.7446 YYYX=            107.4301 YYYZ=             85.0274 ZZZX=            -37.1031
 ZZZY=             15.0417 XXYY=           -610.2137 XXZZ=           -367.9412 YYZZ=           -299.7728
 XXYZ=             26.0438 YYXZ=             32.4508 ZZXY=              0.5127
 N-N= 1.100346745312D+03 E-N=-4.173297198522D+03  KE= 8.330350023869D+02
 Calling FoFJK, ICntrl=      2127 FMM=F ISym2X=0 I1Cent= 0 IOpClX= 0 NMat=1 NMatS=1 NMatT=0.
 ***** Axes restored to original set *****
 -------------------------------------------------------------------
 Center     Atomic                   Forces (Hartrees/Bohr)
 Number     Number              X              Y              Z
 -------------------------------------------------------------------
      1        8           0.007074867    0.002649672    0.007532928
      2        6          -0.000019875    0.001067764    0.000524402
      3        6           0.001081396   -0.002702379   -0.000940963
      4        6          -0.000420368    0.000611641    0.000073702
      5        6          -0.001912735   -0.010312312   -0.007104212
      6        6           0.002669008    0.002607438    0.001768924
      7        1          -0.000075175   -0.000008010   -0.000002422
      8        1           0.000533792    0.000437269   -0.000045181
      9        1          -0.000070613    0.000104457    0.000034149
     10        6           0.000505454    0.001011904    0.000004142
     11        1           0.000026296   -0.000024076    0.000019181
     12        1           0.000030327    0.000093065   -0.000029727
     13        1           0.000416717   -0.000375063    0.000121454
     14        8           0.000523049    0.001070208   -0.000590745
     15        1          -0.000014849    0.000140474   -0.000058526
     16        8           0.001048446   -0.000991217    0.000463727
     17        1           0.000059287    0.000054844    0.000194529
     18        8          -0.000142930    0.000759129    0.000121270
     19        1          -0.000012095    0.000042785    0.000021441
     20        8           0.000605649   -0.000222505   -0.000555558
     21        1           0.000026223    0.000011259    0.000033999
     22        1          -0.000258933   -0.000260985   -0.000155605
     23        8           0.000955365   -0.006148443   -0.000072920
     24        8          -0.009899604    0.001101743   -0.007350339
     25        1          -0.000361215   -0.000377445   -0.000333909
     26        1          -0.000583069    0.000357966   -0.000360209
     27        1          -0.000500818    0.000043363   -0.000741015
     28        8          -0.002615606    0.009564299    0.007202574
     29        1           0.001536240   -0.000420872    0.000100954
     30        1          -0.000204232    0.000114028    0.000123954
 -------------------------------------------------------------------
 Cartesian Forces:  Max     0.010312312 RMS     0.002701825

 GradGradGradGradGradGradGradGradGradGradGradGradGradGradGradGradGradGrad
 Berny optimization.
 FormGI is forming the generalized inverse of G from B-inverse, IUseBI=4.
 Internal  Forces:  Max     0.014252180 RMS     0.004250797
 Search for a local minimum.
 Step number   1 out of a maximum of  157
 All quantities printed in internal units (Hartrees-Bohrs-Radians)
 Mixed Optimization -- RFO/linear search
 Second derivative matrix not updated -- first step.
 ITU=  0
     Eigenvalues ---    0.00233   0.00253   0.00306   0.00345   0.00397
     Eigenvalues ---    0.00527   0.00623   0.00738   0.01145   0.01265
     Eigenvalues ---    0.01383   0.01439   0.01608   0.02181   0.02580
     Eigenvalues ---    0.03459   0.04069   0.04288   0.04344   0.04668
     Eigenvalues ---    0.04806   0.04922   0.04930   0.05231   0.05568
     Eigenvalues ---    0.05760   0.06930   0.07115   0.07273   0.07409
     Eigenvalues ---    0.07758   0.08196   0.10710   0.11251   0.11437
     Eigenvalues ---    0.11482   0.11856   0.13667   0.13767   0.13829
     Eigenvalues ---    0.14791   0.15588   0.16000   0.16000   0.16000
     Eigenvalues ---    0.16000   0.16105   0.16422   0.16776   0.17921
     Eigenvalues ---    0.18434   0.19494   0.19881   0.20711   0.21693
     Eigenvalues ---    0.22001   0.23434   0.28036   0.28492   0.28822
     Eigenvalues ---    0.29254   0.29285   0.33041   0.33445   0.33446
     Eigenvalues ---    0.33629   0.33692   0.33916   0.34257   0.39286
     Eigenvalues ---    0.40668   0.41183   0.41965   0.42598   0.43236
     Eigenvalues ---    0.44197   0.44590   0.51467   0.52457   0.52787
     Eigenvalues ---    0.53278   0.53417   0.53650   0.76916
 RFO step:  Lambda=-2.00317054D-02 EMin= 2.32686195D-03
 Linear search not attempted -- first point.
 Iteration  1 RMS(Cart)=  0.14233812 RMS(Int)=  0.00482137
 Iteration  2 RMS(Cart)=  0.00853485 RMS(Int)=  0.00171924
 Iteration  3 RMS(Cart)=  0.00010194 RMS(Int)=  0.00171895
 Iteration  4 RMS(Cart)=  0.00000084 RMS(Int)=  0.00171895
 Variable       Old X    -DE/DX   Delta X   Delta X   Delta X     New X
                                 (Linear)    (Quad)   (Total)
    R1        2.69384  -0.00035   0.00000  -0.00050  -0.00076   2.69309
    R2        1.98339   0.00602   0.00000   0.01546   0.01618   1.99957
    R3        2.89117   0.00680   0.00000   0.02368   0.02490   2.91607
    R4        2.91119   0.00514   0.00000   0.01667   0.01653   2.92772
    R5        2.08277  -0.00002   0.00000  -0.00006  -0.00006   2.08271
    R6        2.68967   0.00040   0.00000   0.00090   0.00090   2.69057
    R7        2.90634   0.00942   0.00000   0.02856   0.02812   2.93446
    R8        2.90018   0.00226   0.00000   0.00446   0.00320   2.90338
    R9        2.08979   0.00016   0.00000   0.00045   0.00045   2.09024
   R10        2.65755   0.00072   0.00000   0.00154   0.00154   2.65909
   R11        2.07960  -0.00000   0.00000  -0.00001  -0.00001   2.07959
   R12        2.68168  -0.00059   0.00000  -0.00133  -0.00133   2.68035
   R13        2.08275  -0.00005   0.00000  -0.00014  -0.00014   2.08261
   R14        2.38954   0.00234   0.00000   0.00280   0.00313   2.39267
   R15        2.07853   0.00021   0.00000   0.00060   0.00060   2.07913
   R16        2.89476   0.00222   0.00000   0.00699   0.00698   2.90173
   R17        2.06897  -0.00010   0.00000  -0.00008  -0.00010   2.06887
   R18        2.07471   0.00002   0.00000   0.00004   0.00004   2.07476
   R19        2.70656   0.00109   0.00000   0.00255   0.00255   2.70911
   R20        1.83395  -0.00001   0.00000  -0.00001  -0.00001   1.83394
   R21        1.85113  -0.00007   0.00000  -0.00014  -0.00014   1.85099
   R22        1.83853   0.00002   0.00000   0.00004   0.00004   1.83857
   R23        1.84164   0.00000   0.00000   0.00001   0.00001   1.84165
   R24        2.84019   0.00964   0.00000   0.06535   0.06405   2.90424
   R25        1.92403   0.01097   0.00000   0.02193   0.02085   1.94488
   R26        2.82292   0.01422   0.00000   0.11212   0.11297   2.93589
   R27        1.83052   0.00032   0.00000   0.00057   0.00057   1.83109
   R28        1.93501   0.01415   0.00000   0.03324   0.03425   1.96925
   R29        2.68150   0.00800   0.00000   0.05382   0.05445   2.73595
   R30        1.83267   0.00015   0.00000   0.00028   0.00028   1.83295
    A1        2.03080   0.01379   0.00000   0.05956   0.05639   2.08719
    A2        1.94927   0.01025   0.00000   0.06022   0.06271   2.01198
    A3        1.89698  -0.00454   0.00000  -0.01382  -0.01362   1.88336
    A4        1.86845  -0.00159   0.00000  -0.01624  -0.01900   1.84945
    A5        1.92192  -0.00001   0.00000   0.00955   0.00623   1.92815
    A6        1.91414  -0.00583   0.00000  -0.03010  -0.02820   1.88594
    A7        1.91210   0.00165   0.00000  -0.01109  -0.01090   1.90120
    A8        2.02536   0.00368   0.00000   0.02304   0.02341   2.04877
    A9        1.85697   0.00027   0.00000  -0.00156  -0.00095   1.85602
   A10        1.91921  -0.00367   0.00000  -0.01486  -0.01565   1.90357
   A11        1.82339  -0.00223   0.00000  -0.01046  -0.00899   1.81440
   A12        1.89557   0.00154   0.00000   0.00840   0.00683   1.90240
   A13        1.94126   0.00048   0.00000  -0.00518  -0.00529   1.93597
   A14        1.96171   0.01352   0.00000   0.07879   0.08282   2.04453
   A15        1.89206  -0.00446   0.00000  -0.01689  -0.01801   1.87405
   A16        1.91285  -0.00327   0.00000  -0.02329  -0.02577   1.88709
   A17        1.87013  -0.00060   0.00000   0.00841   0.00454   1.87467
   A18        1.89148  -0.00737   0.00000  -0.03657  -0.03512   1.85636
   A19        1.93569   0.00242   0.00000  -0.00952  -0.00928   1.92641
   A20        2.00683  -0.00304   0.00000   0.01059   0.01037   2.01720
   A21        2.00894   0.01425   0.00000   0.06532   0.05842   2.06736
   A22        2.08002  -0.00598   0.00000   0.00198   0.00043   2.08045
   A23        1.90494  -0.00056   0.00000   0.00221   0.00146   1.90641
   A24        1.87725  -0.00126   0.00000  -0.00082   0.00133   1.87858
   A25        1.94663   0.00281   0.00000   0.00492   0.00316   1.94979
   A26        1.86137   0.00201   0.00000   0.00934   0.00999   1.87136
   A27        1.95839  -0.00263   0.00000  -0.01124  -0.01089   1.94750
   A28        1.91160  -0.00037   0.00000  -0.00384  -0.00431   1.90729
   A29        1.92251  -0.00043   0.00000  -0.00271  -0.00272   1.91978
   A30        1.93424  -0.00033   0.00000  -0.00043  -0.00043   1.93381
   A31        1.92899   0.00189   0.00000   0.00846   0.00846   1.93745
   A32        1.87929   0.00014   0.00000  -0.00102  -0.00101   1.87828
   A33        1.85054  -0.00067   0.00000  -0.00297  -0.00296   1.84758
   A34        1.94583  -0.00067   0.00000  -0.00176  -0.00178   1.94405
   A35        1.87998   0.00012   0.00000   0.00066   0.00066   1.88064
   A36        1.81278   0.00021   0.00000   0.00115   0.00115   1.81393
   A37        1.84225  -0.00009   0.00000  -0.00050  -0.00050   1.84174
   A38        1.84531   0.00006   0.00000   0.00036   0.00036   1.84567
   A39        1.98992  -0.00545   0.00000  -0.03574  -0.03373   1.95619
   A40        1.70137   0.00909   0.00000   0.08848   0.08692   1.78829
   A41        1.84740  -0.00273   0.00000  -0.00047  -0.00056   1.84684
   A42        1.99975   0.00057   0.00000   0.00225   0.00216   2.00191
   A43        2.87243   0.00271   0.00000   0.02350   0.01986   2.89229
   A44        2.86570   0.00856   0.00000   0.06287   0.06305   2.92875
   A45        1.78731   0.00262   0.00000   0.06483   0.06577   1.85308
   A46        1.85056  -0.00008   0.00000   0.00743   0.00985   1.86041
   A47        1.87535   0.00119   0.00000   0.00111  -0.00046   1.87488
   A48        3.17397  -0.00223   0.00000   0.01180   0.01130   3.18527
   A49        3.05916  -0.01011   0.00000  -0.14744  -0.14552   2.91363
    D1       -2.77760   0.00561   0.00000   0.09799   0.09895  -2.67865
    D2        1.49257   0.00420   0.00000   0.08629   0.08569   1.57826
    D3       -0.60383   0.00379   0.00000   0.08861   0.08825  -0.51557
    D4        2.28381  -0.00003   0.00000  -0.07454  -0.08128   2.20252
    D5       -2.06873   0.00041   0.00000  -0.05900  -0.06204  -2.13077
    D6        1.14146   0.00690   0.00000   0.13199   0.12841   1.26986
    D7       -0.92236   0.00243   0.00000   0.08530   0.08305  -0.83931
    D8       -3.03733   0.00421   0.00000   0.12143   0.11941  -2.91792
    D9       -0.98236   0.00340   0.00000   0.09064   0.08809  -0.89428
   D10       -3.04618  -0.00107   0.00000   0.04395   0.04273  -3.00346
   D11        1.12204   0.00071   0.00000   0.08009   0.07909   1.20113
   D12       -3.04626   0.00473   0.00000   0.11998   0.11770  -2.92856
   D13        1.17310   0.00026   0.00000   0.07329   0.07234   1.24544
   D14       -0.94187   0.00204   0.00000   0.10943   0.10871  -0.83316
   D15       -0.68254   0.00200   0.00000   0.01790   0.01315  -0.66939
   D16        1.34066   0.00132   0.00000   0.02301   0.02083   1.36149
   D17       -2.84941   0.00063   0.00000   0.01779   0.01559  -2.83381
   D18        1.42682   0.00305   0.00000   0.04694   0.04421   1.47103
   D19       -2.83317   0.00237   0.00000   0.05205   0.05189  -2.78128
   D20       -0.74005   0.00168   0.00000   0.04683   0.04665  -0.69340
   D21       -2.75095   0.00137   0.00000   0.02006   0.01707  -2.73389
   D22       -0.72776   0.00069   0.00000   0.02517   0.02475  -0.70301
   D23        1.36536   0.00000   0.00000   0.01995   0.01951   1.38487
   D24        3.08032  -0.00447   0.00000  -0.02524  -0.02614   3.05418
   D25       -1.08507   0.00358   0.00000   0.02033   0.02175  -1.06332
   D26        1.02628   0.00094   0.00000   0.00621   0.00568   1.03196
   D27       -0.33023   0.00108   0.00000   0.02896   0.02499  -0.30524
   D28        1.74648   0.00307   0.00000   0.05942   0.05713   1.80361
   D29       -2.44691   0.00158   0.00000   0.03288   0.03008  -2.41682
   D30        1.68922   0.00055   0.00000   0.02779   0.02635   1.71557
   D31       -2.51725   0.00254   0.00000   0.05825   0.05849  -2.45876
   D32       -0.42745   0.00105   0.00000   0.03172   0.03144  -0.39601
   D33       -2.48984  -0.00076   0.00000   0.01238   0.01096  -2.47888
   D34       -0.41313   0.00123   0.00000   0.04284   0.04311  -0.37002
   D35        1.67667  -0.00026   0.00000   0.01631   0.01606   1.69273
   D36        1.17015  -0.00089   0.00000  -0.01147  -0.01108   1.15907
   D37       -2.59429   0.00446   0.00000   0.10232   0.10542  -2.48887
   D38       -0.86811  -0.00168   0.00000  -0.01480  -0.01630  -0.88441
   D39        1.65064   0.00367   0.00000   0.09899   0.10019   1.75084
   D40       -2.94120  -0.00180   0.00000  -0.00732  -0.00869  -2.94990
   D41       -0.42245   0.00355   0.00000   0.10647   0.10780  -0.31465
   D42        2.60482   0.00153   0.00000   0.01034   0.00975   2.61457
   D43        0.37138  -0.00169   0.00000  -0.01465  -0.01397   0.35741
   D44       -1.62589  -0.00015   0.00000  -0.00410  -0.00419  -1.63009
   D45        0.82428  -0.00534   0.00000  -0.03369  -0.03553   0.78875
   D46        2.97082   0.00456   0.00000   0.02544   0.02770   2.99852
   D47       -1.26414   0.00078   0.00000   0.00819   0.00777  -1.25637
   D48       -3.03878  -0.00934   0.00000  -0.16095  -0.16507   3.07934
   D49       -0.54770  -0.00220   0.00000  -0.03747  -0.03948  -0.58718
   D50       -1.11085   0.00034   0.00000   0.00338   0.00447  -1.10638
   D51        0.96700   0.00004   0.00000   0.00011   0.00120   0.96820
   D52        3.13319   0.00029   0.00000   0.00357   0.00468   3.13787
   D53        1.03266  -0.00023   0.00000   0.00168   0.00074   1.03339
   D54        3.11051  -0.00054   0.00000  -0.00159  -0.00253   3.10798
   D55       -1.00649  -0.00029   0.00000   0.00187   0.00095  -1.00554
   D56        3.09628   0.00039   0.00000   0.00382   0.00364   3.09992
   D57       -1.10906   0.00009   0.00000   0.00055   0.00038  -1.10869
   D58        1.05713   0.00034   0.00000   0.00401   0.00385   1.06098
   D59       -1.32991  -0.00020   0.00000  -0.00414  -0.00415  -1.33406
   D60        2.87008  -0.00031   0.00000  -0.00371  -0.00370   2.86639
   D61        0.82962   0.00026   0.00000   0.00017   0.00016   0.82978
   D62       -1.13649   0.00328   0.00000   0.00154   0.00326  -1.13323
   D63       -0.08043   0.00357   0.00000   0.01223   0.01422  -0.06621
   D64       -2.14431   0.00021   0.00000  -0.02483  -0.02488  -2.16918
   D65        0.34927   0.00141   0.00000  -0.01041  -0.01204   0.33723
   D66        2.29148   0.00339   0.00000   0.03772   0.03778   2.32926
   D67        0.09883   0.00315   0.00000   0.00869   0.00813   0.10695
   D68       -1.86463   0.00082   0.00000  -0.02125  -0.02357  -1.88820
         Item               Value     Threshold  Converged?
 Maximum Force            0.014252     0.000450     NO 
 RMS     Force            0.004251     0.000300     NO 
 Maximum Displacement     0.458541     0.001800     NO 
 RMS     Displacement     0.144262     0.001200     NO 
 Predicted change in Energy=-1.290160D-02
 GradGradGradGradGradGradGradGradGradGradGradGradGradGradGradGradGradGrad

                          Input orientation:                          
 ---------------------------------------------------------------------
 Center     Atomic      Atomic             Coordinates (Angstroms)
 Number     Number       Type             X           Y           Z
 ---------------------------------------------------------------------
      1          8           0       -0.606467    0.557278    0.767773
      2          6           0        1.588590    0.245794   -0.217255
      3          6           0        0.230409   -2.019841   -0.251594
      4          6           0        1.497023   -1.239051    0.192693
      5          6           0       -0.991775   -1.195975   -0.685239
      6          6           0        0.645063    1.203926    0.552171
      7          1           0        1.540441   -1.279875    1.291551
      8          1           0        1.099602    1.387201    1.537210
      9          1           0        1.402578    0.310070   -1.301665
     10          6           0        0.474507    2.540589   -0.184104
     11          1           0        0.061987    2.367597   -1.183347
     12          1           0       -0.222578    3.196058    0.354270
     13          1           0        0.512982   -2.578240   -1.163632
     14          8           0        1.741214    3.180010   -0.388536
     15          1           0        2.015656    3.570005    0.456698
     16          8           0       -0.151986   -2.899518    0.777949
     17          1           0       -1.124638   -2.965268    0.682797
     18          8           0        2.605301   -1.921518   -0.371010
     19          1           0        3.376026   -1.353212   -0.198963
     20          8           0        2.930477    0.642595    0.045545
     21          1           0        3.006932    1.554735   -0.288998
     22          1           0       -0.865737   -0.607746   -1.608637
     23          8           0       -2.144469   -1.616998   -0.373525
     24          8           0       -3.879687    0.166483   -0.916674
     25          1           0       -3.251430   -0.640498   -0.801333
     26          1           0       -3.354538    1.156652    0.159189
     27          1           0       -4.773969   -0.169864   -0.755327
     28          8           0       -2.819031    1.696977    0.871382
     29          1           0       -1.482896    1.139478    0.879779
     30          1           0       -3.222181    1.497927    1.730834
 ---------------------------------------------------------------------
                    Distance matrix (angstroms):
                    1          2          3          4          5
     1  O    0.000000
     2  C    2.426021   0.000000
     3  C    2.894998   2.641768   0.000000
     4  C    2.825277   1.543116   1.552848   0.000000
     5  C    2.309459   2.992655   1.536403   2.639457   0.000000
     6  C    1.425119   1.549283   3.348231   2.612126   3.157522
     7  H    2.873794   2.146271   2.155234   1.100473   3.213542
     8  H    2.047310   2.149434   3.945029   2.977057   3.998241
     9  H    2.894814   1.102124   2.811604   2.154484   2.895009
    10  C    2.451142   2.551149   4.567456   3.933598   4.045123
    11  H    2.744258   2.786736   4.488445   4.118340   3.749342
    12  H    2.698428   3.508706   5.270471   4.759551   4.578448
    13  H    3.849021   3.166659   1.106105   2.145083   2.098525
    14  O    3.705048   2.943170   5.416617   4.463805   5.167833
    15  H    4.006098   3.418622   5.910598   4.844141   5.750063
    16  O    3.486560   3.730017   1.407132   2.412242   2.397546
    17  H    3.561468   4.299142   1.898176   3.176969   2.240441
    18  O    4.213871   2.398872   2.379924   1.418380   3.682948
    19  H    4.521593   2.398350   3.215909   1.922779   4.397598
    20  O    3.610937   1.423790   3.803581   2.370029   4.392999
    21  H    3.894655   1.931364   4.526376   3.212023   4.869606
    22  H    2.659290   2.947574   2.244351   3.037429   1.102072
    23  O    2.897496   4.174942   2.411885   3.704580   1.266148
    24  O    3.701898   5.513395   4.702683   5.667031   3.201545
    25  H    3.300392   4.955043   3.785234   4.888165   2.329823
    26  H    2.877763   5.040425   4.807358   5.410930   3.439558
    27  H    4.496292   6.398785   5.359100   6.431738   3.919542
    28  O    2.491001   4.766359   4.937093   5.263953   3.759136
    29  H    1.058125   3.381742   3.767852   3.874198   2.853913
    30  H    2.941814   5.339139   5.312729   5.668141   4.250791
                    6          7          8          9         10
     6  C    0.000000
     7  H    2.741834   0.000000
     8  H    1.100226   2.714403   0.000000
     9  H    2.193061   3.044947   3.051429   0.000000
    10  C    1.535531   4.231987   2.164248   2.661855   0.000000
    11  H    2.169362   4.649194   3.072337   2.458577   1.094799
    12  H    2.181869   4.901092   2.533667   3.702995   1.097913
    13  H    4.155263   2.961308   4.833569   3.025355   5.211848
    14  O    2.447730   4.770071   2.708197   3.030682   1.433597
    15  H    2.736050   4.944102   2.602171   3.754315   1.960986
    16  O    4.186230   2.398196   4.529781   4.128308   5.559928
    17  H    4.531124   3.211507   4.961981   4.588328   5.798555
    18  O    3.803051   2.075992   4.105613   2.700491   4.948294
    19  H    3.815930   2.365667   3.963113   2.806592   4.855998
    20  O    2.407256   2.679669   2.476209   2.063982   3.112380
    21  H    2.531612   3.561425   2.645943   2.269061   2.719575
    22  H    3.199026   3.827864   4.211736   2.466145   3.706421
    23  O    4.073821   4.057671   4.816650   4.142050   4.917361
    24  O    4.869000   6.028764   5.683751   5.298222   5.013187
    25  H    4.518465   5.267921   5.339646   4.776369   4.937903
    26  H    4.019139   5.583881   4.668132   5.047865   4.085916
    27  H    5.741321   6.730053   6.494537   6.219208   5.934589
    28  O    3.513536   5.295581   3.986849   4.946475   3.559933
    29  H    2.153994   3.894020   2.676356   3.711142   2.631803
    30  H    4.053549   5.530979   4.327535   5.656452   4.291810
                   11         12         13         14         15
    11  H    0.000000
    12  H    1.769630   0.000000
    13  H    4.966396   6.015612   0.000000
    14  O    2.027694   2.099642   5.938583   0.000000
    15  H    2.819992   2.271568   6.533331   0.970482   0.000000
    16  O    5.624498   6.110690   2.077291   6.473451   6.830564
    17  H    5.773216   6.235670   2.498177   6.864788   7.254127
    18  O    5.052212   5.891732   2.331809   5.174219   5.584766
    19  H    5.079005   5.826823   3.260107   4.822722   5.149617
    20  O    3.565676   4.069058   4.204780   2.835709   3.094458
    21  H    3.183286   3.679330   4.905737   2.062393   2.366432
    22  H    3.145506   4.328461   2.445760   4.757303   5.479200
    23  O    4.626149   5.233436   2.934331   6.173333   6.700814
    24  O    4.522478   4.916103   5.185560   6.399595   6.944436
    25  H    4.491469   5.022800   4.249341   6.300252   6.859531
    26  H    3.865414   3.742513   5.536875   5.510052   5.895063
    27  H    5.477990   5.768518   5.823988   7.335108   7.845677
    28  O    3.601653   3.042403   5.789738   4.958086   5.201384
    29  H    2.855070   2.468620   4.688334   4.020856   4.280926
    30  H    4.475995   3.711630   6.240554   5.653002   5.775108
                   16         17         18         19         20
    16  O    0.000000
    17  H    0.979504   0.000000
    18  O    3.143123   4.014021   0.000000
    19  H    3.973952   4.861296   0.972928   0.000000
    20  O    4.752323   5.465046   2.618002   2.059501   0.000000
    21  H    5.563948   6.200378   3.500339   2.932660   0.974558
    22  H    3.384887   3.297819   3.912266   4.531606   4.325611
    23  O    2.634528   1.993415   4.759522   5.529549   5.571037
    24  O    5.115454   4.467267   6.834659   7.447815   6.894265
    25  H    4.147753   3.482879   6.010614   6.692830   6.370205
    26  H    5.204971   4.715596   6.728739   7.192231   6.307027
    27  H    5.582533   4.816649   7.594051   8.254227   7.788452
    28  O    5.315037   4.964178   6.637802   6.987704   5.903437
    29  H    4.253843   4.125056   5.258091   5.566535   4.518927
    30  H    5.447165   5.041645   7.076009   7.442409   6.436381
                   21         22         23         24         25
    21  H    0.000000
    22  H    4.627671   0.000000
    23  O    6.050121   2.044321   0.000000
    24  O    7.053137   3.187811   2.546919   0.000000
    25  H    6.651964   2.518798   1.536859   1.029188   0.000000
    26  H    6.389651   3.525966   3.072651   1.553608   2.040338
    27  H    7.983366   4.024196   3.025598   0.968970   1.594283
    28  O    5.942100   3.908656   3.603783   2.581579   2.906670
    29  H    4.658008   3.102561   3.099452   3.149376   3.020291
    30  H    6.548649   4.597690   3.910569   3.035516   3.314451
                   26         27         28         29         30
    26  H    0.000000
    27  H    2.147270   0.000000
    28  O    1.042084   3.154847   0.000000
    29  H    2.005639   3.901167   1.447802   0.000000
    30  H    1.613709   3.372028   0.969953   1.969237   0.000000
 Stoichiometry    C6H16O8
 Framework group  C1[X(C6H16O8)]
 Deg. of freedom    84
 Full point group                 C1      NOp   1
 Largest Abelian subgroup         C1      NOp   1
 Largest concise Abelian subgroup C1      NOp   1
                         Standard orientation:                         
 ---------------------------------------------------------------------
 Center     Atomic      Atomic             Coordinates (Angstroms)
 Number     Number       Type             X           Y           Z
 ---------------------------------------------------------------------
      1          8           0       -0.508854    0.621702    0.758004
      2          6           0        1.629188    0.041485   -0.230783
      3          6           0        0.031431   -2.061832   -0.184203
      4          6           0        1.380078   -1.411018    0.226805
      5          6           0       -1.097706   -1.122940   -0.635941
      6          6           0        0.803611    1.120483    0.513839
      7          1           0        1.429664   -1.422338    1.326103
      8          1           0        1.285185    1.283282    1.489585
      9          1           0        1.440572    0.092161   -1.315464
     10          6           0        0.772763    2.444364   -0.263493
     11          1           0        0.333937    2.286742   -1.254035
     12          1           0        0.156799    3.188539    0.258240
     13          1           0        0.242281   -2.675751   -1.079812
     14          8           0        2.099636    2.934649   -0.496362
     15          1           0        2.423389    3.318217    0.334237
     16          8           0       -0.434525   -2.862092    0.875272
     17          1           0       -1.409434   -2.823887    0.788552
     18          8           0        2.401556   -2.227811   -0.322042
[...]
 ,-0.00063564,-0.00046747,0.00009929,-0.00003047,-0.00011396,-0.0001963
 5,0.00080064,-0.00142168,0.00090152,0.00046951,0.00000246,0.00002817,-
 0.00002144,0.00008668,-0.00007892,-0.00007041,0.00001062,-0.00000368,0
 .00000824,0.00014556,0.00019525,-0.00006232,-0.00047554,-0.00003312,0.
 00001720,0.00009339,0.00004727,0.00019724,0.00006577,0.00000272,0.0000
 1695,0.00007663,-0.00034913,-0.00017647,0.00020869,0.00008818,0.000045
 50,-0.00000376,0.00016437,-0.00004690,0.00033531,0.00000839,-0.0000547
 5,-0.00024412,-0.00019995,0.00013420,0.00010833,0.00004461,-0.00003126
 ,-0.00002721,-0.00026261,0.00013226,0.00021327,0.00009777,-0.00003516,
 -0.00010181,-0.00062146,-0.00001619,0.00032387,-0.00050664,0.00040661,
 0.00458445,-0.02348456,-0.05708695,0.03574422,-0.00003817,0.00241151,0
 .00118864,-0.00037299,-0.00061585,-0.00014533,0.00229674,0.00107360,0.
 00092560,-0.00132480,-0.00112919,-0.00036640,-0.01616093,-0.00352941,0
 .00301144,-0.00092913,-0.00022931,0.00020089,0.00020353,0.00019261,0.0
 0017533,0.00030365,0.00022927,0.00009019,-0.00000732,-0.00001020,0.000
 17838,0.00021486,-0.00048807,0.00004079,0.00003953,-0.00007296,-0.0000
 0018,0.00000673,0.00020440,0.00010197,0.00009893,-0.00011408,0.0001530
 2,-0.00002423,0.00061815,-0.00011410,0.00001377,-0.00020790,-0.0000007
 3,0.00156821,-0.00063508,0.00056118,-0.00108395,0.00165954,-0.00130147
 ,0.00124792,0.00025502,0.00003713,-0.00005256,-0.00018454,0.00008995,0
 .00060971,0.00072148,0.00006211,0.00001108,-0.00030592,0.00002394,0.00
 010406,0.00039732,-0.00110078,0.00767263,-0.00453617,-0.00187584,-0.18
 438634,0.14534318,-0.02011820,0.21152639,0.00215328,-0.00199359,-0.000
 53926,0.00010456,0.00071445,0.00017276,-0.00296112,-0.00085625,0.00055
 728,0.00101949,0.00118855,0.00035236,0.00799526,0.00933616,-0.00464705
 ,-0.00053406,-0.00017478,0.00005794,-0.00019328,-0.00017539,-0.0001899
 3,0.00008348,-0.00004756,0.00002926,-0.00000146,-0.00001590,-0.0001142
 9,-0.00026069,0.00014087,-0.00009073,-0.00006338,0.00003238,0.00007361
 ,-0.00000006,-0.00019378,-0.00008379,-0.00034884,0.00022545,-0.0002091
 7,0.00034171,-0.00021515,0.00004816,-0.00002978,0.00009817,-0.00000817
 ,-0.00105582,-0.00009720,-0.00010572,0.00108130,-0.00117625,0.00092038
 ,-0.00095645,-0.00044730,-0.00005644,-0.00002691,0.00024726,-0.0001164
 7,-0.00016743,-0.00073900,-0.00011080,-0.00012070,0.00026756,0.0000291
 3,-0.00142646,-0.00093648,0.00152417,-0.00888871,-0.00631524,0.0035514
 6,0.20361899,-0.30224665,0.03864584,-0.17920190,0.29224449,0.00094236,
 0.00040169,-0.00058636,-0.00003682,0.00000542,0.00020435,0.00092955,0.
 00148060,0.00107923,-0.00018609,-0.00033416,0.00008117,0.00025439,-0.0
 0222280,0.00237948,-0.00062015,-0.00017494,0.00012065,0.00001763,0.000
 06146,-0.00001937,0.00010435,0.00006898,0.00000039,0.00000610,0.000014
 34,-0.00009442,0.00009210,-0.00009638,0.00020565,0.00001324,0.00000368
 ,-0.00005283,-0.00000544,-0.00000872,-0.00000642,-0.00015131,0.0000214
 1,-0.00009641,0.00008180,0.00017460,-0.00011783,-0.00002470,-0.0000465
 2,0.00000200,-0.00023814,0.00007669,-0.00021704,0.00001911,-0.00003203
 ,0.00019527,0.00028857,-0.00000042,-0.00007575,-0.00000728,-0.00004331
 ,0.00003515,0.00014056,0.00001106,-0.00012069,-0.00003043,-0.00002316,
 0.00005328,0.00111724,-0.00030175,-0.00078288,-0.00082654,0.00191854,-
 0.00872054,-0.03170580,0.04415111,-0.01794290,0.02214764,-0.03793977,0
 .02304723,0.00383456,-0.00003244,0.00059955,-0.00013972,0.00041073,0.0
 0029798,-0.00016293,0.00013371,-0.00000178,-0.00007282,0.00037620,0.00
 004026,0.00133493,0.00186974,-0.00005283,-0.00175337,-0.00116242,0.000
 03129,-0.00004191,-0.00000721,-0.00007763,0.00043659,0.00017298,0.0001
 4674,0.00000298,-0.00002700,-0.00005717,-0.00017501,-0.00043492,-0.000
 06786,-0.00008008,0.00001094,0.00015440,-0.00005900,0.00000569,-0.0000
 3707,-0.00000351,-0.00002659,-0.00001755,0.00051446,0.00042445,-0.0000
 6276,-0.00002873,-0.00010353,-0.00000818,-0.00018728,-0.00028487,0.000
 02756,0.00013329,0.00002392,0.00008197,0.00013525,-0.00029542,-0.00002
 661,-0.00009433,0.00012497,-0.00003468,0.00052037,-0.00024348,-0.00018
 735,-0.00016922,0.00003045,0.00009425,0.00002825,-0.00013898,0.0002443
 6,-0.00267406,0.00021221,-0.00007998,-0.01222269,0.00665416,0.00147593
 ,0.00660314,0.00068741,0.00392146,0.13536966,0.00240099,-0.00383528,-0
 .00165665,0.00003755,0.00034362,0.00026811,-0.00039382,-0.00004756,-0.
 00013781,0.00045125,0.00050093,0.00007753,0.00362961,0.00153394,-0.000
 53833,-0.00016343,-0.00005718,-0.00022309,-0.00008226,-0.00005554,-0.0
 0008549,-0.00015374,-0.00010338,-0.00001871,0.00000842,-0.00001139,-0.
 00011432,-0.00080416,0.00036844,0.00025574,-0.00003380,0.00005797,0.00
 003702,-0.00000166,-0.00038472,-0.00020526,-0.00004734,0.00001785,-0.0
 0006277,0.00064558,-0.00023622,-0.00004377,-0.00012092,0.00007732,-0.0
 0001172,-0.00052529,-0.00000567,-0.00013184,0.00035236,-0.00033776,0.0
 0026280,-0.00030115,-0.00030063,-0.00001568,-0.00003808,0.00016189,-0.
 00004884,0.00004004,-0.00047478,-0.00012385,-0.00015492,0.00024250,0.0
 0005479,0.00018054,-0.00016181,0.00011681,-0.00449085,0.00114194,0.000
 64520,0.00419444,-0.00144146,0.00108094,0.00455617,-0.00585361,-0.0013
 2580,0.11591548,0.16703466,0.00389955,-0.00238251,-0.00215861,0.000031
 39,0.00041713,0.00042988,-0.00016666,0.00005341,-0.00006479,0.00014497
 ,0.00042009,0.00013063,0.00200710,0.00101446,0.00035141,-0.00097032,-0
 .00079039,-0.00012562,-0.00007472,-0.00001761,-0.00011749,0.00002760,0
 .00006903,-0.00001485,0.00001166,-0.00003469,-0.00017632,-0.00041593,0
 .00036686,0.00080807,0.00011551,-0.00005697,-0.00021542,-0.00026771,-0
 .00049702,-0.00003689,-0.00000163,-0.00001772,-0.00005356,0.00052711,0
 .00008884,-0.00029574,-0.00015694,-0.00001987,-0.00000378,-0.00036760,
 -0.00002535,-0.00022490,0.00021902,-0.00015087,0.00027520,-0.00005545,
 -0.00027341,-0.00007410,-0.00006335,0.00012008,-0.00001965,0.00030601,
 -0.00033933,-0.00024654,-0.00014614,0.00010661,0.00010788,0.00026747,-
 0.00012835,-0.00000925,-0.00313862,0.00088959,-0.00035486,0.00078893,0
 .00054877,-0.00929396,0.00555553,-0.00102364,0.00236919,0.09759713,0.1
 3921582,0.20584207,0.00021208,0.00009373,-0.00004076,-0.00004729,-0.00
 003909,0.00001165,0.00011512,0.00008889,-0.00004787,-0.00013758,-0.000
 05603,-0.00002161,-0.00028257,-0.00027643,0.00013646,-0.00016103,-0.00
 006720,-0.00001824,0.00001217,0.00001387,0.00000496,0.00002460,0.00001
 948,0.00001399,0.00000100,-0.00000285,0.00000753,-0.00003326,-0.000041
 55,0.00002737,0.00000038,-0.00000612,0.00000164,-0.00000589,-0.0000084
 2,-0.00000166,0.00002137,-0.00001638,0.00001419,0.00006178,0.00008235,
 -0.00002191,-0.00000931,-0.00002773,-0.00000028,0.00006682,-0.00004170
 ,0.00001142,-0.00009268,0.00008505,-0.00002590,0.00012688,-0.00000181,
 -0.00000371,-0.00001649,-0.00000747,0.00000654,0.00009757,0.00005484,-
 0.00000821,-0.00001575,-0.00002312,0.00000906,0.00008479,-0.00003236,-
 0.00003485,0.00060912,0.00087732,-0.00036366,-0.43807357,-0.12413393,0
 .04947391,-0.02601239,-0.01923173,0.00598156,-0.00145879,-0.00247567,-
 0.00113571,0.46415358,-0.00014128,-0.00004197,-0.00007634,0.00001959,0
 .00001124,-0.00000804,0.00000927,0.00008047,0.00008086,0.00005523,-0.0
 0001169,0.00001041,-0.00049819,-0.00007601,0.00009718,0.00012221,0.000
 05886,0.00000544,-0.00000181,-0.00000106,0.00000117,-0.00002616,-0.000
 01300,-0.00001000,-0.00000084,0.00000055,-0.00000312,0.00002921,0.0000
 3869,0.00000764,0.00000606,0.00000746,-0.00001355,0.00000319,0.0000042
 9,-0.00000070,-0.00001637,0.00001043,-0.00000533,-0.00004178,-0.000064
 42,0.00000678,-0.00000249,0.00002315,0.00000022,0.00003044,-0.00006297
 ,0.00002335,0.00004037,0.00005928,-0.00003097,-0.00003846,-0.00000279,
 0.00000328,0.00001062,0.00000462,-0.00000258,-0.00005210,-0.00003198,0
 .00000599,0.00000710,0.00001747,-0.00000471,-0.00014457,0.00003181,-0.
 00004104,0.00108957,-0.00224612,0.00037513,-0.17952099,-0.11045557,0.0
 2566943,0.03727024,0.01503107,-0.00496596,-0.00236903,0.00276970,0.004
 61431,0.14399477,0.09690389,0.00016812,-0.00001248,-0.00013189,-0.0000
 1858,-0.00000402,0.00003593,-0.00003032,0.00004587,0.00011024,-0.00005
 722,-0.00000087,0.00002552,-0.00013787,0.00000960,0.00002477,-0.000118
 19,-0.00004189,-0.00000375,-0.00000313,0.00000003,-0.00002025,0.000000
 33,0.00000644,-0.00000340,-0.00000431,-0.00000005,-0.00001543,-0.00001
 645,-0.00001727,0.00003735,-0.00000047,-0.00000808,-0.00000661,-0.0000
 0193,-0.00001438,-0.00000026,0.00001750,0.00000264,-0.00002190,0.00003
 944,0.00004663,-0.00002625,-0.00000812,-0.00001323,0.00000473,0.000032
 80,-0.00001035,-0.00009774,-0.00004284,0.00004706,0.00008264,0.0000610
 8,-0.00001374,-0.00003405,-0.00001049,-0.00000295,0.00001327,0.0000493
 9,0.00001076,-0.00003198,-0.00001233,-0.00000582,0.00001946,-0.0001026
 5,0.00005327,-0.00000242,0.00007153,0.00008913,-0.00043729,0.06329145,
 0.02326187,-0.01047477,-0.00596199,-0.00054883,0.00074920,-0.00209571,
 0.00245217,0.00271586,-0.05474313,-0.02306240,0.00995266,-0.02392395,0
 .01314270,0.00603943,-0.00014693,-0.00152743,-0.00111949,-0.00012175,-
 0.00056373,0.00026635,0.00044670,-0.00096740,-0.00004530,-0.00275713,-
 0.00338464,-0.00076204,0.00505487,0.00560745,0.00062390,0.00013071,-0.
 00004529,0.00021389,-0.00087527,-0.00046136,-0.00028351,0.00001363,0.0
 0011234,0.00028036,0.00071869,0.00023849,-0.00104176,-0.00004706,0.000
 08155,0.00016372,-0.00068836,0.00015621,0.00039391,-0.00001717,0.00014
 282,0.00001933,-0.00142022,-0.00116680,0.00054933,0.00018901,0.0003636
 0,0.00004915,0.00041283,0.00067889,-0.00011536,-0.00020329,-0.00013804
 ,-0.00004907,-0.00052985,0.00076013,0.00006287,0.00026040,-0.00032559,
 0.00009631,-0.00195690,0.00060669,0.00070865,0.00044417,0.00008530,-0.
 00028191,-0.00021716,0.00041828,-0.00012783,0.00391844,0.00028263,-0.0
 0018594,0.00291505,-0.01168969,-0.00751829,-0.00491035,0.00146146,-0.0
 0174380,-0.13101402,-0.12255436,-0.07416728,0.00097305,0.00060383,0.00
 017425,0.26296524,0.01576121,0.00048578,-0.00217541,0.00030209,0.00093
 037,0.00039791,0.00038634,0.00029201,0.00002422,-0.00075699,0.00008747
 ,0.00005437,-0.00188425,0.00035347,0.00099594,-0.00263402,-0.00472693,
 -0.00052514,-0.00000896,0.00008014,-0.00005844,0.00083221,0.00043126,0
 .00024554,-0.00002207,-0.00006239,-0.00007160,0.00124688,-0.00171851,-
 0.00034782,-0.00005526,0.00001375,0.00001729,-0.00026223,0.00070673,0.
 00033036,0.00005970,-0.00009255,0.00003866,-0.00065147,0.00132431,-0.0
 0009870,0.00020716,-0.00037387,0.00000950,0.00028789,-0.00030609,0.000
 09400,-0.00022380,0.00039599,-0.00014474,0.00058183,-0.00006587,-0.000
 05207,-0.00009588,-0.00000693,0.00000047,0.00129835,0.00020702,-0.0003
 7396,-0.00000578,-0.00050151,0.00010452,-0.00001537,-0.00005927,-0.000
 06051,0.00193062,-0.00097699,-0.00061996,-0.00802495,-0.00942675,-0.01
 046400,-0.00202758,0.00214000,0.00059755,-0.13351893,-0.17224834,-0.11
 803914,0.00146300,-0.00172752,-0.00168964,0.17614620,0.22664977,0.0024
 0273,-0.00150820,0.00639436,-0.00007330,-0.00023793,-0.00017513,0.0001
 5387,0.00003393,0.00003884,-0.00011815,-0.00021349,-0.00017169,-0.0013
 0769,-0.00034763,-0.00024714,0.00014908,0.00004737,0.00001745,0.000042
 74,0.00001423,0.00008282,0.00041988,-0.00002105,0.00009091,-0.00001761
 ,0.00003289,0.00015888,-0.00015336,-0.00018282,-0.00061960,-0.00030475
 ,0.00022442,0.00050234,0.00020352,0.00032160,-0.00057286,-0.00000286,0
 .00000283,0.00004764,0.00009809,-0.00003621,0.00034620,0.00017614,-0.0
 0002449,-0.00007496,0.00024042,-0.00007340,0.00024718,-0.00016301,0.00
 012920,-0.00024462,0.00010415,0.00010236,0.00008418,0.00001552,-0.0000
 4256,-0.00001524,-0.00000578,0.00015839,0.00016054,0.00002729,-0.00002
 146,-0.00007830,-0.00017609,0.00007062,0.00006392,0.00194306,-0.000688
 47,0.00027900,-0.00627633,-0.01217244,-0.00297080,-0.00311241,0.001061
 46,-0.00158172,-0.11610843,-0.15467915,-0.17587368,0.00081519,-0.00233
 418,-0.00217352,-0.07281149,0.09521984,0.59721369,-0.21231448,0.144389
 62,0.04376892,-0.00233717,-0.00204006,-0.00054994,0.00068443,0.0006894
 7,-0.00101223,-0.00109401,0.00071355,-0.00002486,0.00541026,0.00740405
 ,0.00277262,-0.03132933,0.01558800,0.00586584,-0.00017005,0.00014063,-
 0.00035276,0.00116338,0.00092174,0.00062736,0.00007134,-0.00001509,-0.
 00009570,0.00209804,-0.00218415,0.00173924,0.00012489,-0.00037184,-0.0
 0023981,0.00047168,-0.00063000,0.00059790,0.00013599,-0.00041771,0.000
 05976,0.00200828,0.00322522,-0.00151801,-0.00017830,-0.00063328,-0.000
 12855,-0.00045760,-0.00093685,0.00032663,0.00019367,0.00026336,-0.0000
 9649,0.00098249,-0.00075743,-0.00010815,-0.00030297,0.00014700,-0.0000
 7933,0.00085715,0.00013382,0.00005539,-0.00043877,0.00014232,0.0002251
 0,0.00035517,-0.00090313,-0.00030999,-0.00586330,-0.00108793,0.0010945
 0,0.00041023,0.00434588,0.00317116,0.00252796,-0.00292552,-0.00067449,
 -0.00903370,-0.00343434,-0.00785270,-0.00020714,0.00019984,-0.00004871
 ,0.00549507,-0.00717198,-0.00024856,0.24092803,0.18913915,-0.22062046,
 -0.05277895,-0.00244103,-0.00372086,-0.00104733,0.00006176,-0.00033604
 ,-0.00040256,0.00018867,-0.00088380,-0.00014917,0.00051114,-0.00092981
 ,0.00047784,-0.01569836,0.01898981,0.00654580,-0.00001858,0.00000602,-
 0.00000321,-0.00203806,-0.00124361,-0.00085839,0.00007763,0.00022588,0
 .00034593,-0.00524948,0.00355986,0.00125834,0.00015166,-0.00003088,0.0
 0021450,0.00017875,-0.00201250,-0.00076717,0.00000642,-0.00005634,0.00
 004896,0.00161807,-0.00197941,0.00029854,-0.00020149,0.00049449,-0.000
 07764,0.00003802,0.00037735,-0.00001953,-0.00000289,-0.00018493,0.0000
 0411,-0.00035009,0.00056239,0.00002549,0.00018458,-0.00030425,0.000061
 53,-0.00353488,0.00074767,0.00126285,0.00023578,0.00080190,-0.00036386
 ,-0.00001970,0.00009539,-0.00031251,0.00030109,0.00010907,0.00014917,0
 .00064476,-0.00249179,-0.00098316,-0.00180100,0.00016212,-0.00082910,-
 0.00177786,0.00627098,0.00376621,0.00003176,0.00000214,0.00007515,-0.0
 0205386,-0.00899542,-0.00049273,-0.15540753,0.21045049,0.05017960,-0.0
 4608374,-0.02008842,0.00233025,0.00128635,-0.00010854,0.00043573,-0.00
 002252,-0.00038998,-0.00019518,-0.00019292,-0.00009057,0.00064180,0.00
 060594,0.00052596,0.00276155,-0.00093743,-0.00529157,0.00009810,-0.000
 09827,0.00025121,-0.00224680,-0.00035040,0.00015602,-0.00029535,0.0000
 1985,-0.00012376,0.00168029,0.00040067,0.00091416,0.00042761,0.0000953
 1,-0.00079113,0.00008483,-0.00001218,0.00032291,0.00006441,-0.00006372
 ,0.00003672,-0.00147908,-0.00090645,-0.00016789,-0.00017257,0.00004438
 ,0.00016034,-0.00008068,0.00020751,-0.00021146,0.00001641,-0.00004709,
 0.00016097,-0.00020543,0.00019802,0.00005169,0.00007046,-0.00000779,0.
 00004471,0.00038988,-0.00017953,0.00004880,0.00016643,-0.00037527,0.00
 003649,0.00016501,-0.00052315,-0.00077807,-0.00066486,0.00022545,0.000
 00386,0.00093829,-0.00048613,-0.00095368,-0.00075581,-0.00080748,0.000
 05781,-0.00496281,0.00369235,0.00261421,0.00007815,0.00017236,0.000202
 91,-0.00577584,0.00112680,-0.01418803,-0.05030597,0.04616218,0.0371707
 2,-0.00103283,0.00187993,-0.00204441,-0.00007393,0.00005319,-0.0000013
 9,0.00000034,0.00004362,0.00001865,-0.00006946,0.00006475,0.00009215,0
 .00003118,0.00009790,0.00014099,-0.00013226,-0.00009899,0.00017284,-0.
 00000669,0.00000768,-0.00003886,-0.00017066,0.00003719,-0.00005207,0.0
 0002210,-0.00002345,-0.00005646,0.00013865,-0.00023611,0.00003120,0.00
 008367,-0.00006194,-0.00015145,0.00002595,0.00005997,0.00025781,0.0000
 0519,-0.00000805,-0.00001142,-0.00008203,0.00013592,-0.00011195,-0.000
 06205,-0.00003428,0.00004877,-0.00001735,-0.00005936,-0.00005988,0.000
 01997,0.00004897,0.00004572,0.00007822,-0.00006331,-0.00004509,-0.0000
 2712,0.00001501,0.00000981,0.00008241,-0.00001181,-0.00006394,-0.00002
 561,-0.00002290,0.00004138,0.00001698,-0.00001355,-0.00001057,-0.00015
 049,-0.00001876,-0.00011849,-0.00144962,-0.00071278,0.00009401,0.00025
 430,-0.00015264,0.00019334,0.01045767,0.00336335,-0.02251821,-0.000006
 58,-0.00063747,-0.00049148,-0.11510844,-0.04314396,0.19408814,-0.00019
 123,-0.00277445,0.00661158,0.10738974,0.00029525,-0.00125354,0.0008618
 8,0.00005174,-0.00001180,-0.00004592,-0.00005881,-0.00002677,-0.000054
 26,0.00018481,0.00000765,-0.00004577,0.00054899,0.00009074,-0.00027341
 ,0.00057404,0.00024123,0.00020355,0.00000143,-0.00001100,0.00002226,-0
 .00007504,-0.00002647,-0.00007265,-0.00000090,-0.00000399,0.00000159,-
 0.00004889,0.00013738,-0.00007653,0.00005606,-0.00002835,-0.00005646,0
 .00015186,0.00009185,0.00015612,-0.00002055,0.00001400,0.00000121,-0.0
 0010109,-0.00024289,0.00002837,-0.00003666,0.00009345,0.00002308,-0.00
 008317,0.00004759,0.00005835,0.00006215,-0.00010958,-0.00003502,-0.000
 16330,0.00001566,0.00002924,0.00002900,0.00001222,-0.00000600,-0.00018
 219,-0.00007536,0.00002656,0.00002124,0.00006174,-0.00001349,-0.000018
 13,-0.00002679,0.00002351,-0.00046436,0.00007979,0.00034670,-0.0008025
 6,-0.00087731,0.00161528,0.00015662,-0.00034441,-0.00064232,0.01336964
 ,0.00503359,-0.02789434,-0.00031546,-0.00032000,-0.00065464,-0.0560103
 9,-0.03280911,0.07565707,0.00061233,0.00093455,-0.00314309,0.04226631,
 0.02930596,-0.00225259,0.00126582,0.00001694,0.00000258,-0.00006093,-0
 .00005439,-0.00008121,-0.00006248,0.00001906,0.00008158,0.00000044,0.0
 0005672,0.00029541,-0.00007818,-0.00011906,0.00054186,0.00032265,0.000
 17686,-0.00000110,-0.00001034,-0.00001024,-0.00013464,-0.00005360,-0.0
 0007315,0.00000679,0.00000215,-0.00001561,0.00001505,0.00003451,-0.000
 03348,0.00001062,0.00000153,-0.00002847,0.00013533,0.00006167,0.000034
 49,-0.00000721,0.00001485,-0.00001546,-0.00008852,-0.00010569,0.000016
 45,-0.00000473,0.00002955,0.00002406,-0.00004242,0.00006071,-0.0000671
 4,0.00004426,-0.00005863,0.00006012,-0.00007959,0.00002316,-0.00002268
 ,0.00001476,-0.00000891,0.00001195,-0.00015553,-0.00000470,0.00001149,
 0.00002272,0.00001954,-0.00000113,0.00000307,0.00001738,0.00000631,-0.
 00032752,0.00018354,0.00005798,-0.00100653,0.00027711,0.00172280,0.000
 30950,-0.00043228,-0.00016490,0.01916551,0.01126379,-0.02628440,-0.000
 12610,-0.00051464,-0.00049305,0.15638747,0.03546415,-0.40674065,0.0033
 4185,-0.00161130,0.00042361,-0.17607071,-0.04604087,0.43148498\\-0.000
 00031,0.00000543,-0.00000143,0.00000456,0.00000374,0.00000002,-0.00000
 566,0.00000060,-0.00000699,0.00000653,-0.00000091,0.00000026,0.0000037
 9,-0.00000696,0.00000103,-0.00000634,-0.00000199,0.00000365,0.00000053
 ,-0.00000058,-0.00000089,-0.00000053,0.00000264,-0.00000006,-0.0000008
 2,0.00000004,0.00000017,-0.00000712,0.00000201,-0.00000231,-0.00000155
 ,0.00000160,0.00000017,-0.00000052,-0.00000104,0.00000108,0.00000261,0
 .00000031,0.00000069,0.00000641,-0.00000313,0.00000311,-0.00000478,0.0
 0000420,-0.00000237,-0.00000102,0.00000199,0.00000020,0.00000153,-0.00
 000174,0.00000028,0.00000087,0.00000559,0.00000376,0.00000304,0.000001
 84,-0.00000207,-0.00000232,-0.00000006,-0.00000027,-0.00000242,0.00000
 072,-0.00000069,0.00000415,0.00000210,-0.00000416,-0.00000287,-0.00000
 371,0.00000411,0.00000460,-0.00001026,-0.00000794,0.00000101,0.0000058
 8,0.00000302,-0.00001102,0.00000333,0.00000508,-0.00000096,0.00000009,
 0.00000315,0.00000422,-0.00000497,-0.00000558,0.00000500,-0.00000412,0
 .00000466,-0.00000062,-0.00000264,0.00000033\\\@


 FROM WHENCE IT HAPPENS, THAT THEY WHICH TRUST TO BOOKS, DO AS THEY THAT CAST UP MANY LITTLE SUMMS INTO GREATER,
 WITHOUT CONSIDERING WETHER THOSE LITTLE SUMMES WERE RIGHTLY CAST UP OR NOT...
 AND AT LAST FINDING THE ERROUR VISIBLE, AND NOT MISTRUSTING THEIR FIRST GROUNDS,
 KNOW NOT WHICH WAY TO CLEERE THEMSELVES...
 BUT SPEND TIME IN FLUTTERING OVER THEIR BOOKES....
 AS BIRDS THAT ENTERING BY THE CHIMNEY, AND FINDING THEMSELVES INCLOSED IN A CHAMBER,
 FLUTTER AT THE FALSE LIGHT OF A GLASSE WINDOW,
 FOR WANT OF WIT TO CONSIDER WHICH WAY THEY CAME IN....
           LEVIATHAN
 Job cpu time:       0 days  0 hours 31 minutes 52.3 seconds.
 File lengths (MBytes):  RWF=    220 Int=      0 D2E=      0 Chk=      6 Scr=      1
 Normal termination of Gaussian 09 at Sun Jan 15 22:58:01 2017.
