 Entering Gaussian System, Link 0=g09
 Initial command:
 /global/software/gaussian/g09.e01/l1.exe "/scratch/10461051.yak.local/Gau-26253.inp" -scrdir="/scratch/10461051.yak.local/"
 Entering Link 1 = /global/software/gaussian/g09.e01/l1.exe PID=     26254.
  
 Copyright (c) 1988,1990,1992,1993,1995,1998,2003,2009,2015,
            Gaussian, Inc.  All Rights Reserved.
  
 This is part of the Gaussian(R) 09 program.  It is based on
 the Gaussian(R) 03 system (copyright 2003, Gaussian, Inc.),
 the Gaussian(R) 98 system (copyright 1998, Gaussian, Inc.),
 the Gaussian(R) 94 system (copyright 1995, Gaussian, Inc.),
 the Gaussian 92(TM) system (copyright 1992, Gaussian, Inc.),
 the Gaussian 90(TM) system (copyright 1990, Gaussian, Inc.),
 the Gaussian 88(TM) system (copyright 1988, Gaussian, Inc.),
 the Gaussian 86(TM) system (copyright 1986, Carnegie Mellon
 University), and the Gaussian 82(TM) system (copyright 1983,
 Carnegie Mellon University). Gaussian is a federally registered
 trademark of Gaussian, Inc.
  
 This software contains proprietary and confidential information,
 including trade secrets, belonging to Gaussian, Inc.
  
 This software is provided under written license and may be
 used, copied, transmitted, or stored only in accord with that
 written license.
  
 The following legend is applicable only to US Government
 contracts under FAR:
  
                    RESTRICTED RIGHTS LEGEND
  
 Use, reproduction and disclosure by the US Government is
 subject to restrictions as set forth in subparagraphs (a)
 and (c) of the Commercial Computer Software - Restricted
 Rights clause in FAR 52.227-19.
  
 Gaussian, Inc.
 340 Quinnipiac St., Bldg. 40, Wallingford CT 06492
  
  
 ---------------------------------------------------------------
 Warning -- This program may not be used in any manner that
 competes with the business of Gaussian, Inc. or will provide
 assistance to any competitor of Gaussian, Inc.  The licensee
 of this program is prohibited from giving any competitor of
 Gaussian, Inc. access to this program.  By using this program,
 the user acknowledges that Gaussian, Inc. is engaged in the
 business of creating and licensing software in the field of
 computational chemistry and represents and warrants to the
 licensee that it is not a competitor of Gaussian, Inc. and that
 it will not use this program in any manner prohibited above.
 ---------------------------------------------------------------
  

 Cite this work as:
 Gaussian 09, Revision E.01,
 M. J. Frisch, G. W. Trucks, H. B. Schlegel, G. E. Scuseria, 
 M. A. Robb, J. R. Cheeseman, G. Scalmani, V. Barone, B. Mennucci, 
 G. A. Petersson, H. Nakatsuji, M. Caricato, X. Li, H. P. Hratchian, 
 A. F. Izmaylov, J. Bloino, G. Zheng, J. L. Sonnenberg, M. Hada, 
 M. Ehara, K. Toyota, R. Fukuda, J. Hasegawa, M. Ishida, T. Nakajima, 
 Y. Honda, O. Kitao, H. Nakai, T. Vreven, J. A. Montgomery, Jr., 
 J. E. Peralta, F. Ogliaro, M. Bearpark, J. J. Heyd, E. Brothers, 
 K. N. Kudin, V. N. Staroverov, T. Keith, R. Kobayashi, J. Normand, 
 K. Raghavachari, A. Rendell, J. C. Burant, S. S. Iyengar, J. Tomasi, 
 M. Cossi, N. Rega, J. M. Millam, M. Klene, J. E. Knox, J. B. Cross, 
 V. Bakken, C. Adamo, J. Jaramillo, R. Gomperts, R. E. Stratmann, 
 O. Yazyev, A. J. Austin, R. Cammi, C. Pomelli, J. W. Ochterski, 
 R. L. Martin, K. Morokuma, V. G. Zakrzewski, G. A. Voth, 
 P. Salvador, J. J. Dannenberg, S. Dapprich, A. D. Daniels, 
 O. Farkas, J. B. Foresman, J. V. Ortiz, J. Cioslowski, 
 and D. J. Fox, Gaussian, Inc., Wallingford CT, 2013.
 
 ******************************************
 Gaussian 09:  ES64L-G09RevE.01 30-Nov-2015
                14-Jan-2017 
 ******************************************
 -------------------------------------
 # b3lyp/6-31g(d) irc=(calcfc,forward)
 -------------------------------------
 1/10=4,14=-1,18=10,22=1,26=3,38=1,44=3/1,23;
 2/12=2,17=6,18=5,29=1,40=1/2;
 3/5=1,6=6,7=1,11=2,16=1,25=1,30=1,71=2,74=-5,140=1/1,2,3;
 4//1;
 5/5=2,38=5/2;
 8/6=4,10=90,11=11/1;
 11/6=1,8=1,9=11,15=111,16=1/1,2,10;
 10/6=1,13=1/2;
 6/7=2,8=2,9=2,10=2,28=1/1;
 7/10=1,18=20,25=1/1,2,3,16;
 1/10=4,14=-1,18=10,22=1,26=3,44=3/23(2);
 2/29=1/2;
 99/5=20/99;
 2/29=1/2;
 3/5=1,6=6,7=1,11=2,16=1,25=1,30=1,71=2,74=-5,140=1/1,2,3;
 4/5=5,16=3,69=1/1;
 5/5=2,38=5/2;
 8/6=4,10=90,11=11/1;
 11/6=1,8=1,9=11,15=111,16=1/1,2,10;
 10/6=1,13=1/2;
 7/10=1,18=20,25=1/1,2,3,16;
 1/14=-1,18=10,22=1,26=3,44=3/23(-8);
 2/29=1/2;
 6/7=2,8=2,9=2,10=2,19=2,28=1/1;
 99/5=20,9=1/99;
 ---------------------------------
 glo_2w_alpha_ts_boat2_B3LYP_631Gd
 ---------------------------------
 Symbolic Z-matrix:
 Charge =  0 Multiplicity = 1
 6                     0.04641  -1.47853   0.3511 
 8                     0.37527   0.08319   0.80678 
 1                     2.84254   1.18621   0.38254 
 1                     3.64467  -2.3804   -0.00793 
 8                     3.26472  -1.62029  -0.47493 
 1                     3.16411  -0.47006   0.34753 
 8                     2.83558   0.36467   0.94513 
 1                     1.76449   0.20732   0.99387 
 6                    -1.68721   1.04027  -0.06486 
 6                    -0.14062   0.98034  -0.19185 
 1                    -1.9873    1.88934   0.56199 
 1                     0.09456   0.56142  -1.17993 
 8                    -2.27104   1.24885  -1.33925 
 1                    -2.1992    0.37832  -1.78128 
 6                     0.49623   2.35958  -0.0864 
 8                     1.8815    2.40007  -0.49989 
 1                     0.49148   2.71052   0.94978 
 1                    -0.08826   3.06095  -0.69376 
 1                     1.90813   2.25375  -1.45952 
 1                     0.29543  -1.92781   1.32572 
 8                     0.74804  -1.82895  -0.6828 
 1                     2.25107  -1.8239   -0.60252 
 6                    -1.4875   -1.47829   0.0584 
 1                    -1.91317  -2.38674   0.5103 
 6                    -2.204    -0.24333   0.6279 
 1                    -3.27571  -0.31772   0.41962 
 8                    -1.66435  -1.49781  -1.35473 
 1                    -0.7698   -1.77319  -1.67477 
 8                    -2.07379  -0.18019   2.0421 
 1                    -1.13032  -0.00458   2.20334 
 
 IRC-IRC-IRC-IRC-IRC-IRC-IRC-IRC-IRC-IRC-IRC-IRC-IRC-IRC-IRC-IRC-IRC-IRC
 ------------------------------------------------------------------------
 INPUT DATA FOR L123
 ------------------------------------------------------------------------
 GENERAL PARAMETERS:
 Rxn path following direction = Forward
 Maximum points per path      =  10
 Step size                    =   0.100 bohr
 Integration scheme           = HPC                                 
    Redo corrector integration= Yes                                 
    DWI Weight Power          =  2
    DWI will use Hessian update vectors when possible.
    Max correction cycles     =  20
 Initial Hessian              = CalcFC
 Hessian evaluation           = All updating
 Hessian updating method      = Bofill                              
 ------------------------------------------------------------------------
 IRC-IRC-IRC-IRC-IRC-IRC-IRC-IRC-IRC-IRC-IRC-IRC-IRC-IRC-IRC-IRC-IRC-IRC
                          Input orientation:                          
 ---------------------------------------------------------------------
 Center     Atomic      Atomic             Coordinates (Angstroms)
 Number     Number       Type             X           Y           Z
 ---------------------------------------------------------------------
      1          6           0        0.046413   -1.478531    0.351104
      2          8           0        0.375273    0.083194    0.806781
      3          1           0        2.842537    1.186213    0.382539
      4          1           0        3.644665   -2.380404   -0.007926
      5          8           0        3.264718   -1.620294   -0.474933
      6          1           0        3.164111   -0.470055    0.347534
      7          8           0        2.835583    0.364667    0.945132
      8          1           0        1.764492    0.207322    0.993874
      9          6           0       -1.687210    1.040268   -0.064860
     10          6           0       -0.140620    0.980341   -0.191845
     11          1           0       -1.987296    1.889338    0.561985
     12          1           0        0.094559    0.561419   -1.179930
     13          8           0       -2.271044    1.248846   -1.339248
     14          1           0       -2.199202    0.378323   -1.781282
     15          6           0        0.496232    2.359584   -0.086398
     16          8           0        1.881495    2.400074   -0.499888
     17          1           0        0.491480    2.710523    0.949783
     18          1           0       -0.088255    3.060955   -0.693763
     19          1           0        1.908126    2.253750   -1.459523
     20          1           0        0.295431   -1.927808    1.325723
     21          8           0        0.748037   -1.828949   -0.682802
     22          1           0        2.251072   -1.823896   -0.602522
     23          6           0       -1.487497   -1.478294    0.058397
     24          1           0       -1.913166   -2.386739    0.510296
     25          6           0       -2.204005   -0.243329    0.627897
     26          1           0       -3.275707   -0.317717    0.419617
     27          8           0       -1.664349   -1.497812   -1.354734
     28          1           0       -0.769799   -1.773188   -1.674774
     29          8           0       -2.073790   -0.180187    2.042100
     30          1           0       -1.130324   -0.004580    2.203338
 ---------------------------------------------------------------------
                    Distance matrix (angstroms):
                    1          2          3          4          5
     1  C    0.000000
     2  O    1.659752   0.000000
     3  H    3.862662   2.735694   0.000000
     4  H    3.726888   4.173965   3.676497   0.000000
     5  O    3.325646   3.590760   2.964789   0.969651   0.000000
     6  H    3.276748   2.880036   1.687560   2.001679   1.417612
     7  O    3.395544   2.480220   0.995739   3.016347   2.478066
     8  H    2.491395   1.407246   1.579284   3.351862   2.783568
     9  C    3.085907   2.435074   4.554127   6.335071   5.636341
    10  C    2.525040   1.438149   3.044918   5.065256   4.294155
    11  H    3.939922   2.983926   4.884043   7.090450   6.401279
    12  H    2.551035   2.062649   3.222276   4.757223   3.912391
    13  O    3.958091   3.600997   5.396034   7.066788   6.294733
    14  H    3.610784   3.662389   5.545623   6.701205   5.962838
    15  C    3.889071   2.448336   2.664929   5.690894   4.863631
    16  O    4.374390   3.056799   1.782060   5.118961   4.251739
    17  H    4.254959   2.633783   2.858803   6.064431   5.336351
    18  H    4.660130   3.366534   3.641789   6.634263   5.762327
    19  H    4.546896   3.492433   2.325070   5.157333   4.221134
    20  H    1.101700   2.078414   4.132127   3.633295   3.486200
    21  O    1.297702   2.452366   3.822706   3.024899   2.533857
    22  H    2.426768   3.023533   3.221945   1.614109   1.041735
    23  C    1.561588   2.543273   5.094493   5.211265   4.784156
    24  H    2.165672   3.380152   5.949707   5.581942   5.326218
    25  C    2.581999   2.606011   5.250845   6.259257   5.746233
    26  H    3.519753   3.693275   6.300483   7.233880   6.728602
    27  O    2.415980   3.366272   5.525770   5.547837   5.008468
    28  H    2.203907   3.303855   5.102897   4.757582   4.211926
    29  O    3.006730   2.755593   5.365768   6.460982   6.075280
    30  H    2.643485   2.055456   4.529561   5.773625   5.394447
                    6          7          8          9         10
     6  H    0.000000
     7  O    1.077875   0.000000
     8  H    1.683903   1.083683   0.000000
     9  C    5.097692   4.683180   3.705262   0.000000
    10  C    3.649086   3.244928   2.373381   1.552951   0.000000
    11  H    5.670072   5.072631   4.134201   1.097227   2.191973
    12  H    3.580396   3.473876   2.763962   2.155778   1.098689
    13  O    5.944810   5.663727   4.776377   1.417191   2.434612
    14  H    5.832386   5.725607   4.841653   1.909558   2.669550
    15  C    3.913149   3.242886   2.721710   2.551172   1.522830
    16  O    3.255897   2.672311   2.655782   3.843693   2.489876
    17  H    4.197825   3.316305   2.808651   2.926763   2.167117
    18  H    4.912252   4.301718   3.797896   2.652424   2.140939
    19  H    3.501723   3.195493   3.198071   4.042779   2.725057
    20  H    3.363216   3.442770   2.612861   3.830674   3.309152
    21  O    2.957296   3.438018   2.826804   3.813750   2.987116
    22  H    1.889215   2.743482   2.628895   4.899243   3.708449
    23  C    4.768396   4.782450   3.780456   2.529473   2.814531
    24  H    5.429448   5.505446   4.526386   3.482275   3.869386
    25  C    5.380212   5.086034   4.010735   1.547453   2.535134
    26  H    6.442023   6.171684   5.099906   2.145265   3.447841
    27  O    5.221880   5.385870   4.492259   2.847130   3.132938
    28  H    4.611240   4.942986   4.179322   3.368828   3.190120
    29  O    5.512820   5.059857   3.997668   2.465408   3.174032
    30  H    4.701367   4.177062   3.144466   2.558623   2.772451
                   11         12         13         14         15
    11  H    0.000000
    12  H    3.021880   0.000000
    13  O    2.026186   2.468606   0.000000
    14  H    2.796242   2.378337   0.978962   0.000000
    15  C    2.609491   2.142557   3.234376   3.750119   0.000000
    16  O    4.044251   2.652593   4.390152   4.730913   1.446225
    17  H    2.639898   3.051536   3.873977   4.487498   1.094007
    18  H    2.560458   2.552932   2.909460   3.582640   1.096558
    19  H    4.403817   2.496234   4.299972   4.526687   1.972338
    20  H    4.512731   3.537640   4.876474   4.603793   4.518422
    21  O    4.780920   2.527455   4.361031   3.842516   4.238268
    22  H    5.753951   3.267059   5.516706   5.103350   4.565890
    23  C    3.441561   2.863003   3.163013   2.708869   4.322667
    24  H    4.277032   3.947082   4.094676   3.602598   5.356195
    25  C    2.144662   3.033027   2.469968   2.488095   3.817938
    26  H    2.559563   3.832770   2.560678   2.547016   4.653119
    27  O    3.905239   2.713807   2.812908   1.996971   4.599597
    28  H    4.460884   2.538183   3.391018   2.585254   4.604951
    29  O    2.545811   3.953883   3.676215   3.865994   4.193561
    30  H    2.648654   3.642416   3.927115   4.143225   3.671219
                   16         17         18         19         20
    16  O    0.000000
    17  H    2.032256   0.000000
    18  H    2.086688   1.777678   0.000000
    19  H    0.971092   2.832010   2.285499   0.000000
    20  H    4.957723   4.657669   5.395674   5.276723   0.000000
    21  O    4.382102   4.830938   4.960914   4.314804   2.061261
    22  H    4.241349   5.105563   5.416876   4.180820   2.748356
    23  C    5.167546   4.717744   4.809200   5.269012   2.233161
    24  H    6.191406   5.653101   5.870045   6.325867   2.398633
    25  C    4.995076   4.011794   4.140227   5.244268   3.093802
    26  H    5.901577   4.862408   4.776493   6.084056   4.020752
    27  O    5.338285   5.260084   4.868605   5.181484   3.348206
    28  H    5.081912   5.346287   4.979540   4.840852   3.187727
    29  O    5.363183   4.016214   4.683193   5.834472   3.029948
    30  H    4.707531   3.401975   4.344722   5.267711   2.549861
                   21         22         23         24         25
    21  O    0.000000
    22  H    1.505186   0.000000
    23  C    2.381165   3.812237   0.000000
    24  H    2.969278   4.346957   1.100309   0.000000
    25  C    3.598149   4.884653   1.537157   2.166246   0.000000
    26  H    4.437304   5.818817   2.162201   2.479031   1.094285
    27  O    2.526015   4.000334   1.424288   2.080970   2.407443
    28  H    1.814096   3.205925   1.898930   2.541311   3.114436
    29  O    4.255140   5.329187   2.442110   2.690928   1.421588
    30  H    3.896969   4.755691   2.626819   3.025544   1.921407
                   26         27         28         29         30
    26  H    0.000000
    27  O    2.671595   0.000000
    28  H    3.575534   0.989180   0.000000
    29  O    2.023850   3.666369   4.248905   0.000000
    30  H    2.807558   3.895485   4.277582   0.973121   0.000000
 Symmetry turned off by external request.
 Stoichiometry    C6H16O8
 Framework group  C1[X(C6H16O8)]
 Deg. of freedom    84
 Full point group                 C1      NOp   1
 Rotational constants (GHZ):      0.7939130      0.5347342      0.4215019
 Standard basis: 6-31G(d) (6D, 7F)
   242 basis functions,   456 primitive gaussians,   242 cartesian basis functions
    58 alpha electrons       58 beta electrons
       nuclear repulsion energy      1136.3247361065 Hartrees.
 NAtoms=   30 NActive=   30 NUniq=   30 SFac= 1.00D+00 NAtFMM=   60 NAOKFM=F Big=F
 Integral buffers will be    131072 words long.
 Raffenetti 2 integral format.
 Two-electron integral symmetry is turned off.
 One-electron integrals computed using PRISM.
 NBasis=   242 RedAO= T EigKep=  1.37D-03  NBF=   242
 NBsUse=   242 1.00D-06 EigRej= -1.00D+00 NBFU=   242
 ExpMin= 1.61D-01 ExpMax= 5.48D+03 ExpMxC= 8.25D+02 IAcc=1 IRadAn=         1 AccDes= 0.00D+00
 Harris functional with IExCor=  402 and IRadAn=       1 diagonalized for initial guess.
 HarFok:  IExCor=  402 AccDes= 0.00D+00 IRadAn=         1 IDoV= 1 UseB2=F ITyADJ=14
 ICtDFT=  3500011 ScaDFX=  1.000000  1.000000  1.000000  1.000000
 FoFCou: FMM=F IPFlag=           0 FMFlag=      100000 FMFlg1=           0
         NFxFlg=           0 DoJE=T BraDBF=F KetDBF=T FulRan=T
         wScrn=  0.000000 ICntrl=     500 IOpCl=  0 I1Cent=   200000004 NGrid=           0
         NMat0=    1 NMatS0=      1 NMatT0=    0 NMatD0=    1 NMtDS0=    0 NMtDT0=    0
 Symmetry not used in FoFCou.
 Requested convergence on RMS density matrix=1.00D-08 within 128 cycles.
 Requested convergence on MAX density matrix=1.00D-06.
 Requested convergence on             energy=1.00D-06.
 No special actions if energy rises.
 Integral accuracy reduced to 1.0D-05 until final iterations.
 Initial convergence to 1.0D-05 achieved.  Increase integral accuracy.
 SCF Done:  E(RB3LYP) =  -839.984801921     A.U. after   14 cycles
            NFock= 14  Conv=0.72D-08     -V/T= 2.0087
 DoSCS=F DFT=T ScalE2(SS,OS)=  1.000000  1.000000
 Range of M.O.s used for correlation:     1   242
 NBasis=   242 NAE=    58 NBE=    58 NFC=     0 NFV=     0
 NROrb=    242 NOA=    58 NOB=    58 NVA=   184 NVB=   184
 Symmetrizing basis deriv contribution to polar:
 IMax=3 JMax=2 DiffMx= 0.00D+00
 G2DrvN: will do    31 centers at a time, making    1 passes.
 Calling FoFCou, ICntrl=  3107 FMM=F I1Cent=   0 AccDes= 0.00D+00.
 End of G2Drv F.D. properties file   721 does not exist.
 End of G2Drv F.D. properties file   722 does not exist.
 End of G2Drv F.D. properties file   788 does not exist.
          IDoAtm=111111111111111111111111111111
          Differentiating once with respect to nuclear coordinates.
          There are    93 degrees of freedom in the 1st order CPHF.  IDoFFX=6 NUNeed=     0.
     87 vectors produced by pass  0 Test12= 1.15D-14 1.08D-09 XBig12= 1.32D-01 6.47D-02.
 AX will form    87 AO Fock derivatives at one time.
     87 vectors produced by pass  1 Test12= 1.15D-14 1.08D-09 XBig12= 1.89D-02 2.78D-02.
     87 vectors produced by pass  2 Test12= 1.15D-14 1.08D-09 XBig12= 1.75D-04 1.90D-03.
     87 vectors produced by pass  3 Test12= 1.15D-14 1.08D-09 XBig12= 5.02D-07 9.02D-05.
     87 vectors produced by pass  4 Test12= 1.15D-14 1.08D-09 XBig12= 6.96D-10 2.19D-06.
     70 vectors produced by pass  5 Test12= 1.15D-14 1.08D-09 XBig12= 5.58D-13 7.11D-08.
      2 vectors produced by pass  6 Test12= 1.15D-14 1.08D-09 XBig12= 4.64D-16 1.70D-09.
 InvSVY:  IOpt=1 It=  1 EMax= 5.83D-16
 Solved reduced A of dimension   507 with    93 vectors.
 End of Minotr F.D. properties file   721 does not exist.
 End of Minotr F.D. properties file   722 does not exist.
 End of Minotr F.D. properties file   788 does not exist.

 **********************************************************************

            Population analysis using the SCF density.

 **********************************************************************

 Alpha  occ. eigenvalues --  -19.21322 -19.19939 -19.17308 -19.17064 -19.13954
 Alpha  occ. eigenvalues --  -19.13563 -19.13240 -19.10877 -10.28247 -10.26168
 Alpha  occ. eigenvalues --  -10.24776 -10.23417 -10.22949 -10.22874  -1.09058
 Alpha  occ. eigenvalues --   -1.06018  -1.04897  -1.02427  -1.01305  -1.01251
 Alpha  occ. eigenvalues --   -1.00464  -0.97014  -0.77595  -0.74912  -0.69039
 Alpha  occ. eigenvalues --   -0.64127  -0.61997  -0.59129  -0.56930  -0.56289
 Alpha  occ. eigenvalues --   -0.54750  -0.53487  -0.52728  -0.50986  -0.50060
 Alpha  occ. eigenvalues --   -0.47301  -0.46693  -0.45889  -0.44345  -0.43541
 Alpha  occ. eigenvalues --   -0.42294  -0.41284  -0.40779  -0.39188  -0.38834
 Alpha  occ. eigenvalues --   -0.38355  -0.36907  -0.35978  -0.34320  -0.33460
 Alpha  occ. eigenvalues --   -0.32248  -0.31791  -0.30471  -0.28695  -0.26780
 Alpha  occ. eigenvalues --   -0.25848  -0.25137  -0.23979
 Alpha virt. eigenvalues --    0.03155   0.06003   0.06566   0.08703   0.10487
 Alpha virt. eigenvalues --    0.11453   0.11794   0.12578   0.13580   0.14556
 Alpha virt. eigenvalues --    0.14934   0.15745   0.16558   0.18462   0.20215
 Alpha virt. eigenvalues --    0.20556   0.22361   0.23036   0.23416   0.24071
 Alpha virt. eigenvalues --    0.25111   0.25735   0.26740   0.27962   0.30545
 Alpha virt. eigenvalues --    0.31969   0.34459   0.37977   0.51114   0.52080
 Alpha virt. eigenvalues --    0.53758   0.55132   0.57084   0.58659   0.58831
 Alpha virt. eigenvalues --    0.59408   0.60971   0.62948   0.63598   0.64949
 Alpha virt. eigenvalues --    0.68150   0.68874   0.70375   0.71748   0.74484
 Alpha virt. eigenvalues --    0.74794   0.75927   0.76632   0.78131   0.79010
 Alpha virt. eigenvalues --    0.79867   0.81614   0.82932   0.83516   0.84357
 Alpha virt. eigenvalues --    0.85486   0.86090   0.86613   0.87665   0.89353
 Alpha virt. eigenvalues --    0.90915   0.91603   0.91810   0.93785   0.95582
 Alpha virt. eigenvalues --    0.96797   0.98397   0.99775   1.01318   1.03993
 Alpha virt. eigenvalues --    1.04395   1.06667   1.07506   1.09027   1.10384
 Alpha virt. eigenvalues --    1.11802   1.13257   1.14361   1.14807   1.17469
 Alpha virt. eigenvalues --    1.18552   1.20887   1.22124   1.24329   1.27039
 Alpha virt. eigenvalues --    1.30428   1.32942   1.33365   1.35310   1.35874
 Alpha virt. eigenvalues --    1.39518   1.40753   1.45944   1.48694   1.50585
 Alpha virt. eigenvalues --    1.52765   1.53987   1.57471   1.58970   1.61062
 Alpha virt. eigenvalues --    1.62191   1.63448   1.65848   1.66161   1.67120
 Alpha virt. eigenvalues --    1.69135   1.69840   1.70861   1.71420   1.72479
 Alpha virt. eigenvalues --    1.72989   1.74230   1.76012   1.77708   1.78978
 Alpha virt. eigenvalues --    1.79817   1.81413   1.82795   1.85054   1.86861
 Alpha virt. eigenvalues --    1.88198   1.88586   1.92146   1.94289   1.96086
 Alpha virt. eigenvalues --    1.96599   1.99339   2.00593   2.02995   2.05477
 Alpha virt. eigenvalues --    2.07216   2.08283   2.10270   2.15448   2.16676
 Alpha virt. eigenvalues --    2.18881   2.23168   2.25646   2.26272   2.29590
 Alpha virt. eigenvalues --    2.32778   2.34088   2.35779   2.37807   2.38773
 Alpha virt. eigenvalues --    2.41531   2.45598   2.49282   2.50522   2.51319
 Alpha virt. eigenvalues --    2.53651   2.54615   2.56059   2.60151   2.62934
 Alpha virt. eigenvalues --    2.63538   2.66507   2.69442   2.69760   2.73115
 Alpha virt. eigenvalues --    2.75872   2.79843   2.83495   2.85520   2.90357
 Alpha virt. eigenvalues --    2.92017   2.93781   2.98100   3.05707   3.12484
 Alpha virt. eigenvalues --    3.74966   3.78435   3.79574   3.90114   3.90923
 Alpha virt. eigenvalues --    4.02168   4.10845   4.15708   4.30871   4.39335
 Alpha virt. eigenvalues --    4.44533   4.56904   4.78918   4.91344
          Condensed to atoms (all electrons):
               1          2          3          4          5          6
     1  C    4.752483   0.059265  -0.000208   0.000046   0.006753  -0.000040
     2  O    0.059265   8.628351   0.004703  -0.000017  -0.000660   0.002954
     3  H   -0.000208   0.004703   0.286608  -0.000058   0.001719  -0.000682
     4  H    0.000046  -0.000017  -0.000058   0.362419   0.236498  -0.007078
     5  O    0.006753  -0.000660   0.001719   0.236498   8.437234   0.132680
     6  H   -0.000040   0.002954  -0.000682  -0.007078   0.132680   0.271047
     7  O    0.003737  -0.078004   0.206896   0.003333  -0.079083   0.148337
     8  H   -0.002889   0.110922  -0.013003  -0.000016   0.003931  -0.004146
     9  C   -0.019919  -0.031826   0.000071  -0.000000   0.000000   0.000012
    10  C   -0.001565   0.131675  -0.000160   0.000002  -0.000097   0.000009
    11  H    0.000100   0.003399  -0.000001   0.000000   0.000000  -0.000000
    12  H   -0.002984  -0.045904  -0.000055   0.000002   0.000046   0.000043
    13  O   -0.000101   0.001517  -0.000001  -0.000000   0.000000  -0.000000
    14  H    0.000818   0.000015   0.000000  -0.000000   0.000000  -0.000000
    15  C    0.001606  -0.031425  -0.008292  -0.000001   0.000016  -0.000135
    16  O   -0.000127   0.000267   0.072942   0.000001  -0.000043   0.000727
    17  H   -0.000060  -0.000025  -0.001195   0.000000   0.000000   0.000020
    18  H   -0.000082   0.003064   0.000777   0.000000   0.000000   0.000001
    19  H   -0.000016  -0.000263  -0.004246  -0.000001   0.000017   0.000066
    20  H    0.361741  -0.050794   0.000030  -0.000067   0.000906  -0.000044
    21  O    0.327325  -0.051583   0.000088   0.002849  -0.062745   0.002996
    22  H   -0.011575   0.001502  -0.000092  -0.005741   0.155483  -0.010072
    23  C    0.301283  -0.021466   0.000002   0.000016  -0.000072   0.000048
    24  H   -0.047885   0.002741  -0.000000  -0.000000   0.000001  -0.000000
    25  C   -0.029453  -0.001178   0.000003  -0.000000   0.000001  -0.000003
    26  H    0.004705  -0.000025  -0.000000   0.000000  -0.000000   0.000000
    27  O   -0.027781  -0.000304  -0.000000   0.000000  -0.000002   0.000000
    28  H   -0.020558   0.000865   0.000000  -0.000009   0.000114  -0.000008
    29  O    0.003355  -0.015061   0.000000  -0.000000  -0.000000   0.000000
    30  H    0.004192   0.031597  -0.000002   0.000000   0.000000  -0.000001
               7          8          9         10         11         12
     1  C    0.003737  -0.002889  -0.019919  -0.001565   0.000100  -0.002984
     2  O   -0.078004   0.110922  -0.031826   0.131675   0.003399  -0.045904
     3  H    0.206896  -0.013003   0.000071  -0.000160  -0.000001  -0.000055
     4  H    0.003333  -0.000016  -0.000000   0.000002   0.000000   0.000002
     5  O   -0.079083   0.003931   0.000000  -0.000097   0.000000   0.000046
     6  H    0.148337  -0.004146   0.000012   0.000009  -0.000000   0.000043
     7  O    8.474904   0.153175  -0.000045   0.006070   0.000003  -0.000121
     8  H    0.153175   0.280902   0.001198  -0.011418  -0.000082   0.001275
     9  C   -0.000045   0.001198   5.000872   0.264314   0.369708  -0.042111
    10  C    0.006070  -0.011418   0.264314   5.091702  -0.063225   0.333670
    11  H    0.000003  -0.000082   0.369708  -0.063225   0.618328   0.005399
    12  H   -0.000121   0.001275  -0.042111   0.333670   0.005399   0.626479
    13  O    0.000000  -0.000018   0.225445  -0.041647  -0.037758   0.003758
    14  H   -0.000000  -0.000001  -0.032080  -0.004020   0.006203   0.004111
    15  C    0.005024  -0.003902  -0.019081   0.331814  -0.007178  -0.046757
    16  O   -0.030792   0.003549   0.002615  -0.035519   0.000068  -0.002031
    17  H    0.000165   0.000897  -0.004103  -0.037400   0.003938   0.005671
    18  H   -0.000068   0.000106   0.000964  -0.048913   0.000785   0.001377
    19  H    0.001598  -0.000026  -0.000167  -0.001808   0.000032   0.005475
    20  H   -0.000008  -0.000429   0.000910   0.004427   0.000011   0.001299
    21  O   -0.001453   0.004117   0.000742  -0.005506  -0.000015   0.017959
    22  H    0.006657   0.000348  -0.000006   0.000211  -0.000000  -0.000315
    23  C   -0.000044   0.001130  -0.031601  -0.014963   0.006570  -0.002769
    24  H    0.000001  -0.000042   0.006316   0.000231  -0.000199   0.000149
    25  C    0.000006   0.000070   0.308928  -0.039198  -0.048756  -0.005284
    26  H    0.000000   0.000004  -0.052951   0.006180  -0.003940  -0.000272
    27  O    0.000000  -0.000029   0.005902  -0.000553  -0.000106   0.006210
    28  H    0.000002  -0.000048   0.000583  -0.000869   0.000030   0.001080
    29  O   -0.000001   0.000015  -0.033265   0.004000   0.005024  -0.000156
    30  H    0.000001   0.000407  -0.008672  -0.000455   0.001070   0.000798
              13         14         15         16         17         18
     1  C   -0.000101   0.000818   0.001606  -0.000127  -0.000060  -0.000082
     2  O    0.001517   0.000015  -0.031425   0.000267  -0.000025   0.003064
     3  H   -0.000001   0.000000  -0.008292   0.072942  -0.001195   0.000777
     4  H   -0.000000  -0.000000  -0.000001   0.000001   0.000000   0.000000
     5  O    0.000000   0.000000   0.000016  -0.000043   0.000000   0.000000
     6  H   -0.000000  -0.000000  -0.000135   0.000727   0.000020   0.000001
     7  O    0.000000  -0.000000   0.005024  -0.030792   0.000165  -0.000068
     8  H   -0.000018  -0.000001  -0.003902   0.003549   0.000897   0.000106
     9  C    0.225445  -0.032080  -0.019081   0.002615  -0.004103   0.000964
    10  C   -0.041647  -0.004020   0.331814  -0.035519  -0.037400  -0.048913
    11  H   -0.037758   0.006203  -0.007178   0.000068   0.003938   0.000785
    12  H    0.003758   0.004111  -0.046757  -0.002031   0.005671   0.001377
    13  O    8.305330   0.226870  -0.001401  -0.000029   0.000082   0.005705
    14  H    0.226870   0.348029   0.000120   0.000002  -0.000001  -0.000085
    15  C   -0.001401   0.000120   4.960920   0.209863   0.366086   0.366938
    16  O   -0.000029   0.000002   0.209863   8.248709  -0.036240  -0.029052
    17  H    0.000082  -0.000001   0.366086  -0.036240   0.551564  -0.028683
    18  H    0.005705  -0.000085   0.366938  -0.029052  -0.028683   0.553395
    19  H    0.000012  -0.000004  -0.025456   0.236055   0.006407  -0.005477
    20  H   -0.000005  -0.000026  -0.000215   0.000002  -0.000004   0.000005
    21  O    0.000009  -0.000082   0.000042  -0.000002   0.000002   0.000008
    22  H    0.000000  -0.000001  -0.000035   0.000026  -0.000001  -0.000000
    23  C    0.001690  -0.003761   0.000224   0.000002   0.000011   0.000012
    24  H   -0.000246   0.000414   0.000018  -0.000000  -0.000001  -0.000000
    25  C   -0.024600  -0.010694   0.001886  -0.000049  -0.000188   0.000410
    26  H    0.004819   0.000736  -0.000095   0.000000   0.000002  -0.000007
    27  O   -0.016498   0.047339   0.000226  -0.000000  -0.000002   0.000000
    28  H    0.000551  -0.001476  -0.000001  -0.000000  -0.000001  -0.000003
    29  O    0.001572   0.000067  -0.000147   0.000000  -0.000022  -0.000009
    30  H    0.000014   0.000030  -0.000609   0.000001   0.000564   0.000002
              19         20         21         22         23         24
     1  C   -0.000016   0.361741   0.327325  -0.011575   0.301283  -0.047885
     2  O   -0.000263  -0.050794  -0.051583   0.001502  -0.021466   0.002741
     3  H   -0.004246   0.000030   0.000088  -0.000092   0.000002  -0.000000
     4  H   -0.000001  -0.000067   0.002849  -0.005741   0.000016  -0.000000
     5  O    0.000017   0.000906  -0.062745   0.155483  -0.000072   0.000001
     6  H    0.000066  -0.000044   0.002996  -0.010072   0.000048  -0.000000
     7  O    0.001598  -0.000008  -0.001453   0.006657  -0.000044   0.000001
     8  H   -0.000026  -0.000429   0.004117   0.000348   0.001130  -0.000042
     9  C   -0.000167   0.000910   0.000742  -0.000006  -0.031601   0.006316
    10  C   -0.001808   0.004427  -0.005506   0.000211  -0.014963   0.000231
    11  H    0.000032   0.000011  -0.000015  -0.000000   0.006570  -0.000199
    12  H    0.005475   0.001299   0.017959  -0.000315  -0.002769   0.000149
    13  O    0.000012  -0.000005   0.000009   0.000000   0.001690  -0.000246
    14  H   -0.000004  -0.000026  -0.000082  -0.000001  -0.003761   0.000414
    15  C   -0.025456  -0.000215   0.000042  -0.000035   0.000224   0.000018
    16  O    0.236055   0.000002  -0.000002   0.000026   0.000002  -0.000000
    17  H    0.006407  -0.000004   0.000002  -0.000001   0.000011  -0.000001
    18  H   -0.005477   0.000005   0.000008  -0.000000   0.000012  -0.000000
    19  H    0.373223  -0.000001  -0.000002   0.000005   0.000002  -0.000000
    20  H   -0.000001   0.679845  -0.048224  -0.002752  -0.063691  -0.000430
    21  O   -0.000002  -0.048224   8.376366   0.111019  -0.058179   0.001338
    22  H    0.000005  -0.002752   0.111019   0.301670   0.001975  -0.000054
    23  C    0.000002  -0.063691  -0.058179   0.001975   5.077455   0.363922
    24  H   -0.000000  -0.000430   0.001338  -0.000054   0.363922   0.626346
    25  C   -0.000003  -0.001025   0.001521  -0.000028   0.296175  -0.052596
    26  H   -0.000000  -0.000236  -0.000082   0.000001  -0.046226  -0.007111
    27  O   -0.000002   0.002279  -0.031893   0.000123   0.215362  -0.038972
    28  H   -0.000002   0.002923   0.071833  -0.000783  -0.047761   0.002721
    29  O   -0.000000   0.002114   0.000052   0.000001  -0.046440   0.004942
    30  H    0.000001   0.000505   0.000167  -0.000000  -0.007170  -0.000663
              25         26         27         28         29         30
     1  C   -0.029453   0.004705  -0.027781  -0.020558   0.003355   0.004192
     2  O   -0.001178  -0.000025  -0.000304   0.000865  -0.015061   0.031597
     3  H    0.000003  -0.000000  -0.000000   0.000000   0.000000  -0.000002
     4  H   -0.000000   0.000000   0.000000  -0.000009  -0.000000   0.000000
     5  O    0.000001  -0.000000  -0.000002   0.000114  -0.000000   0.000000
     6  H   -0.000003   0.000000   0.000000  -0.000008   0.000000  -0.000001
     7  O    0.000006   0.000000   0.000000   0.000002  -0.000001   0.000001
     8  H    0.000070   0.000004  -0.000029  -0.000048   0.000015   0.000407
     9  C    0.308928  -0.052951   0.005902   0.000583  -0.033265  -0.008672
    10  C   -0.039198   0.006180  -0.000553  -0.000869   0.004000  -0.000455
    11  H   -0.048756  -0.003940  -0.000106   0.000030   0.005024   0.001070
    12  H   -0.005284  -0.000272   0.006210   0.001080  -0.000156   0.000798
    13  O   -0.024600   0.004819  -0.016498   0.000551   0.001572   0.000014
    14  H   -0.010694   0.000736   0.047339  -0.001476   0.000067   0.000030
    15  C    0.001886  -0.000095   0.000226  -0.000001  -0.000147  -0.000609
    16  O   -0.000049   0.000000  -0.000000  -0.000000   0.000000   0.000001
    17  H   -0.000188   0.000002  -0.000002  -0.000001  -0.000022   0.000564
    18  H    0.000410  -0.000007   0.000000  -0.000003  -0.000009   0.000002
    19  H   -0.000003  -0.000000  -0.000002  -0.000002  -0.000000   0.000001
    20  H   -0.001025  -0.000236   0.002279   0.002923   0.002114   0.000505
    21  O    0.001521  -0.000082  -0.031893   0.071833   0.000052   0.000167
    22  H   -0.000028   0.000001   0.000123  -0.000783   0.000001  -0.000000
    23  C    0.296175  -0.046226   0.215362  -0.047761  -0.046440  -0.007170
    24  H   -0.052596  -0.007111  -0.038972   0.002721   0.004942  -0.000663
    25  C    4.959251   0.377189  -0.044790   0.005719   0.235489  -0.035873
    26  H    0.377189   0.587913   0.001867  -0.000508  -0.034849   0.006582
    27  O   -0.044790   0.001867   8.343858   0.211190   0.001504  -0.000008
    28  H    0.005719  -0.000508   0.211190   0.354041  -0.000102  -0.000012
    29  O    0.235489  -0.034849   0.001504  -0.000102   8.287900   0.229423
    30  H   -0.035873   0.006582  -0.000008  -0.000012   0.229423   0.375609
 Mulliken charges:
               1
     1  C    0.337836
     2  O   -0.654302
     3  H    0.454155
     4  H    0.407821
     5  O   -0.832698
     6  H    0.463269
     7  O   -0.820293
     8  H    0.474002
     9  C    0.087246
    10  C    0.133014
    11  H    0.140590
    12  H    0.133957
    13  O   -0.655069
    14  H    0.417476
    15  C   -0.100058
    16  O   -0.640947
    17  H    0.172518
    18  H    0.178830
    19  H    0.414578
    20  H    0.110953
    21  O   -0.658668
    22  H    0.452434
    23  C    0.078263
    24  H    0.139060
    25  C    0.107066
    26  H    0.156304
    27  O   -0.674919
    28  H    0.420486
    29  O   -0.645408
    30  H    0.402501
 Sum of Mulliken charges =  -0.00000
 Mulliken charges with hydrogens summed into heavy atoms:
               1
     1  C    0.448789
     2  O   -0.654302
     5  O    0.027557
     7  O    0.571133
     9  C    0.227837
    10  C    0.266971
    13  O   -0.237593
    15  C    0.251290
    16  O   -0.226369
    21  O   -0.658668
    23  C    0.217323
    25  C    0.263370
    27  O   -0.254432
    29  O   -0.242907
 APT charges:
               1
     1  C   -0.257337
     2  O   -0.450123
     3  H    0.499837
     4  H    0.907163
     5  O   -1.151451
     6  H    0.455728
     7  O   -0.667123
     8  H    0.294786
     9  C   -0.347508
    10  C   -0.083327
    11  H    0.482431
    12  H    0.237700
    13  O   -0.594911
    14  H    0.448415
    15  C   -0.772927
    16  O   -0.732703
    17  H    0.445137
    18  H    0.523337
    19  H    0.608652
    20  H    0.418721
    21  O   -0.534757
    22  H    0.256608
    23  C   -0.394340
    24  H    0.561813
    25  C   -0.482567
    26  H    0.623445
    27  O   -0.588377
    28  H    0.431283
    29  O   -0.460115
    30  H    0.322509
 Sum of APT charges =  -0.00000
 APT charges with hydrogens summed into heavy atoms:
               1
     1  C    0.161383
     2  O   -0.450123
     5  O    0.012320
     7  O    0.583228
     9  C    0.134924
    10  C    0.154373
    13  O   -0.146496
    15  C    0.195548
    16  O   -0.124051
    21  O   -0.534757
    23  C    0.167473
    25  C    0.140878
    27  O   -0.157094
    29  O   -0.137606
 Electronic spatial extent (au):  <R**2>=           2916.8150
 Charge=              0.0000 electrons
 Dipole moment (field-independent basis, Debye):
    X=              4.6579    Y=              0.7039    Z=              0.1653  Tot=              4.7137
 Quadrupole moment (field-independent basis, Debye-Ang):
   XX=            -88.3387   YY=            -79.6960   ZZ=            -87.2290
   XY=             -1.8117   XZ=              0.5384   YZ=             -4.8159
 Traceless Quadrupole moment (field-independent basis, Debye-Ang):
   XX=             -3.2508   YY=              5.3919   ZZ=             -2.1411
   XY=             -1.8117   XZ=              0.5384   YZ=             -4.8159
 Octapole moment (field-independent basis, Debye-Ang**2):
  XXX=             57.9737  YYY=            -12.9543  ZZZ=            -19.7476  XYY=             28.1163
  XXY=            -26.0749  XXZ=              0.5771  XZZ=             24.1033  YZZ=              6.5650
  YYZ=              9.1233  XYZ=            -18.5481
 Hexadecapole moment (field-independent basis, Debye-Ang**3):
 XXXX=          -1744.2745 YYYY=          -1102.3485 ZZZZ=           -489.9450 XXXY=            -59.7320
 XXXZ=             27.0201 YYYX=            -76.0747 YYYZ=            -15.4104 ZZZX=             22.9815
 ZZZY=             -0.1249 XXYY=           -446.2783 XXZZ=           -447.1313 YYZZ=           -263.6175
 XXYZ=            -29.5627 YYXZ=            -13.6015 ZZXY=             15.2332
 N-N= 1.136324736107D+03 E-N=-4.244761465063D+03  KE= 8.327762880423D+02
  Exact polarizability:   0.000   0.000   0.000   0.000   0.000   0.000
 Approx polarizability: 138.604  -5.102 131.371   0.763   3.363 136.989
 Calling FoFJK, ICntrl=    100147 FMM=F ISym2X=0 I1Cent= 0 IOpClX= 0 NMat=1 NMatS=1 NMatT=0.
 -------------------------------------------------------------------
 Center     Atomic                   Forces (Hartrees/Bohr)
 Number     Number              X              Y              Z
 -------------------------------------------------------------------
      1        6           0.000005250    0.000001074   -0.000000145
      2        8           0.000001626    0.000004734   -0.000000414
      3        1          -0.000001497    0.000002657    0.000002471
      4        1          -0.000004779    0.000017853   -0.000005795
      5        8           0.000009135   -0.000000051    0.000012791
      6        1           0.000002100    0.000003171    0.000002454
      7        8          -0.000003221    0.000011491    0.000004325
      8        1           0.000000051    0.000003060    0.000003488
      9        6          -0.000003984    0.000000640   -0.000006294
     10        6          -0.000008140   -0.000004760    0.000001923
     11        1          -0.000001518   -0.000002691   -0.000001470
     12        1          -0.000000384    0.000000902    0.000001606
     13        8          -0.000002258   -0.000009009   -0.000005275
     14        1           0.000002218   -0.000004319    0.000000074
     15        6          -0.000008126    0.000001352    0.000001716
     16        8          -0.000006040    0.000000450   -0.000030732
     17        1          -0.000004721    0.000000768    0.000000029
     18        1          -0.000002411   -0.000000948    0.000001423
     19        1          -0.000003470    0.000007345    0.000035166
     20        1           0.000001133    0.000000730    0.000000551
     21        8           0.000011431    0.000001894    0.000002771
     22        1           0.000005246    0.000003387    0.000001958
     23        6           0.000003226   -0.000005648   -0.000004416
     24        1           0.000002560   -0.000002711   -0.000002209
     25        6          -0.000003353   -0.000014578   -0.000000262
     26        1           0.000001271   -0.000004030   -0.000002362
     27        8           0.000010112   -0.000003839   -0.000004350
     28        1           0.000002579    0.000000611   -0.000000242
     29        8           0.000006506   -0.000009108   -0.000007410
     30        1          -0.000010543   -0.000000427   -0.000001369
 -------------------------------------------------------------------
 Cartesian Forces:  Max     0.000035166 RMS     0.000007097
 IRC-IRC-IRC-IRC-IRC-IRC-IRC-IRC-IRC-IRC-IRC-IRC-IRC-IRC-IRC-IRC-IRC-IRC
          ******** Start new reaction path calculation ********
 Supplied step size of   0.1000 bohr.
    Integration on MW PES will use step size of   0.1913 sqrt(amu)*bohr.
 Point Number:   0          Path Number:   1
 Calculating another point on the path.
 IRC-IRC-IRC-IRC-IRC-IRC-IRC-IRC-IRC-IRC-IRC-IRC-IRC-IRC-IRC-IRC-IRC-IRC
                          Input orientation:                          
 ---------------------------------------------------------------------
 Center     Atomic      Atomic             Coordinates (Angstroms)
 Number     Number       Type             X           Y           Z
 ---------------------------------------------------------------------
      1          6           0        0.067854   -1.484608    0.349203
      2          8           0        0.402142    0.095579    0.811802
      3          1           0        2.863842    1.193825    0.387673
      4          1           0        3.676506   -2.382231   -0.011926
      5          8           0        3.297535   -1.620664   -0.476964
      6          1           0        3.186139   -0.447156    0.363495
      7          8           0        2.849176    0.372615    0.949680
      8          1           0        1.759103    0.213633    0.983056
      9          6           0       -1.662325    1.045967   -0.062699
     10          6           0       -0.115502    0.988323   -0.189410
     11          1           0       -1.963180    1.894750    0.564146
     12          1           0        0.120085    0.567218   -1.176636
     13          8           0       -2.246302    1.254339   -1.337137
     14          1           0       -2.175072    0.383758   -1.779106
     15          6           0        0.519416    2.368503   -0.087259
     16          8           0        1.904836    2.407748   -0.499441
     17          1           0        0.513636    2.721228    0.948300
     18          1           0       -0.064893    3.068391   -0.696527
     19          1           0        1.932455    2.260366   -1.458868
     20          1           0        0.320400   -1.925015    1.326750
     21          8           0        0.767971   -1.827382   -0.681989
     22          1           0        2.294062   -1.826049   -0.606031
     23          6           0       -1.465518   -1.473744    0.059384
     24          1           0       -1.893809   -2.381087    0.511400
     25          6           0       -2.179294   -0.237554    0.629799
     26          1           0       -3.251080   -0.311119    0.421536
     27          8           0       -1.642959   -1.492231   -1.353524
     28          1           0       -0.748961   -1.767264   -1.674994
     29          8           0       -2.048967   -0.175180    2.043765
     30          1           0       -1.105786    0.002017    2.205274
 ---------------------------------------------------------------------
                    Distance matrix (angstroms):
                    1          2          3          4          5
     1  C    0.000000
     2  O    1.680100   0.000000
     3  H    3.872084   2.728736   0.000000
     4  H    3.736109   4.188022   3.688940   0.000000
     5  O    3.336451   3.604124   2.976077   0.969466   0.000000
     6  H    3.286367   2.871616   1.672507   2.031235   1.447722
     7  O    3.397882   2.466523   0.995215   3.032876   2.491886
     8  H    2.479136   1.372810   1.592390   3.377119   2.804118
     9  C    3.093056   2.435161   4.550921   6.344938   5.646481
    10  C    2.537541   1.437836   3.041668   5.076560   4.305615
    11  H    3.948590   2.982130   4.880838   7.101443   6.412267
    12  H    2.557520   2.062980   3.219922   4.764864   3.920785
    13  O    3.962435   3.602071   5.393718   7.075343   6.303941
    14  H    3.612646   3.665771   5.544528   6.709291   5.971826
    15  C    3.903957   2.447090   2.664914   5.704592   4.876810
    16  O    4.386929   3.053454   1.783332   5.130340   4.262420
    17  H    4.271615   2.631558   2.858449   6.080384   5.351028
    18  H    4.673433   3.366124   3.642386   6.646505   5.774198
    19  H    4.557488   3.490574   2.326952   5.166146   4.229654
    20  H    1.101515   2.086780   4.132569   3.642053   3.494188
    21  O    1.292677   2.462320   3.829431   3.035856   2.546264
    22  H    2.446438   3.046681   3.229820   1.604198   1.032376
    23  C    1.560558   2.552853   5.095788   5.222149   4.795407
    24  H    2.162892   3.390502   5.952356   5.594844   5.339022
    25  C    2.585257   2.609197   5.247922   6.269118   5.756177
    26  H    3.521027   3.696449   6.297481   7.243538   6.738440
    27  O    2.413756   3.375235   5.527922   5.557760   5.019296
    28  H    2.201013   3.313514   5.106367   4.767467   4.222665
    29  O    3.011159   2.756625   5.362137   6.471320   6.085112
    30  H    2.651883   2.055326   4.525707   5.785407   5.405250
                    6          7          8          9         10
     6  H    0.000000
     7  O    1.062629   0.000000
     8  H    1.690245   1.102111   0.000000
     9  C    5.091037   4.672468   3.673220   0.000000
    10  C    3.642407   3.235110   2.342853   1.553074   0.000000
    11  H    5.660412   5.062045   4.105731   1.097216   2.191660
    12  H    3.577938   3.465116   2.734167   2.155700   1.098839
    13  O    5.941266   5.654278   4.744431   1.417265   2.434820
    14  H    5.832986   5.717470   4.810011   1.909838   2.671041
    15  C    3.904168   3.238301   2.706633   2.551411   1.522647
    16  O    3.246055   2.670861   2.652014   3.843154   2.488504
    17  H    4.186039   3.312210   2.800076   2.926333   2.166370
    18  H    4.904276   4.297558   3.781217   2.654001   2.141591
    19  H    3.496199   3.194540   3.190950   4.043080   2.724655
    20  H    3.365173   3.437440   2.600348   3.832558   3.313048
    21  O    2.974154   3.440021   2.814331   3.813921   2.991881
    22  H    1.907125   2.750002   2.640394   4.919012   3.728305
    23  C    4.773287   4.776845   3.754809   2.530332   2.818903
    24  H    5.437631   5.501897   4.505418   3.482510   3.873814
    25  C    5.376124   5.075444   3.979865   1.547331   2.536358
    26  H    6.438917   6.161132   5.068787   2.144833   3.448718
    27  O    5.230728   5.381605   4.465826   2.847640   3.137107
    28  H    4.624190   4.941112   4.156870   3.368678   3.193977
    29  O    5.504872   5.048654   3.972113   2.465336   3.174760
    30  H    4.691964   4.166004   3.121888   2.557981   2.772719
                   11         12         13         14         15
    11  H    0.000000
    12  H    3.022029   0.000000
    13  O    2.026120   2.469349   0.000000
    14  H    2.796216   2.379994   0.978939   0.000000
    15  C    2.609990   2.142624   3.233071   3.749910   0.000000
    16  O    4.044247   2.651694   4.389081   4.730722   1.445969
    17  H    2.639177   3.051229   3.871981   4.486832   1.093997
    18  H    2.563244   2.553544   2.908557   3.582189   1.096571
    19  H    4.404796   2.496215   4.299874   4.527249   1.972229
    20  H    4.515186   3.538120   4.877760   4.604797   4.524746
    21  O    4.781873   2.529534   4.360283   3.841134   4.245108
    22  H    5.773887   3.283214   5.535179   5.121768   4.583968
    23  C    3.442267   2.864858   3.162646   2.708104   4.327162
    24  H    4.276725   3.949397   4.093613   3.601374   5.361031
    25  C    2.144233   3.032822   2.469629   2.487743   3.819520
    26  H    2.558297   3.832804   2.559916   2.546266   4.653588
    27  O    3.905336   2.716789   2.812106   1.995896   4.602669
    28  H    4.460765   2.540355   3.389139   2.582930   4.608064
    29  O    2.545828   3.953091   3.675998   3.865573   4.196210
    30  H    2.647803   3.641363   3.926545   4.142991   3.673859
                   16         17         18         19         20
    16  O    0.000000
    17  H    2.032157   0.000000
    18  H    2.086894   1.777829   0.000000
    19  H    0.971074   2.831943   2.285490   0.000000
    20  H    4.961679   4.665634   5.401500   5.279754   0.000000
    21  O    4.388863   4.838634   4.966132   4.320793   2.060311
    22  H    4.252987   5.124801   5.434004   4.190093   2.764196
    23  C    5.170837   4.722818   4.812914   5.272086   2.235925
    24  H    6.195519   5.658648   5.873740   6.329719   2.403230
    25  C    4.995290   4.013440   4.142354   5.244865   3.095437
    26  H    5.901179   4.862684   4.777335   6.084200   4.022380
    27  O    5.340988   5.263320   4.870442   5.184271   3.350515
    28  H    5.084810   5.349989   4.980853   4.843398   3.190437
    29  O    5.363952   4.019472   4.686843   5.835413   3.031491
    30  H    4.708171   3.405381   4.348167   5.268490   2.553285
                   21         22         23         24         25
    21  O    0.000000
    22  H    1.527981   0.000000
    23  C    2.379741   3.834232   0.000000
    24  H    2.969147   4.369780   1.100465   0.000000
    25  C    3.596486   4.905253   1.537210   2.165700   0.000000
    26  H    4.435041   5.839478   2.161269   2.476899   1.094308
    27  O    2.525048   4.021233   1.424127   2.081089   2.407372
    28  H    1.814044   3.225853   1.899389   2.543182   3.114151
    29  O    4.253781   5.348710   2.442222   2.690399   1.421329
    30  H    3.897942   4.775377   2.629091   3.028097   1.921440
                   26         27         28         29         30
    26  H    0.000000
    27  O    2.670565   0.000000
    28  H    3.574408   0.989049   0.000000
    29  O    2.023656   3.666203   4.248991   0.000000
    30  H    2.807500   3.896970   4.279504   0.973177   0.000000
 Symmetry turned off by external request.
 Stoichiometry    C6H16O8
 Framework group  C1[X(C6H16O8)]
 Deg. of freedom    84
 Full point group                 C1      NOp   1
 Rotational constants (GHZ):      0.7916745      0.5346513      0.4209838
 Standard basis: 6-31G(d) (6D, 7F)
   242 basis functions,   456 primitive gaussians,   242 cartesian basis functions
    58 alpha electrons       58 beta electrons
       nuclear repulsion energy      1135.7314421418 Hartrees.
 NAtoms=   30 NActive=   30 NUniq=   30 SFac= 1.00D+00 NAtFMM=   60 NAOKFM=F Big=F
 Integral buffers will be    131072 words long.
 Raffenetti 2 integral format.
 Two-electron integral symmetry is turned off.
 One-electron integrals computed using PRISM.
 NBasis=   242 RedAO= T EigKep=  1.38D-03  NBF=   242
 NBsUse=   242 1.00D-06 EigRej= -1.00D+00 NBFU=   242
 Initial guess from the checkpoint file:  "/scratch/10461051.yak.local/Gau-26254.chk"
 B after Tr=     0.044290    0.010185    0.002463
         Rot=    1.000000    0.000008    0.000019   -0.000026 Ang=   0.00 deg.
 ExpMin= 1.61D-01 ExpMax= 5.48D+03 ExpMxC= 8.25D+02 IAcc=1 IRadAn=         1 AccDes= 0.00D+00
 Harris functional with IExCor=  402 and IRadAn=       1 diagonalized for initial guess.
 HarFok:  IExCor=  402 AccDes= 0.00D+00 IRadAn=         1 IDoV= 1 UseB2=F ITyADJ=14
 ICtDFT=  3500011 ScaDFX=  1.000000  1.000000  1.000000  1.000000
 FoFCou: FMM=F IPFlag=           0 FMFlag=      100000 FMFlg1=           0
         NFxFlg=           0 DoJE=T BraDBF=F KetDBF=T FulRan=T
         wScrn=  0.000000 ICntrl=     500 IOpCl=  0 I1Cent=   200000004 NGrid=           0
         NMat0=    1 NMatS0=      1 NMatT0=    0 NMatD0=    1 NMtDS0=    0 NMtDT0=    0
 Symmetry not used in FoFCou.
 Requested convergence on RMS density matrix=1.00D-08 within 128 cycles.
 Requested convergence on MAX density matrix=1.00D-06.
 Requested convergence on             energy=1.00D-06.
 No special actions if energy rises.
 Integral accuracy reduced to 1.0D-05 until final iterations.
 Initial convergence to 1.0D-05 achieved.  Increase integral accuracy.
 SCF Done:  E(RB3LYP) =  -839.984853453     A.U. after   11 cycles
            NFock= 11  Conv=0.67D-08     -V/T= 2.0086
 DoSCS=F DFT=T ScalE2(SS,OS)=  1.000000  1.000000
 Range of M.O.s used for correlation:     1   242
 NBasis=   242 NAE=    58 NBE=    58 NFC=     0 NFV=     0
 NROrb=    242 NOA=    58 NOB=    58 NVA=   184 NVB=   184
 Symmetrizing basis deriv contribution to polar:
 IMax=3 JMax=2 DiffMx= 0.00D+00
 Calling FoFJK, ICntrl=      2147 FMM=F ISym2X=0 I1Cent= 0 IOpClX= 0 NMat=1 NMatS=1 NMatT=0.
 -------------------------------------------------------------------
 Center     Atomic                   Forces (Hartrees/Bohr)
 Number     Number              X              Y              Z
 -------------------------------------------------------------------
      1        6          -0.000216421   -0.000848439   -0.000162418
      2        8           0.000319289    0.000717846    0.000316872
      3        1          -0.000023001   -0.000044402    0.000087849
      4        1           0.000055543   -0.000011006   -0.000035728
      5        8           0.001106119   -0.000433126   -0.000218699
      6        1           0.000145645   -0.000297400   -0.000177190
      7        8          -0.000409345    0.000743821    0.000430486
      8        1          -0.000694292   -0.000054877    0.000027342
      9        6           0.000090821    0.000021713    0.000050452
     10        6           0.000086863    0.000185262    0.000047081
     11        1           0.000002951   -0.000003380    0.000001835
     12        1           0.000006758    0.000003242    0.000016003
     13        8           0.000109872   -0.000000327    0.000063253
     14        1           0.000004664   -0.000001648    0.000003286
     15        6          -0.000006764    0.000231102   -0.000144966
     16        8          -0.000042011    0.000214731   -0.000118575
     17        1          -0.000012301    0.000027613   -0.000016966
     18        1          -0.000005545    0.000007583   -0.000019471
     19        1           0.000000832    0.000015483    0.000033112
     20        1           0.000011070    0.000000703   -0.000029479
     21        8          -0.000212745   -0.000332671   -0.000072263
     22        1          -0.000244678   -0.000083212   -0.000081029
     23        6          -0.000079994   -0.000065668   -0.000031302
     24        1          -0.000017895    0.000001172   -0.000002824
     25        6           0.000076371    0.000014403    0.000038875
     26        1           0.000008892    0.000001396    0.000000097
     27        8          -0.000153857    0.000013249   -0.000017294
     28        1          -0.000028311    0.000006348   -0.000015146
     29        8           0.000131264   -0.000036018    0.000017545
     30        1          -0.000009793    0.000006507    0.000009263
 -------------------------------------------------------------------
 Cartesian Forces:  Max     0.001106119 RMS     0.000236361
 IRC-IRC-IRC-IRC-IRC-IRC-IRC-IRC-IRC-IRC-IRC-IRC-IRC-IRC-IRC-IRC-IRC-IRC
 Pt  1 Step number   1 out of a maximum of  20
 Modified Bulirsch-Stoer Extrapolation Cycles:
    EPS =    0.000010000000000
 Maximum DWI energy   std dev =  0.000000795 at pt    30
 Maximum DWI gradient std dev =  0.659753239 at pt     5
 CORRECTOR INTEGRATION CONVERGENCE:
   Recorrection delta-x convergence threshold:    0.010000
   Delta-x Convergence Met
 Point Number:   1          Path Number:   1
   CHANGE IN THE REACTION COORDINATE =    0.19092
   NET REACTION COORDINATE UP TO THIS POINT =    0.19092
  # OF POINTS ALONG THE PATH =   1
  # OF STEPS =   1

 Calculating another point on the path.
 IRC-IRC-IRC-IRC-IRC-IRC-IRC-IRC-IRC-IRC-IRC-IRC-IRC-IRC-IRC-IRC-IRC-IRC
                          Input orientation:                          
 ---------------------------------------------------------------------
 Center     Atomic      Atomic             Coordinates (Angstroms)
 Number     Number       Type             X           Y           Z
 ---------------------------------------------------------------------
      1          6           0        0.065942   -1.496798    0.345909
      2          8           0        0.405843    0.103373    0.815622
      3          1           0        2.863776    1.195607    0.393278
      4          1           0        3.685174   -2.387963   -0.016712
      5          8           0        3.305922   -1.625714   -0.480027
      6          1           0        3.184638   -0.432732    0.376253
      7          8           0        2.839755    0.374848    0.953544
      8          1           0        1.726614    0.215469    0.970844
      9          6           0       -1.660848    1.046156   -0.061918
     10          6           0       -0.113838    0.991339   -0.188512
     11          1           0       -1.962673    1.894506    0.564995
     12          1           0        0.122293    0.567823   -1.174714
     13          8           0       -2.245069    1.254346   -1.336354
     14          1           0       -2.174291    0.383862   -1.778485
     15          6           0        0.518942    2.372536   -0.089802
     16          8           0        1.904137    2.410751   -0.500657
     17          1           0        0.511852    2.726991    0.945156
     18          1           0       -0.065774    3.070667   -0.700806
     19          1           0        1.932767    2.262576   -1.459849
     20          1           0        0.322428   -1.927587    1.326401
     21          8           0        0.765080   -1.831368   -0.682445
     22          1           0        2.310509   -1.833414   -0.610127
     23          6           0       -1.466595   -1.474843    0.058860
     24          1           0       -1.897579   -2.381104    0.510893
     25          6           0       -2.177772   -0.237403    0.630285
     26          1           0       -3.249561   -0.310523    0.421801
     27          8           0       -1.644909   -1.492057   -1.353792
     28          1           0       -0.752043   -1.767025   -1.677524
     29          8           0       -2.047619   -0.175778    2.043987
     30          1           0       -1.104975    0.003827    2.206201
 ---------------------------------------------------------------------
                    Distance matrix (angstroms):
                    1          2          3          4          5
     1  C    0.000000
     2  O    1.701973   0.000000
     3  H    3.883190   2.722643   0.000000
     4  H    3.744930   4.201612   3.699292   0.000000
     5  O    3.346081   3.616477   2.986303   0.969287   0.000000
     6  H    3.295363   2.863940   1.659738   2.056182   1.473475
     7  O    3.400928   2.452885   0.994043   3.047827   2.504932
     8  H    2.465813   1.334577   1.608537   3.404273   2.826515
     9  C    3.100765   2.435185   4.549919   6.354145   5.655308
    10  C    2.551226   1.437650   3.040787   5.087405   4.316098
    11  H    3.957805   2.980074   4.879811   7.111687   6.422002
    12  H    2.564787   2.063384   3.220007   4.771977   3.928064
    13  O    3.967314   3.603204   5.394013   7.083478   6.312016
    14  H    3.615049   3.669490   5.545954   6.717156   5.979726
    15  C    3.920051   2.445748   2.667728   5.717754   4.889328
    16  O    4.400520   3.049831   1.787904   5.141396   4.272994
    17  H    4.289327   2.628952   2.860289   6.095729   5.365073
    18  H    4.687718   3.365533   3.646249   6.658396   5.785592
    19  H    4.569320   3.488756   2.332226   5.175045   4.238443
    20  H    1.101240   2.095866   4.133221   3.650200   3.500792
    21  O    1.287728   2.473152   3.837224   3.046301   2.557176
    22  H    2.462803   3.067842   3.238502   1.596675   1.025140
    23  C    1.559343   2.563100   5.098554   5.232611   4.805214
    24  H    2.159776   3.401652   5.956273   5.607632   5.350603
    25  C    2.588668   2.612575   5.246608   6.278348   5.764643
    26  H    3.522155   3.699782   6.296200   7.252489   6.746657
    27  O    2.411642   3.384868   5.532091   5.567783   5.029120
    28  H    2.199183   3.324886   5.112686   4.778363   4.233326
    29  O    3.015909   2.757949   5.359789   6.481138   6.093715
    30  H    2.661505   2.055771   4.523054   5.797200   5.415463
                    6          7          8          9         10
     6  H    0.000000
     7  O    1.050902   0.000000
     8  H    1.702802   1.124625   0.000000
     9  C    5.085060   4.662322   3.637518   0.000000
    10  C    3.636878   3.226153   2.309404   1.553149   0.000000
    11  H    5.652121   5.052093   4.073662   1.097186   2.191272
    12  H    3.575551   3.457068   2.702114   2.155623   1.098962
    13  O    5.938095   5.645581   4.709214   1.417337   2.434925
    14  H    5.833339   5.710054   4.775377   1.910198   2.672547
    15  C    3.897777   3.235042   2.690052   2.551774   1.522451
    16  O    3.239452   2.671139   2.648792   3.842361   2.486843
    17  H    4.177474   3.309348   2.789992   2.925753   2.165451
    18  H    4.898882   4.294929   3.762875   2.655388   2.142045
    19  H    3.493299   3.195405   3.184559   4.043261   2.724138
    20  H    3.365950   3.431787   2.586667   3.834574   3.317442
    21  O    2.988526   3.442111   2.801331   3.814489   2.997356
    22  H    1.923267   2.757098   2.652984   4.936004   3.746258
    23  C    4.777102   4.771422   3.726319   2.531355   2.823686
    24  H    5.444558   5.498503   4.482022   3.482853   3.878695
    25  C    5.371977   5.065069   3.945290   1.547216   2.537728
    26  H    6.435521   6.150793   5.033929   2.144428   3.449651
    27  O    5.238296   5.377856   4.436974   2.848107   3.141546
    28  H    4.636356   4.940764   4.133748   3.368990   3.198911
    29  O    5.497625   5.037726   3.943292   2.465269   3.175804
    30  H    4.684024   4.155442   3.096579   2.557305   2.773479
                   11         12         13         14         15
    11  H    0.000000
    12  H    3.022211   0.000000
    13  O    2.026001   2.470191   0.000000
    14  H    2.796198   2.381738   0.978893   0.000000
    15  C    2.610686   2.142744   3.231718   3.749664   0.000000
    16  O    4.044050   2.650605   4.387662   4.730190   1.445347
    17  H    2.638337   3.050838   3.869701   4.485960   1.093996
    18  H    2.565897   2.554249   2.907279   3.581362   1.096634
    19  H    4.405669   2.496258   4.299545   4.527584   1.971806
    20  H    4.517723   3.538744   4.879243   4.606161   4.531590
    21  O    4.783187   2.532118   4.360072   3.840371   4.252601
    22  H    5.791233   3.297421   5.551123   5.137588   4.601137
    23  C    3.443077   2.866838   3.162455   2.707666   4.332065
    24  H    4.276448   3.951876   4.092624   3.600397   5.366330
    25  C    2.143727   3.032608   2.469314   2.487600   3.821331
    26  H    2.557097   3.832722   2.559088   2.545513   4.654263
    27  O    3.905320   2.719959   2.811268   1.994914   4.605974
    28  H    4.461090   2.543383   3.387360   2.580561   4.612182
    29  O    2.545724   3.952405   3.675725   3.865299   4.199309
    30  H    2.646483   3.640724   3.925979   4.143137   3.676890
                   16         17         18         19         20
    16  O    0.000000
    17  H    2.031956   0.000000
    18  H    2.087127   1.777908   0.000000
    19  H    0.970992   2.831737   2.285459   0.000000
    20  H    4.965997   4.674005   5.407663   5.283356   0.000000
    21  O    4.396144   4.846839   4.971982   4.327612   2.059287
    22  H    4.264981   5.143089   5.450225   4.200220   2.776955
    23  C    5.174238   4.728127   4.816748   5.275457   2.238803
    24  H    6.199851   5.664501   5.877544   6.333967   2.408145
    25  C    4.995372   4.015078   4.144353   5.245482   3.097145
    26  H    5.900583   4.862985   4.777991   6.084240   4.023966
    27  O    5.343733   5.266606   4.872218   5.187319   3.353138
    28  H    5.088627   5.354630   4.982791   4.846985   3.194344
    29  O    5.364861   4.022983   4.690523   5.836601   3.033296
    30  H    4.709047   3.408810   4.351567   5.269701   2.557711
                   21         22         23         24         25
    21  O    0.000000
    22  H    1.547122   0.000000
    23  C    2.378448   3.852614   0.000000
    24  H    2.969177   4.389152   1.100631   0.000000
    25  C    3.595047   4.922453   1.537387   2.165230   0.000000
    26  H    4.432795   5.856489   2.160170   2.474490   1.094323
    27  O    2.524655   4.039170   1.423966   2.081176   2.407210
    28  H    1.815484   3.243913   1.900259   2.545292   3.114230
    29  O    4.252727   5.365199   2.442517   2.690047   1.421018
    30  H    3.899914   4.792984   2.632168   3.031532   1.921614
                   26         27         28         29         30
    26  H    0.000000
    27  O    2.669019   0.000000
    28  H    3.572976   0.988746   0.000000
    29  O    2.023440   3.666015   4.249733   0.000000
    30  H    2.807517   3.899070   4.282966   0.973216   0.000000
 Symmetry turned off by external request.
 Stoichiometry    C6H16O8
 Framework group  C1[X(C6H16O8)]
 Deg. of freedom    84
 Full point group                 C1      NOp   1
 Rotational constants (GHZ):      0.7892802      0.5346199      0.4204708
 Standard basis: 6-31G(d) (6D, 7F)
   242 basis functions,   456 primitive gaussians,   242 cartesian basis functions
    58 alpha electrons       58 beta electrons
       nuclear repulsion energy      1135.1126560244 Hartrees.
 NAtoms=   30 NActive=   30 NUniq=   30 SFac= 1.00D+00 NAtFMM=   60 NAOKFM=F Big=F
 Integral buffers will be    131072 words long.
 Raffenetti 2 integral format.
 Two-electron integral symmetry is turned off.
 One-electron integrals computed using PRISM.
 NBasis=   242 RedAO= T EigKep=  1.38D-03  NBF=   242
 NBsUse=   242 1.00D-06 EigRej= -1.00D+00 NBFU=   242
 Initial guess from the checkpoint file:  "/scratch/10461051.yak.local/Gau-26254.chk"
 B after Tr=    -0.000087    0.000140   -0.000095
         Rot=    1.000000    0.000011    0.000038   -0.000066 Ang=   0.01 deg.
 ExpMin= 1.61D-01 ExpMax= 5.48D+03 ExpMxC= 8.25D+02 IAcc=1 IRadAn=         1 AccDes= 0.00D+00
 Harris functional with IExCor=  402 and IRadAn=       1 diagonalized for initial guess.
 HarFok:  IExCor=  402 AccDes= 0.00D+00 IRadAn=         1 IDoV= 1 UseB2=F ITyADJ=14
 ICtDFT=  3500011 ScaDFX=  1.000000  1.000000  1.000000  1.000000
 FoFCou: FMM=F IPFlag=           0 FMFlag=      100000 FMFlg1=           0
         NFxFlg=           0 DoJE=T BraDBF=F KetDBF=T FulRan=T
         wScrn=  0.000000 ICntrl=     500 IOpCl=  0 I1Cent=   200000004 NGrid=           0
         NMat0=    1 NMatS0=      1 NMatT0=    0 NMatD0=    1 NMtDS0=    0 NMtDT0=    0
 Symmetry not used in FoFCou.
 Requested convergence on RMS density matrix=1.00D-08 within 128 cycles.
 Requested convergence on MAX density matrix=1.00D-06.
 Requested convergence on             energy=1.00D-06.
 No special actions if energy rises.
 Integral accuracy reduced to 1.0D-05 until final iterations.
 Initial convergence to 1.0D-05 achieved.  Increase integral accuracy.
 SCF Done:  E(RB3LYP) =  -839.985027749     A.U. after   11 cycles
            NFock= 11  Conv=0.84D-08     -V/T= 2.0086
 DoSCS=F DFT=T ScalE2(SS,OS)=  1.000000  1.000000
 Range of M.O.s used for correlation:     1   242
 NBasis=   242 NAE=    58 NBE=    58 NFC=     0 NFV=     0
 NROrb=    242 NOA=    58 NOB=    58 NVA=   184 NVB=   184
 Symmetrizing basis deriv contribution to polar:
 IMax=3 JMax=2 DiffMx= 0.00D+00
 Calling FoFJK, ICntrl=      2147 FMM=F ISym2X=0 I1Cent= 0 IOpClX= 0 NMat=1 NMatS=1 NMatT=0.
 -------------------------------------------------------------------
 Center     Atomic                   Forces (Hartrees/Bohr)
 Number     Number              X              Y              Z
 -------------------------------------------------------------------
      1        6          -0.000436744   -0.001824238   -0.000356245
      2        8           0.000604536    0.001545300    0.000646945
      3        1          -0.000027238   -0.000113655    0.000170509
      4        1           0.000096829   -0.000052254   -0.000048232
      5        8           0.001922352   -0.000842215   -0.000483542
      6        1           0.000191667   -0.000382642   -0.000211037
      7        8          -0.000354832    0.001218238    0.000756132
      8        1          -0.001642717   -0.000154264    0.000099475
      9        6           0.000199426    0.000026603    0.000113585
     10        6           0.000191319    0.000423219    0.000065288
     11        1           0.000011137    0.000000342    0.000007628
     12        1           0.000010019    0.000003980    0.000028591
     13        8           0.000226788    0.000003191    0.000143288
     14        1           0.000003534    0.000008479    0.000005956
     15        6          -0.000020546    0.000504473   -0.000325060
     16        8          -0.000129861    0.000517886   -0.000205707
     17        1          -0.000010891    0.000049161   -0.000033570
     18        1          -0.000006191    0.000014625   -0.000038248
     19        1           0.000007308    0.000016953   -0.000008480
     20        1           0.000016594    0.000008063   -0.000063680
     21        8          -0.000434980   -0.000705237   -0.000140013
     22        1          -0.000315118   -0.000132916   -0.000117135
     23        6          -0.000135728   -0.000148020   -0.000072623
     24        1          -0.000037030    0.000009472    0.000000304
     25        6           0.000182500    0.000031072    0.000069570
     26        1           0.000015164    0.000012011    0.000005656
     27        8          -0.000322532    0.000026495   -0.000041647
     28        1          -0.000059926    0.000008590   -0.000029347
     29        8           0.000259630   -0.000087944    0.000035919
     30        1          -0.000004468    0.000015234    0.000025719
 -------------------------------------------------------------------
 Cartesian Forces:  Max     0.001922352 RMS     0.000457181
 IRC-IRC-IRC-IRC-IRC-IRC-IRC-IRC-IRC-IRC-IRC-IRC-IRC-IRC-IRC-IRC-IRC-IRC
 Pt  2 Step number   1 out of a maximum of  20
 Modified Bulirsch-Stoer Extrapolation Cycles:
    EPS =    0.000010000000000
 Maximum DWI energy   std dev =  0.000004977 at pt    91
 Maximum DWI gradient std dev =  0.465184040 at pt    72
 CORRECTOR INTEGRATION CONVERGENCE:
   Recorrection delta-x convergence threshold:    0.010000
   Delta-x Convergence NOT Met
 IRC-IRC-IRC-IRC-IRC-IRC-IRC-IRC-IRC-IRC-IRC-IRC-IRC-IRC-IRC-IRC-IRC-IRC
                          Input orientation:                          
 ---------------------------------------------------------------------
 Center     Atomic      Atomic             Coordinates (Angstroms)
 Number     Number       Type             X           Y           Z
 ---------------------------------------------------------------------
      1          6           0        0.065886   -1.497130    0.345919
      2          8           0        0.405931    0.103555    0.815640
      3          1           0        2.864895    1.195095    0.393904
      4          1           0        3.685172   -2.387591   -0.016686
      5          8           0        3.305487   -1.625492   -0.479925
      6          1           0        3.184946   -0.434077    0.375392
      7          8           0        2.840389    0.374778    0.953675
      8          1           0        1.721748    0.215601    0.970498
      9          6           0       -1.660882    1.046102   -0.061940
     10          6           0       -0.113906    0.991467   -0.188733
     11          1           0       -1.962620    1.894481    0.564958
     12          1           0        0.122283    0.567697   -1.174738
     13          8           0       -2.245111    1.254299   -1.336364
     14          1           0       -2.174367    0.383884   -1.778593
     15          6           0        0.519025    2.372505   -0.089833
     16          8           0        1.903936    2.410800   -0.500708
     17          1           0        0.511867    2.726807    0.945171
     18          1           0       -0.065972    3.070636   -0.700622
     19          1           0        1.932649    2.262734   -1.459903
     20          1           0        0.322623   -1.927572    1.326317
     21          8           0        0.765309   -1.831205   -0.682411
     22          1           0        2.308993   -1.833316   -0.609930
     23          6           0       -1.466486   -1.474881    0.058826
     24          1           0       -1.897527   -2.381081    0.510912
     25          6           0       -2.177764   -0.237435    0.630275
     26          1           0       -3.249527   -0.310626    0.421758
     27          8           0       -1.644820   -1.492078   -1.353792
     28          1           0       -0.752236   -1.767164   -1.677890
     29          8           0       -2.047708   -0.175807    2.043958
     30          1           0       -1.105217    0.004020    2.206633
 ---------------------------------------------------------------------
                    Distance matrix (angstroms):
                    1          2          3          4          5
     1  C    0.000000
     2  O    1.702487   0.000000
     3  H    3.883919   2.723200   0.000000
     4  H    3.744814   4.201428   3.698254   0.000000
     5  O    3.345670   3.616008   2.985534   0.969302   0.000000
     6  H    3.295373   2.864574   1.660414   2.054306   1.471587
     7  O    3.401657   2.453406   0.993410   3.047284   2.504517
     8  H    2.462809   1.329627   1.612034   3.406784   2.828707
     9  C    3.100985   2.435212   4.551115   6.353943   5.654816
    10  C    2.551724   1.437840   3.042069   5.087301   4.315729
    11  H    3.958010   2.979982   4.880911   7.111400   6.421444
    12  H    2.564974   2.063368   3.221209   4.771686   3.927548
    13  O    3.967512   3.603243   5.395321   7.083302   6.311563
    14  H    3.615315   3.669682   5.547248   6.717111   5.979375
    15  C    3.920369   2.445569   2.668970   5.717373   4.888817
    16  O    4.400810   3.049618   1.789332   5.141171   4.272755
    17  H    4.289482   2.628584   2.861254   6.095253   5.364487
    18  H    4.687976   3.365310   3.647687   6.658160   5.785245
    19  H    4.569724   3.488698   2.333567   5.174914   4.238319
    20  H    1.101079   2.095998   4.133230   3.649933   3.500177
    21  O    1.287734   2.473177   3.837343   3.046039   2.556526
    22  H    2.461340   3.066816   3.238515   1.597820   1.026203
    23  C    1.559193   2.563235   5.099207   5.232430   4.804651
    24  H    2.159534   3.401793   5.956793   5.607578   5.350143
    25  C    2.588756   2.612684   5.247516   6.278197   5.764139
    26  H    3.522145   3.699873   6.297152   7.252314   6.746118
    27  O    2.411547   3.384975   5.532889   5.567640   5.028617
    28  H    2.199556   3.325452   5.113799   4.778610   4.233238
    29  O    3.016043   2.758107   5.360570   6.481062   6.093297
    30  H    2.662178   2.056292   4.523984   5.797480   5.415461
                    6          7          8          9         10
     6  H    0.000000
     7  O    1.052319   0.000000
     8  H    1.707976   1.130035   0.000000
     9  C    5.085689   4.663002   3.632884   0.000000
    10  C    3.637696   3.226959   2.305517   1.553125   0.000000
    11  H    5.652924   5.052672   4.069111   1.097176   2.191170
    12  H    3.575801   3.457667   2.698944   2.155660   1.098896
    13  O    5.938538   5.646251   4.704941   1.417330   2.434784
    14  H    5.833605   5.710792   4.771324   1.910261   2.672510
    15  C    3.898778   3.235515   2.687579   2.551885   1.522382
    16  O    3.240657   2.671621   2.648875   3.842245   2.486669
    17  H    4.178658   3.309702   2.787581   2.925728   2.165349
    18  H    4.899927   4.295496   3.760294   2.655257   2.141791
    19  H    3.494187   3.195893   3.184664   4.043261   2.724037
    20  H    3.365661   3.432029   2.584056   3.834617   3.317639
    21  O    2.987567   3.442251   2.799339   3.814483   2.997368
    22  H    1.922504   2.757339   2.653426   4.934698   3.745296
    23  C    4.776956   4.771914   3.722057   2.531349   2.823762
    24  H    5.444329   5.498968   4.478072   3.482778   3.878774
    25  C    5.372364   5.065694   3.940455   1.547190   2.537811
    26  H    6.435823   6.151405   5.029075   2.144403   3.449676
    27  O    5.237946   5.378350   4.433088   2.848068   3.141505
    28  H    4.636215   4.941660   4.131091   3.369184   3.199235
    29  O    5.498316   5.038388   3.938821   2.465259   3.176008
    30  H    4.685175   4.156341   3.092657   2.557562   2.774082
                   11         12         13         14         15
    11  H    0.000000
    12  H    3.022204   0.000000
    13  O    2.025996   2.470243   0.000000
    14  H    2.796242   2.381812   0.978874   0.000000
    15  C    2.610712   2.142838   3.231821   3.749784   0.000000
    16  O    4.043821   2.650591   4.387529   4.730109   1.445083
    17  H    2.638260   3.050828   3.869704   4.485982   1.093990
    18  H    2.565600   2.554394   2.907214   3.581338   1.096664
    19  H    4.405541   2.496376   4.299521   4.527606   1.971668
    20  H    4.517753   3.538613   4.879286   4.606328   4.531525
    21  O    4.783122   2.531916   4.360117   3.840564   4.252409
    22  H    5.789949   3.296297   5.549859   5.136367   4.600371
    23  C    3.443097   2.866705   3.162473   2.707806   4.332059
    24  H    4.276399   3.951752   4.092583   3.600487   5.366302
[...]
 Alpha  occ. eigenvalues --  -10.25457 -10.24796 -10.24296 -10.24188  -1.07632
 Alpha  occ. eigenvalues --   -1.05656  -1.04044  -1.03080  -1.01771  -1.01542
 Alpha  occ. eigenvalues --   -1.01030  -0.99595  -0.78303  -0.76021  -0.69923
 Alpha  occ. eigenvalues --   -0.65692  -0.62422  -0.57696  -0.56458  -0.55283
 Alpha  occ. eigenvalues --   -0.53968  -0.53400  -0.52496  -0.51744  -0.49315
 Alpha  occ. eigenvalues --   -0.48503  -0.46869  -0.45816  -0.44318  -0.43291
 Alpha  occ. eigenvalues --   -0.42948  -0.42138  -0.40714  -0.39242  -0.39084
 Alpha  occ. eigenvalues --   -0.37686  -0.36730  -0.35640  -0.34220  -0.32793
 Alpha  occ. eigenvalues --   -0.32238  -0.31494  -0.30969  -0.30504  -0.28746
 Alpha  occ. eigenvalues --   -0.27443  -0.27161  -0.25100
 Alpha virt. eigenvalues --    0.00548   0.04221   0.06717   0.07031   0.09790
 Alpha virt. eigenvalues --    0.10696   0.11663   0.12967   0.13172   0.13379
 Alpha virt. eigenvalues --    0.14646   0.15602   0.16262   0.17377   0.19034
 Alpha virt. eigenvalues --    0.20077   0.21818   0.22848   0.23101   0.23556
 Alpha virt. eigenvalues --    0.24979   0.25447   0.27218   0.28953   0.30061
 Alpha virt. eigenvalues --    0.31703   0.33407   0.37133   0.50945   0.51640
 Alpha virt. eigenvalues --    0.53153   0.55355   0.57633   0.57847   0.58890
 Alpha virt. eigenvalues --    0.59325   0.60325   0.62683   0.63500   0.67156
 Alpha virt. eigenvalues --    0.68355   0.70219   0.72665   0.73569   0.74351
 Alpha virt. eigenvalues --    0.76155   0.77119   0.77538   0.78160   0.79936
 Alpha virt. eigenvalues --    0.81683   0.82222   0.82499   0.83406   0.84400
 Alpha virt. eigenvalues --    0.84925   0.85751   0.87134   0.87450   0.89391
 Alpha virt. eigenvalues --    0.90155   0.91101   0.91439   0.92421   0.94132
 Alpha virt. eigenvalues --    0.96626   0.99541   1.00546   1.00786   1.03544
 Alpha virt. eigenvalues --    1.04892   1.06834   1.07587   1.08318   1.09688
 Alpha virt. eigenvalues --    1.10907   1.11484   1.13321   1.14262   1.17858
 Alpha virt. eigenvalues --    1.17993   1.19356   1.21156   1.23473   1.27078
 Alpha virt. eigenvalues --    1.28881   1.31747   1.33307   1.33697   1.35101
 Alpha virt. eigenvalues --    1.36770   1.39773   1.42906   1.47297   1.48854
 Alpha virt. eigenvalues --    1.51682   1.53716   1.56146   1.56849   1.59610
 Alpha virt. eigenvalues --    1.61283   1.63694   1.64459   1.67569   1.69051
 Alpha virt. eigenvalues --    1.70663   1.71101   1.71546   1.71729   1.72564
 Alpha virt. eigenvalues --    1.74208   1.74385   1.74887   1.77135   1.79315
 Alpha virt. eigenvalues --    1.80218   1.81117   1.81924   1.83099   1.85594
 Alpha virt. eigenvalues --    1.86260   1.88220   1.89731   1.91737   1.94557
 Alpha virt. eigenvalues --    1.95497   1.98446   1.98882   2.02763   2.04671
 Alpha virt. eigenvalues --    2.05290   2.07701   2.09320   2.14409   2.15630
 Alpha virt. eigenvalues --    2.18362   2.22658   2.23950   2.30345   2.30528
 Alpha virt. eigenvalues --    2.32214   2.34848   2.35673   2.36066   2.39184
 Alpha virt. eigenvalues --    2.42179   2.42367   2.46660   2.48704   2.50280
 Alpha virt. eigenvalues --    2.52099   2.53702   2.54970   2.58367   2.60475
 Alpha virt. eigenvalues --    2.62702   2.64260   2.66392   2.69612   2.72410
 Alpha virt. eigenvalues --    2.74321   2.79397   2.82621   2.85806   2.86506
 Alpha virt. eigenvalues --    2.90160   2.93689   2.99008   3.02341   3.10968
 Alpha virt. eigenvalues --    3.74918   3.78692   3.79493   3.88730   3.90974
 Alpha virt. eigenvalues --    4.01208   4.10815   4.16169   4.30290   4.37414
 Alpha virt. eigenvalues --    4.41460   4.54381   4.76235   4.87280
          Condensed to atoms (all electrons):
               1          2          3          4          5          6
     1  C    4.755834   0.038930  -0.000093   0.000083   0.004204   0.000163
     2  O    0.038930   8.615419   0.006659  -0.000011  -0.000391   0.004816
     3  H   -0.000093   0.006659   0.322554  -0.000051   0.001086  -0.003396
     4  H    0.000083  -0.000011  -0.000051   0.374281   0.239512  -0.005276
     5  O    0.004204  -0.000391   0.001086   0.239512   8.377574   0.094064
     6  H    0.000163   0.004816  -0.003396  -0.005276   0.094064   0.297711
     7  O    0.001158  -0.080669   0.214324   0.002311  -0.048007   0.186220
     8  H    0.000334   0.126545  -0.014481  -0.000027   0.002231  -0.007497
     9  C   -0.017423  -0.029042   0.000073  -0.000000   0.000000   0.000015
    10  C   -0.001055   0.135603   0.000028   0.000001  -0.000051  -0.000001
    11  H    0.000071   0.003333  -0.000001   0.000000   0.000000  -0.000000
    12  H   -0.004242  -0.044830  -0.000058   0.000001   0.000034   0.000045
    13  O   -0.000068   0.001484  -0.000001   0.000000   0.000000  -0.000000
    14  H    0.000694  -0.000004   0.000000  -0.000000   0.000000  -0.000000
    15  C    0.000912  -0.030691  -0.005926  -0.000000   0.000007  -0.000182
    16  O   -0.000077  -0.000085   0.053050   0.000001  -0.000023   0.000841
    17  H   -0.000038  -0.000131  -0.001043   0.000000   0.000000   0.000016
    18  H   -0.000057   0.003550   0.000563   0.000000   0.000000   0.000000
    19  H   -0.000010  -0.000285  -0.003206  -0.000000   0.000014   0.000028
    20  H    0.355651  -0.029829   0.000011  -0.000057   0.000866  -0.000049
    21  O    0.385939  -0.039032   0.000070   0.001587  -0.038844   0.001262
    22  H   -0.007113   0.000635  -0.000104  -0.010597   0.192734  -0.007884
    23  C    0.293175  -0.016839  -0.000001   0.000010  -0.000040   0.000030
    24  H   -0.048705   0.001769  -0.000000  -0.000000   0.000001  -0.000000
    25  C   -0.024551  -0.002022   0.000003  -0.000000   0.000000  -0.000001
    26  H    0.004501  -0.000020  -0.000000   0.000000  -0.000000   0.000000
    27  O   -0.028459  -0.000068   0.000000   0.000000  -0.000001  -0.000000
    28  H   -0.018676   0.000486   0.000000  -0.000004   0.000063  -0.000002
    29  O    0.002424  -0.014164   0.000000  -0.000000  -0.000000   0.000000
    30  H    0.003342   0.030395  -0.000002   0.000000   0.000000  -0.000002
               7          8          9         10         11         12
     1  C    0.001158   0.000334  -0.017423  -0.001055   0.000071  -0.004242
     2  O   -0.080669   0.126545  -0.029042   0.135603   0.003333  -0.044830
     3  H    0.214324  -0.014481   0.000073   0.000028  -0.000001  -0.000058
     4  H    0.002311  -0.000027  -0.000000   0.000001   0.000000   0.000001
     5  O   -0.048007   0.002231   0.000000  -0.000051   0.000000   0.000034
     6  H    0.186220  -0.007497   0.000015  -0.000001  -0.000000   0.000045
     7  O    8.449434   0.139551  -0.000025   0.004637   0.000003   0.000111
     8  H    0.139551   0.287358   0.001909  -0.010952  -0.000167   0.000812
     9  C   -0.000025   0.001909   4.986070   0.262818   0.372517  -0.041998
    10  C    0.004637  -0.010952   0.262818   5.094409  -0.062771   0.338444
    11  H    0.000003  -0.000167   0.372517  -0.062771   0.608660   0.005398
    12  H    0.000111   0.000812  -0.041998   0.338444   0.005398   0.626094
    13  O    0.000000  -0.000031   0.228714  -0.041448  -0.037565   0.003305
    14  H   -0.000000  -0.000004  -0.032294  -0.004056   0.006178   0.004201
    15  C    0.002671  -0.003645  -0.017684   0.336312  -0.007230  -0.046580
    16  O   -0.023241   0.003899   0.002655  -0.037762   0.000066  -0.001804
    17  H    0.000295   0.000480  -0.004100  -0.038697   0.004055   0.005759
    18  H   -0.000054   0.000163   0.001485  -0.052638   0.000843   0.001862
    19  H    0.001494  -0.000020  -0.000162  -0.002458   0.000031   0.005423
    20  H    0.000070  -0.000666   0.000674   0.002316   0.000005   0.001138
    21  O   -0.000870   0.003873   0.000637  -0.003299  -0.000016   0.014040
    22  H    0.005160   0.000333  -0.000004   0.000120  -0.000000  -0.000149
    23  C    0.000005   0.001033  -0.034753  -0.012075   0.006654  -0.001363
    24  H    0.000000  -0.000029   0.006109   0.000145  -0.000191   0.000150
    25  C   -0.000003   0.000252   0.313214  -0.039634  -0.048718  -0.006000
    26  H    0.000000   0.000015  -0.051829   0.006101  -0.004238  -0.000266
    27  O    0.000000  -0.000049   0.005737  -0.000769  -0.000118   0.005659
    28  H    0.000001  -0.000048   0.000503  -0.000867   0.000032   0.001271
    29  O   -0.000001   0.000093  -0.032233   0.003747   0.004651  -0.000131
    30  H    0.000018   0.000495  -0.008415  -0.000802   0.001107   0.000698
              13         14         15         16         17         18
     1  C   -0.000068   0.000694   0.000912  -0.000077  -0.000038  -0.000057
     2  O    0.001484  -0.000004  -0.030691  -0.000085  -0.000131   0.003550
     3  H   -0.000001   0.000000  -0.005926   0.053050  -0.001043   0.000563
     4  H    0.000000  -0.000000  -0.000000   0.000001   0.000000   0.000000
     5  O    0.000000   0.000000   0.000007  -0.000023   0.000000   0.000000
     6  H   -0.000000  -0.000000  -0.000182   0.000841   0.000016   0.000000
     7  O    0.000000  -0.000000   0.002671  -0.023241   0.000295  -0.000054
     8  H   -0.000031  -0.000004  -0.003645   0.003899   0.000480   0.000163
     9  C    0.228714  -0.032294  -0.017684   0.002655  -0.004100   0.001485
    10  C   -0.041448  -0.004056   0.336312  -0.037762  -0.038697  -0.052638
    11  H   -0.037565   0.006178  -0.007230   0.000066   0.004055   0.000843
    12  H    0.003305   0.004201  -0.046580  -0.001804   0.005759   0.001862
    13  O    8.297798   0.228621  -0.001556  -0.000026   0.000096   0.005524
    14  H    0.228621   0.347094   0.000076   0.000002  -0.000001  -0.000069
    15  C   -0.001556   0.000076   4.930279   0.224780   0.368105   0.363053
    16  O   -0.000026   0.000002   0.224780   8.237175  -0.036570  -0.029744
    17  H    0.000096  -0.000001   0.368105  -0.036570   0.551631  -0.029337
    18  H    0.005524  -0.000069   0.363053  -0.029744  -0.029337   0.569925
    19  H    0.000014  -0.000004  -0.026391   0.235695   0.006612  -0.005958
    20  H   -0.000005  -0.000024  -0.000101   0.000001  -0.000000   0.000003
    21  O    0.000006  -0.000063   0.000108  -0.000000   0.000000   0.000007
    22  H    0.000000  -0.000000  -0.000021   0.000016  -0.000000  -0.000000
    23  C    0.001724  -0.003356   0.000076   0.000003   0.000014   0.000018
    24  H   -0.000248   0.000343   0.000015  -0.000000  -0.000000  -0.000000
    25  C   -0.025177  -0.010438   0.002265  -0.000051  -0.000251   0.000344
    26  H    0.005007   0.000729  -0.000089   0.000000   0.000002  -0.000008
    27  O   -0.016340   0.045428   0.000197  -0.000000  -0.000002  -0.000000
    28  H    0.000612  -0.001523  -0.000001  -0.000001  -0.000000  -0.000002
    29  O    0.001566   0.000063  -0.000136   0.000000  -0.000026  -0.000008
    30  H    0.000020   0.000031  -0.000444   0.000000   0.000470   0.000001
              19         20         21         22         23         24
     1  C   -0.000010   0.355651   0.385939  -0.007113   0.293175  -0.048705
     2  O   -0.000285  -0.029829  -0.039032   0.000635  -0.016839   0.001769
     3  H   -0.003206   0.000011   0.000070  -0.000104  -0.000001  -0.000000
     4  H   -0.000000  -0.000057   0.001587  -0.010597   0.000010  -0.000000
     5  O    0.000014   0.000866  -0.038844   0.192734  -0.000040   0.000001
     6  H    0.000028  -0.000049   0.001262  -0.007884   0.000030  -0.000000
     7  O    0.001494   0.000070  -0.000870   0.005160   0.000005   0.000000
     8  H   -0.000020  -0.000666   0.003873   0.000333   0.001033  -0.000029
     9  C   -0.000162   0.000674   0.000637  -0.000004  -0.034753   0.006109
    10  C   -0.002458   0.002316  -0.003299   0.000120  -0.012075   0.000145
    11  H    0.000031   0.000005  -0.000016  -0.000000   0.006654  -0.000191
    12  H    0.005423   0.001138   0.014040  -0.000149  -0.001363   0.000150
    13  O    0.000014  -0.000005   0.000006   0.000000   0.001724  -0.000248
    14  H   -0.000004  -0.000024  -0.000063  -0.000000  -0.003356   0.000343
    15  C   -0.026391  -0.000101   0.000108  -0.000021   0.000076   0.000015
    16  O    0.235695   0.000001  -0.000000   0.000016   0.000003  -0.000000
    17  H    0.006612  -0.000000   0.000000  -0.000000   0.000014  -0.000000
    18  H   -0.005958   0.000003   0.000007  -0.000000   0.000018  -0.000000
    19  H    0.380561  -0.000001  -0.000007   0.000004   0.000002  -0.000000
    20  H   -0.000001   0.640029  -0.046172  -0.002257  -0.070673   0.002171
    21  O   -0.000007  -0.046172   8.232259   0.076363  -0.061353   0.000926
    22  H    0.000004  -0.002257   0.076363   0.310057   0.001301  -0.000035
    23  C    0.000002  -0.070673  -0.061353   0.001301   5.103899   0.361229
    24  H   -0.000000   0.002171   0.000926  -0.000035   0.361229   0.613755
    25  C   -0.000004   0.000056   0.001099  -0.000017   0.291185  -0.050311
    26  H   -0.000000  -0.000217  -0.000082   0.000001  -0.047721  -0.007857
    27  O   -0.000002   0.002285  -0.028679   0.000062   0.216309  -0.037963
    28  H   -0.000001   0.002739   0.063753  -0.000450  -0.045895   0.002843
    29  O   -0.000000   0.002347   0.000056   0.000000  -0.046266   0.005128
    30  H    0.000001   0.000472   0.000087   0.000001  -0.006068  -0.000657
              25         26         27         28         29         30
     1  C   -0.024551   0.004501  -0.028459  -0.018676   0.002424   0.003342
     2  O   -0.002022  -0.000020  -0.000068   0.000486  -0.014164   0.030395
     3  H    0.000003  -0.000000   0.000000   0.000000   0.000000  -0.000002
     4  H   -0.000000   0.000000   0.000000  -0.000004  -0.000000   0.000000
     5  O    0.000000  -0.000000  -0.000001   0.000063  -0.000000   0.000000
     6  H   -0.000001   0.000000  -0.000000  -0.000002   0.000000  -0.000002
     7  O   -0.000003   0.000000   0.000000   0.000001  -0.000001   0.000018
     8  H    0.000252   0.000015  -0.000049  -0.000048   0.000093   0.000495
     9  C    0.313214  -0.051829   0.005737   0.000503  -0.032233  -0.008415
    10  C   -0.039634   0.006101  -0.000769  -0.000867   0.003747  -0.000802
    11  H   -0.048718  -0.004238  -0.000118   0.000032   0.004651   0.001107
    12  H   -0.006000  -0.000266   0.005659   0.001271  -0.000131   0.000698
    13  O   -0.025177   0.005007  -0.016340   0.000612   0.001566   0.000020
    14  H   -0.010438   0.000729   0.045428  -0.001523   0.000063   0.000031
    15  C    0.002265  -0.000089   0.000197  -0.000001  -0.000136  -0.000444
    16  O   -0.000051   0.000000  -0.000000  -0.000001   0.000000   0.000000
    17  H   -0.000251   0.000002  -0.000002  -0.000000  -0.000026   0.000470
    18  H    0.000344  -0.000008  -0.000000  -0.000002  -0.000008   0.000001
    19  H   -0.000004  -0.000000  -0.000002  -0.000001  -0.000000   0.000001
    20  H    0.000056  -0.000217   0.002285   0.002739   0.002347   0.000472
    21  O    0.001099  -0.000082  -0.028679   0.063753   0.000056   0.000087
    22  H   -0.000017   0.000001   0.000062  -0.000450   0.000000   0.000001
    23  C    0.291185  -0.047721   0.216309  -0.045895  -0.046266  -0.006068
    24  H   -0.050311  -0.007857  -0.037963   0.002843   0.005128  -0.000657
    25  C    4.947488   0.378100  -0.044121   0.005154   0.238524  -0.036039
    26  H    0.378100   0.582108   0.002060  -0.000507  -0.034661   0.006365
    27  O   -0.044121   0.002060   8.330145   0.216618   0.001485  -0.000022
    28  H    0.005154  -0.000507   0.216618   0.352393  -0.000104  -0.000002
    29  O    0.238524  -0.034661   0.001485  -0.000104   8.277612   0.233425
    30  H   -0.036039   0.006365  -0.000022  -0.000002   0.233425   0.365656
 Mulliken charges:
               1
     1  C    0.303151
     2  O   -0.681513
     3  H    0.429943
     4  H    0.398238
     5  O   -0.825035
     6  H    0.439081
     7  O   -0.854593
     8  H    0.468240
     9  C    0.086832
    10  C    0.124655
    11  H    0.147410
    12  H    0.132977
    13  O   -0.652025
    14  H    0.418376
    15  C   -0.088176
    16  O   -0.628800
    17  H    0.172661
    18  H    0.170533
    19  H    0.408630
    20  H    0.139215
    21  O   -0.563656
    22  H    0.441843
    23  C    0.069737
    24  H    0.151412
    25  C    0.109657
    26  H    0.162509
    27  O   -0.669390
    28  H    0.421614
    29  O   -0.643394
    30  H    0.409869
 Sum of Mulliken charges =  -0.00000
 Mulliken charges with hydrogens summed into heavy atoms:
               1
     1  C    0.442366
     2  O   -0.213273
     5  O    0.015047
     7  O    0.014431
     9  C    0.234243
    10  C    0.257632
    13  O   -0.233650
    15  C    0.255018
    16  O   -0.220170
    21  O   -0.563656
    23  C    0.221149
    25  C    0.272166
    27  O   -0.247776
    29  O   -0.233525
 APT charges:
               1
     1  C   -0.261915
     2  O   -0.506069
     3  H    0.477305
     4  H    0.902306
     5  O   -1.091417
     6  H    0.467748
     7  O   -0.938277
     8  H    0.481550
     9  C   -0.351247
    10  C   -0.087631
    11  H    0.492248
    12  H    0.236798
    13  O   -0.595810
    14  H    0.452469
    15  C   -0.777316
    16  O   -0.715914
    17  H    0.445894
    18  H    0.512964
    19  H    0.606218
    20  H    0.428342
    21  O   -0.410079
    22  H    0.197224
    23  C   -0.403942
    24  H    0.574300
    25  C   -0.488835
    26  H    0.624773
    27  O   -0.594367
    28  H    0.448714
    29  O   -0.461341
    30  H    0.335306
 Sum of APT charges =  -0.00000
 APT charges with hydrogens summed into heavy atoms:
               1
     1  C    0.166428
     2  O   -0.024519
     5  O    0.008114
     7  O    0.006776
     9  C    0.141001
    10  C    0.149167
    13  O   -0.143341
    15  C    0.181541
    16  O   -0.109696
    21  O   -0.410079
    23  C    0.170359
    25  C    0.135938
    27  O   -0.145654
    29  O   -0.126034
 Electronic spatial extent (au):  <R**2>=           2969.0168
 Charge=              0.0000 electrons
 Dipole moment (field-independent basis, Debye):
    X=              2.3522    Y=             -0.4781    Z=             -0.4702  Tot=              2.4459
 Quadrupole moment (field-independent basis, Debye-Ang):
   XX=            -93.4558   YY=            -77.3481   ZZ=            -86.9055
   XY=             -2.0812   XZ=             -1.2495   YZ=             -4.6624
 Traceless Quadrupole moment (field-independent basis, Debye-Ang):
   XX=             -7.5527   YY=              8.5550   ZZ=             -1.0023
   XY=             -2.0812   XZ=             -1.2495   YZ=             -4.6624
 Octapole moment (field-independent basis, Debye-Ang**2):
  XXX=             30.7034  YYY=            -21.5329  ZZZ=            -21.2321  XYY=             24.7969
  XXY=            -27.1731  XXZ=             -3.2691  XZZ=             18.0985  YZZ=              4.5897
  YYZ=              8.8618  XYZ=            -19.3443
 Hexadecapole moment (field-independent basis, Debye-Ang**3):
 XXXX=          -1802.7986 YYYY=          -1126.5983 ZZZZ=           -493.0185 XXXY=            -61.1029
 XXXZ=             16.6752 YYYX=            -79.1306 YYYZ=            -15.7020 ZZZX=             18.2746
 ZZZY=             -2.2281 XXYY=           -452.8210 XXZZ=           -456.1671 YYZZ=           -268.3903
 XXYZ=            -34.0941 YYXZ=            -13.3390 ZZXY=             14.4926
 N-N= 1.127924466948D+03 E-N=-4.227795236776D+03  KE= 8.329591536681D+02
  Exact polarizability:   0.000   0.000   0.000   0.000   0.000   0.000
 Approx polarizability: 136.849  -4.932 129.845  -1.422   4.503 138.044

 This type of calculation cannot be archived.


 MORNING PEOPLE ARE USUALLY ADMIRED AS EARLY BIRDS.
 RECALL BEN FRANKLIN'S APHORISM THAT THE EARLY BIRD GETS THE WORM.
 I IDENTIFY WITH THE WORM. --  CRAIG JAGGER, MINNEAPOLIS, KS.
 Job cpu time:       0 days  1 hours 41 minutes 10.1 seconds.
 File lengths (MBytes):  RWF=    220 Int=      0 D2E=      0 Chk=      9 Scr=      1
 Normal termination of Gaussian 09 at Sat Jan 14 01:43:08 2017.
