 Entering Gaussian System, Link 0=g09
 Initial command:
 /global/software/gaussian/g09.e01/l1.exe "/scratch/10461057.yak.local/Gau-20708.inp" -scrdir="/scratch/10461057.yak.local/"
 Entering Link 1 = /global/software/gaussian/g09.e01/l1.exe PID=     20709.
  
 Copyright (c) 1988,1990,1992,1993,1995,1998,2003,2009,2015,
            Gaussian, Inc.  All Rights Reserved.
  
 This is part of the Gaussian(R) 09 program.  It is based on
 the Gaussian(R) 03 system (copyright 2003, Gaussian, Inc.),
 the Gaussian(R) 98 system (copyright 1998, Gaussian, Inc.),
 the Gaussian(R) 94 system (copyright 1995, Gaussian, Inc.),
 the Gaussian 92(TM) system (copyright 1992, Gaussian, Inc.),
 the Gaussian 90(TM) system (copyright 1990, Gaussian, Inc.),
 the Gaussian 88(TM) system (copyright 1988, Gaussian, Inc.),
 the Gaussian 86(TM) system (copyright 1986, Carnegie Mellon
 University), and the Gaussian 82(TM) system (copyright 1983,
 Carnegie Mellon University). Gaussian is a federally registered
 trademark of Gaussian, Inc.
  
 This software contains proprietary and confidential information,
 including trade secrets, belonging to Gaussian, Inc.
  
 This software is provided under written license and may be
 used, copied, transmitted, or stored only in accord with that
 written license.
  
 The following legend is applicable only to US Government
 contracts under FAR:
  
                    RESTRICTED RIGHTS LEGEND
  
 Use, reproduction and disclosure by the US Government is
 subject to restrictions as set forth in subparagraphs (a)
 and (c) of the Commercial Computer Software - Restricted
 Rights clause in FAR 52.227-19.
  
 Gaussian, Inc.
 340 Quinnipiac St., Bldg. 40, Wallingford CT 06492
  
  
 ---------------------------------------------------------------
 Warning -- This program may not be used in any manner that
 competes with the business of Gaussian, Inc. or will provide
 assistance to any competitor of Gaussian, Inc.  The licensee
 of this program is prohibited from giving any competitor of
 Gaussian, Inc. access to this program.  By using this program,
 the user acknowledges that Gaussian, Inc. is engaged in the
 business of creating and licensing software in the field of
 computational chemistry and represents and warrants to the
 licensee that it is not a competitor of Gaussian, Inc. and that
 it will not use this program in any manner prohibited above.
 ---------------------------------------------------------------
  

 Cite this work as:
 Gaussian 09, Revision E.01,
 M. J. Frisch, G. W. Trucks, H. B. Schlegel, G. E. Scuseria, 
 M. A. Robb, J. R. Cheeseman, G. Scalmani, V. Barone, B. Mennucci, 
 G. A. Petersson, H. Nakatsuji, M. Caricato, X. Li, H. P. Hratchian, 
 A. F. Izmaylov, J. Bloino, G. Zheng, J. L. Sonnenberg, M. Hada, 
 M. Ehara, K. Toyota, R. Fukuda, J. Hasegawa, M. Ishida, T. Nakajima, 
 Y. Honda, O. Kitao, H. Nakai, T. Vreven, J. A. Montgomery, Jr., 
 J. E. Peralta, F. Ogliaro, M. Bearpark, J. J. Heyd, E. Brothers, 
 K. N. Kudin, V. N. Staroverov, T. Keith, R. Kobayashi, J. Normand, 
 K. Raghavachari, A. Rendell, J. C. Burant, S. S. Iyengar, J. Tomasi, 
 M. Cossi, N. Rega, J. M. Millam, M. Klene, J. E. Knox, J. B. Cross, 
 V. Bakken, C. Adamo, J. Jaramillo, R. Gomperts, R. E. Stratmann, 
 O. Yazyev, A. J. Austin, R. Cammi, C. Pomelli, J. W. Ochterski, 
 R. L. Martin, K. Morokuma, V. G. Zakrzewski, G. A. Voth, 
 P. Salvador, J. J. Dannenberg, S. Dapprich, A. D. Daniels, 
 O. Farkas, J. B. Foresman, J. V. Ortiz, J. Cioslowski, 
 and D. J. Fox, Gaussian, Inc., Wallingford CT, 2013.
 
 ******************************************
 Gaussian 09:  ES64L-G09RevE.01 30-Nov-2015
                14-Jan-2017 
 ******************************************
 -------------------------------------
 # b3lyp/6-31g(d) irc=(calcfc,forward)
 -------------------------------------
 1/10=4,14=-1,18=10,22=1,26=3,38=1,44=3/1,23;
 2/12=2,17=6,18=5,29=1,40=1/2;
 3/5=1,6=6,7=1,11=2,16=1,25=1,30=1,71=2,74=-5,140=1/1,2,3;
 4//1;
 5/5=2,38=5/2;
 8/6=4,10=90,11=11/1;
 11/6=1,8=1,9=11,15=111,16=1/1,2,10;
 10/6=1,13=1/2;
 6/7=2,8=2,9=2,10=2,28=1/1;
 7/10=1,18=20,25=1/1,2,3,16;
 1/10=4,14=-1,18=10,22=1,26=3,44=3/23(2);
 2/29=1/2;
 99/5=20/99;
 2/29=1/2;
 3/5=1,6=6,7=1,11=2,16=1,25=1,30=1,71=2,74=-5,140=1/1,2,3;
 4/5=5,16=3,69=1/1;
 5/5=2,38=5/2;
 8/6=4,10=90,11=11/1;
 11/6=1,8=1,9=11,15=111,16=1/1,2,10;
 10/6=1,13=1/2;
 7/10=1,18=20,25=1/1,2,3,16;
 1/14=-1,18=10,22=1,26=3,44=3/23(-8);
 2/29=1/2;
 6/7=2,8=2,9=2,10=2,19=2,28=1/1;
 99/5=20,9=1/99;
 ---------------------------------
 glo_1w_alpha_ts_boat2_B3LYP_631Gd
 ---------------------------------
 Symbolic Z-matrix:
 Charge =  0 Multiplicity = 1
 6                    -1.49077  -1.32721  -0.3705 
 8                    -1.17816   0.28186  -0.82409 
 1                    -3.99845   0.5653   -1.49898 
 8                    -3.53082   0.65812  -0.65232 
 1                    -2.32003   0.67647  -0.83709 
 6                     1.05373   0.34927  -0.07715 
 6                    -0.32118   1.01159   0.07455 
 1                     1.39127   0.53145  -1.10127 
 1                    -0.68311   0.92195   1.10471 
 8                     2.04608   0.9998    0.75545 
 1                     1.84803   0.76613   1.67936 
 6                    -0.32175   2.49228  -0.33058 
 8                     0.39207   3.291     0.59362 
 1                    -1.35269   2.86266  -0.33562 
 1                     0.07194   2.58648  -1.357 
 1                     1.27612   2.89127   0.67316 
 1                    -1.44716  -1.72334  -1.39365 
 8                    -2.63475  -1.36012   0.26323 
 1                    -3.37659  -0.37095  -0.20654 
 8                     4.00344  -0.5876   -0.61602 
 1                     4.41578  -0.07439  -1.327 
 1                     3.59269   0.07853  -0.02842 
 6                     1.05381  -1.19462   0.13028 
 1                     1.70514  -1.40322   0.99495 
 6                    -0.31479  -1.76484   0.51035 
 1                    -0.24711  -2.85994   0.40759 
 8                    -0.58182  -1.39226   1.85038 
 1                    -1.56269  -1.37287   1.88914 
 8                     1.51759  -1.87221  -1.01827 
 1                     2.46349  -1.62316  -1.10077 
 
 IRC-IRC-IRC-IRC-IRC-IRC-IRC-IRC-IRC-IRC-IRC-IRC-IRC-IRC-IRC-IRC-IRC-IRC
 ------------------------------------------------------------------------
 INPUT DATA FOR L123
 ------------------------------------------------------------------------
 GENERAL PARAMETERS:
 Rxn path following direction = Forward
 Maximum points per path      =  10
 Step size                    =   0.100 bohr
 Integration scheme           = HPC                                 
    Redo corrector integration= Yes                                 
    DWI Weight Power          =  2
    DWI will use Hessian update vectors when possible.
    Max correction cycles     =  20
 Initial Hessian              = CalcFC
 Hessian evaluation           = All updating
 Hessian updating method      = Bofill                              
 ------------------------------------------------------------------------
 IRC-IRC-IRC-IRC-IRC-IRC-IRC-IRC-IRC-IRC-IRC-IRC-IRC-IRC-IRC-IRC-IRC-IRC
                          Input orientation:                          
 ---------------------------------------------------------------------
 Center     Atomic      Atomic             Coordinates (Angstroms)
 Number     Number       Type             X           Y           Z
 ---------------------------------------------------------------------
      1          6           0       -1.490768   -1.327205   -0.370502
      2          8           0       -1.178156    0.281858   -0.824093
      3          1           0       -3.998446    0.565297   -1.498982
      4          8           0       -3.530820    0.658120   -0.652315
      5          1           0       -2.320033    0.676470   -0.837091
      6          6           0        1.053725    0.349273   -0.077148
      7          6           0       -0.321181    1.011588    0.074545
      8          1           0        1.391271    0.531447   -1.101266
      9          1           0       -0.683108    0.921954    1.104705
     10          8           0        2.046081    0.999800    0.755445
     11          1           0        1.848028    0.766128    1.679359
     12          6           0       -0.321745    2.492276   -0.330575
     13          8           0        0.392068    3.291000    0.593622
     14          1           0       -1.352689    2.862661   -0.335624
     15          1           0        0.071940    2.586483   -1.357000
     16          1           0        1.276123    2.891267    0.673160
     17          1           0       -1.447161   -1.723341   -1.393648
     18          8           0       -2.634754   -1.360123    0.263230
     19          1           0       -3.376588   -0.370945   -0.206541
     20          8           0        4.003439   -0.587600   -0.616022
     21          1           0        4.415775   -0.074387   -1.327000
     22          1           0        3.592693    0.078526   -0.028418
     23          6           0        1.053806   -1.194617    0.130275
     24          1           0        1.705138   -1.403218    0.994949
     25          6           0       -0.314790   -1.764836    0.510346
     26          1           0       -0.247108   -2.859944    0.407588
     27          8           0       -0.581816   -1.392255    1.850375
     28          1           0       -1.562686   -1.372865    1.889137
     29          8           0        1.517592   -1.872206   -1.018268
     30          1           0        2.463486   -1.623160   -1.100769
 ---------------------------------------------------------------------
                    Distance matrix (angstroms):
                    1          2          3          4          5
     1  C    0.000000
     2  O    1.700751   0.000000
     3  H    3.338185   2.913734   0.000000
     4  O    2.860550   2.388746   0.971666   0.000000
     5  H    2.218130   1.208210   1.807631   1.224942   0.000000
     6  C    3.061222   2.354520   5.252876   4.630794   3.473732
     7  C    2.652537   1.440299   4.024604   3.309841   2.222340
     8  H    3.506387   2.596358   5.404477   4.944146   3.723520
     9  H    2.808428   2.091664   4.230586   3.356515   2.551540
    10  O    4.380869   3.661432   6.465875   5.761975   4.658719
    11  H    4.442019   3.957219   6.657585   5.863478   4.869630
    12  C    3.994577   2.421352   4.312372   3.710230   2.747156
    13  O    5.079609   3.678377   5.575398   4.886048   4.029665
    14  H    4.192286   2.632415   3.692061   3.115212   2.442674
    15  H    4.328070   2.675449   4.546800   4.146691   3.104833
    16  H    5.151740   3.882559   6.160310   5.463564   4.485368
    17  H    1.098022   2.101804   3.428996   3.250010   2.613571
    18  O    1.308206   2.449500   2.944875   2.390494   2.336122
    19  H    2.120762   2.375000   1.712793   1.132023   1.615853
    20  O    5.549199   5.258153   8.132586   7.636635   6.452367
    21  H    6.113239   5.627778   8.440254   8.008754   6.795212
    22  H    5.285327   4.841017   7.747574   7.174233   5.997651
    23  C    2.596770   2.841206   5.592587   5.006384   3.977380
    24  H    3.476212   3.802865   6.528829   5.863263   4.887072
    25  C    1.533081   2.591348   4.799608   4.191103   3.434612
    26  H    2.121651   3.500687   5.425848   4.927772   4.283978
    27  O    2.400567   3.211083   5.169484   4.377684   3.810970
    28  H    2.261244   3.201185   4.600951   3.802293   3.493661
    29  O    3.125197   3.456118   6.049726   5.658881   4.610416
    30  H    4.031998   4.119126   6.834068   6.429390   5.314121
                    6          7          8          9         10
     6  C    0.000000
     7  C    1.533636   0.000000
     8  H    1.093591   2.132032   0.000000
     9  H    2.177459   1.095562   3.053171   0.000000
    10  O    1.449540   2.463269   2.023736   2.752547   0.000000
    11  H    1.972309   2.709455   2.827645   2.600223   0.973368
    12  C    2.559024   1.535109   2.715371   2.157898   3.002253
    13  O    3.088929   2.444153   3.389127   2.651337   2.830467
    14  H    3.489235   2.158406   3.681044   2.507834   4.026453
    15  H    2.758085   2.164292   2.455444   3.066064   3.298063
    16  H    2.659729   2.538289   2.954758   2.811229   2.043833
    17  H    3.504758   3.302008   3.636791   3.717947   4.923092
    18  O    4.079555   3.318619   4.652823   3.118474   5.265143
    19  H    4.490337   3.365400   4.934301   3.262788   5.675359
    20  O    3.141485   4.662255   2.882906   5.215686   2.869148
    21  H    3.611786   5.057907   3.092833   5.736244   3.332552
    22  H    2.553828   4.024875   2.490462   4.503089   1.963465
    23  C    1.557761   2.600199   2.147061   2.906244   2.488155
    24  H    2.155216   3.283961   2.869766   3.334995   2.438873
    25  C    2.586008   2.810426   3.283421   2.776286   3.643761
    26  H    3.496600   3.886536   4.057396   3.870248   4.503037
    27  O    3.069733   2.999994   4.038055   2.433485   3.718419
    28  H    3.698330   3.243408   4.614626   2.579765   4.465198
    29  O    2.456796   3.590487   2.408401   4.142152   3.416691
    30  H    2.631676   4.009692   2.406653   4.608988   3.240320
                   11         12         13         14         15
    11  H    0.000000
    12  C    3.424520   0.000000
    13  O    3.110245   1.414789   0.000000
    14  H    4.324372   1.095471   2.022659   0.000000
    15  H    3.960765   1.103364   2.098512   1.774557   0.000000
    16  H    2.419861   1.928694   0.973481   2.815869   2.380021
    17  H    5.147728   4.490892   5.698739   4.707415   4.569857
    18  O    5.159622   4.532504   5.559115   4.453563   5.052429
    19  H    5.669759   4.188733   5.315343   3.816941   4.686393
    20  O    3.427412   5.317361   5.435879   6.377384   5.106911
    21  H    4.042027   5.479481   5.586129   6.548607   5.094117
    22  H    2.536366   4.608721   4.577218   5.683536   4.522243
    23  C    2.622017   3.962033   4.557779   4.740230   4.180044
    24  H    2.279232   4.586953   4.890900   5.414652   4.910877
    25  C    3.528477   4.339378   5.105689   4.817326   4.750844
    26  H    4.376688   5.403398   6.186862   5.875618   5.734033
    27  O    3.254536   4.462484   4.945782   4.845322   5.152185
    28  H    4.031410   4.626702   5.220255   4.788877   5.374555
    29  O    3.787768   4.785894   5.524825   5.578842   4.699421
    30  H    3.717068   5.028670   5.595597   5.938959   4.848324
                   16         17         18         19         20
    16  H    0.000000
    17  H    5.743046   0.000000
    18  O    5.791141   2.070640   0.000000
    19  H    5.750097   2.638349   1.322677   0.000000
    20  O    4.604645   5.621712   6.740585   7.394553   0.000000
    21  H    4.759533   6.090773   7.341111   7.878090   0.968968
    22  H    3.710825   5.523650   6.398114   6.986031   0.978629
    23  C    4.127784   2.976025   3.694664   4.518879   3.102541
    24  H    4.327841   3.967980   4.401356   5.322885   2.922781
    25  C    4.923089   2.215667   2.367930   3.439690   4.615376
    26  H    5.955434   2.444677   2.823324   4.045481   4.927319
    27  O    4.815219   3.373741   2.595114   3.617282   5.268315
    28  H    5.265003   3.303461   1.947579   2.947194   6.154203
    29  O    5.060624   2.992128   4.375665   5.183212   2.826915
    30  H    4.993667   3.922878   5.284102   6.039383   1.918025
                   21         22         23         24         25
    21  H    0.000000
    22  H    1.545044   0.000000
    23  C    3.831632   2.844648   0.000000
    24  H    3.808516   2.608775   1.102456   0.000000
    25  C    5.348991   4.353926   1.530575   2.108487   0.000000
    26  H    5.701807   4.854769   2.131336   2.505655   1.101999
    27  O    6.066993   4.808283   2.381819   2.441727   1.416262
    28  H    6.911699   5.688716   3.157752   3.388092   1.900513
    29  O    3.424461   3.015162   1.411869   2.075612   2.388684
    30  H    2.502261   2.306682   1.919978   2.239531   3.214744
                   26         27         28         29         30
    26  H    0.000000
    27  O    2.085132   0.000000
    28  H    2.477325   0.981827   0.000000
    29  O    2.474441   3.587057   4.265027   0.000000
    30  H    3.339475   4.246932   5.021180   0.981604   0.000000
 Symmetry turned off by external request.
 Stoichiometry    C6H16O8
 Framework group  C1[X(C6H16O8)]
 Deg. of freedom    84
 Full point group                 C1      NOp   1
 Rotational constants (GHZ):      0.7597961      0.5135090      0.3678789
 Standard basis: 6-31G(d) (6D, 7F)
   242 basis functions,   456 primitive gaussians,   242 cartesian basis functions
    58 alpha electrons       58 beta electrons
       nuclear repulsion energy      1115.0818958172 Hartrees.
 NAtoms=   30 NActive=   30 NUniq=   30 SFac= 1.00D+00 NAtFMM=   60 NAOKFM=F Big=F
 Integral buffers will be    131072 words long.
 Raffenetti 2 integral format.
 Two-electron integral symmetry is turned off.
 One-electron integrals computed using PRISM.
 NBasis=   242 RedAO= T EigKep=  1.43D-03  NBF=   242
 NBsUse=   242 1.00D-06 EigRej= -1.00D+00 NBFU=   242
 ExpMin= 1.61D-01 ExpMax= 5.48D+03 ExpMxC= 8.25D+02 IAcc=1 IRadAn=         1 AccDes= 0.00D+00
 Harris functional with IExCor=  402 and IRadAn=       1 diagonalized for initial guess.
 HarFok:  IExCor=  402 AccDes= 0.00D+00 IRadAn=         1 IDoV= 1 UseB2=F ITyADJ=14
 ICtDFT=  3500011 ScaDFX=  1.000000  1.000000  1.000000  1.000000
 FoFCou: FMM=F IPFlag=           0 FMFlag=      100000 FMFlg1=           0
         NFxFlg=           0 DoJE=T BraDBF=F KetDBF=T FulRan=T
         wScrn=  0.000000 ICntrl=     500 IOpCl=  0 I1Cent=   200000004 NGrid=           0
         NMat0=    1 NMatS0=      1 NMatT0=    0 NMatD0=    1 NMtDS0=    0 NMtDT0=    0
 Symmetry not used in FoFCou.
 Requested convergence on RMS density matrix=1.00D-08 within 128 cycles.
 Requested convergence on MAX density matrix=1.00D-06.
 Requested convergence on             energy=1.00D-06.
 No special actions if energy rises.
 Integral accuracy reduced to 1.0D-05 until final iterations.
 Initial convergence to 1.0D-05 achieved.  Increase integral accuracy.
 SCF Done:  E(RB3LYP) =  -839.960269526     A.U. after   14 cycles
            NFock= 14  Conv=0.54D-08     -V/T= 2.0086
 DoSCS=F DFT=T ScalE2(SS,OS)=  1.000000  1.000000
 Range of M.O.s used for correlation:     1   242
 NBasis=   242 NAE=    58 NBE=    58 NFC=     0 NFV=     0
 NROrb=    242 NOA=    58 NOB=    58 NVA=   184 NVB=   184
 Symmetrizing basis deriv contribution to polar:
 IMax=3 JMax=2 DiffMx= 0.00D+00
 G2DrvN: will do    31 centers at a time, making    1 passes.
 Calling FoFCou, ICntrl=  3107 FMM=F I1Cent=   0 AccDes= 0.00D+00.
 End of G2Drv F.D. properties file   721 does not exist.
 End of G2Drv F.D. properties file   722 does not exist.
 End of G2Drv F.D. properties file   788 does not exist.
          IDoAtm=111111111111111111111111111111
          Differentiating once with respect to nuclear coordinates.
          There are    93 degrees of freedom in the 1st order CPHF.  IDoFFX=6 NUNeed=     0.
     87 vectors produced by pass  0 Test12= 1.15D-14 1.08D-09 XBig12= 1.26D-01 8.84D-02.
 AX will form    87 AO Fock derivatives at one time.
     87 vectors produced by pass  1 Test12= 1.15D-14 1.08D-09 XBig12= 3.34D-02 3.19D-02.
     87 vectors produced by pass  2 Test12= 1.15D-14 1.08D-09 XBig12= 3.54D-04 2.94D-03.
     87 vectors produced by pass  3 Test12= 1.15D-14 1.08D-09 XBig12= 1.18D-06 1.03D-04.
     87 vectors produced by pass  4 Test12= 1.15D-14 1.08D-09 XBig12= 1.91D-09 3.21D-06.
     66 vectors produced by pass  5 Test12= 1.15D-14 1.08D-09 XBig12= 1.63D-12 9.42D-08.
      1 vectors produced by pass  6 Test12= 1.15D-14 1.08D-09 XBig12= 1.07D-15 2.23D-09.
 InvSVY:  IOpt=1 It=  1 EMax= 4.72D-16
 Solved reduced A of dimension   502 with    93 vectors.
 End of Minotr F.D. properties file   721 does not exist.
 End of Minotr F.D. properties file   722 does not exist.
 End of Minotr F.D. properties file   788 does not exist.

 **********************************************************************

            Population analysis using the SCF density.

 **********************************************************************

 Alpha  occ. eigenvalues --  -19.19730 -19.18757 -19.17819 -19.16250 -19.14247
 Alpha  occ. eigenvalues --  -19.14188 -19.13436 -19.12255 -10.29262 -10.25601
 Alpha  occ. eigenvalues --  -10.25181 -10.24424 -10.23902 -10.23899  -1.07546
 Alpha  occ. eigenvalues --   -1.06149  -1.02975  -1.02235  -1.01983  -1.01324
 Alpha  occ. eigenvalues --   -1.00980  -0.98850  -0.78259  -0.75596  -0.69358
 Alpha  occ. eigenvalues --   -0.65108  -0.62922  -0.57962  -0.56859  -0.54573
 Alpha  occ. eigenvalues --   -0.53737  -0.53557  -0.52252  -0.51294  -0.49090
 Alpha  occ. eigenvalues --   -0.48394  -0.47138  -0.44867  -0.44468  -0.42984
 Alpha  occ. eigenvalues --   -0.42141  -0.41464  -0.40226  -0.39570  -0.38865
 Alpha  occ. eigenvalues --   -0.37574  -0.35978  -0.35791  -0.34989  -0.33844
 Alpha  occ. eigenvalues --   -0.32321  -0.30983  -0.30163  -0.28770  -0.27861
 Alpha  occ. eigenvalues --   -0.26353  -0.26096  -0.25234
 Alpha virt. eigenvalues --    0.03316   0.04504   0.05704   0.06322   0.09398
 Alpha virt. eigenvalues --    0.09719   0.11170   0.12219   0.13124   0.14237
 Alpha virt. eigenvalues --    0.15813   0.16745   0.17570   0.18245   0.18938
 Alpha virt. eigenvalues --    0.19559   0.20504   0.20789   0.21945   0.23810
 Alpha virt. eigenvalues --    0.24686   0.25183   0.26379   0.27862   0.29217
 Alpha virt. eigenvalues --    0.30554   0.33467   0.34807   0.51881   0.52963
 Alpha virt. eigenvalues --    0.53733   0.54503   0.55030   0.56641   0.59724
 Alpha virt. eigenvalues --    0.60773   0.61409   0.62990   0.64708   0.65190
 Alpha virt. eigenvalues --    0.66912   0.67848   0.70561   0.71769   0.74380
 Alpha virt. eigenvalues --    0.75528   0.76961   0.78303   0.78673   0.79265
 Alpha virt. eigenvalues --    0.81540   0.82306   0.83986   0.84451   0.85371
 Alpha virt. eigenvalues --    0.86177   0.86751   0.87698   0.88296   0.88699
 Alpha virt. eigenvalues --    0.90695   0.92064   0.92660   0.93698   0.94130
 Alpha virt. eigenvalues --    0.96720   0.97161   0.98362   1.00953   1.01849
 Alpha virt. eigenvalues --    1.02790   1.03781   1.05752   1.07866   1.09442
 Alpha virt. eigenvalues --    1.10753   1.12158   1.13599   1.14194   1.15728
 Alpha virt. eigenvalues --    1.16173   1.17892   1.19244   1.22899   1.24166
 Alpha virt. eigenvalues --    1.26424   1.30361   1.32783   1.33845   1.36678
 Alpha virt. eigenvalues --    1.40133   1.43220   1.44607   1.45584   1.47897
 Alpha virt. eigenvalues --    1.48979   1.54533   1.56024   1.58663   1.61185
 Alpha virt. eigenvalues --    1.61426   1.62637   1.63666   1.66602   1.68447
 Alpha virt. eigenvalues --    1.69864   1.70503   1.71142   1.73669   1.74627
 Alpha virt. eigenvalues --    1.75135   1.75835   1.78229   1.78840   1.79924
 Alpha virt. eigenvalues --    1.80572   1.82498   1.83361   1.86220   1.87320
 Alpha virt. eigenvalues --    1.89334   1.89627   1.91029   1.92419   1.93388
 Alpha virt. eigenvalues --    1.95478   1.98786   2.00146   2.03737   2.05112
 Alpha virt. eigenvalues --    2.08666   2.09135   2.09655   2.10849   2.13352
 Alpha virt. eigenvalues --    2.17104   2.21608   2.23227   2.24885   2.27913
 Alpha virt. eigenvalues --    2.30889   2.31407   2.34545   2.37519   2.37832
 Alpha virt. eigenvalues --    2.39472   2.42902   2.47115   2.48028   2.50292
 Alpha virt. eigenvalues --    2.52394   2.53215   2.55704   2.56582   2.58665
 Alpha virt. eigenvalues --    2.59235   2.60194   2.64504   2.66737   2.68634
 Alpha virt. eigenvalues --    2.71331   2.77214   2.83348   2.85653   2.89080
 Alpha virt. eigenvalues --    2.90875   2.93747   2.96849   3.00522   3.04310
 Alpha virt. eigenvalues --    3.69195   3.74180   3.78198   3.81544   3.90697
 Alpha virt. eigenvalues --    3.96086   4.07183   4.12796   4.28426   4.35597
 Alpha virt. eigenvalues --    4.39080   4.51775   4.62376   4.78825
          Condensed to atoms (all electrons):
               1          2          3          4          5          6
     1  C    4.779274   0.068636   0.000485   0.018215  -0.011225  -0.019972
     2  O    0.068636   8.624518   0.003892  -0.098129   0.112900  -0.041019
     3  H    0.000485   0.003892   0.360786   0.227188  -0.003214   0.000002
     4  O    0.018215  -0.098129   0.227188   8.493118   0.131284  -0.000095
     5  H   -0.011225   0.112900  -0.003214   0.131284   0.307668   0.001682
     6  C   -0.019972  -0.041019   0.000002  -0.000095   0.001682   5.131318
     7  C   -0.006480   0.121610  -0.000164   0.005116  -0.012950   0.303447
     8  H    0.001422   0.004048  -0.000000   0.000001  -0.000008   0.345240
     9  H    0.000573  -0.033066  -0.000018   0.000217   0.000946  -0.054538
    10  O    0.000132   0.001400  -0.000000   0.000000  -0.000012   0.161590
    11  H    0.000108  -0.000036   0.000000  -0.000000   0.000002  -0.025849
    12  C    0.000887  -0.026652   0.000060  -0.000959  -0.001950  -0.027047
    13  O   -0.000015   0.001363   0.000000   0.000002   0.000057  -0.000749
    14  H   -0.000119  -0.000056  -0.000053   0.001512   0.004380   0.005216
    15  H   -0.000074   0.005208  -0.000001   0.000009   0.000211  -0.014367
    16  H   -0.000004   0.000026   0.000000  -0.000000   0.000016   0.000253
    17  H    0.362139  -0.044995   0.000167   0.000134   0.000950   0.000814
    18  O    0.324946  -0.050672   0.004236  -0.096835   0.012051   0.000349
    19  H   -0.022492   0.008029  -0.003437   0.136729  -0.020061  -0.000001
    20  O   -0.000000   0.000000  -0.000000  -0.000000   0.000000   0.006350
    21  H    0.000000  -0.000000   0.000000  -0.000000   0.000000   0.000119
    22  H   -0.000004  -0.000010   0.000000  -0.000000   0.000000  -0.006970
    23  C   -0.029622   0.001177  -0.000003   0.000034  -0.000072   0.295242
    24  H    0.006658   0.000111   0.000000  -0.000000   0.000005  -0.074546
    25  C    0.278962  -0.011326   0.000041  -0.000400   0.001810  -0.030051
    26  H   -0.044897   0.002191  -0.000000   0.000003  -0.000097   0.006123
    27  O   -0.024835  -0.001198   0.000000  -0.000012  -0.000187   0.003816
    28  H   -0.013503   0.000222  -0.000005   0.000268  -0.000079  -0.000202
    29  O    0.004330  -0.000387   0.000000  -0.000000   0.000008  -0.050154
    30  H   -0.000169  -0.000015  -0.000000   0.000000   0.000001   0.000594
               7          8          9         10         11         12
     1  C   -0.006480   0.001422   0.000573   0.000132   0.000108   0.000887
     2  O    0.121610   0.004048  -0.033066   0.001400  -0.000036  -0.026652
     3  H   -0.000164  -0.000000  -0.000018  -0.000000   0.000000   0.000060
     4  O    0.005116   0.000001   0.000217   0.000000  -0.000000  -0.000959
     5  H   -0.012950  -0.000008   0.000946  -0.000012   0.000002  -0.001950
     6  C    0.303447   0.345240  -0.054538   0.161590  -0.025849  -0.027047
     7  C    5.043049  -0.034045   0.351252  -0.027945  -0.001909   0.325146
     8  H   -0.034045   0.583900   0.006090  -0.037773   0.006866  -0.010456
     9  H    0.351252   0.006090   0.593234   0.001032   0.004660  -0.045734
    10  O   -0.027945  -0.037773   0.001032   8.289795   0.232043   0.000075
    11  H   -0.001909   0.006866   0.004660   0.232043   0.365872  -0.000936
    12  C    0.325146  -0.010456  -0.045734   0.000075  -0.000936   4.874141
    13  O   -0.036937   0.000058   0.006149  -0.011973   0.001801   0.266940
    14  H   -0.034654  -0.000002  -0.006249  -0.000095   0.000009   0.372922
    15  H   -0.047277   0.007762   0.006916   0.000428   0.000124   0.344788
    16  H   -0.008535  -0.000530  -0.000681   0.038106  -0.001939  -0.031805
    17  H    0.003451   0.000108   0.000283  -0.000000  -0.000000  -0.000108
    18  O    0.000513   0.000002   0.002588   0.000000  -0.000001  -0.000081
    19  H   -0.000478   0.000001  -0.000096  -0.000000   0.000000  -0.000005
    20  O    0.000187   0.004196  -0.000000  -0.014760   0.000527  -0.000003
    21  H    0.000003   0.000587   0.000000   0.000373   0.000004  -0.000000
    22  H    0.000584  -0.002756  -0.000024   0.048089  -0.002145  -0.000013
    23  C   -0.038948  -0.045579  -0.007122  -0.025939  -0.005444   0.003409
    24  H    0.004021   0.005205   0.000161   0.001214   0.006736  -0.000181
    25  C   -0.002152   0.000503  -0.005653   0.001789  -0.000345   0.000316
    26  H    0.000194  -0.000256   0.000275  -0.000084  -0.000004   0.000015
    27  O   -0.005131   0.000042   0.017885  -0.000426   0.001613   0.000393
    28  H    0.000734   0.000009  -0.000099   0.000015  -0.000038  -0.000032
    29  O    0.003224   0.005311   0.000003   0.001560  -0.000026  -0.000052
    30  H    0.000106   0.001802  -0.000001   0.000103  -0.000033  -0.000002
              13         14         15         16         17         18
     1  C   -0.000015  -0.000119  -0.000074  -0.000004   0.362139   0.324946
     2  O    0.001363  -0.000056   0.005208   0.000026  -0.044995  -0.050672
     3  H    0.000000  -0.000053  -0.000001   0.000000   0.000167   0.004236
     4  O    0.000002   0.001512   0.000009  -0.000000   0.000134  -0.096835
     5  H    0.000057   0.004380   0.000211   0.000016   0.000950   0.012051
     6  C   -0.000749   0.005216  -0.014367   0.000253   0.000814   0.000349
     7  C   -0.036937  -0.034654  -0.047277  -0.008535   0.003451   0.000513
     8  H    0.000058  -0.000002   0.007762  -0.000530   0.000108   0.000002
     9  H    0.006149  -0.006249   0.006916  -0.000681   0.000283   0.002588
    10  O   -0.011973  -0.000095   0.000428   0.038106  -0.000000   0.000000
    11  H    0.001801   0.000009   0.000124  -0.001939  -0.000000  -0.000001
    12  C    0.266940   0.372922   0.344788  -0.031805  -0.000108  -0.000081
    13  O    8.246658  -0.035314  -0.035621   0.229860   0.000001   0.000000
    14  H   -0.035314   0.574817  -0.046475   0.006060  -0.000000   0.000020
    15  H   -0.035621  -0.046475   0.660017  -0.004094   0.000009   0.000002
    16  H    0.229860   0.006060  -0.004094   0.366119  -0.000000   0.000000
    17  H    0.000001  -0.000000   0.000009  -0.000000   0.644229  -0.051231
    18  O    0.000000   0.000020   0.000002   0.000000  -0.051231   8.409567
    19  H    0.000000   0.000022   0.000001   0.000000  -0.001517   0.124993
    20  O   -0.000000  -0.000000  -0.000001   0.000005   0.000000   0.000000
    21  H    0.000000   0.000000   0.000000  -0.000003  -0.000000  -0.000000
    22  H    0.000013   0.000001  -0.000005   0.000030  -0.000000  -0.000000
    23  C    0.000013  -0.000141  -0.000013   0.000302  -0.002140   0.002467
    24  H    0.000001   0.000005  -0.000004  -0.000001  -0.000143  -0.000084
    25  C    0.000006   0.000019   0.000002  -0.000020  -0.067552  -0.057449
    26  H   -0.000000  -0.000000  -0.000001   0.000000   0.001386  -0.000864
    27  O   -0.000001   0.000002  -0.000007  -0.000001   0.002909  -0.022734
    28  H   -0.000000  -0.000001  -0.000000  -0.000000   0.002347   0.056213
    29  O    0.000000   0.000001  -0.000017  -0.000004   0.003746   0.000013
    30  H    0.000000  -0.000000   0.000000  -0.000001  -0.000032   0.000001
              19         20         21         22         23         24
     1  C   -0.022492  -0.000000   0.000000  -0.000004  -0.029622   0.006658
     2  O    0.008029   0.000000  -0.000000  -0.000010   0.001177   0.000111
     3  H   -0.003437  -0.000000   0.000000   0.000000  -0.000003   0.000000
     4  O    0.136729  -0.000000  -0.000000  -0.000000   0.000034  -0.000000
     5  H   -0.020061   0.000000   0.000000   0.000000  -0.000072   0.000005
     6  C   -0.000001   0.006350   0.000119  -0.006970   0.295242  -0.074546
     7  C   -0.000478   0.000187   0.000003   0.000584  -0.038948   0.004021
     8  H    0.000001   0.004196   0.000587  -0.002756  -0.045579   0.005205
     9  H   -0.000096  -0.000000   0.000000  -0.000024  -0.007122   0.000161
    10  O   -0.000000  -0.014760   0.000373   0.048089  -0.025939   0.001214
    11  H    0.000000   0.000527   0.000004  -0.002145  -0.005444   0.006736
    12  C   -0.000005  -0.000003  -0.000000  -0.000013   0.003409  -0.000181
    13  O    0.000000  -0.000000   0.000000   0.000013   0.000013   0.000001
    14  H    0.000022  -0.000000   0.000000   0.000001  -0.000141   0.000005
    15  H    0.000001  -0.000001   0.000000  -0.000005  -0.000013  -0.000004
    16  H    0.000000   0.000005  -0.000003   0.000030   0.000302  -0.000001
    17  H   -0.001517   0.000000  -0.000000  -0.000000  -0.002140  -0.000143
    18  O    0.124993   0.000000  -0.000000  -0.000000   0.002467  -0.000084
    19  H    0.309886   0.000000   0.000000   0.000000  -0.000103   0.000004
    20  O    0.000000   8.311230   0.242493   0.217545   0.000562   0.001004
    21  H    0.000000   0.242493   0.374544  -0.015887  -0.000214  -0.000041
    22  H    0.000000   0.217545  -0.015887   0.337527   0.000208   0.000572
    23  C   -0.000103   0.000562  -0.000214   0.000208   4.941612   0.359002
    24  H    0.000004   0.001004  -0.000041   0.000572   0.359002   0.644801
    25  C    0.003780   0.000053  -0.000004   0.000027   0.314724  -0.045121
    26  H   -0.000108   0.000002  -0.000000  -0.000003  -0.048025  -0.006975
    27  O    0.000142   0.000000  -0.000000  -0.000004  -0.046861   0.003547
    28  H   -0.000955  -0.000000   0.000000   0.000000   0.007341  -0.000358
    29  O    0.000001  -0.017924   0.000911   0.002164   0.226972  -0.032516
    30  H   -0.000000   0.054385  -0.002259  -0.005375  -0.025144  -0.005131
              25         26         27         28         29         30
     1  C    0.278962  -0.044897  -0.024835  -0.013503   0.004330  -0.000169
     2  O   -0.011326   0.002191  -0.001198   0.000222  -0.000387  -0.000015
     3  H    0.000041  -0.000000   0.000000  -0.000005   0.000000  -0.000000
     4  O   -0.000400   0.000003  -0.000012   0.000268  -0.000000   0.000000
     5  H    0.001810  -0.000097  -0.000187  -0.000079   0.000008   0.000001
     6  C   -0.030051   0.006123   0.003816  -0.000202  -0.050154   0.000594
     7  C   -0.002152   0.000194  -0.005131   0.000734   0.003224   0.000106
     8  H    0.000503  -0.000256   0.000042   0.000009   0.005311   0.001802
     9  H   -0.005653   0.000275   0.017885  -0.000099   0.000003  -0.000001
    10  O    0.001789  -0.000084  -0.000426   0.000015   0.001560   0.000103
    11  H   -0.000345  -0.000004   0.001613  -0.000038  -0.000026  -0.000033
    12  C    0.000316   0.000015   0.000393  -0.000032  -0.000052  -0.000002
    13  O    0.000006  -0.000000  -0.000001  -0.000000   0.000000   0.000000
    14  H    0.000019  -0.000000   0.000002  -0.000001   0.000001  -0.000000
    15  H    0.000002  -0.000001  -0.000007  -0.000000  -0.000017   0.000000
    16  H   -0.000020   0.000000  -0.000001  -0.000000  -0.000004  -0.000001
    17  H   -0.067552   0.001386   0.002909   0.002347   0.003746  -0.000032
    18  O   -0.057449  -0.000864  -0.022734   0.056213   0.000013   0.000001
    19  H    0.003780  -0.000108   0.000142  -0.000955   0.000001  -0.000000
    20  O    0.000053   0.000002   0.000000  -0.000000  -0.017924   0.054385
    21  H   -0.000004  -0.000000  -0.000000   0.000000   0.000911  -0.002259
    22  H    0.000027  -0.000003  -0.000004   0.000000   0.002164  -0.005375
    23  C    0.314724  -0.048025  -0.046861   0.007341   0.226972  -0.025144
    24  H   -0.045121  -0.006975   0.003547  -0.000358  -0.032516  -0.005131
    25  C    5.046746   0.354786   0.219098  -0.049735  -0.046480   0.005494
    26  H    0.354786   0.606773  -0.034027   0.000943   0.007036  -0.000135
    27  O    0.219098  -0.034027   8.325745   0.223528   0.001253  -0.000104
    28  H   -0.049735   0.000943   0.223528   0.357460  -0.000108   0.000008
    29  O   -0.046480   0.007036   0.001253  -0.000108   8.338806   0.221044
    30  H    0.005494  -0.000135  -0.000104   0.000008   0.221044   0.325385
 Mulliken charges:
               1
     1  C    0.326644
     2  O   -0.647770
     3  H    0.410038
     4  O   -0.817400
     5  H    0.475886
     6  C    0.083403
     7  C    0.094969
     8  H    0.158251
     9  H    0.161017
    10  O   -0.658734
    11  H    0.418342
    12  C   -0.043075
    13  O   -0.632310
    14  H    0.158175
    15  H    0.122480
    16  H    0.406841
    17  H    0.145046
    18  O   -0.658010
    19  H    0.465664
    20  O   -0.805852
    21  H    0.399373
    22  H    0.426436
    23  C    0.122304
    24  H    0.132054
    25  C    0.088133
    26  H    0.155751
    27  O   -0.664446
    28  H    0.416028
    29  O   -0.668713
    30  H    0.429476
 Sum of Mulliken charges =  -0.00000
 Mulliken charges with hydrogens summed into heavy atoms:
               1
     1  C    0.471691
     2  O   -0.171884
     4  O    0.058302
     6  C    0.241654
     7  C    0.255985
    10  O   -0.240393
    12  C    0.237580
    13  O   -0.225470
    18  O   -0.658010
    20  O    0.019957
    23  C    0.254358
    25  C    0.243884
    27  O   -0.248418
    29  O   -0.239237
 APT charges:
               1
     1  C   -0.270385
     2  O   -0.398468
     3  H    0.886405
     4  O   -1.213755
     5  H    0.417644
     6  C   -0.131950
     7  C   -0.194697
     8  H    0.359616
     9  H    0.325081
    10  O   -0.803625
    11  H    0.576980
    12  C   -0.705386
    13  O   -0.502356
    14  H    0.506163
    15  H    0.359978
    16  H    0.415427
    17  H    0.432546
    18  O   -0.400607
    19  H    0.343393
    20  O   -0.956709
    21  H    0.836485
    22  H    0.203487
    23  C   -0.320783
    24  H    0.416618
    25  C   -0.433682
    26  H    0.547384
    27  O   -0.725977
    28  H    0.593345
    29  O   -0.803960
    30  H    0.641788
 Sum of APT charges =  -0.00000
 APT charges with hydrogens summed into heavy atoms:
               1
     1  C    0.162161
     2  O    0.019176
     4  O    0.016043
     6  C    0.227666
     7  C    0.130384
    10  O   -0.226645
    12  C    0.160755
    13  O   -0.086929
    18  O   -0.400607
    20  O    0.083263
    23  C    0.095835
    25  C    0.113703
    27  O   -0.132632
    29  O   -0.162172
 Electronic spatial extent (au):  <R**2>=           3156.3264
 Charge=             -0.0000 electrons
 Dipole moment (field-independent basis, Debye):
    X=              0.7954    Y=              1.3299    Z=             -2.4000  Tot=              2.8568
 Quadrupole moment (field-independent basis, Debye-Ang):
   XX=            -74.4558   YY=            -98.4672   ZZ=            -79.4595
   XY=              5.2725   XZ=              5.7410   YZ=             -3.1296
 Traceless Quadrupole moment (field-independent basis, Debye-Ang):
   XX=              9.6717   YY=            -14.3397   ZZ=              4.6680
   XY=              5.2725   XZ=              5.7410   YZ=             -3.1296
 Octapole moment (field-independent basis, Debye-Ang**2):
  XXX=              6.1251  YYY=            -33.1680  ZZZ=             -6.7656  XYY=             -0.8603
  XXY=             31.1125  XXZ=            -46.9270  XZZ=              1.1454  YZZ=              9.9689
  YYZ=             -9.6650  XYZ=             -1.3073
 Hexadecapole moment (field-independent basis, Debye-Ang**3):
 XXXX=          -1769.8429 YYYY=          -1499.2973 ZZZZ=           -372.1826 XXXY=             85.6244
 XXXZ=             18.3482 YYYX=              1.8511 YYYZ=            -40.2975 ZZZX=             11.6383
 ZZZY=             15.9198 XXYY=           -575.6692 XXZZ=           -255.9399 YYZZ=           -298.1969
 XXYZ=            -13.7020 YYXZ=             14.4566 ZZXY=              7.7772
 N-N= 1.115081895817D+03 E-N=-4.202204283277D+03  KE= 8.328179106919D+02
  Exact polarizability:   0.000   0.000   0.000   0.000   0.000   0.000
 Approx polarizability: 143.401   2.051 131.717  -1.088   1.632 131.197
 Calling FoFJK, ICntrl=    100147 FMM=F ISym2X=0 I1Cent= 0 IOpClX= 0 NMat=1 NMatS=1 NMatT=0.
 -------------------------------------------------------------------
 Center     Atomic                   Forces (Hartrees/Bohr)
 Number     Number              X              Y              Z
 -------------------------------------------------------------------
      1        6          -0.000015006    0.000007387   -0.000002955
      2        8          -0.000005694    0.000011984    0.000012968
      3        1           0.000007121    0.000002826    0.000032117
      4        8          -0.000034651   -0.000006023   -0.000016291
      5        1           0.000009696    0.000001223   -0.000002605
      6        6          -0.000000937   -0.000004793    0.000001337
      7        6          -0.000001438    0.000002787    0.000005349
      8        1          -0.000000364   -0.000000100   -0.000005020
      9        1           0.000006321    0.000003958   -0.000001897
     10        8          -0.000006733   -0.000019627    0.000028203
     11        1           0.000020381    0.000000280   -0.000027442
     12        6          -0.000000018    0.000006524   -0.000009577
     13        8           0.000031727   -0.000022367    0.000024104
     14        1           0.000026779   -0.000001138   -0.000004131
     15        1          -0.000003544   -0.000008870    0.000007692
     16        1          -0.000014584    0.000015428   -0.000025298
     17        1          -0.000004685    0.000005433    0.000000879
     18        8          -0.000010138    0.000005748    0.000009124
     19        1           0.000010991   -0.000004703   -0.000000404
     20        8           0.000153435    0.000042297   -0.000158088
     21        1          -0.000104347   -0.000078762    0.000158072
     22        1          -0.000016630    0.000057998   -0.000004302
     23        6          -0.000003813   -0.000003978    0.000003172
     24        1          -0.000004139   -0.000002276    0.000000769
     25        6          -0.000005591   -0.000004155    0.000000338
     26        1          -0.000005309   -0.000000143   -0.000000813
     27        8          -0.000007057   -0.000009613   -0.000003580
     28        1           0.000001943   -0.000005320    0.000002582
     29        8           0.000012534    0.000014418   -0.000017323
     30        1          -0.000036247   -0.000006425   -0.000006981
 -------------------------------------------------------------------
 Cartesian Forces:  Max     0.000158088 RMS     0.000034793
 IRC-IRC-IRC-IRC-IRC-IRC-IRC-IRC-IRC-IRC-IRC-IRC-IRC-IRC-IRC-IRC-IRC-IRC
          ******** Start new reaction path calculation ********
 Supplied step size of   0.1000 bohr.
    Integration on MW PES will use step size of   0.1077 sqrt(amu)*bohr.
 Point Number:   0          Path Number:   1
 Calculating another point on the path.
 IRC-IRC-IRC-IRC-IRC-IRC-IRC-IRC-IRC-IRC-IRC-IRC-IRC-IRC-IRC-IRC-IRC-IRC
                          Input orientation:                          
 ---------------------------------------------------------------------
 Center     Atomic      Atomic             Coordinates (Angstroms)
 Number     Number       Type             X           Y           Z
 ---------------------------------------------------------------------
      1          6           0       -1.480316   -1.312201   -0.383293
      2          8           0       -1.169679    0.291217   -0.834606
      3          1           0       -3.987993    0.577642   -1.511146
      4          8           0       -3.521280    0.669260   -0.663606
      5          1           0       -2.350768    0.694376   -0.848895
      6          6           0        1.061902    0.360629   -0.088219
      7          6           0       -0.313186    1.022055    0.063135
      8          1           0        1.399312    0.542746   -1.112382
      9          1           0       -0.674344    0.933950    1.093885
     10          8           0        2.054440    1.011028    0.744312
     11          1           0        1.856101    0.777668    1.668204
     12          6           0       -0.313693    2.503311   -0.341845
     13          8           0        0.400220    3.302226    0.582419
     14          1           0       -1.344578    2.873810   -0.346864
     15          1           0        0.080057    2.597793   -1.368214
     16          1           0        1.284184    2.902295    0.662005
     17          1           0       -1.439168   -1.713106   -1.404225
     18          8           0       -2.628480   -1.347464    0.251987
     19          1           0       -3.351062   -0.386989   -0.205564
     20          8           0        4.011605   -0.576342   -0.627192
     21          1           0        4.423820   -0.063070   -1.338192
     22          1           0        3.600630    0.089783   -0.039632
     23          6           0        1.061923   -1.183292    0.119046
     24          1           0        1.712971   -1.392222    0.983872
     25          6           0       -0.306949   -1.753786    0.499084
     26          1           0       -0.239128   -2.848864    0.396738
     27          8           0       -0.573697   -1.381007    1.839220
     28          1           0       -1.554054   -1.361355    1.879596
     29          8           0        1.525746   -1.860994   -1.029434
     30          1           0        2.471586   -1.611720   -1.111968
 ---------------------------------------------------------------------
                    Distance matrix (angstroms):
                    1          2          3          4          5
     1  C    0.000000
     2  O    1.694440   0.000000
     3  H    3.336466   2.912497   0.000000
     4  O    2.858374   2.387925   0.971874   0.000000
     5  H    2.236253   1.248083   1.769946   1.185353   0.000000
     6  C    3.057499   2.354117   5.251024   4.629458   3.512311
     7  C    2.647686   1.440016   4.022446   3.308245   2.256305
     8  H    3.502093   2.596179   5.402156   4.942635   3.762382
     9  H    2.806571   2.092257   4.230061   3.356171   2.577244
    10  O    4.377600   3.661428   6.464202   5.760876   4.695150
    11  H    4.439355   3.956772   6.655954   5.862194   4.903109
    12  C    3.990095   2.422578   4.309982   3.708893   2.771104
    13  O    5.075623   3.679500   5.573400   4.885003   4.051848
    14  H    4.188370   2.634060   3.689930   3.114225   2.452424
    15  H    4.323527   2.677101   4.544278   4.145520   3.130750
    16  H    5.147532   3.883171   6.158120   5.462250   4.513380
    17  H    1.097597   2.101048   3.428625   3.249519   2.633511
    18  O    1.312671   2.448277   2.943289   2.388008   2.336275
    19  H    2.094588   2.369406   1.743772   1.163803   1.607424
    20  O    5.546365   5.257507   8.130597   7.635260   6.491815
    21  H    6.109908   5.627287   8.437952   8.007246   6.834338
    22  H    5.282014   4.840290   7.745357   7.172638   6.036520
    23  C    2.594598   2.839661   5.591070   5.005022   4.013603
    24  H    3.474568   3.801381   6.527363   5.861849   4.922083
    25  C    1.533093   2.589414   4.798610   4.189859   3.462331
    26  H    2.123753   3.498891   5.425399   4.926870   4.308732
    27  O    2.401304   3.209498   5.169012   4.376755   3.832905
    28  H    2.264624   3.200880   4.602271   3.802795   3.507912
    29  O    3.123312   3.454748   6.048166   5.657604   4.646490
    30  H    4.029665   4.117877   6.832189   6.427934   5.351858
                    6          7          8          9         10
     6  C    0.000000
     7  C    1.533382   0.000000
     8  H    1.093582   2.131719   0.000000
     9  H    2.177296   1.095738   3.052983   0.000000
    10  O    1.449572   2.463691   2.023806   2.752163   0.000000
    11  H    1.972231   2.709571   2.827632   2.599504   0.973330
    12  C    2.558842   1.535620   2.715130   2.157379   3.002449
    13  O    3.088781   2.444950   3.388992   2.650475   2.830590
    14  H    3.489144   2.158904   3.680871   2.507594   4.026654
    15  H    2.758135   2.164798   2.455423   3.065848   3.298299
    16  H    2.659381   2.538806   2.954518   2.810112   2.043760
    17  H    3.505367   3.301831   3.637446   3.719196   4.923659
    18  O    4.080716   3.318263   4.653763   3.119662   5.266365
    19  H    4.477382   3.359508   4.924711   3.255497   5.663582
    20  O    3.141521   4.662106   2.883025   5.215477   2.869017
    21  H    3.611710   5.057711   3.092839   5.735881   3.332338
    22  H    2.553597   4.024630   2.490335   4.502542   1.963152
    23  C    1.557771   2.599539   2.146963   2.906484   2.488190
    24  H    2.155402   3.283565   2.869976   3.335034   2.439181
    25  C    2.586393   2.809872   3.283627   2.777173   3.644241
    26  H    3.496957   3.885973   4.057702   3.871061   4.503336
    27  O    3.069772   2.999508   4.038012   2.434067   3.718569
    28  H    3.698750   3.243444   4.615182   2.580631   4.465233
    29  O    2.456959   3.589895   2.408492   4.142534   3.416753
    30  H    2.631622   4.009064   2.406552   4.609024   3.240154
                   11         12         13         14         15
    11  H    0.000000
    12  C    3.424347   0.000000
    13  O    3.109970   1.414992   0.000000
    14  H    4.324195   1.095454   2.022728   0.000000
    15  H    3.960685   1.103358   2.098500   1.774522   0.000000
    16  H    2.419414   1.928760   0.973484   2.815851   2.380007
    17  H    5.148065   4.491493   5.699444   4.708159   4.570907
    18  O    5.160748   4.532035   5.558941   4.452661   5.052354
    19  H    5.655261   4.194998   5.320088   3.831286   4.693959
    20  O    3.427591   5.317319   5.435857   6.377368   5.106986
    21  H    4.042084   5.479330   5.585994   6.548467   5.094053
    22  H    2.536389   4.608511   4.577047   5.683334   4.522132
    23  C    2.622208   3.961790   4.557679   4.740084   4.180024
    24  H    2.279741   4.586945   4.891045   5.414656   4.911103
    25  C    3.529007   4.339363   5.105907   4.817359   4.751085
    26  H    4.377025   5.403410   6.187015   5.875710   5.734370
    27  O    3.254695   4.462350   4.945779   4.845275   5.152269
    28  H    4.031038   4.626979   5.220234   4.789325   5.375262
    29  O    3.787997   4.785757   5.524827   5.578802   4.699529
    30  H    3.717170   5.028354   5.595388   5.938727   4.848203
                   16         17         18         19         20
    16  H    0.000000
    17  H    5.743507   0.000000
    18  O    5.791157   2.071521   0.000000
    19  H    5.749570   2.617387   1.286076   0.000000
    20  O    4.604538   5.622004   6.742277   7.377159   0.000000
    21  H    4.759359   6.091109   7.342566   7.863623   0.968963
    22  H    3.710585   5.523774   6.399416   6.969997   0.978697
    23  C    4.127496   2.975989   3.696444   4.495988   3.102560
    24  H    4.327855   3.967613   4.402936   5.298082   2.923167
    25  C    4.923142   2.214985   2.369737   3.410466   4.615710
    26  H    5.955390   2.444076   2.825625   4.013443   4.927628
    27  O    4.815000   3.373317   2.596645   3.589285   5.268365
    28  H    5.264677   3.304604   1.950306   2.920020   6.154412
    29  O    5.060458   2.992165   4.377595   5.160882   2.826946
    30  H    4.993319   3.922969   5.285913   6.018701   1.917987
                   21         22         23         24         25
    21  H    0.000000
    22  H    1.545078   0.000000
    23  C    3.831552   2.844456   0.000000
    24  H    3.808849   2.609053   1.102470   0.000000
    25  C    5.349232   4.354094   1.530916   2.108512   0.000000
    26  H    5.702080   4.854875   2.131661   2.505438   1.101940
    27  O    6.066967   4.808151   2.381878   2.441433   1.416363
    28  H    6.911923   5.688586   3.158256   3.387732   1.901338
    29  O    3.424426   3.015026   1.411884   2.075620   2.388856
    30  H    2.502142   2.306460   1.919921   2.239692   3.214954
                   26         27         28         29         30
    26  H    0.000000
    27  O    2.085017   0.000000
    28  H    2.478019   0.981385   0.000000
    29  O    2.474799   3.587091   4.265824   0.000000
    30  H    3.339864   4.246939   5.021744   0.981612   0.000000
 Symmetry turned off by external request.
 Stoichiometry    C6H16O8
 Framework group  C1[X(C6H16O8)]
 Deg. of freedom    84
 Full point group                 C1      NOp   1
 Rotational constants (GHZ):      0.7600083      0.5135240      0.3679383
 Standard basis: 6-31G(d) (6D, 7F)
   242 basis functions,   456 primitive gaussians,   242 cartesian basis functions
    58 alpha electrons       58 beta electrons
       nuclear repulsion energy      1115.0911657282 Hartrees.
 NAtoms=   30 NActive=   30 NUniq=   30 SFac= 1.00D+00 NAtFMM=   60 NAOKFM=F Big=F
 Integral buffers will be    131072 words long.
 Raffenetti 2 integral format.
 Two-electron integral symmetry is turned off.
 One-electron integrals computed using PRISM.
 NBasis=   242 RedAO= T EigKep=  1.43D-03  NBF=   242
 NBsUse=   242 1.00D-06 EigRej= -1.00D+00 NBFU=   242
 Initial guess from the checkpoint file:  "/scratch/10461057.yak.local/Gau-20709.chk"
 B after Tr=     0.015259    0.021120   -0.021024
         Rot=    1.000000    0.000007   -0.000030   -0.000034 Ang=   0.01 deg.
 ExpMin= 1.61D-01 ExpMax= 5.48D+03 ExpMxC= 8.25D+02 IAcc=1 IRadAn=         1 AccDes= 0.00D+00
 Harris functional with IExCor=  402 and IRadAn=       1 diagonalized for initial guess.
 HarFok:  IExCor=  402 AccDes= 0.00D+00 IRadAn=         1 IDoV= 1 UseB2=F ITyADJ=14
 ICtDFT=  3500011 ScaDFX=  1.000000  1.000000  1.000000  1.000000
 FoFCou: FMM=F IPFlag=           0 FMFlag=      100000 FMFlg1=           0
         NFxFlg=           0 DoJE=T BraDBF=F KetDBF=T FulRan=T
         wScrn=  0.000000 ICntrl=     500 IOpCl=  0 I1Cent=   200000004 NGrid=           0
         NMat0=    1 NMatS0=      1 NMatT0=    0 NMatD0=    1 NMtDS0=    0 NMtDT0=    0
 Symmetry not used in FoFCou.
 Requested convergence on RMS density matrix=1.00D-08 within 128 cycles.
 Requested convergence on MAX density matrix=1.00D-06.
 Requested convergence on             energy=1.00D-06.
 No special actions if energy rises.
 Integral accuracy reduced to 1.0D-05 until final iterations.
 Initial convergence to 1.0D-05 achieved.  Increase integral accuracy.
 SCF Done:  E(RB3LYP) =  -839.960672769     A.U. after   11 cycles
            NFock= 11  Conv=0.68D-08     -V/T= 2.0086
 DoSCS=F DFT=T ScalE2(SS,OS)=  1.000000  1.000000
 Range of M.O.s used for correlation:     1   242
 NBasis=   242 NAE=    58 NBE=    58 NFC=     0 NFV=     0
 NROrb=    242 NOA=    58 NOB=    58 NVA=   184 NVB=   184
 Symmetrizing basis deriv contribution to polar:
 IMax=3 JMax=2 DiffMx= 0.00D+00
 Calling FoFJK, ICntrl=      2147 FMM=F ISym2X=0 I1Cent= 0 IOpClX= 0 NMat=1 NMatS=1 NMatT=0.
 -------------------------------------------------------------------
 Center     Atomic                   Forces (Hartrees/Bohr)
 Number     Number              X              Y              Z
 -------------------------------------------------------------------
      1        6           0.003472068    0.005546167   -0.002418595
      2        8           0.001300331   -0.003978809    0.001353442
      3        1           0.000285374    0.000190915   -0.000038835
      4        8           0.001790592    0.000649369   -0.000663052
      5        1          -0.004865460    0.001038380   -0.000144470
      6        6           0.000026966    0.000141301    0.000171734
      7        6          -0.000227110   -0.001191902   -0.000326673
      8        1          -0.000015141    0.000004846    0.000003269
      9        1           0.000080276    0.000095067    0.000041320
     10        8           0.000392053   -0.000084594    0.000125967
     11        1           0.000010153    0.000035635   -0.000023978
     12        6          -0.000167034   -0.000326274   -0.000142363
     13        8           0.000019225   -0.000094725   -0.000014980
     14        1           0.000021172   -0.000017362   -0.000012404
     15        1          -0.000008169   -0.000002831    0.000004043
     16        1          -0.000026514   -0.000012914   -0.000021695
     17        1          -0.000039007   -0.000124671    0.000090622
     18        8          -0.003728190    0.002725795   -0.000095166
     19        1           0.002351633   -0.004258549    0.001940714
     20        8           0.000166653    0.000038282   -0.000135065
     21        1          -0.000118441   -0.000071768    0.000156707
     22        1          -0.000044099    0.000057855   -0.000008171
     23        6          -0.000065460    0.000093305   -0.000066842
     24        1          -0.000044945   -0.000035671    0.000014324
     25        6          -0.000480666   -0.000320144   -0.000117745
     26        1          -0.000024761   -0.000023580    0.000042774
     27        8          -0.000092855   -0.000034133    0.000056366
     28        1           0.000072218    0.000027733    0.000220203
     29        8           0.000002168   -0.000083030    0.000017667
     30        1          -0.000043030    0.000016305   -0.000009121
 -------------------------------------------------------------------
 Cartesian Forces:  Max     0.005546167 RMS     0.001283698
 IRC-IRC-IRC-IRC-IRC-IRC-IRC-IRC-IRC-IRC-IRC-IRC-IRC-IRC-IRC-IRC-IRC-IRC
 Pt  1 Step number   1 out of a maximum of  20
 Modified Bulirsch-Stoer Extrapolation Cycles:
    EPS =    0.000010000000000
 Maximum DWI energy   std dev =  0.000003378 at pt    52
 Maximum DWI gradient std dev =  0.057730313 at pt     2
 CORRECTOR INTEGRATION CONVERGENCE:
   Recorrection delta-x convergence threshold:    0.010000
   Delta-x Convergence Met
 Point Number:   1          Path Number:   1
   CHANGE IN THE REACTION COORDINATE =    0.10762
   NET REACTION COORDINATE UP TO THIS POINT =    0.10762
  # OF POINTS ALONG THE PATH =   1
  # OF STEPS =   1

 Calculating another point on the path.
 IRC-IRC-IRC-IRC-IRC-IRC-IRC-IRC-IRC-IRC-IRC-IRC-IRC-IRC-IRC-IRC-IRC-IRC
                          Input orientation:                          
 ---------------------------------------------------------------------
 Center     Atomic      Atomic             Coordinates (Angstroms)
 Number     Number       Type             X           Y           Z
 ---------------------------------------------------------------------
      1          6           0       -1.478121   -1.308838   -0.384816
      2          8           0       -1.168990    0.289379   -0.834001
      3          1           0       -3.986332    0.579053   -1.512014
      4          8           0       -3.520524    0.669558   -0.663859
      5          1           0       -2.387568    0.701673   -0.849889
      6          6           0        1.061925    0.360723   -0.088107
      7          6           0       -0.313290    1.021343    0.062954
      8          1           0        1.399186    0.542774   -1.112330
      9          1           0       -0.673793    0.934661    1.094219
     10          8           0        2.054621    1.010989    0.744355
     11          1           0        1.856155    0.777875    1.668206
     12          6           0       -0.313784    2.503119   -0.341931
     13          8           0        0.400225    3.302183    0.582413
     14          1           0       -1.344563    2.873711   -0.346954
     15          1           0        0.080045    2.597786   -1.368228
     16          1           0        1.284153    2.902200    0.661838
     17          1           0       -1.439533   -1.714068   -1.403615
     18          8           0       -2.630241   -1.346224    0.251983
     19          1           0       -3.333077   -0.417312   -0.191969
     20          8           0        4.011645   -0.576339   -0.627183
     21          1           0        4.423538   -0.063019   -1.338064
     22          1           0        3.600382    0.089925   -0.039789
     23          6           0        1.061883   -1.183230    0.118996
     24          1           0        1.712617   -1.392504    0.983982
     25          6           0       -0.307256   -1.754004    0.499019
     26          1           0       -0.239257   -2.849058    0.397082
     27          8           0       -0.573738   -1.381023    1.839244
     28          1           0       -1.553525   -1.361150    1.881383
     29          8           0        1.525729   -1.861034   -1.029424
     30          1           0        2.471476   -1.611542   -1.112058
 ---------------------------------------------------------------------
                    Distance matrix (angstroms):
                    1          2          3          4          5
     1  C    0.000000
     2  O    1.688676   0.000000
     3  H    3.335540   2.912221   0.000000
     4  O    2.857153   2.388137   0.971872   0.000000
     5  H    2.255115   1.286535   1.734788   1.148576   0.000000
     6  C    3.054064   2.353386   5.249769   4.628791   3.549023
     7  C    2.643307   1.439625   4.020868   3.307319   2.288690
     8  H    3.498091   2.595612   5.400450   4.941735   3.799162
     9  H    2.804956   2.092760   4.229873   3.356337   2.602089
    10  O    4.374574   3.661092   6.463039   5.760372   4.729729
    11  H    4.436966   3.956156   6.654921   5.861649   4.935159
    12  C    3.986043   2.423665   4.307985   3.707933   2.793530
    13  O    5.072005   3.680442   5.571709   4.884279   4.072583
    14  H    4.184852   2.635680   3.688056   3.113442   2.461412
    15  H    4.319339   2.678474   4.542177   4.144670   3.154843
    16  H    5.143781   3.883590   6.156350   5.461417   4.539733
    17  H    1.097111   2.100347   3.428752   3.249529   2.653524
    18  O    1.316925   2.447410   2.942338   2.386367   2.338139
    19  H    2.067092   2.365353   1.778202   1.199627   1.605919
    20  O    5.543720   5.256541   8.129298   7.634604   6.529383
    21  H    6.106580   5.626244   8.436138   8.006206   6.871262
    22  H    5.278899   4.839159   7.743702   7.171662   6.073388
    23  C    2.592533   2.837882   5.590197   5.004412   4.048495
    24  H    3.472955   3.799664   6.526488   5.861164   4.955823
    25  C    1.533057   2.587459   4.798229   4.189395   3.489642
    26  H    2.125659   3.497107   5.425602   4.926760   4.333344
    27  O    2.401991   3.207929   5.169005   4.376523   3.854742
    28  H    2.268056   3.200847   4.604137   3.804092   3.522884
    29  O    3.121467   3.453111   6.047291   5.657049   4.681196
    30  H    4.027385   4.116286   6.830955   6.427158   5.387950
                    6          7          8          9         10
     6  C    0.000000
     7  C    1.533119   0.000000
     8  H    1.093582   2.131407   0.000000
     9  H    2.177158   1.095894   3.052814   0.000000
    10  O    1.449581   2.464025   2.023882   2.751813   0.000000
    11  H    1.972170   2.709723   2.827627   2.598976   0.973259
    12  C    2.558684   1.536097   2.714909   2.156895   3.002634
    13  O    3.088629   2.445644   3.388867   2.649645   2.830693
    14  H    3.489025   2.159356   3.680655   2.507355   4.026803
    15  H    2.758124   2.165218   2.455339   3.065600   3.298466
    16  H    2.659118   2.539313   2.954285   2.809219   2.043798
    17  H    3.506083   3.301776   3.638202   3.720390   4.924310
    18  O    4.081840   3.318037   4.654669   3.120815   5.267525
    19  H    4.464546   3.354673   4.915602   3.248678   5.651906
    20  O    3.141582   4.661967   2.883180   5.215331   2.868914
    21  H    3.611425   5.057295   3.092676   5.735342   3.331925
    22  H    2.553318   4.024292   2.490117   4.502013   1.962808
    23  C    1.557782   2.598920   2.146865   2.906733   2.488213
    24  H    2.155593   3.283176   2.870203   3.335086   2.439501
    25  C    2.586783   2.809401   3.283836   2.778044   3.644700
    26  H    3.497310   3.885502   4.057998   3.871867   4.503603
    27  O    3.069813   2.999066   4.037971   2.434638   3.718707
    28  H    3.699232   3.243630   4.615814   2.581531   4.465265
    29  O    2.457112   3.589342   2.408564   4.142905   3.416802
    30  H    2.631566   4.008448   2.406426   4.609070   3.240016
                   11         12         13         14         15
    11  H    0.000000
    12  C    3.424289   0.000000
    13  O    3.109792   1.415177   0.000000
    14  H    4.324118   1.095386   2.022770   0.000000
    15  H    3.960628   1.103335   2.098498   1.774442   0.000000
    16  H    2.419239   1.928787   0.973459   2.815781   2.379856
    17  H    5.148537   4.492121   5.700158   4.708850   4.571920
    18  O    5.161902   4.531683   5.558831   4.451914   5.052321
    19  H    5.640643   4.203278   5.326524   3.848252   4.703595
    20  O    3.427659   5.317308   5.435845   6.377330   5.107024
    21  H    4.041809   5.479011   5.585684   6.548104   5.093793
    22  H    2.536307   4.608198   4.576761   5.682983   4.521824
    23  C    2.622376   3.961576   4.557574   4.739922   4.179943
    24  H    2.280200   4.586963   4.891188   5.414640   4.911272
    25  C    3.529555   4.339393   5.106125   4.817408   4.751283
    26  H    4.377346   5.403471   6.187169   5.875829   5.734665
    27  O    3.254916   4.462248   4.945770   4.845244   5.152303
    28  H    4.030731   4.627382   5.220262   4.789905   5.376029
    29  O    3.788170   4.785633   5.524816   5.578723   4.699560
    30  H    3.717231   5.028042   5.595177   5.938437   4.847990
                   16         17         18         19         20
    16  H    0.000000
    17  H    5.744084   0.000000
    18  O    5.791336   2.072222   0.000000
    19  H    5.750388   2.595221   1.246575   0.000000
    20  O    4.604457   5.622510   6.743909   7.359324   0.000000
    21  H    4.758978   6.091458   7.343750   7.848830   0.968764
    22  H    3.710268   5.524053   6.400650   6.953654   0.978814
    23  C    4.127327   2.976108   3.698113   4.472025   3.102611
    24  H    4.328030   3.967376   4.404359   5.271896   2.923613
    25  C    4.923345   2.214422   2.371407   3.379320   4.616074
    26  H    5.955489   2.443640   2.827785   3.978956   4.927935
    27  O    4.814981   3.372930   2.598040   3.559286   5.268446
    28  H    5.264585   3.305867   1.953070   2.890748   6.154669
    29  O    5.060349   2.992390   4.379397   5.137476   2.827016
    30  H    4.993027   3.923201   5.287582   5.997132   1.918038
                   21         22         23         24         25
    21  H    0.000000
    22  H    1.544828   0.000000
    23  C    3.831268   2.844312   0.000000
    24  H    3.809005   2.609475   1.102475   0.000000
    25  C    5.349272   4.354311   1.531255   2.108497   0.000000
    26  H    5.702140   4.855029   2.131966   2.505158   1.101889
    27  O    6.066728   4.808090   2.381939   2.441111   1.416449
    28  H    6.911965   5.688521   3.158801   3.387328   1.902222
    29  O    3.424239   3.014930   1.411892   2.075633   2.389022
    30  H    2.501909   2.306335   1.919869   2.239917   3.215154
                   26         27         28         29         30
    26  H    0.000000
    27  O    2.084907   0.000000
    28  H    2.478773   0.980893   0.000000
    29  O    2.475133   3.587120   4.266671   0.000000
    30  H    3.340213   4.246958   5.022351   0.981586   0.000000
 Symmetry turned off by external request.
 Stoichiometry    C6H16O8
 Framework group  C1[X(C6H16O8)]
 Deg. of freedom    84
 Full point group                 C1      NOp   1
 Rotational constants (GHZ):      0.7601718      0.5135125      0.3679753
 Standard basis: 6-31G(d) (6D, 7F)
   242 basis functions,   456 primitive gaussians,   242 cartesian basis functions
    58 alpha electrons       58 beta electrons
       nuclear repulsion energy      1115.1010641109 Hartrees.
 NAtoms=   30 NActive=   30 NUniq=   30 SFac= 1.00D+00 NAtFMM=   60 NAOKFM=F Big=F
 Integral buffers will be    131072 words long.
 Raffenetti 2 integral format.
 Two-electron integral symmetry is turned off.
 One-electron integrals computed using PRISM.
 NBasis=   242 RedAO= T EigKep=  1.43D-03  NBF=   242
 NBsUse=   242 1.00D-06 EigRej= -1.00D+00 NBFU=   242
 Initial guess from the checkpoint file:  "/scratch/10461057.yak.local/Gau-20709.chk"
 B after Tr=    -0.000140   -0.000177    0.000120
         Rot=    1.000000    0.000007   -0.000033   -0.000036 Ang=   0.01 deg.
 ExpMin= 1.61D-01 ExpMax= 5.48D+03 ExpMxC= 8.25D+02 IAcc=1 IRadAn=         1 AccDes= 0.00D+00
 Harris functional with IExCor=  402 and IRadAn=       1 diagonalized for initial guess.
 HarFok:  IExCor=  402 AccDes= 0.00D+00 IRadAn=         1 IDoV= 1 UseB2=F ITyADJ=14
 ICtDFT=  3500011 ScaDFX=  1.000000  1.000000  1.000000  1.000000
 FoFCou: FMM=F IPFlag=           0 FMFlag=      100000 FMFlg1=           0
         NFxFlg=           0 DoJE=T BraDBF=F KetDBF=T FulRan=T
         wScrn=  0.000000 ICntrl=     500 IOpCl=  0 I1Cent=   200000004 NGrid=           0
         NMat0=    1 NMatS0=      1 NMatT0=    0 NMatD0=    1 NMtDS0=    0 NMtDT0=    0
 Symmetry not used in FoFCou.
 Requested convergence on RMS density matrix=1.00D-08 within 128 cycles.
 Requested convergence on MAX density matrix=1.00D-06.
 Requested convergence on             energy=1.00D-06.
 No special actions if energy rises.
 Integral accuracy reduced to 1.0D-05 until final iterations.
 Initial convergence to 1.0D-05 achieved.  Increase integral accuracy.
 SCF Done:  E(RB3LYP) =  -839.961936030     A.U. after   11 cycles
            NFock= 11  Conv=0.70D-08     -V/T= 2.0086
 DoSCS=F DFT=T ScalE2(SS,OS)=  1.000000  1.000000
 Range of M.O.s used for correlation:     1   242
 NBasis=   242 NAE=    58 NBE=    58 NFC=     0 NFV=     0
 NROrb=    242 NOA=    58 NOB=    58 NVA=   184 NVB=   184
 Symmetrizing basis deriv contribution to polar:
 IMax=3 JMax=2 DiffMx= 0.00D+00
 Calling FoFJK, ICntrl=      2147 FMM=F ISym2X=0 I1Cent= 0 IOpClX= 0 NMat=1 NMatS=1 NMatT=0.
 -------------------------------------------------------------------
 Center     Atomic                   Forces (Hartrees/Bohr)
 Number     Number              X              Y              Z
 -------------------------------------------------------------------
      1        6           0.007318523    0.011129231   -0.005019669
      2        8           0.003286507   -0.008258094    0.002663142
      3        1           0.000484198    0.000452752   -0.000144231
      4        8           0.002052065    0.002349124   -0.001633434
      5        1          -0.009390481    0.002120244   -0.000379027
      6        6           0.000075091    0.000315949    0.000368289
      7        6          -0.000355444   -0.002382126   -0.000598381
      8        1          -0.000032375    0.000009345    0.000017666
      9        1           0.000144422    0.000189455    0.000086301
     10        8           0.000808382   -0.000153742    0.000183294
     11        1          -0.000010293    0.000068100    0.000008613
     12        6          -0.000330533   -0.000638892   -0.000276566
     13        8          -0.000002199   -0.000165916   -0.000054956
     14        1          -0.000011068   -0.000037582   -0.000021222
     15        1          -0.000004596    0.000009059   -0.000007596
     16        1          -0.000017397   -0.000041130   -0.000010166
     17        1          -0.000103774   -0.000275819    0.000183935
     18        8          -0.007496533    0.005196790    0.000033945
     19        1           0.004947189   -0.009151121    0.004164235
     20        8           0.000066544    0.000001158    0.000049463
     21        1          -0.000035779    0.000015452   -0.000003996
     22        1          -0.000058714    0.000008759   -0.000014820
     23        6          -0.000126017    0.000206369   -0.000165447
     24        1          -0.000090790   -0.000072573    0.000030679
     25        6          -0.000999453   -0.000710694   -0.000220250
     26        1          -0.000027784   -0.000052557    0.000097944
     27        8          -0.000174247   -0.000055497    0.000114319
     28        1           0.000152990    0.000065946    0.000494568
     29        8          -0.000054765   -0.000191507    0.000062630
     30        1          -0.000013671    0.000049513   -0.000009262
 -------------------------------------------------------------------
 Cartesian Forces:  Max     0.011129231 RMS     0.002610073
 IRC-IRC-IRC-IRC-IRC-IRC-IRC-IRC-IRC-IRC-IRC-IRC-IRC-IRC-IRC-IRC-IRC-IRC
 Pt  2 Step number   1 out of a maximum of  20
 Modified Bulirsch-Stoer Extrapolation Cycles:
    EPS =    0.000010000000000
 Maximum DWI energy   std dev =  0.000006768 at pt    58
 Maximum DWI gradient std dev =  0.041314969 at pt    55
 CORRECTOR INTEGRATION CONVERGENCE:
   Recorrection delta-x convergence threshold:    0.010000
   Delta-x Convergence Met
 Point Number:   2          Path Number:   1
   CHANGE IN THE REACTION COORDINATE =    0.10761
   NET REACTION COORDINATE UP TO THIS POINT =    0.21522
  # OF POINTS ALONG THE PATH =   2
  # OF STEPS =   1

 Calculating another point on the path.
 IRC-IRC-IRC-IRC-IRC-IRC-IRC-IRC-IRC-IRC-IRC-IRC-IRC-IRC-IRC-IRC-IRC-IRC
                          Input orientation:                          
 ---------------------------------------------------------------------
 Center     Atomic      Atomic             Coordinates (Angstroms)
 Number     Number       Type             X           Y           Z
 ---------------------------------------------------------------------
      1          6           0       -1.475891   -1.305537   -0.386343
      2          8           0       -1.168143    0.287495   -0.833413
      3          1           0       -3.984942    0.580777   -1.512868
      4          8           0       -3.520252    0.670190   -0.664233
      5          1           0       -2.421089    0.709196   -0.851309
      6          6           0        1.061953    0.360820   -0.087994
      7          6           0       -0.313367    1.020649    0.062798
      8          1           0        1.399071    0.542806   -1.112266
      9          1           0       -0.673320    0.935329    1.094514
     10          8           0        2.054798    1.010952    0.744394
     11          1           0        1.856116    0.778140    1.668240
     12          6           0       -0.313886    2.502938   -0.342017
     13          8           0        0.400224    3.302142    0.582402
     14          1           0       -1.344612    2.873549   -0.347034
     15          1           0        0.080036    2.597815   -1.368250
     16          1           0        1.284106    2.902073    0.661805
     17          1           0       -1.439971   -1.715060   -1.402962
     18          8           0       -2.631919   -1.345095    0.252024
     19          1           0       -3.314647   -0.450575   -0.176961
     20          8           0        4.011655   -0.576340   -0.627173
     21          1           0        4.423428   -0.062967   -1.338079
     22          1           0        3.600201    0.089951   -0.039836
     23          6           0        1.061849   -1.183168    0.118941
     24          1           0        1.712265   -1.392770    0.984096
     25          6           0       -0.307561   -1.754222    0.498959
     26          1           0       -0.239344   -2.849249    0.397437
     27          8           0       -0.573777   -1.381034    1.839267
     28          1           0       -1.552955   -1.360906    1.883296
     29          8           0        1.525715   -1.861076   -1.029408
     30          1           0        2.471432   -1.611368   -1.112086
 ---------------------------------------------------------------------
                    Distance matrix (angstroms):
                    1          2          3          4          5
     1  C    0.000000
     2  O    1.682953   0.000000
     3  H    3.335052   2.912392   0.000000
     4  O    2.856594   2.389036   0.971654   0.000000
     5  H    2.273487   1.322129   1.702876   1.115651   0.000000
     6  C    3.050641   2.352521   5.248790   4.628646   3.582680
     7  C    2.639002   1.439219   4.019537   3.306888   2.318424
     8  H    3.494101   2.594905   5.399030   4.941325   3.832676
     9  H    2.803309   2.093190   4.229774   3.356860   2.625274
    10  O    4.371551   3.660631   6.462101   5.760341   4.761396
    11  H    4.434557   3.955395   6.654049   5.861520   4.964612
    12  C    3.982048   2.424750   4.306071   3.707232   2.813751
    13  O    5.068430   3.681359   5.570069   4.883790   4.091296
    14  H    4.181332   2.637305   3.686097   3.112686   2.469315
    15  H    4.315230   2.679847   4.540199   4.144086   3.176434
    16  H    5.140056   3.883969   6.154712   5.460909   4.563627
    17  H    1.096591   2.099644   3.429260   3.250032   2.672813
    18  O    1.321165   2.446664   2.941853   2.385381   2.341348
    19  H    2.038583   2.362870   1.815938   1.239283   1.611912
    20  O    5.541019   5.255384   8.128281   7.634451   6.563768
    21  H    6.103421   5.625227   8.434788   8.005850   6.905114
    22  H    5.275810   4.837964   7.742424   7.171290   6.107200
    23  C    2.590446   2.835964   5.589669   5.004392   4.080844
    24  H    3.471319   3.797813   6.525939   5.861060   4.987142
    25  C    1.532995   2.585426   4.798208   4.189531   3.515488
    26  H    2.127535   3.495257   5.426218   4.927266   4.356823
    27  O    2.402676   3.206319   5.169290   4.376842   3.875671
    28  H    2.271622   3.200909   4.606368   3.805984   3.537944
    29  O    3.119583   3.451325   6.046795   5.657070   4.713309
    30  H    4.025121   4.114590   6.830146   6.427002   5.421235
                    6          7          8          9         10
     6  C    0.000000
     7  C    1.532846   0.000000
     8  H    1.093572   2.131092   0.000000
     9  H    2.177053   1.096031   3.052663   0.000000
    10  O    1.449580   2.464320   2.023938   2.751532   0.000000
    11  H    1.972109   2.709781   2.827629   2.598445   0.973226
    12  C    2.558541   1.536573   2.714705   2.156435   3.002828
    13  O    3.088477   2.446306   3.388736   2.648879   2.830797
    14  H    3.488906   2.159784   3.680454   2.507068   4.026969
    15  H    2.758145   2.165668   2.455289   3.065389   3.298649
    16  H    2.658856   2.539780   2.954096   2.808351   2.043802
    17  H    3.506856   3.301786   3.639041   3.721519   4.925006
    18  O    4.082946   3.317866   4.655570   3.121896   5.268653
    19  H    4.452067   3.351069   4.907212   3.242528   5.640558
    20  O    3.141612   4.661787   2.883297   5.215203   2.868794
    21  H    3.611347   5.057066   3.092683   5.735063   3.331727
    22  H    2.553114   4.024021   2.490011   4.501599   1.962531
    23  C    1.557794   2.598304   2.146759   2.906989   2.488233
    24  H    2.155774   3.282768   2.870414   3.335153   2.439808
    25  C    2.587178   2.808947   3.284049   2.778876   3.645157
    26  H    3.497651   3.885045   4.058280   3.872632   4.503845
    27  O    3.069854   2.998622   4.037924   2.435180   3.718837
    28  H    3.699739   3.243855   4.616488   2.582369   4.465275
    29  O    2.457266   3.588799   2.408641   4.143269   3.416847
    30  H    2.631525   4.007864   2.406330   4.609145   3.239855
                   11         12         13         14         15
    11  H    0.000000
    12  C    3.424175   0.000000
    13  O    3.109542   1.415356   0.000000
    14  H    4.323972   1.095342   2.022869   0.000000
    15  H    3.960549   1.103327   2.098485   1.774411   0.000000
    16  H    2.418925   1.928872   0.973451   2.815800   2.379807
    17  H    5.149031   4.492792   5.700904   4.709502   4.573020
    18  O    5.162969   4.531393   5.558764   4.451178   5.052379
    19  H    5.625948   4.213674   5.334771   3.867785   4.715477
    20  O    3.427811   5.317291   5.435819   6.377289   5.107063
[...]
 Alpha  occ. eigenvalues --  -19.14786 -19.14067 -19.13456 -10.30259 -10.25215
 Alpha  occ. eigenvalues --  -10.24631 -10.24523 -10.24469 -10.23667  -1.07703
 Alpha  occ. eigenvalues --   -1.06008  -1.02933  -1.02073  -1.01654  -1.01186
 Alpha  occ. eigenvalues --   -1.00712  -1.00386  -0.77742  -0.76426  -0.69462
 Alpha  occ. eigenvalues --   -0.66057  -0.62533  -0.58080  -0.55956  -0.54936
 Alpha  occ. eigenvalues --   -0.54190  -0.53724  -0.52526  -0.51641  -0.48997
 Alpha  occ. eigenvalues --   -0.48285  -0.46842  -0.44663  -0.44136  -0.43086
 Alpha  occ. eigenvalues --   -0.41854  -0.41136  -0.40161  -0.39802  -0.38517
 Alpha  occ. eigenvalues --   -0.37368  -0.36047  -0.35587  -0.34745  -0.33295
 Alpha  occ. eigenvalues --   -0.31926  -0.31085  -0.30468  -0.29164  -0.28831
 Alpha  occ. eigenvalues --   -0.27476  -0.26587  -0.25356
 Alpha virt. eigenvalues --    0.03749   0.05541   0.06355   0.06974   0.09289
 Alpha virt. eigenvalues --    0.10349   0.11307   0.12327   0.12610   0.14345
 Alpha virt. eigenvalues --    0.15861   0.16679   0.17642   0.18394   0.19222
 Alpha virt. eigenvalues --    0.19596   0.19704   0.20475   0.22433   0.23569
 Alpha virt. eigenvalues --    0.24793   0.24968   0.26697   0.28925   0.29001
 Alpha virt. eigenvalues --    0.30806   0.32678   0.34048   0.52233   0.52562
 Alpha virt. eigenvalues --    0.53359   0.54050   0.55285   0.57937   0.59508
 Alpha virt. eigenvalues --    0.60290   0.60687   0.62687   0.64967   0.66678
 Alpha virt. eigenvalues --    0.67149   0.69410   0.71237   0.72024   0.76162
 Alpha virt. eigenvalues --    0.76329   0.77034   0.78587   0.78940   0.79931
 Alpha virt. eigenvalues --    0.81573   0.82588   0.84014   0.84495   0.85239
 Alpha virt. eigenvalues --    0.86351   0.87254   0.87744   0.88445   0.88868
 Alpha virt. eigenvalues --    0.90514   0.92305   0.92811   0.93835   0.95646
 Alpha virt. eigenvalues --    0.95826   0.97002   0.99562   1.00408   1.02258
 Alpha virt. eigenvalues --    1.02677   1.03466   1.05766   1.08299   1.09730
 Alpha virt. eigenvalues --    1.10354   1.11947   1.13449   1.14285   1.15158
 Alpha virt. eigenvalues --    1.16351   1.17531   1.19357   1.22956   1.23848
 Alpha virt. eigenvalues --    1.26341   1.30337   1.33217   1.33754   1.36934
 Alpha virt. eigenvalues --    1.40799   1.43090   1.45172   1.46089   1.47143
 Alpha virt. eigenvalues --    1.49040   1.54188   1.55890   1.57326   1.59699
 Alpha virt. eigenvalues --    1.62448   1.62635   1.63448   1.66653   1.68447
 Alpha virt. eigenvalues --    1.69602   1.70933   1.71134   1.72688   1.74841
 Alpha virt. eigenvalues --    1.75630   1.76441   1.78184   1.79214   1.80013
 Alpha virt. eigenvalues --    1.80968   1.81377   1.83089   1.85066   1.86789
 Alpha virt. eigenvalues --    1.88227   1.89416   1.89534   1.91966   1.94541
 Alpha virt. eigenvalues --    1.95788   1.99009   2.01738   2.03500   2.05143
 Alpha virt. eigenvalues --    2.07446   2.09660   2.10564   2.11569   2.12344
 Alpha virt. eigenvalues --    2.15584   2.21565   2.23491   2.24625   2.27421
 Alpha virt. eigenvalues --    2.31047   2.31644   2.35837   2.36807   2.38004
 Alpha virt. eigenvalues --    2.39075   2.42669   2.45571   2.47089   2.49752
 Alpha virt. eigenvalues --    2.52313   2.53499   2.55620   2.56770   2.57540
 Alpha virt. eigenvalues --    2.59820   2.61033   2.65410   2.68141   2.70307
 Alpha virt. eigenvalues --    2.70649   2.77857   2.83008   2.84890   2.88381
 Alpha virt. eigenvalues --    2.91643   2.93913   2.96409   3.01469   3.03826
 Alpha virt. eigenvalues --    3.69319   3.74387   3.77523   3.81333   3.91199
 Alpha virt. eigenvalues --    3.95342   4.03140   4.13086   4.28977   4.36189
 Alpha virt. eigenvalues --    4.40288   4.52022   4.62237   4.78595
          Condensed to atoms (all electrons):
               1          2          3          4          5          6
     1  C    4.746955   0.135087   0.000648   0.013551  -0.008611  -0.022971
     2  O    0.135087   8.530197   0.003036  -0.071754   0.075933  -0.040294
     3  H    0.000648   0.003036   0.372883   0.232058  -0.004867  -0.000002
     4  O    0.013551  -0.071754   0.232058   8.435979   0.174100  -0.000045
     5  H   -0.008611   0.075933  -0.004867   0.174100   0.322610   0.000975
     6  C   -0.022971  -0.040294  -0.000002  -0.000045   0.000975   5.133787
     7  C   -0.009089   0.127156  -0.000187   0.004979  -0.010700   0.305977
     8  H    0.001663   0.004405  -0.000000   0.000001  -0.000005   0.345748
     9  H   -0.001174  -0.031797  -0.000025   0.000203   0.000280  -0.057154
    10  O    0.000179   0.001563  -0.000000   0.000000  -0.000009   0.154173
    11  H    0.000119  -0.000042   0.000000  -0.000000   0.000001  -0.025574
    12  C    0.001439  -0.025504   0.000071  -0.000997  -0.000710  -0.027521
    13  O   -0.000025   0.001210  -0.000000   0.000002   0.000030  -0.000315
    14  H   -0.000140   0.000064  -0.000078   0.001857   0.004031   0.005271
    15  H   -0.000105   0.004883  -0.000001   0.000001   0.000121  -0.014365
    16  H   -0.000005   0.000029   0.000000  -0.000000   0.000009   0.000087
    17  H    0.371646  -0.045668   0.000216  -0.000286   0.000304   0.000619
    18  O    0.285306  -0.046170   0.003211  -0.079570   0.011059   0.000312
    19  H   -0.026545   0.005285  -0.005105   0.109034  -0.016579  -0.000029
    20  O   -0.000000   0.000000  -0.000000  -0.000000   0.000000   0.006320
    21  H    0.000000  -0.000000   0.000000  -0.000000   0.000000   0.000129
    22  H   -0.000006  -0.000011   0.000000  -0.000000   0.000000  -0.006978
    23  C   -0.031950  -0.003107  -0.000001   0.000016  -0.000008   0.300897
    24  H    0.007125   0.000148   0.000000  -0.000000   0.000002  -0.072434
    25  C    0.288374  -0.012295   0.000028  -0.000135   0.001306  -0.027734
    26  H   -0.044785   0.002452  -0.000000   0.000004  -0.000060   0.005901
    27  O   -0.024173  -0.001522   0.000000  -0.000012  -0.000095   0.003630
    28  H   -0.014607   0.000183  -0.000001   0.000154  -0.000075  -0.000251
    29  O    0.004950  -0.000530   0.000000  -0.000000   0.000003  -0.050316
    30  H   -0.000195  -0.000016  -0.000000   0.000000   0.000000   0.000441
               7          8          9         10         11         12
     1  C   -0.009089   0.001663  -0.001174   0.000179   0.000119   0.001439
     2  O    0.127156   0.004405  -0.031797   0.001563  -0.000042  -0.025504
     3  H   -0.000187  -0.000000  -0.000025  -0.000000   0.000000   0.000071
     4  O    0.004979   0.000001   0.000203   0.000000  -0.000000  -0.000997
     5  H   -0.010700  -0.000005   0.000280  -0.000009   0.000001  -0.000710
     6  C    0.305977   0.345748  -0.057154   0.154173  -0.025574  -0.027521
     7  C    5.028563  -0.033344   0.350063  -0.028287  -0.001864   0.326001
     8  H   -0.033344   0.585013   0.006284  -0.037747   0.006911  -0.010759
     9  H    0.350063   0.006284   0.605518   0.001351   0.004768  -0.045680
    10  O   -0.028287  -0.037747   0.001351   8.297528   0.231810   0.000344
    11  H   -0.001864   0.006911   0.004768   0.231810   0.367535  -0.000977
    12  C    0.326001  -0.010759  -0.045680   0.000344  -0.000977   4.872849
    13  O   -0.035510   0.000045   0.005800  -0.012092   0.001839   0.267018
    14  H   -0.033462  -0.000000  -0.006399  -0.000104   0.000009   0.371168
    15  H   -0.046731   0.007868   0.007019   0.000412   0.000127   0.345265
    16  H   -0.008303  -0.000525  -0.000618   0.038333  -0.001963  -0.031755
    17  H    0.003852   0.000081   0.000136  -0.000001  -0.000000  -0.000102
    18  O   -0.000065   0.000006   0.002591   0.000000  -0.000001  -0.000083
    19  H   -0.000194   0.000002  -0.000109  -0.000000   0.000000  -0.000004
    20  O    0.000188   0.004133  -0.000000  -0.014971   0.000531  -0.000003
    21  H    0.000003   0.000592   0.000000   0.000378   0.000003  -0.000000
    22  H    0.000584  -0.002747  -0.000025   0.048693  -0.002158  -0.000015
    23  C   -0.039440  -0.046632  -0.007008  -0.026411  -0.005595   0.003418
    24  H    0.004004   0.005202   0.000181   0.001233   0.006634  -0.000183
    25  C   -0.003770   0.000249  -0.004926   0.001779  -0.000396   0.000291
    26  H    0.000260  -0.000257   0.000233  -0.000080  -0.000006   0.000016
    27  O   -0.004704   0.000043   0.016508  -0.000407   0.001556   0.000377
    28  H    0.000793   0.000010  -0.000181   0.000015  -0.000034  -0.000031
    29  O    0.003105   0.005094  -0.000010   0.001527  -0.000026  -0.000053
    30  H    0.000118   0.001831  -0.000001   0.000107  -0.000031  -0.000002
              13         14         15         16         17         18
     1  C   -0.000025  -0.000140  -0.000105  -0.000005   0.371646   0.285306
     2  O    0.001210   0.000064   0.004883   0.000029  -0.045668  -0.046170
     3  H   -0.000000  -0.000078  -0.000001   0.000000   0.000216   0.003211
     4  O    0.000002   0.001857   0.000001  -0.000000  -0.000286  -0.079570
     5  H    0.000030   0.004031   0.000121   0.000009   0.000304   0.011059
     6  C   -0.000315   0.005271  -0.014365   0.000087   0.000619   0.000312
     7  C   -0.035510  -0.033462  -0.046731  -0.008303   0.003852  -0.000065
     8  H    0.000045  -0.000000   0.007868  -0.000525   0.000081   0.000006
     9  H    0.005800  -0.006399   0.007019  -0.000618   0.000136   0.002591
    10  O   -0.012092  -0.000104   0.000412   0.038333  -0.000001   0.000000
    11  H    0.001839   0.000009   0.000127  -0.001963  -0.000000  -0.000001
    12  C    0.267018   0.371168   0.345265  -0.031755  -0.000102  -0.000083
    13  O    8.247008  -0.034970  -0.036125   0.229186   0.000001   0.000000
    14  H   -0.034970   0.574862  -0.046275   0.005994   0.000003   0.000015
    15  H   -0.036125  -0.046275   0.660431  -0.004007   0.000008   0.000002
    16  H    0.229186   0.005994  -0.004007   0.366769  -0.000000   0.000000
    17  H    0.000001   0.000003   0.000008  -0.000000   0.610255  -0.049410
    18  O    0.000000   0.000015   0.000002   0.000000  -0.049410   8.363089
    19  H   -0.000000  -0.000023   0.000000   0.000000  -0.001096   0.184648
    20  O   -0.000000  -0.000000  -0.000001   0.000005   0.000000   0.000000
    21  H    0.000000   0.000000   0.000000  -0.000003  -0.000000  -0.000000
    22  H    0.000013   0.000001  -0.000005   0.000029  -0.000000  -0.000000
    23  C    0.000018  -0.000137  -0.000016   0.000306  -0.002587   0.002163
    24  H    0.000001   0.000004  -0.000005  -0.000001  -0.000104  -0.000074
    25  C    0.000005   0.000009  -0.000003  -0.000021  -0.053932  -0.051962
    26  H   -0.000000  -0.000000  -0.000001   0.000000  -0.000128   0.000026
    27  O   -0.000001   0.000002  -0.000007  -0.000001   0.002910  -0.019254
    28  H   -0.000000  -0.000000   0.000000  -0.000000   0.001684   0.045878
    29  O    0.000000   0.000001  -0.000017  -0.000004   0.003630   0.000012
    30  H    0.000000  -0.000000   0.000000  -0.000001  -0.000033   0.000001
              19         20         21         22         23         24
     1  C   -0.026545  -0.000000   0.000000  -0.000006  -0.031950   0.007125
     2  O    0.005285   0.000000  -0.000000  -0.000011  -0.003107   0.000148
     3  H   -0.005105  -0.000000   0.000000   0.000000  -0.000001   0.000000
     4  O    0.109034  -0.000000  -0.000000  -0.000000   0.000016  -0.000000
     5  H   -0.016579   0.000000   0.000000   0.000000  -0.000008   0.000002
     6  C   -0.000029   0.006320   0.000129  -0.006978   0.300897  -0.072434
     7  C   -0.000194   0.000188   0.000003   0.000584  -0.039440   0.004004
     8  H    0.000002   0.004133   0.000592  -0.002747  -0.046632   0.005202
     9  H   -0.000109  -0.000000   0.000000  -0.000025  -0.007008   0.000181
    10  O   -0.000000  -0.014971   0.000378   0.048693  -0.026411   0.001233
    11  H    0.000000   0.000531   0.000003  -0.002158  -0.005595   0.006634
    12  C   -0.000004  -0.000003  -0.000000  -0.000015   0.003418  -0.000183
    13  O   -0.000000  -0.000000   0.000000   0.000013   0.000018   0.000001
    14  H   -0.000023  -0.000000   0.000000   0.000001  -0.000137   0.000004
    15  H    0.000000  -0.000001   0.000000  -0.000005  -0.000016  -0.000005
    16  H    0.000000   0.000005  -0.000003   0.000029   0.000306  -0.000001
    17  H   -0.001096   0.000000  -0.000000  -0.000000  -0.002587  -0.000104
    18  O    0.184648   0.000000  -0.000000  -0.000000   0.002163  -0.000074
    19  H    0.295226   0.000000   0.000000   0.000000  -0.000059   0.000007
    20  O    0.000000   8.312244   0.242487   0.217027   0.000664   0.000990
    21  H    0.000000   0.242487   0.374631  -0.015873  -0.000223  -0.000041
    22  H    0.000000   0.217027  -0.015873   0.337261   0.000185   0.000581
    23  C   -0.000059   0.000664  -0.000223   0.000185   4.927268   0.360041
    24  H    0.000007   0.000990  -0.000041   0.000581   0.360041   0.642339
    25  C    0.005088   0.000053  -0.000004   0.000027   0.330504  -0.047703
    26  H   -0.000188   0.000002  -0.000000  -0.000003  -0.046333  -0.006541
    27  O    0.000231   0.000000  -0.000000  -0.000004  -0.045836   0.003700
    28  H   -0.000830  -0.000000   0.000000   0.000000   0.006626  -0.000280
    29  O    0.000002  -0.017984   0.000912   0.002191   0.225957  -0.032173
    30  H   -0.000000   0.054792  -0.002273  -0.005416  -0.025070  -0.004962
              25         26         27         28         29         30
     1  C    0.288374  -0.044785  -0.024173  -0.014607   0.004950  -0.000195
     2  O   -0.012295   0.002452  -0.001522   0.000183  -0.000530  -0.000016
     3  H    0.000028  -0.000000   0.000000  -0.000001   0.000000  -0.000000
     4  O   -0.000135   0.000004  -0.000012   0.000154  -0.000000   0.000000
     5  H    0.001306  -0.000060  -0.000095  -0.000075   0.000003   0.000000
     6  C   -0.027734   0.005901   0.003630  -0.000251  -0.050316   0.000441
     7  C   -0.003770   0.000260  -0.004704   0.000793   0.003105   0.000118
     8  H    0.000249  -0.000257   0.000043   0.000010   0.005094   0.001831
     9  H   -0.004926   0.000233   0.016508  -0.000181  -0.000010  -0.000001
    10  O    0.001779  -0.000080  -0.000407   0.000015   0.001527   0.000107
    11  H   -0.000396  -0.000006   0.001556  -0.000034  -0.000026  -0.000031
    12  C    0.000291   0.000016   0.000377  -0.000031  -0.000053  -0.000002
    13  O    0.000005  -0.000000  -0.000001  -0.000000   0.000000   0.000000
    14  H    0.000009  -0.000000   0.000002  -0.000000   0.000001  -0.000000
    15  H   -0.000003  -0.000001  -0.000007   0.000000  -0.000017   0.000000
    16  H   -0.000021   0.000000  -0.000001  -0.000000  -0.000004  -0.000001
    17  H   -0.053932  -0.000128   0.002910   0.001684   0.003630  -0.000033
    18  O   -0.051962   0.000026  -0.019254   0.045878   0.000012   0.000001
    19  H    0.005088  -0.000188   0.000231  -0.000830   0.000002  -0.000000
    20  O    0.000053   0.000002   0.000000  -0.000000  -0.017984   0.054792
    21  H   -0.000004  -0.000000  -0.000000   0.000000   0.000912  -0.002273
    22  H    0.000027  -0.000003  -0.000004   0.000000   0.002191  -0.005416
    23  C    0.330504  -0.046333  -0.045836   0.006626   0.225957  -0.025070
    24  H   -0.047703  -0.006541   0.003700  -0.000280  -0.032173  -0.004962
    25  C    5.000285   0.355260   0.214305  -0.041986  -0.047301   0.005653
    26  H    0.355260   0.606148  -0.034923   0.000583   0.006790  -0.000139
    27  O    0.214305  -0.034923   8.316967   0.230354   0.001236  -0.000102
    28  H   -0.041986   0.000583   0.230354   0.351382  -0.000105   0.000008
    29  O   -0.047301   0.006790   0.001236  -0.000105   8.342049   0.220936
    30  H    0.005653  -0.000139  -0.000102   0.000008   0.220936   0.324607
 Mulliken charges:
               1
     1  C    0.327338
     2  O   -0.612920
     3  H    0.398118
     4  O   -0.819139
     5  H    0.450957
     6  C    0.081715
     7  C    0.100004
     8  H    0.156836
     9  H    0.154171
    10  O   -0.659319
    11  H    0.416825
    12  C   -0.043879
    13  O   -0.633136
    14  H    0.158297
    15  H    0.121524
    16  H    0.406458
    17  H    0.158004
    18  O   -0.651730
    19  H    0.451240
    20  O   -0.806477
    21  H    0.399281
    22  H    0.426647
    23  C    0.122350
    24  H    0.132309
    25  C    0.088952
    26  H    0.155768
    27  O   -0.660779
    28  H    0.420715
    29  O   -0.669876
    30  H    0.429744
 Sum of Mulliken charges =  -0.00000
 Mulliken charges with hydrogens summed into heavy atoms:
               1
     1  C    0.485342
     2  O   -0.612920
     4  O    0.029935
     6  C    0.238551
     7  C    0.254176
    10  O   -0.242493
    12  C    0.235941
    13  O   -0.226678
    18  O   -0.200490
    20  O    0.019451
    23  C    0.254659
    25  C    0.244721
    27  O   -0.240064
    29  O   -0.240132
 APT charges:
               1
     1  C   -0.212061
     2  O   -0.406921
     3  H    0.876469
     4  O   -1.110313
     5  H    0.162380
     6  C   -0.131635
     7  C   -0.187348
     8  H    0.359828
     9  H    0.321243
    10  O   -0.804829
    11  H    0.573215
    12  C   -0.703156
    13  O   -0.498563
    14  H    0.503178
    15  H    0.361700
    16  H    0.415088
    17  H    0.466400
    18  O   -0.491262
    19  H    0.504794
    20  O   -0.957103
    21  H    0.837792
    22  H    0.202642
    23  C   -0.322163
    24  H    0.415379
    25  C   -0.434687
    26  H    0.549471
    27  O   -0.741000
    28  H    0.614879
    29  O   -0.805641
    30  H    0.642222
 Sum of APT charges =  -0.00000
 APT charges with hydrogens summed into heavy atoms:
               1
     1  C    0.254340
     2  O   -0.406921
     4  O   -0.071464
     6  C    0.228193
     7  C    0.133895
    10  O   -0.231613
    12  C    0.161722
    13  O   -0.083475
    18  O    0.013533
    20  O    0.083331
    23  C    0.093216
    25  C    0.114784
    27  O   -0.126121
    29  O   -0.163420
 Electronic spatial extent (au):  <R**2>=           3158.8706
 Charge=             -0.0000 electrons
 Dipole moment (field-independent basis, Debye):
    X=              0.7251    Y=              0.6856    Z=             -2.1172  Tot=              2.3406
 Quadrupole moment (field-independent basis, Debye-Ang):
   XX=            -75.1548   YY=            -97.6921   ZZ=            -79.0449
   XY=              6.9525   XZ=              4.8375   YZ=             -3.3909
 Traceless Quadrupole moment (field-independent basis, Debye-Ang):
   XX=              8.8091   YY=            -13.7282   ZZ=              4.9191
   XY=              6.9525   XZ=              4.8375   YZ=             -3.3909
 Octapole moment (field-independent basis, Debye-Ang**2):
  XXX=              7.0686  YYY=            -37.5366  ZZZ=             -3.6762  XYY=             -3.7182
  XXY=             25.1622  XXZ=            -43.2936  XZZ=             -0.2511  YZZ=              8.5381
  YYZ=             -8.7563  XYZ=             -0.9027
 Hexadecapole moment (field-independent basis, Debye-Ang**3):
 XXXX=          -1794.8919 YYYY=          -1497.0249 ZZZZ=           -370.2090 XXXY=            104.7254
 XXXZ=              6.5911 YYYX=              5.5530 YYYZ=            -39.7740 ZZZX=             10.3481
 ZZZY=             14.8109 XXYY=           -569.3742 XXZZ=           -255.3904 YYZZ=           -295.8940
 XXYZ=            -16.0392 YYXZ=             14.6839 ZZXY=              8.9508
 N-N= 1.115140058210D+03 E-N=-4.202364063444D+03  KE= 8.328963254377D+02
  Exact polarizability:   0.000   0.000   0.000   0.000   0.000   0.000
 Approx polarizability: 135.744   3.040 129.633  -0.228   2.843 129.245

 This type of calculation cannot be archived.


 You can't act like a skunk without someone's getting wind of it.
 -- Lorene Workman
 Job cpu time:       0 days  0 hours 59 minutes 44.6 seconds.
 File lengths (MBytes):  RWF=    220 Int=      0 D2E=      0 Chk=      9 Scr=      1
 Normal termination of Gaussian 09 at Sat Jan 14 01:13:09 2017.
