 Entering Gaussian System, Link 0=g09
 Initial command:
 /global/software/gaussian/g09.e01/l1.exe "/scratch/10461056.yak.local/Gau-20674.inp" -scrdir="/scratch/10461056.yak.local/"
 Entering Link 1 = /global/software/gaussian/g09.e01/l1.exe PID=     20675.
  
 Copyright (c) 1988,1990,1992,1993,1995,1998,2003,2009,2015,
            Gaussian, Inc.  All Rights Reserved.
  
 This is part of the Gaussian(R) 09 program.  It is based on
 the Gaussian(R) 03 system (copyright 2003, Gaussian, Inc.),
 the Gaussian(R) 98 system (copyright 1998, Gaussian, Inc.),
 the Gaussian(R) 94 system (copyright 1995, Gaussian, Inc.),
 the Gaussian 92(TM) system (copyright 1992, Gaussian, Inc.),
 the Gaussian 90(TM) system (copyright 1990, Gaussian, Inc.),
 the Gaussian 88(TM) system (copyright 1988, Gaussian, Inc.),
 the Gaussian 86(TM) system (copyright 1986, Carnegie Mellon
 University), and the Gaussian 82(TM) system (copyright 1983,
 Carnegie Mellon University). Gaussian is a federally registered
 trademark of Gaussian, Inc.
  
 This software contains proprietary and confidential information,
 including trade secrets, belonging to Gaussian, Inc.
  
 This software is provided under written license and may be
 used, copied, transmitted, or stored only in accord with that
 written license.
  
 The following legend is applicable only to US Government
 contracts under FAR:
  
                    RESTRICTED RIGHTS LEGEND
  
 Use, reproduction and disclosure by the US Government is
 subject to restrictions as set forth in subparagraphs (a)
 and (c) of the Commercial Computer Software - Restricted
 Rights clause in FAR 52.227-19.
  
 Gaussian, Inc.
 340 Quinnipiac St., Bldg. 40, Wallingford CT 06492
  
  
 ---------------------------------------------------------------
 Warning -- This program may not be used in any manner that
 competes with the business of Gaussian, Inc. or will provide
 assistance to any competitor of Gaussian, Inc.  The licensee
 of this program is prohibited from giving any competitor of
 Gaussian, Inc. access to this program.  By using this program,
 the user acknowledges that Gaussian, Inc. is engaged in the
 business of creating and licensing software in the field of
 computational chemistry and represents and warrants to the
 licensee that it is not a competitor of Gaussian, Inc. and that
 it will not use this program in any manner prohibited above.
 ---------------------------------------------------------------
  

 Cite this work as:
 Gaussian 09, Revision E.01,
 M. J. Frisch, G. W. Trucks, H. B. Schlegel, G. E. Scuseria, 
 M. A. Robb, J. R. Cheeseman, G. Scalmani, V. Barone, B. Mennucci, 
 G. A. Petersson, H. Nakatsuji, M. Caricato, X. Li, H. P. Hratchian, 
 A. F. Izmaylov, J. Bloino, G. Zheng, J. L. Sonnenberg, M. Hada, 
 M. Ehara, K. Toyota, R. Fukuda, J. Hasegawa, M. Ishida, T. Nakajima, 
 Y. Honda, O. Kitao, H. Nakai, T. Vreven, J. A. Montgomery, Jr., 
 J. E. Peralta, F. Ogliaro, M. Bearpark, J. J. Heyd, E. Brothers, 
 K. N. Kudin, V. N. Staroverov, T. Keith, R. Kobayashi, J. Normand, 
 K. Raghavachari, A. Rendell, J. C. Burant, S. S. Iyengar, J. Tomasi, 
 M. Cossi, N. Rega, J. M. Millam, M. Klene, J. E. Knox, J. B. Cross, 
 V. Bakken, C. Adamo, J. Jaramillo, R. Gomperts, R. E. Stratmann, 
 O. Yazyev, A. J. Austin, R. Cammi, C. Pomelli, J. W. Ochterski, 
 R. L. Martin, K. Morokuma, V. G. Zakrzewski, G. A. Voth, 
 P. Salvador, J. J. Dannenberg, S. Dapprich, A. D. Daniels, 
 O. Farkas, J. B. Foresman, J. V. Ortiz, J. Cioslowski, 
 and D. J. Fox, Gaussian, Inc., Wallingford CT, 2013.
 
 ******************************************
 Gaussian 09:  ES64L-G09RevE.01 30-Nov-2015
                14-Jan-2017 
 ******************************************
 -------------------------------------
 # b3lyp/6-31g(d) irc=(calcfc,reverse)
 -------------------------------------
 1/10=4,14=-1,18=10,22=2,26=3,38=1,44=3/1,23;
 2/12=2,17=6,18=5,29=1,40=1/2;
 3/5=1,6=6,7=1,11=2,16=1,25=1,30=1,71=2,74=-5,140=1/1,2,3;
 4//1;
 5/5=2,38=5/2;
 8/6=4,10=90,11=11/1;
 11/6=1,8=1,9=11,15=111,16=1/1,2,10;
 10/6=1,13=1/2;
 6/7=2,8=2,9=2,10=2,28=1/1;
 7/10=1,18=20,25=1/1,2,3,16;
 1/10=4,14=-1,18=10,22=2,26=3,44=3/23(2);
 2/29=1/2;
 99/5=20/99;
 2/29=1/2;
 3/5=1,6=6,7=1,11=2,16=1,25=1,30=1,71=2,74=-5,140=1/1,2,3;
 4/5=5,16=3,69=1/1;
 5/5=2,38=5/2;
 8/6=4,10=90,11=11/1;
 11/6=1,8=1,9=11,15=111,16=1/1,2,10;
 10/6=1,13=1/2;
 7/10=1,18=20,25=1/1,2,3,16;
 1/14=-1,18=10,22=2,26=3,44=3/23(-8);
 2/29=1/2;
 6/7=2,8=2,9=2,10=2,19=2,28=1/1;
 99/5=20,9=1/99;
 ---------------------------------
 glo_2w_alpha_ts_boat2_B3LYP_631Gd
 ---------------------------------
 Symbolic Z-matrix:
 Charge =  0 Multiplicity = 1
 6                     0.04641  -1.47853   0.3511 
 8                     0.37527   0.08319   0.80678 
 1                     2.84254   1.18621   0.38254 
 1                     3.64467  -2.3804   -0.00793 
 8                     3.26472  -1.62029  -0.47493 
 1                     3.16411  -0.47006   0.34753 
 8                     2.83558   0.36467   0.94513 
 1                     1.76449   0.20732   0.99387 
 6                    -1.68721   1.04027  -0.06486 
 6                    -0.14062   0.98034  -0.19185 
 1                    -1.9873    1.88934   0.56199 
 1                     0.09456   0.56142  -1.17993 
 8                    -2.27104   1.24885  -1.33925 
 1                    -2.1992    0.37832  -1.78128 
 6                     0.49623   2.35958  -0.0864 
 8                     1.8815    2.40007  -0.49989 
 1                     0.49148   2.71052   0.94978 
 1                    -0.08826   3.06095  -0.69376 
 1                     1.90813   2.25375  -1.45952 
 1                     0.29543  -1.92781   1.32572 
 8                     0.74804  -1.82895  -0.6828 
 1                     2.25107  -1.8239   -0.60252 
 6                    -1.4875   -1.47829   0.0584 
 1                    -1.91317  -2.38674   0.5103 
 6                    -2.204    -0.24333   0.6279 
 1                    -3.27571  -0.31772   0.41962 
 8                    -1.66435  -1.49781  -1.35473 
 1                    -0.7698   -1.77319  -1.67477 
 8                    -2.07379  -0.18019   2.0421 
 1                    -1.13032  -0.00458   2.20334 
 
 IRC-IRC-IRC-IRC-IRC-IRC-IRC-IRC-IRC-IRC-IRC-IRC-IRC-IRC-IRC-IRC-IRC-IRC
 ------------------------------------------------------------------------
 INPUT DATA FOR L123
 ------------------------------------------------------------------------
 GENERAL PARAMETERS:
 Rxn path following direction = Reverse
 Maximum points per path      =  10
 Step size                    =   0.100 bohr
 Integration scheme           = HPC                                 
    Redo corrector integration= Yes                                 
    DWI Weight Power          =  2
    DWI will use Hessian update vectors when possible.
    Max correction cycles     =  20
 Initial Hessian              = CalcFC
 Hessian evaluation           = All updating
 Hessian updating method      = Bofill                              
 ------------------------------------------------------------------------
 IRC-IRC-IRC-IRC-IRC-IRC-IRC-IRC-IRC-IRC-IRC-IRC-IRC-IRC-IRC-IRC-IRC-IRC
                          Input orientation:                          
 ---------------------------------------------------------------------
 Center     Atomic      Atomic             Coordinates (Angstroms)
 Number     Number       Type             X           Y           Z
 ---------------------------------------------------------------------
      1          6           0        0.046413   -1.478531    0.351104
      2          8           0        0.375273    0.083194    0.806781
      3          1           0        2.842537    1.186213    0.382539
      4          1           0        3.644665   -2.380404   -0.007926
      5          8           0        3.264718   -1.620294   -0.474933
      6          1           0        3.164111   -0.470055    0.347534
      7          8           0        2.835583    0.364667    0.945132
      8          1           0        1.764492    0.207322    0.993874
      9          6           0       -1.687210    1.040268   -0.064860
     10          6           0       -0.140620    0.980341   -0.191845
     11          1           0       -1.987296    1.889338    0.561985
     12          1           0        0.094559    0.561419   -1.179930
     13          8           0       -2.271044    1.248846   -1.339248
     14          1           0       -2.199202    0.378323   -1.781282
     15          6           0        0.496232    2.359584   -0.086398
     16          8           0        1.881495    2.400074   -0.499888
     17          1           0        0.491480    2.710523    0.949783
     18          1           0       -0.088255    3.060955   -0.693763
     19          1           0        1.908126    2.253750   -1.459523
     20          1           0        0.295431   -1.927808    1.325723
     21          8           0        0.748037   -1.828949   -0.682802
     22          1           0        2.251072   -1.823896   -0.602522
     23          6           0       -1.487497   -1.478294    0.058397
     24          1           0       -1.913166   -2.386739    0.510296
     25          6           0       -2.204005   -0.243329    0.627897
     26          1           0       -3.275707   -0.317717    0.419617
     27          8           0       -1.664349   -1.497812   -1.354734
     28          1           0       -0.769799   -1.773188   -1.674774
     29          8           0       -2.073790   -0.180187    2.042100
     30          1           0       -1.130324   -0.004580    2.203338
 ---------------------------------------------------------------------
                    Distance matrix (angstroms):
                    1          2          3          4          5
     1  C    0.000000
     2  O    1.659752   0.000000
     3  H    3.862662   2.735694   0.000000
     4  H    3.726888   4.173965   3.676497   0.000000
     5  O    3.325646   3.590760   2.964789   0.969651   0.000000
     6  H    3.276748   2.880036   1.687560   2.001679   1.417612
     7  O    3.395544   2.480220   0.995739   3.016347   2.478066
     8  H    2.491395   1.407246   1.579284   3.351862   2.783568
     9  C    3.085907   2.435074   4.554127   6.335071   5.636341
    10  C    2.525040   1.438149   3.044918   5.065256   4.294155
    11  H    3.939922   2.983926   4.884043   7.090450   6.401279
    12  H    2.551035   2.062649   3.222276   4.757223   3.912391
    13  O    3.958091   3.600997   5.396034   7.066788   6.294733
    14  H    3.610784   3.662389   5.545623   6.701205   5.962838
    15  C    3.889071   2.448336   2.664929   5.690894   4.863631
    16  O    4.374390   3.056799   1.782060   5.118961   4.251739
    17  H    4.254959   2.633783   2.858803   6.064431   5.336351
    18  H    4.660130   3.366534   3.641789   6.634263   5.762327
    19  H    4.546896   3.492433   2.325070   5.157333   4.221134
    20  H    1.101700   2.078414   4.132127   3.633295   3.486200
    21  O    1.297702   2.452366   3.822706   3.024899   2.533857
    22  H    2.426768   3.023533   3.221945   1.614109   1.041735
    23  C    1.561588   2.543273   5.094493   5.211265   4.784156
    24  H    2.165672   3.380152   5.949707   5.581942   5.326218
    25  C    2.581999   2.606011   5.250845   6.259257   5.746233
    26  H    3.519753   3.693275   6.300483   7.233880   6.728602
    27  O    2.415980   3.366272   5.525770   5.547837   5.008468
    28  H    2.203907   3.303855   5.102897   4.757582   4.211926
    29  O    3.006730   2.755593   5.365768   6.460982   6.075280
    30  H    2.643485   2.055456   4.529561   5.773625   5.394447
                    6          7          8          9         10
     6  H    0.000000
     7  O    1.077875   0.000000
     8  H    1.683903   1.083683   0.000000
     9  C    5.097692   4.683180   3.705262   0.000000
    10  C    3.649086   3.244928   2.373381   1.552951   0.000000
    11  H    5.670072   5.072631   4.134201   1.097227   2.191973
    12  H    3.580396   3.473876   2.763962   2.155778   1.098689
    13  O    5.944810   5.663727   4.776377   1.417191   2.434612
    14  H    5.832386   5.725607   4.841653   1.909558   2.669550
    15  C    3.913149   3.242886   2.721710   2.551172   1.522830
    16  O    3.255897   2.672311   2.655782   3.843693   2.489876
    17  H    4.197825   3.316305   2.808651   2.926763   2.167117
    18  H    4.912252   4.301718   3.797896   2.652424   2.140939
    19  H    3.501723   3.195493   3.198071   4.042779   2.725057
    20  H    3.363216   3.442770   2.612861   3.830674   3.309152
    21  O    2.957296   3.438018   2.826804   3.813750   2.987116
    22  H    1.889215   2.743482   2.628895   4.899243   3.708449
    23  C    4.768396   4.782450   3.780456   2.529473   2.814531
    24  H    5.429448   5.505446   4.526386   3.482275   3.869386
    25  C    5.380212   5.086034   4.010735   1.547453   2.535134
    26  H    6.442023   6.171684   5.099906   2.145265   3.447841
    27  O    5.221880   5.385870   4.492259   2.847130   3.132938
    28  H    4.611240   4.942986   4.179322   3.368828   3.190120
    29  O    5.512820   5.059857   3.997668   2.465408   3.174032
    30  H    4.701367   4.177062   3.144466   2.558623   2.772451
                   11         12         13         14         15
    11  H    0.000000
    12  H    3.021880   0.000000
    13  O    2.026186   2.468606   0.000000
    14  H    2.796242   2.378337   0.978962   0.000000
    15  C    2.609491   2.142557   3.234376   3.750119   0.000000
    16  O    4.044251   2.652593   4.390152   4.730913   1.446225
    17  H    2.639898   3.051536   3.873977   4.487498   1.094007
    18  H    2.560458   2.552932   2.909460   3.582640   1.096558
    19  H    4.403817   2.496234   4.299972   4.526687   1.972338
    20  H    4.512731   3.537640   4.876474   4.603793   4.518422
    21  O    4.780920   2.527455   4.361031   3.842516   4.238268
    22  H    5.753951   3.267059   5.516706   5.103350   4.565890
    23  C    3.441561   2.863003   3.163013   2.708869   4.322667
    24  H    4.277032   3.947082   4.094676   3.602598   5.356195
    25  C    2.144662   3.033027   2.469968   2.488095   3.817938
    26  H    2.559563   3.832770   2.560678   2.547016   4.653119
    27  O    3.905239   2.713807   2.812908   1.996971   4.599597
    28  H    4.460884   2.538183   3.391018   2.585254   4.604951
    29  O    2.545811   3.953883   3.676215   3.865994   4.193561
    30  H    2.648654   3.642416   3.927115   4.143225   3.671219
                   16         17         18         19         20
    16  O    0.000000
    17  H    2.032256   0.000000
    18  H    2.086688   1.777678   0.000000
    19  H    0.971092   2.832010   2.285499   0.000000
    20  H    4.957723   4.657669   5.395674   5.276723   0.000000
    21  O    4.382102   4.830938   4.960914   4.314804   2.061261
    22  H    4.241349   5.105563   5.416876   4.180820   2.748356
    23  C    5.167546   4.717744   4.809200   5.269012   2.233161
    24  H    6.191406   5.653101   5.870045   6.325867   2.398633
    25  C    4.995076   4.011794   4.140227   5.244268   3.093802
    26  H    5.901577   4.862408   4.776493   6.084056   4.020752
    27  O    5.338285   5.260084   4.868605   5.181484   3.348206
    28  H    5.081912   5.346287   4.979540   4.840852   3.187727
    29  O    5.363183   4.016214   4.683193   5.834472   3.029948
    30  H    4.707531   3.401975   4.344722   5.267711   2.549861
                   21         22         23         24         25
    21  O    0.000000
    22  H    1.505186   0.000000
    23  C    2.381165   3.812237   0.000000
    24  H    2.969278   4.346957   1.100309   0.000000
    25  C    3.598149   4.884653   1.537157   2.166246   0.000000
    26  H    4.437304   5.818817   2.162201   2.479031   1.094285
    27  O    2.526015   4.000334   1.424288   2.080970   2.407443
    28  H    1.814096   3.205925   1.898930   2.541311   3.114436
    29  O    4.255140   5.329187   2.442110   2.690928   1.421588
    30  H    3.896969   4.755691   2.626819   3.025544   1.921407
                   26         27         28         29         30
    26  H    0.000000
    27  O    2.671595   0.000000
    28  H    3.575534   0.989180   0.000000
    29  O    2.023850   3.666369   4.248905   0.000000
    30  H    2.807558   3.895485   4.277582   0.973121   0.000000
 Symmetry turned off by external request.
 Stoichiometry    C6H16O8
 Framework group  C1[X(C6H16O8)]
 Deg. of freedom    84
 Full point group                 C1      NOp   1
 Rotational constants (GHZ):      0.7939130      0.5347342      0.4215019
 Standard basis: 6-31G(d) (6D, 7F)
   242 basis functions,   456 primitive gaussians,   242 cartesian basis functions
    58 alpha electrons       58 beta electrons
       nuclear repulsion energy      1136.3247361065 Hartrees.
 NAtoms=   30 NActive=   30 NUniq=   30 SFac= 1.00D+00 NAtFMM=   60 NAOKFM=F Big=F
 Integral buffers will be    131072 words long.
 Raffenetti 2 integral format.
 Two-electron integral symmetry is turned off.
 One-electron integrals computed using PRISM.
 NBasis=   242 RedAO= T EigKep=  1.37D-03  NBF=   242
 NBsUse=   242 1.00D-06 EigRej= -1.00D+00 NBFU=   242
 ExpMin= 1.61D-01 ExpMax= 5.48D+03 ExpMxC= 8.25D+02 IAcc=1 IRadAn=         1 AccDes= 0.00D+00
 Harris functional with IExCor=  402 and IRadAn=       1 diagonalized for initial guess.
 HarFok:  IExCor=  402 AccDes= 0.00D+00 IRadAn=         1 IDoV= 1 UseB2=F ITyADJ=14
 ICtDFT=  3500011 ScaDFX=  1.000000  1.000000  1.000000  1.000000
 FoFCou: FMM=F IPFlag=           0 FMFlag=      100000 FMFlg1=           0
         NFxFlg=           0 DoJE=T BraDBF=F KetDBF=T FulRan=T
         wScrn=  0.000000 ICntrl=     500 IOpCl=  0 I1Cent=   200000004 NGrid=           0
         NMat0=    1 NMatS0=      1 NMatT0=    0 NMatD0=    1 NMtDS0=    0 NMtDT0=    0
 Symmetry not used in FoFCou.
 Requested convergence on RMS density matrix=1.00D-08 within 128 cycles.
 Requested convergence on MAX density matrix=1.00D-06.
 Requested convergence on             energy=1.00D-06.
 No special actions if energy rises.
 Integral accuracy reduced to 1.0D-05 until final iterations.
 Initial convergence to 1.0D-05 achieved.  Increase integral accuracy.
 SCF Done:  E(RB3LYP) =  -839.984801921     A.U. after   14 cycles
            NFock= 14  Conv=0.72D-08     -V/T= 2.0087
 DoSCS=F DFT=T ScalE2(SS,OS)=  1.000000  1.000000
 Range of M.O.s used for correlation:     1   242
 NBasis=   242 NAE=    58 NBE=    58 NFC=     0 NFV=     0
 NROrb=    242 NOA=    58 NOB=    58 NVA=   184 NVB=   184
 Symmetrizing basis deriv contribution to polar:
 IMax=3 JMax=2 DiffMx= 0.00D+00
 G2DrvN: will do    31 centers at a time, making    1 passes.
 Calling FoFCou, ICntrl=  3107 FMM=F I1Cent=   0 AccDes= 0.00D+00.
 End of G2Drv F.D. properties file   721 does not exist.
 End of G2Drv F.D. properties file   722 does not exist.
 End of G2Drv F.D. properties file   788 does not exist.
          IDoAtm=111111111111111111111111111111
          Differentiating once with respect to nuclear coordinates.
          There are    93 degrees of freedom in the 1st order CPHF.  IDoFFX=6 NUNeed=     0.
     87 vectors produced by pass  0 Test12= 1.15D-14 1.08D-09 XBig12= 1.32D-01 6.47D-02.
 AX will form    87 AO Fock derivatives at one time.
     87 vectors produced by pass  1 Test12= 1.15D-14 1.08D-09 XBig12= 1.89D-02 2.78D-02.
     87 vectors produced by pass  2 Test12= 1.15D-14 1.08D-09 XBig12= 1.75D-04 1.90D-03.
     87 vectors produced by pass  3 Test12= 1.15D-14 1.08D-09 XBig12= 5.02D-07 9.02D-05.
     87 vectors produced by pass  4 Test12= 1.15D-14 1.08D-09 XBig12= 6.96D-10 2.19D-06.
     70 vectors produced by pass  5 Test12= 1.15D-14 1.08D-09 XBig12= 5.58D-13 7.11D-08.
      2 vectors produced by pass  6 Test12= 1.15D-14 1.08D-09 XBig12= 4.64D-16 1.70D-09.
 InvSVY:  IOpt=1 It=  1 EMax= 5.83D-16
 Solved reduced A of dimension   507 with    93 vectors.
 End of Minotr F.D. properties file   721 does not exist.
 End of Minotr F.D. properties file   722 does not exist.
 End of Minotr F.D. properties file   788 does not exist.

 **********************************************************************

            Population analysis using the SCF density.

 **********************************************************************

 Alpha  occ. eigenvalues --  -19.21322 -19.19939 -19.17308 -19.17064 -19.13954
 Alpha  occ. eigenvalues --  -19.13563 -19.13240 -19.10877 -10.28247 -10.26168
 Alpha  occ. eigenvalues --  -10.24776 -10.23417 -10.22949 -10.22874  -1.09058
 Alpha  occ. eigenvalues --   -1.06018  -1.04897  -1.02427  -1.01305  -1.01251
 Alpha  occ. eigenvalues --   -1.00464  -0.97014  -0.77595  -0.74912  -0.69039
 Alpha  occ. eigenvalues --   -0.64127  -0.61997  -0.59129  -0.56930  -0.56289
 Alpha  occ. eigenvalues --   -0.54750  -0.53487  -0.52728  -0.50986  -0.50060
 Alpha  occ. eigenvalues --   -0.47301  -0.46693  -0.45889  -0.44345  -0.43541
 Alpha  occ. eigenvalues --   -0.42294  -0.41284  -0.40779  -0.39188  -0.38834
 Alpha  occ. eigenvalues --   -0.38355  -0.36907  -0.35978  -0.34320  -0.33460
 Alpha  occ. eigenvalues --   -0.32248  -0.31791  -0.30471  -0.28695  -0.26780
 Alpha  occ. eigenvalues --   -0.25848  -0.25137  -0.23979
 Alpha virt. eigenvalues --    0.03155   0.06003   0.06566   0.08703   0.10487
 Alpha virt. eigenvalues --    0.11453   0.11794   0.12578   0.13580   0.14556
 Alpha virt. eigenvalues --    0.14934   0.15745   0.16558   0.18462   0.20215
 Alpha virt. eigenvalues --    0.20556   0.22361   0.23036   0.23416   0.24071
 Alpha virt. eigenvalues --    0.25111   0.25735   0.26740   0.27962   0.30545
 Alpha virt. eigenvalues --    0.31969   0.34459   0.37977   0.51114   0.52080
 Alpha virt. eigenvalues --    0.53758   0.55132   0.57084   0.58659   0.58831
 Alpha virt. eigenvalues --    0.59408   0.60971   0.62948   0.63598   0.64949
 Alpha virt. eigenvalues --    0.68150   0.68874   0.70375   0.71748   0.74484
 Alpha virt. eigenvalues --    0.74794   0.75927   0.76632   0.78131   0.79010
 Alpha virt. eigenvalues --    0.79867   0.81614   0.82932   0.83516   0.84357
 Alpha virt. eigenvalues --    0.85486   0.86090   0.86613   0.87665   0.89353
 Alpha virt. eigenvalues --    0.90915   0.91603   0.91810   0.93785   0.95582
 Alpha virt. eigenvalues --    0.96797   0.98397   0.99775   1.01318   1.03993
 Alpha virt. eigenvalues --    1.04395   1.06667   1.07506   1.09027   1.10384
 Alpha virt. eigenvalues --    1.11802   1.13257   1.14361   1.14807   1.17469
 Alpha virt. eigenvalues --    1.18552   1.20887   1.22124   1.24329   1.27039
 Alpha virt. eigenvalues --    1.30428   1.32942   1.33365   1.35310   1.35874
 Alpha virt. eigenvalues --    1.39518   1.40753   1.45944   1.48694   1.50585
 Alpha virt. eigenvalues --    1.52765   1.53987   1.57471   1.58970   1.61062
 Alpha virt. eigenvalues --    1.62191   1.63448   1.65848   1.66161   1.67120
 Alpha virt. eigenvalues --    1.69135   1.69840   1.70861   1.71420   1.72479
 Alpha virt. eigenvalues --    1.72989   1.74230   1.76012   1.77708   1.78978
 Alpha virt. eigenvalues --    1.79817   1.81413   1.82795   1.85054   1.86861
 Alpha virt. eigenvalues --    1.88198   1.88586   1.92146   1.94289   1.96086
 Alpha virt. eigenvalues --    1.96599   1.99339   2.00593   2.02995   2.05477
 Alpha virt. eigenvalues --    2.07216   2.08283   2.10270   2.15448   2.16676
 Alpha virt. eigenvalues --    2.18881   2.23168   2.25646   2.26272   2.29590
 Alpha virt. eigenvalues --    2.32778   2.34088   2.35779   2.37807   2.38773
 Alpha virt. eigenvalues --    2.41531   2.45598   2.49282   2.50522   2.51319
 Alpha virt. eigenvalues --    2.53651   2.54615   2.56059   2.60151   2.62934
 Alpha virt. eigenvalues --    2.63538   2.66507   2.69442   2.69760   2.73115
 Alpha virt. eigenvalues --    2.75872   2.79843   2.83495   2.85520   2.90357
 Alpha virt. eigenvalues --    2.92017   2.93781   2.98100   3.05707   3.12484
 Alpha virt. eigenvalues --    3.74966   3.78435   3.79574   3.90114   3.90923
 Alpha virt. eigenvalues --    4.02168   4.10845   4.15708   4.30871   4.39335
 Alpha virt. eigenvalues --    4.44533   4.56904   4.78918   4.91344
          Condensed to atoms (all electrons):
               1          2          3          4          5          6
     1  C    4.752483   0.059265  -0.000208   0.000046   0.006753  -0.000040
     2  O    0.059265   8.628351   0.004703  -0.000017  -0.000660   0.002954
     3  H   -0.000208   0.004703   0.286608  -0.000058   0.001719  -0.000682
     4  H    0.000046  -0.000017  -0.000058   0.362419   0.236498  -0.007078
     5  O    0.006753  -0.000660   0.001719   0.236498   8.437234   0.132680
     6  H   -0.000040   0.002954  -0.000682  -0.007078   0.132680   0.271047
     7  O    0.003737  -0.078004   0.206896   0.003333  -0.079083   0.148337
     8  H   -0.002889   0.110922  -0.013003  -0.000016   0.003931  -0.004146
     9  C   -0.019919  -0.031826   0.000071  -0.000000   0.000000   0.000012
    10  C   -0.001565   0.131675  -0.000160   0.000002  -0.000097   0.000009
    11  H    0.000100   0.003399  -0.000001   0.000000   0.000000  -0.000000
    12  H   -0.002984  -0.045904  -0.000055   0.000002   0.000046   0.000043
    13  O   -0.000101   0.001517  -0.000001  -0.000000   0.000000  -0.000000
    14  H    0.000818   0.000015   0.000000  -0.000000   0.000000  -0.000000
    15  C    0.001606  -0.031425  -0.008292  -0.000001   0.000016  -0.000135
    16  O   -0.000127   0.000267   0.072942   0.000001  -0.000043   0.000727
    17  H   -0.000060  -0.000025  -0.001195   0.000000   0.000000   0.000020
    18  H   -0.000082   0.003064   0.000777   0.000000   0.000000   0.000001
    19  H   -0.000016  -0.000263  -0.004246  -0.000001   0.000017   0.000066
    20  H    0.361741  -0.050794   0.000030  -0.000067   0.000906  -0.000044
    21  O    0.327325  -0.051583   0.000088   0.002849  -0.062745   0.002996
    22  H   -0.011575   0.001502  -0.000092  -0.005741   0.155483  -0.010072
    23  C    0.301283  -0.021466   0.000002   0.000016  -0.000072   0.000048
    24  H   -0.047885   0.002741  -0.000000  -0.000000   0.000001  -0.000000
    25  C   -0.029453  -0.001178   0.000003  -0.000000   0.000001  -0.000003
    26  H    0.004705  -0.000025  -0.000000   0.000000  -0.000000   0.000000
    27  O   -0.027781  -0.000304  -0.000000   0.000000  -0.000002   0.000000
    28  H   -0.020558   0.000865   0.000000  -0.000009   0.000114  -0.000008
    29  O    0.003355  -0.015061   0.000000  -0.000000  -0.000000   0.000000
    30  H    0.004192   0.031597  -0.000002   0.000000   0.000000  -0.000001
               7          8          9         10         11         12
     1  C    0.003737  -0.002889  -0.019919  -0.001565   0.000100  -0.002984
     2  O   -0.078004   0.110922  -0.031826   0.131675   0.003399  -0.045904
     3  H    0.206896  -0.013003   0.000071  -0.000160  -0.000001  -0.000055
     4  H    0.003333  -0.000016  -0.000000   0.000002   0.000000   0.000002
     5  O   -0.079083   0.003931   0.000000  -0.000097   0.000000   0.000046
     6  H    0.148337  -0.004146   0.000012   0.000009  -0.000000   0.000043
     7  O    8.474904   0.153175  -0.000045   0.006070   0.000003  -0.000121
     8  H    0.153175   0.280902   0.001198  -0.011418  -0.000082   0.001275
     9  C   -0.000045   0.001198   5.000872   0.264314   0.369708  -0.042111
    10  C    0.006070  -0.011418   0.264314   5.091702  -0.063225   0.333670
    11  H    0.000003  -0.000082   0.369708  -0.063225   0.618328   0.005399
    12  H   -0.000121   0.001275  -0.042111   0.333670   0.005399   0.626479
    13  O    0.000000  -0.000018   0.225445  -0.041647  -0.037758   0.003758
    14  H   -0.000000  -0.000001  -0.032080  -0.004020   0.006203   0.004111
    15  C    0.005024  -0.003902  -0.019081   0.331814  -0.007178  -0.046757
    16  O   -0.030792   0.003549   0.002615  -0.035519   0.000068  -0.002031
    17  H    0.000165   0.000897  -0.004103  -0.037400   0.003938   0.005671
    18  H   -0.000068   0.000106   0.000964  -0.048913   0.000785   0.001377
    19  H    0.001598  -0.000026  -0.000167  -0.001808   0.000032   0.005475
    20  H   -0.000008  -0.000429   0.000910   0.004427   0.000011   0.001299
    21  O   -0.001453   0.004117   0.000742  -0.005506  -0.000015   0.017959
    22  H    0.006657   0.000348  -0.000006   0.000211  -0.000000  -0.000315
    23  C   -0.000044   0.001130  -0.031601  -0.014963   0.006570  -0.002769
    24  H    0.000001  -0.000042   0.006316   0.000231  -0.000199   0.000149
    25  C    0.000006   0.000070   0.308928  -0.039198  -0.048756  -0.005284
    26  H    0.000000   0.000004  -0.052951   0.006180  -0.003940  -0.000272
    27  O    0.000000  -0.000029   0.005902  -0.000553  -0.000106   0.006210
    28  H    0.000002  -0.000048   0.000583  -0.000869   0.000030   0.001080
    29  O   -0.000001   0.000015  -0.033265   0.004000   0.005024  -0.000156
    30  H    0.000001   0.000407  -0.008672  -0.000455   0.001070   0.000798
              13         14         15         16         17         18
     1  C   -0.000101   0.000818   0.001606  -0.000127  -0.000060  -0.000082
     2  O    0.001517   0.000015  -0.031425   0.000267  -0.000025   0.003064
     3  H   -0.000001   0.000000  -0.008292   0.072942  -0.001195   0.000777
     4  H   -0.000000  -0.000000  -0.000001   0.000001   0.000000   0.000000
     5  O    0.000000   0.000000   0.000016  -0.000043   0.000000   0.000000
     6  H   -0.000000  -0.000000  -0.000135   0.000727   0.000020   0.000001
     7  O    0.000000  -0.000000   0.005024  -0.030792   0.000165  -0.000068
     8  H   -0.000018  -0.000001  -0.003902   0.003549   0.000897   0.000106
     9  C    0.225445  -0.032080  -0.019081   0.002615  -0.004103   0.000964
    10  C   -0.041647  -0.004020   0.331814  -0.035519  -0.037400  -0.048913
    11  H   -0.037758   0.006203  -0.007178   0.000068   0.003938   0.000785
    12  H    0.003758   0.004111  -0.046757  -0.002031   0.005671   0.001377
    13  O    8.305330   0.226870  -0.001401  -0.000029   0.000082   0.005705
    14  H    0.226870   0.348029   0.000120   0.000002  -0.000001  -0.000085
    15  C   -0.001401   0.000120   4.960920   0.209863   0.366086   0.366938
    16  O   -0.000029   0.000002   0.209863   8.248709  -0.036240  -0.029052
    17  H    0.000082  -0.000001   0.366086  -0.036240   0.551564  -0.028683
    18  H    0.005705  -0.000085   0.366938  -0.029052  -0.028683   0.553395
    19  H    0.000012  -0.000004  -0.025456   0.236055   0.006407  -0.005477
    20  H   -0.000005  -0.000026  -0.000215   0.000002  -0.000004   0.000005
    21  O    0.000009  -0.000082   0.000042  -0.000002   0.000002   0.000008
    22  H    0.000000  -0.000001  -0.000035   0.000026  -0.000001  -0.000000
    23  C    0.001690  -0.003761   0.000224   0.000002   0.000011   0.000012
    24  H   -0.000246   0.000414   0.000018  -0.000000  -0.000001  -0.000000
    25  C   -0.024600  -0.010694   0.001886  -0.000049  -0.000188   0.000410
    26  H    0.004819   0.000736  -0.000095   0.000000   0.000002  -0.000007
    27  O   -0.016498   0.047339   0.000226  -0.000000  -0.000002   0.000000
    28  H    0.000551  -0.001476  -0.000001  -0.000000  -0.000001  -0.000003
    29  O    0.001572   0.000067  -0.000147   0.000000  -0.000022  -0.000009
    30  H    0.000014   0.000030  -0.000609   0.000001   0.000564   0.000002
              19         20         21         22         23         24
     1  C   -0.000016   0.361741   0.327325  -0.011575   0.301283  -0.047885
     2  O   -0.000263  -0.050794  -0.051583   0.001502  -0.021466   0.002741
     3  H   -0.004246   0.000030   0.000088  -0.000092   0.000002  -0.000000
     4  H   -0.000001  -0.000067   0.002849  -0.005741   0.000016  -0.000000
     5  O    0.000017   0.000906  -0.062745   0.155483  -0.000072   0.000001
     6  H    0.000066  -0.000044   0.002996  -0.010072   0.000048  -0.000000
     7  O    0.001598  -0.000008  -0.001453   0.006657  -0.000044   0.000001
     8  H   -0.000026  -0.000429   0.004117   0.000348   0.001130  -0.000042
     9  C   -0.000167   0.000910   0.000742  -0.000006  -0.031601   0.006316
    10  C   -0.001808   0.004427  -0.005506   0.000211  -0.014963   0.000231
    11  H    0.000032   0.000011  -0.000015  -0.000000   0.006570  -0.000199
    12  H    0.005475   0.001299   0.017959  -0.000315  -0.002769   0.000149
    13  O    0.000012  -0.000005   0.000009   0.000000   0.001690  -0.000246
    14  H   -0.000004  -0.000026  -0.000082  -0.000001  -0.003761   0.000414
    15  C   -0.025456  -0.000215   0.000042  -0.000035   0.000224   0.000018
    16  O    0.236055   0.000002  -0.000002   0.000026   0.000002  -0.000000
    17  H    0.006407  -0.000004   0.000002  -0.000001   0.000011  -0.000001
    18  H   -0.005477   0.000005   0.000008  -0.000000   0.000012  -0.000000
    19  H    0.373223  -0.000001  -0.000002   0.000005   0.000002  -0.000000
    20  H   -0.000001   0.679845  -0.048224  -0.002752  -0.063691  -0.000430
    21  O   -0.000002  -0.048224   8.376366   0.111019  -0.058179   0.001338
    22  H    0.000005  -0.002752   0.111019   0.301670   0.001975  -0.000054
    23  C    0.000002  -0.063691  -0.058179   0.001975   5.077455   0.363922
    24  H   -0.000000  -0.000430   0.001338  -0.000054   0.363922   0.626346
    25  C   -0.000003  -0.001025   0.001521  -0.000028   0.296175  -0.052596
    26  H   -0.000000  -0.000236  -0.000082   0.000001  -0.046226  -0.007111
    27  O   -0.000002   0.002279  -0.031893   0.000123   0.215362  -0.038972
    28  H   -0.000002   0.002923   0.071833  -0.000783  -0.047761   0.002721
    29  O   -0.000000   0.002114   0.000052   0.000001  -0.046440   0.004942
    30  H    0.000001   0.000505   0.000167  -0.000000  -0.007170  -0.000663
              25         26         27         28         29         30
     1  C   -0.029453   0.004705  -0.027781  -0.020558   0.003355   0.004192
     2  O   -0.001178  -0.000025  -0.000304   0.000865  -0.015061   0.031597
     3  H    0.000003  -0.000000  -0.000000   0.000000   0.000000  -0.000002
     4  H   -0.000000   0.000000   0.000000  -0.000009  -0.000000   0.000000
     5  O    0.000001  -0.000000  -0.000002   0.000114  -0.000000   0.000000
     6  H   -0.000003   0.000000   0.000000  -0.000008   0.000000  -0.000001
     7  O    0.000006   0.000000   0.000000   0.000002  -0.000001   0.000001
     8  H    0.000070   0.000004  -0.000029  -0.000048   0.000015   0.000407
     9  C    0.308928  -0.052951   0.005902   0.000583  -0.033265  -0.008672
    10  C   -0.039198   0.006180  -0.000553  -0.000869   0.004000  -0.000455
    11  H   -0.048756  -0.003940  -0.000106   0.000030   0.005024   0.001070
    12  H   -0.005284  -0.000272   0.006210   0.001080  -0.000156   0.000798
    13  O   -0.024600   0.004819  -0.016498   0.000551   0.001572   0.000014
    14  H   -0.010694   0.000736   0.047339  -0.001476   0.000067   0.000030
    15  C    0.001886  -0.000095   0.000226  -0.000001  -0.000147  -0.000609
    16  O   -0.000049   0.000000  -0.000000  -0.000000   0.000000   0.000001
    17  H   -0.000188   0.000002  -0.000002  -0.000001  -0.000022   0.000564
    18  H    0.000410  -0.000007   0.000000  -0.000003  -0.000009   0.000002
    19  H   -0.000003  -0.000000  -0.000002  -0.000002  -0.000000   0.000001
    20  H   -0.001025  -0.000236   0.002279   0.002923   0.002114   0.000505
    21  O    0.001521  -0.000082  -0.031893   0.071833   0.000052   0.000167
    22  H   -0.000028   0.000001   0.000123  -0.000783   0.000001  -0.000000
    23  C    0.296175  -0.046226   0.215362  -0.047761  -0.046440  -0.007170
    24  H   -0.052596  -0.007111  -0.038972   0.002721   0.004942  -0.000663
    25  C    4.959251   0.377189  -0.044790   0.005719   0.235489  -0.035873
    26  H    0.377189   0.587913   0.001867  -0.000508  -0.034849   0.006582
    27  O   -0.044790   0.001867   8.343858   0.211190   0.001504  -0.000008
    28  H    0.005719  -0.000508   0.211190   0.354041  -0.000102  -0.000012
    29  O    0.235489  -0.034849   0.001504  -0.000102   8.287900   0.229423
    30  H   -0.035873   0.006582  -0.000008  -0.000012   0.229423   0.375609
 Mulliken charges:
               1
     1  C    0.337836
     2  O   -0.654302
     3  H    0.454155
     4  H    0.407821
     5  O   -0.832698
     6  H    0.463269
     7  O   -0.820293
     8  H    0.474002
     9  C    0.087246
    10  C    0.133014
    11  H    0.140590
    12  H    0.133957
    13  O   -0.655069
    14  H    0.417476
    15  C   -0.100058
    16  O   -0.640947
    17  H    0.172518
    18  H    0.178830
    19  H    0.414578
    20  H    0.110953
    21  O   -0.658668
    22  H    0.452434
    23  C    0.078263
    24  H    0.139060
    25  C    0.107066
    26  H    0.156304
    27  O   -0.674919
    28  H    0.420486
    29  O   -0.645408
    30  H    0.402501
 Sum of Mulliken charges =  -0.00000
 Mulliken charges with hydrogens summed into heavy atoms:
               1
     1  C    0.448789
     2  O   -0.654302
     5  O    0.027557
     7  O    0.571133
     9  C    0.227837
    10  C    0.266971
    13  O   -0.237593
    15  C    0.251290
    16  O   -0.226369
    21  O   -0.658668
    23  C    0.217323
    25  C    0.263370
    27  O   -0.254432
    29  O   -0.242907
 APT charges:
               1
     1  C   -0.257337
     2  O   -0.450123
     3  H    0.499837
     4  H    0.907163
     5  O   -1.151451
     6  H    0.455728
     7  O   -0.667123
     8  H    0.294786
     9  C   -0.347508
    10  C   -0.083327
    11  H    0.482431
    12  H    0.237700
    13  O   -0.594911
    14  H    0.448415
    15  C   -0.772927
    16  O   -0.732703
    17  H    0.445137
    18  H    0.523337
    19  H    0.608652
    20  H    0.418721
    21  O   -0.534757
    22  H    0.256608
    23  C   -0.394340
    24  H    0.561813
    25  C   -0.482567
    26  H    0.623445
    27  O   -0.588377
    28  H    0.431283
    29  O   -0.460115
    30  H    0.322509
 Sum of APT charges =  -0.00000
 APT charges with hydrogens summed into heavy atoms:
               1
     1  C    0.161383
     2  O   -0.450123
     5  O    0.012320
     7  O    0.583228
     9  C    0.134924
    10  C    0.154373
    13  O   -0.146496
    15  C    0.195548
    16  O   -0.124051
    21  O   -0.534757
    23  C    0.167473
    25  C    0.140878
    27  O   -0.157094
    29  O   -0.137606
 Electronic spatial extent (au):  <R**2>=           2916.8150
 Charge=              0.0000 electrons
 Dipole moment (field-independent basis, Debye):
    X=              4.6579    Y=              0.7039    Z=              0.1653  Tot=              4.7137
 Quadrupole moment (field-independent basis, Debye-Ang):
   XX=            -88.3387   YY=            -79.6960   ZZ=            -87.2290
   XY=             -1.8117   XZ=              0.5384   YZ=             -4.8159
 Traceless Quadrupole moment (field-independent basis, Debye-Ang):
   XX=             -3.2508   YY=              5.3919   ZZ=             -2.1411
   XY=             -1.8117   XZ=              0.5384   YZ=             -4.8159
 Octapole moment (field-independent basis, Debye-Ang**2):
  XXX=             57.9737  YYY=            -12.9543  ZZZ=            -19.7476  XYY=             28.1163
  XXY=            -26.0749  XXZ=              0.5771  XZZ=             24.1033  YZZ=              6.5650
  YYZ=              9.1233  XYZ=            -18.5481
 Hexadecapole moment (field-independent basis, Debye-Ang**3):
 XXXX=          -1744.2745 YYYY=          -1102.3485 ZZZZ=           -489.9450 XXXY=            -59.7320
 XXXZ=             27.0201 YYYX=            -76.0747 YYYZ=            -15.4104 ZZZX=             22.9815
 ZZZY=             -0.1249 XXYY=           -446.2783 XXZZ=           -447.1313 YYZZ=           -263.6175
 XXYZ=            -29.5627 YYXZ=            -13.6015 ZZXY=             15.2332
 N-N= 1.136324736107D+03 E-N=-4.244761465063D+03  KE= 8.327762880423D+02
  Exact polarizability:   0.000   0.000   0.000   0.000   0.000   0.000
 Approx polarizability: 138.604  -5.102 131.371   0.763   3.363 136.989
 Calling FoFJK, ICntrl=    100147 FMM=F ISym2X=0 I1Cent= 0 IOpClX= 0 NMat=1 NMatS=1 NMatT=0.
 -------------------------------------------------------------------
 Center     Atomic                   Forces (Hartrees/Bohr)
 Number     Number              X              Y              Z
 -------------------------------------------------------------------
      1        6           0.000005250    0.000001074   -0.000000145
      2        8           0.000001626    0.000004734   -0.000000414
      3        1          -0.000001497    0.000002657    0.000002471
      4        1          -0.000004779    0.000017853   -0.000005795
      5        8           0.000009135   -0.000000051    0.000012791
      6        1           0.000002100    0.000003171    0.000002454
      7        8          -0.000003221    0.000011491    0.000004325
      8        1           0.000000051    0.000003060    0.000003488
      9        6          -0.000003984    0.000000640   -0.000006294
     10        6          -0.000008140   -0.000004760    0.000001923
     11        1          -0.000001518   -0.000002691   -0.000001470
     12        1          -0.000000384    0.000000902    0.000001606
     13        8          -0.000002258   -0.000009009   -0.000005275
     14        1           0.000002218   -0.000004319    0.000000074
     15        6          -0.000008126    0.000001352    0.000001716
     16        8          -0.000006040    0.000000450   -0.000030732
     17        1          -0.000004721    0.000000768    0.000000029
     18        1          -0.000002411   -0.000000948    0.000001423
     19        1          -0.000003470    0.000007345    0.000035166
     20        1           0.000001133    0.000000730    0.000000551
     21        8           0.000011431    0.000001894    0.000002771
     22        1           0.000005246    0.000003387    0.000001958
     23        6           0.000003226   -0.000005648   -0.000004416
     24        1           0.000002560   -0.000002711   -0.000002209
     25        6          -0.000003353   -0.000014578   -0.000000262
     26        1           0.000001271   -0.000004030   -0.000002362
     27        8           0.000010112   -0.000003839   -0.000004350
     28        1           0.000002579    0.000000611   -0.000000242
     29        8           0.000006506   -0.000009108   -0.000007410
     30        1          -0.000010543   -0.000000427   -0.000001369
 -------------------------------------------------------------------
 Cartesian Forces:  Max     0.000035166 RMS     0.000007097
 IRC-IRC-IRC-IRC-IRC-IRC-IRC-IRC-IRC-IRC-IRC-IRC-IRC-IRC-IRC-IRC-IRC-IRC
          ******** Start new reaction path calculation ********
 Supplied step size of   0.1000 bohr.
    Integration on MW PES will use step size of   0.1913 sqrt(amu)*bohr.
 Point Number:   0          Path Number:   1
 Calculating another point on the path.
 IRC-IRC-IRC-IRC-IRC-IRC-IRC-IRC-IRC-IRC-IRC-IRC-IRC-IRC-IRC-IRC-IRC-IRC
                          Input orientation:                          
 ---------------------------------------------------------------------
 Center     Atomic      Atomic             Coordinates (Angstroms)
 Number     Number       Type             X           Y           Z
 ---------------------------------------------------------------------
      1          6           0        0.071886   -1.461818    0.355687
      2          8           0        0.395318    0.081445    0.804443
      3          1           0        2.868146    1.189237    0.380088
      4          1           0        3.659737   -2.367941   -0.001244
      5          8           0        3.278814   -1.609288   -0.470220
      6          1           0        3.188997   -0.482318    0.334256
      7          8           0        2.868903    0.367355    0.943267
      8          1           0        1.816795    0.211647    1.007375
      9          6           0       -1.665182    1.045205   -0.064339
     10          6           0       -0.118825    0.982995   -0.191598
     11          1           0       -1.964499    1.894561    0.562506
     12          1           0        0.115946    0.566256   -1.180541
     13          8           0       -2.248873    1.253988   -1.338677
     14          1           0       -2.176419    0.383523   -1.780776
     15          6           0        0.519962    2.361300   -0.082855
     16          8           0        1.905067    2.403035   -0.497652
     17          1           0        0.516237    2.710454    0.953948
     18          1           0       -0.064703    3.064155   -0.688316
     19          1           0        1.930711    2.257769   -1.457495
     20          1           0        0.317376   -1.919965    1.327379
     21          8           0        0.775017   -1.819880   -0.680933
     22          1           0        2.254996   -1.811107   -0.596330
     23          6           0       -1.462563   -1.472208    0.060092
     24          1           0       -1.885610   -2.381755    0.511875
     25          6           0       -2.181803   -0.238469    0.628678
     26          1           0       -3.253421   -0.313680    0.420380
     27          8           0       -1.638826   -1.492757   -1.353261
     28          1           0       -0.743723   -1.768477   -1.671871
     29          8           0       -2.051699   -0.174559    2.043117
     30          1           0       -1.107948   -0.000541    2.204085
 ---------------------------------------------------------------------
                    Distance matrix (angstroms):
                    1          2          3          4          5
     1  C    0.000000
     2  O    1.639406   0.000000
     3  H    3.853279   2.742655   0.000000
     4  H    3.717679   4.159935   3.664089   0.000000
     5  O    3.314855   3.577415   2.953543   0.969843   0.000000
     6  H    3.267455   2.888520   1.702687   1.972240   1.387555
     7  O    3.393292   2.493921   0.996324   2.999894   2.464364
     8  H    2.503974   1.441780   1.566688   3.326864   2.763438
     9  C    3.078796   2.435010   4.557336   6.325212   5.626204
    10  C    2.512568   1.438482   3.048172   5.053963   4.282699
    11  H    3.931274   2.985742   4.887250   7.079461   6.390291
    12  H    2.544606   2.062341   3.224635   4.749601   3.904009
    13  O    3.953782   3.599940   5.398354   7.058242   6.285531
    14  H    3.608965   3.659021   5.546723   6.693131   5.953858
    15  C    3.874187   2.449607   2.664961   5.677198   4.850453
    16  O    4.361861   3.060159   1.780801   5.107593   4.241070
    17  H    4.238303   2.636031   2.859176   6.048478   5.321678
    18  H    4.646830   3.366973   3.641210   6.622024   5.750457
    19  H    4.536319   3.494307   2.323200   5.148534   4.212628
    20  H    1.101975   2.070068   4.131697   3.624541   3.478218
    21  O    1.302760   2.442447   3.815985   3.013961   2.521458
    22  H    2.407137   3.000387   3.214251   1.624035   1.051114
    23  C    1.562695   2.533696   5.093203   5.200390   4.772911
    24  H    2.168517   3.369805   5.947062   5.569053   5.313426
    25  C    2.578802   2.602843   5.253772   6.249404   5.736293
    26  H    3.518532   3.690111   6.303487   7.224231   6.718770
    27  O    2.418263   3.357311   5.523620   5.537930   4.997652
    28  H    2.206864   3.294201   5.099432   4.747717   4.201204
    29  O    3.002344   2.754586   5.369402   6.450647   6.065450
    30  H    2.635130   2.055609   4.533416   5.761847   5.383647
                    6          7          8          9         10
     6  H    0.000000
     7  O    1.093297   0.000000
     8  H    1.678575   1.065499   0.000000
     9  C    5.104435   4.693898   3.737318   0.000000
    10  C    3.655865   3.254758   2.403983   1.552831   0.000000
    11  H    5.679804   5.083219   4.162726   1.097238   2.192291
    12  H    3.582982   3.482656   2.793852   2.155856   1.098544
    13  O    5.948436   5.673184   4.808335   1.417118   2.434406
    14  H    5.831872   5.733755   4.873303   1.909278   2.668060
    15  C    3.922231   3.247502   2.737040   2.550942   1.523023
    16  O    3.265855   2.673803   2.659903   3.844235   2.491249
    17  H    4.209686   3.320431   2.817506   2.927209   2.167878
    18  H    4.920335   4.305908   3.814736   2.650856   2.140301
    19  H    3.507383   3.196487   3.205492   4.042480   2.725462
    20  H    3.361447   3.448140   2.625724   3.828792   3.305259
    21  O    2.940575   3.436042   2.839505   3.813590   2.982366
    22  H    1.871906   2.737324   2.618287   4.879480   3.688609
    23  C    4.763618   4.788067   3.806166   2.528618   2.810160
    24  H    5.421351   5.509002   4.547423   3.482049   3.864964
    25  C    5.384388   5.096629   4.041633   1.547575   2.533911
    26  H    6.445200   6.182238   5.131044   2.145699   3.446966
    27  O    5.213115   5.390146   4.518728   2.846624   3.128771
    28  H    4.598374   4.944876   4.201845   3.368984   3.186268
    29  O    5.520853   5.071062   4.023327   2.465479   3.173308
    30  H    4.710850   4.188121   3.167216   2.559266   2.772184
                   11         12         13         14         15
    11  H    0.000000
    12  H    3.021731   0.000000
    13  O    2.026253   2.467864   0.000000
    14  H    2.796268   2.376680   0.978984   0.000000
    15  C    2.609000   2.142505   3.235688   3.750334   0.000000
    16  O    4.044258   2.653498   4.391224   4.731106   1.446484
    17  H    2.640636   3.051862   3.875985   4.488175   1.094022
    18  H    2.557680   2.552336   2.910373   3.583099   1.096550
    19  H    4.402838   2.496256   4.300071   4.526127   1.972452
    20  H    4.510276   3.537164   4.875189   4.602792   4.512099
    21  O    4.779975   2.525397   4.361789   3.843906   4.231432
    22  H    5.734023   3.250952   5.498247   5.084953   4.547855
    23  C    3.440857   2.861153   3.163382   2.709636   4.318174
    24  H    4.277344   3.944777   4.095746   3.603829   5.351360
    25  C    2.145091   3.033234   2.470306   2.488447   3.816361
    26  H    2.560829   3.832737   2.561441   2.547766   4.652653
    27  O    3.905144   2.710828   2.813713   1.998050   4.596526
    28  H    4.461007   2.536023   3.392903   2.587582   4.601840
    29  O    2.545795   3.954676   3.676432   3.866415   4.190916
    30  H    2.649504   3.643470   3.927686   4.143459   3.668580
                   16         17         18         19         20
    16  O    0.000000
    17  H    2.032363   0.000000
    18  H    2.086487   1.777535   0.000000
    19  H    0.971112   2.832087   2.285513   0.000000
    20  H    4.953770   4.649707   5.389848   5.273693   0.000000
    21  O    4.375343   4.823249   4.955702   4.308817   2.062224
    22  H    4.229797   5.086370   5.399782   4.171633   2.732558
    23  C    5.164254   4.712673   4.805489   5.265939   2.230400
    24  H    6.187293   5.647556   5.866353   6.322018   2.394043
    25  C    4.994864   4.010158   4.138104   5.243672   3.092169
    26  H    5.901976   4.862139   4.775656   6.083912   4.019128
    27  O    5.335582   5.256852   4.866771   5.178697   3.345902
    28  H    5.079015   5.342588   4.978231   4.838307   3.185024
    29  O    5.362415   4.012964   4.679546   5.833532   3.028406
    30  H    4.706891   3.398575   4.341280   5.266933   2.546439
                   21         22         23         24         25
    21  O    0.000000
    22  H    1.482421   0.000000
    23  C    2.382594   3.790248   0.000000
    24  H    2.969415   4.324161   1.100160   0.000000
    25  C    3.599823   4.864054   1.537111   2.166806   0.000000
    26  H    4.439576   5.798158   2.163139   2.481172   1.094262
    27  O    2.526988   3.979464   1.424450   2.080854   2.407519
    28  H    1.814159   3.186051   1.898474   2.539441   3.114727
    29  O    4.256507   5.309670   2.442000   2.691469   1.421847
    30  H    3.896008   4.736018   2.624550   3.022997   1.921375
                   26         27         28         29         30
    26  H    0.000000
    27  O    2.672629   0.000000
    28  H    3.576665   0.989314   0.000000
    29  O    2.024046   3.666537   4.248825   0.000000
    30  H    2.807616   3.894002   4.275663   0.973067   0.000000
 Symmetry turned off by external request.
 Stoichiometry    C6H16O8
 Framework group  C1[X(C6H16O8)]
 Deg. of freedom    84
 Full point group                 C1      NOp   1
 Rotational constants (GHZ):      0.7961513      0.5348103      0.4220146
 Standard basis: 6-31G(d) (6D, 7F)
   242 basis functions,   456 primitive gaussians,   242 cartesian basis functions
    58 alpha electrons       58 beta electrons
       nuclear repulsion energy      1136.9338558033 Hartrees.
 NAtoms=   30 NActive=   30 NUniq=   30 SFac= 1.00D+00 NAtFMM=   60 NAOKFM=F Big=F
 Integral buffers will be    131072 words long.
 Raffenetti 2 integral format.
 Two-electron integral symmetry is turned off.
 One-electron integrals computed using PRISM.
 NBasis=   242 RedAO= T EigKep=  1.37D-03  NBF=   242
 NBsUse=   242 1.00D-06 EigRej= -1.00D+00 NBFU=   242
 Initial guess from the checkpoint file:  "/scratch/10461056.yak.local/Gau-20675.chk"
 B after Tr=     0.044364    0.009914    0.002606
         Rot=    1.000000   -0.000008   -0.000019    0.000026 Ang=  -0.00 deg.
 ExpMin= 1.61D-01 ExpMax= 5.48D+03 ExpMxC= 8.25D+02 IAcc=1 IRadAn=         1 AccDes= 0.00D+00
 Harris functional with IExCor=  402 and IRadAn=       1 diagonalized for initial guess.
 HarFok:  IExCor=  402 AccDes= 0.00D+00 IRadAn=         1 IDoV= 1 UseB2=F ITyADJ=14
 ICtDFT=  3500011 ScaDFX=  1.000000  1.000000  1.000000  1.000000
 FoFCou: FMM=F IPFlag=           0 FMFlag=      100000 FMFlg1=           0
         NFxFlg=           0 DoJE=T BraDBF=F KetDBF=T FulRan=T
         wScrn=  0.000000 ICntrl=     500 IOpCl=  0 I1Cent=   200000004 NGrid=           0
         NMat0=    1 NMatS0=      1 NMatT0=    0 NMatD0=    1 NMtDS0=    0 NMtDT0=    0
 Symmetry not used in FoFCou.
 Requested convergence on RMS density matrix=1.00D-08 within 128 cycles.
 Requested convergence on MAX density matrix=1.00D-06.
 Requested convergence on             energy=1.00D-06.
 No special actions if energy rises.
 Integral accuracy reduced to 1.0D-05 until final iterations.
 Initial convergence to 1.0D-05 achieved.  Increase integral accuracy.
 SCF Done:  E(RB3LYP) =  -839.984852181     A.U. after   11 cycles
            NFock= 11  Conv=0.67D-08     -V/T= 2.0087
 DoSCS=F DFT=T ScalE2(SS,OS)=  1.000000  1.000000
 Range of M.O.s used for correlation:     1   242
 NBasis=   242 NAE=    58 NBE=    58 NFC=     0 NFV=     0
 NROrb=    242 NOA=    58 NOB=    58 NVA=   184 NVB=   184
 Symmetrizing basis deriv contribution to polar:
 IMax=3 JMax=2 DiffMx= 0.00D+00
 Calling FoFJK, ICntrl=      2147 FMM=F ISym2X=0 I1Cent= 0 IOpClX= 0 NMat=1 NMatS=1 NMatT=0.
 -------------------------------------------------------------------
 Center     Atomic                   Forces (Hartrees/Bohr)
 Number     Number              X              Y              Z
 -------------------------------------------------------------------
      1        6           0.000040004    0.000586792    0.000239553
      2        8          -0.000229652   -0.000467337   -0.000297858
      3        1           0.000001809   -0.000071861    0.000047919
      4        1          -0.000035671    0.000065379    0.000020109
      5        8          -0.000501918    0.000514036    0.000344345
      6        1           0.000136228   -0.000448532   -0.000310383
      7        8           0.001338713    0.000277372   -0.000148066
      8        1          -0.000461381   -0.000075805    0.000169181
      9        6          -0.000091013   -0.000025535   -0.000053607
     10        6          -0.000123149   -0.000153950   -0.000091419
     11        1          -0.000003854   -0.000004326   -0.000006914
     12        1          -0.000014231   -0.000002075   -0.000004604
     13        8          -0.000106401   -0.000024801   -0.000067371
     14        1          -0.000002549   -0.000002464   -0.000005825
     15        6           0.000031663   -0.000230414    0.000139712
     16        8          -0.000019551   -0.000190757    0.000039712
     17        1           0.000001832   -0.000030697    0.000013536
     18        1          -0.000004211   -0.000014989    0.000024931
     19        1          -0.000008229    0.000001459    0.000040847
     20        1          -0.000004721    0.000028586   -0.000026485
     21        8           0.000379684    0.000309708    0.000022729
     22        1          -0.000439815   -0.000001177   -0.000026931
     23        6           0.000106849    0.000035389    0.000011418
     24        1           0.000026302   -0.000002296   -0.000000455
     25        6          -0.000085316   -0.000042437   -0.000034358
     26        1          -0.000003757   -0.000012090   -0.000006287
     27        8           0.000198090   -0.000026864    0.000001797
     28        1          -0.000000760    0.000000148    0.000001204
     29        8          -0.000103564    0.000016658   -0.000039512
     30        1          -0.000021433   -0.000007119    0.000003082
 -------------------------------------------------------------------
 Cartesian Forces:  Max     0.001338713 RMS     0.000225352
 IRC-IRC-IRC-IRC-IRC-IRC-IRC-IRC-IRC-IRC-IRC-IRC-IRC-IRC-IRC-IRC-IRC-IRC
 Pt  1 Step number   1 out of a maximum of  20
 Modified Bulirsch-Stoer Extrapolation Cycles:
    EPS =    0.000010000000000
 Maximum DWI energy   std dev =  0.000000744 at pt    26
 Maximum DWI gradient std dev =  0.691566556 at pt     4
 CORRECTOR INTEGRATION CONVERGENCE:
   Recorrection delta-x convergence threshold:    0.010000
   Delta-x Convergence NOT Met
 IRC-IRC-IRC-IRC-IRC-IRC-IRC-IRC-IRC-IRC-IRC-IRC-IRC-IRC-IRC-IRC-IRC-IRC
                          Input orientation:                          
 ---------------------------------------------------------------------
 Center     Atomic      Atomic             Coordinates (Angstroms)
 Number     Number       Type             X           Y           Z
 ---------------------------------------------------------------------
      1          6           0        0.071870   -1.462314    0.355636
      2          8           0        0.395535    0.081852    0.804602
      3          1           0        2.868995    1.188936    0.380730
      4          1           0        3.659457   -2.367338   -0.000528
      5          8           0        3.278438   -1.609169   -0.470184
      6          1           0        3.188813   -0.483707    0.333294
      7          8           0        2.869099    0.367202    0.943476
      8          1           0        1.814709    0.212038    1.007517
      9          6           0       -1.665144    1.045142   -0.064342
     10          6           0       -0.118792    0.983156   -0.191650
     11          1           0       -1.964536    1.894450    0.562513
     12          1           0        0.116019    0.566274   -1.180507
     13          8           0       -2.248855    1.253942   -1.338669
     14          1           0       -2.176376    0.383542   -1.780865
     15          6           0        0.519944    2.361450   -0.082912
     16          8           0        1.904844    2.403263   -0.497759
     17          1           0        0.516181    2.710370    0.953974
     18          1           0       -0.064994    3.064300   -0.688133
     19          1           0        1.930459    2.258068   -1.457564
     20          1           0        0.317574   -1.920026    1.327357
     21          8           0        0.775230   -1.819972   -0.680912
     22          1           0        2.253579   -1.810969   -0.596071
     23          6           0       -1.462430   -1.472335    0.060009
     24          1           0       -1.885501   -2.381888    0.511756
     25          6           0       -2.181708   -0.238572    0.628652
     26          1           0       -3.253290   -0.313941    0.420241
     27          8           0       -1.638799   -1.492766   -1.353324
     28          1           0       -0.743956   -1.768587   -1.672312
     29          8           0       -2.051727   -0.174668    2.043070
     30          1           0       -1.108100   -0.000286    2.204258
 ---------------------------------------------------------------------
                    Distance matrix (angstroms):
                    1          2          3          4          5
     1  C    0.000000
     2  O    1.640359   0.000000
     3  H    3.854045   2.742865   0.000000
     4  H    3.717083   4.159322   3.662960   0.000000
     5  O    3.314457   3.577117   2.953150   0.969831   0.000000
     6  H    3.267034   2.888666   1.703604   1.970028   1.385740
     7  O    3.393696   2.493838   0.995957   2.998920   2.464151
     8  H    2.503176   1.439506   1.568028   3.327526   2.764579
     9  C    3.079112   2.435034   4.558200   6.324592   5.625752
    10  C    2.513204   1.438540   3.049071   5.053464   4.282394
    11  H    3.931617   2.985641   4.888131   7.078782   6.389882
    12  H    2.544966   2.062390   3.225530   4.749145   3.903588
    13  O    3.954046   3.600028   5.399347   7.057793   6.285113
    14  H    3.609214   3.659287   5.547696   6.692824   5.953468
    15  C    3.874824   2.449433   2.666045   5.676686   4.850267
    16  O    4.362426   3.059919   1.782111   5.107302   4.241124
    17  H    4.238715   2.635521   2.859913   6.047675   5.321344
    18  H    4.647410   3.366800   3.642492   6.621709   5.750422
    19  H    4.536881   3.494182   2.324483   5.148473   4.212777
    20  H    1.101868   2.070475   4.131767   3.623748   3.477715
    21  O    1.302716   2.442920   3.816342   3.013519   2.520892
    22  H    2.405652   2.999498   3.214391   1.625027   1.052097
    23  C    1.562552   2.534157   5.093768   5.199848   4.772385
    24  H    2.168246   3.370296   5.947536   5.568591   5.312962
    25  C    2.578893   2.603038   5.254412   6.248737   5.735780
    26  H    3.518468   3.690299   6.304171   7.223542   6.718180
    27  O    2.418234   3.357764   5.524371   5.537729   4.997270
    28  H    2.207249   3.295098   5.100524   4.747990   4.201212
    29  O    3.002520   2.754758   5.369944   6.449939   6.065056
    30  H    2.635764   2.055894   4.533960   5.761390   5.383573
                    6          7          8          9         10
     6  H    0.000000
     7  O    1.094799   0.000000
     8  H    1.681309   1.067668   0.000000
     9  C    5.104547   4.694109   3.735281   0.000000
    10  C    3.656159   3.255057   2.402301   1.552822   0.000000
    11  H    5.680245   5.083468   4.160677   1.097227   2.192257
    12  H    3.582752   3.482869   2.792575   2.155848   1.098529
    13  O    5.948371   5.673442   4.806527   1.417118   2.434368
    14  H    5.831556   5.734032   4.871678   1.909325   2.668107
    15  C    3.923137   3.247926   2.735950   2.551004   1.522991
    16  O    3.267081   2.674414   2.659971   3.844107   2.491085
    17  H    4.210739   3.320657   2.816151   2.927137   2.167697
    18  H    4.921273   4.306435   3.813648   2.650773   2.140222
    19  H    3.508270   3.197095   3.205661   4.042353   2.725320
    20  H    3.360832   3.448051   2.624768   3.828866   3.305490
    21  O    2.939321   3.436082   2.839080   3.813721   2.982647
    22  H    1.870831   2.737426   2.618522   4.878165   3.687660
    23  C    4.762996   4.788168   3.804539   2.528685   2.810362
    24  H    5.420664   5.509092   4.545963   3.482094   3.865173
    25  C    5.384220   5.096736   4.039546   1.547579   2.533996
    26  H    6.444926   6.182344   5.128953   2.145725   3.447021
    27  O    5.212362   5.390354   4.517371   2.846602   3.128913
    28  H    4.597831   4.945514   4.201324   3.369158   3.186735
    29  O    5.521060   5.071218   4.021348   2.465475   3.173447
    30  H    4.711440   4.188404   3.165451   2.559251   2.772411
                   11         12         13         14         15
    11  H    0.000000
    12  H    3.021735   0.000000
    13  O    2.026224   2.467901   0.000000
    14  H    2.796273   2.376741   0.978973   0.000000
    15  C    2.609081   2.142552   3.235699   3.750375   0.000000
    16  O    4.044153   2.653407   4.391046   4.730961   1.446304
    17  H    2.640630   3.051767   3.875928   4.488133   1.094025
    18  H    2.557524   2.552515   2.910299   3.583080   1.096560
    19  H    4.402717   2.496221   4.299892   4.525977   1.972286
    20  H    4.510348   3.537187   4.875277   4.602961   4.512300
    21  O    4.780100   2.525534   4.361959   3.844132   4.231675
    22  H    5.732795   3.249924   5.497003   5.083711   4.547296
    23  C    3.440910   2.861172   3.163440   2.709763   4.318349
    24  H    4.277369   3.944806   4.095773   3.603931   5.351546
    25  C    2.145069   3.033213   2.470316   2.488539   3.816459
    26  H    2.560882   3.832677   2.561428   2.547762   4.652760
    27  O    3.905095   2.710885   2.813679   1.998077   4.596640
    28  H    4.461177   2.536337   3.392893   2.587522   4.602265
    29  O    2.545761   3.954689   3.676404   3.866473   4.191084
    30  H    2.649308   3.643637   3.927689   4.143638   3.668715
                   16         17         18         19         20
    16  O    0.000000
    17  H    2.032296   0.000000
    18  H    2.086498   1.777511   0.000000
    19  H    0.971063   2.832009   2.285578   0.000000
    20  H    4.953918   4.649670   5.389997   5.273865   0.000000
    21  O    4.375533   4.823273   4.956021   4.309078   2.062185
    22  H    4.229779   5.085636   5.399306   4.171767   2.731224
    23  C    5.164290   4.712653   4.805581   5.265988   2.230473
    24  H    6.187366   5.647541   5.866425   6.322101   2.394172
    25  C    4.994797   4.010075   4.138039   5.243608   3.092230
    26  H    5.901887   4.862123   4.775588   6.083801   4.019134
    27  O    5.335582   5.256797   4.866846   5.178728   3.346042
    28  H    5.079374   5.342881   4.978594   4.838653   3.185560
    29  O    5.362461   4.012945   4.679476   5.833562   3.028549
    30  H    4.706992   3.398405   4.341162   5.267062   2.546940
                   21         22         23         24         25
    21  O    0.000000
    22  H    1.480809   0.000000
    23  C    2.382632   3.788645   0.000000
    24  H    2.969461   4.322639   1.100159   0.000000
    25  C    3.599898   4.862525   1.537169   2.166842   0.000000
    26  H    4.439554   5.796515   2.163059   2.481053   1.094260
    27  O    2.527199   3.978101   1.424441   2.080847   2.407484
    28  H    1.814783   3.185169   1.898659   2.539570   3.114885
    29  O    4.256618   5.308315   2.442078   2.691537   1.421814
    30  H    3.896459   4.735114   2.624934   3.023398   1.921444
                   26         27         28         29         30
    26  H    0.000000
    27  O    2.672403   0.000000
    28  H    3.576525   0.989230   0.000000
    29  O    2.024037   3.666522   4.249106   0.000000
    30  H    2.807656   3.894293   4.276363   0.973048   0.000000
 Symmetry turned off by external request.
 Stoichiometry    C6H16O8
 Framework group  C1[X(C6H16O8)]
 Deg. of freedom    84
 Full point group                 C1      NOp   1
 Rotational constants (GHZ):      0.7960760      0.5348335      0.4220163
 Standard basis: 6-31G(d) (6D, 7F)
   242 basis functions,   456 primitive gaussians,   242 cartesian basis functions
    58 alpha electrons       58 beta electrons
       nuclear repulsion energy      1136.9126093156 Hartrees.
 NAtoms=   30 NActive=   30 NUniq=   30 SFac= 1.00D+00 NAtFMM=   60 NAOKFM=F Big=F
 Integral buffers will be    131072 words long.
 Raffenetti 2 integral format.
 Two-electron integral symmetry is turned off.
 One-electron integrals computed using PRISM.
 NBasis=   242 RedAO= T EigKep=  1.37D-03  NBF=   242
 NBsUse=   242 1.00D-06 EigRej= -1.00D+00 NBFU=   242
 Initial guess from the checkpoint file:  "/scratch/10461056.yak.local/Gau-20675.chk"
 B after Tr=    -0.000027   -0.000012    0.000007
         Rot=    1.000000   -0.000003    0.000007   -0.000008 Ang=  -0.00 deg.
 ExpMin= 1.61D-01 ExpMax= 5.48D+03 ExpMxC= 8.25D+02 IAcc=1 IRadAn=         1 AccDes= 0.00D+00
 Harris functional with IExCor=  402 and IRadAn=       1 diagonalized for initial guess.
 HarFok:  IExCor=  402 AccDes= 0.00D+00 IRadAn=         1 IDoV= 1 UseB2=F ITyADJ=14
 ICtDFT=  3500011 ScaDFX=  1.000000  1.000000  1.000000  1.000000
 FoFCou: FMM=F IPFlag=           0 FMFlag=      100000 FMFlg1=           0
         NFxFlg=           0 DoJE=T BraDBF=F KetDBF=T FulRan=T
         wScrn=  0.000000 ICntrl=     500 IOpCl=  0 I1Cent=   200000004 NGrid=           0
         NMat0=    1 NMatS0=      1 NMatT0=    0 NMatD0=    1 NMtDS0=    0 NMtDT0=    0
 Symmetry not used in FoFCou.
 Requested convergence on RMS density matrix=1.00D-08 within 128 cycles.
 Requested convergence on MAX density matrix=1.00D-06.
 Requested convergence on             energy=1.00D-06.
 No special actions if energy rises.
 Integral accuracy reduced to 1.0D-05 until final iterations.
 Initial convergence to 1.0D-05 achieved.  Increase integral accuracy.
 SCF Done:  E(RB3LYP) =  -839.984854366     A.U. after    9 cycles
            NFock=  9  Conv=0.55D-08     -V/T= 2.0087
 DoSCS=F DFT=T ScalE2(SS,OS)=  1.000000  1.000000
 Range of M.O.s used for correlation:     1   242
 NBasis=   242 NAE=    58 NBE=    58 NFC=     0 NFV=     0
 NROrb=    242 NOA=    58 NOB=    58 NVA=   184 NVB=   184
 Symmetrizing basis deriv contribution to polar:
 IMax=3 JMax=2 DiffMx= 0.00D+00
 Calling FoFJK, ICntrl=      2147 FMM=F ISym2X=0 I1Cent= 0 IOpClX= 0 NMat=1 NMatS=1 NMatT=0.
 -------------------------------------------------------------------
 Center     Atomic                   Forces (Hartrees/Bohr)
 Number     Number              X              Y              Z
 -------------------------------------------------------------------
      1        6           0.000131875    0.000688025    0.000208170
      2        8          -0.000264512   -0.000546576   -0.000290723
      3        1           0.000018050   -0.000007361   -0.000010634
      4        1          -0.000039819    0.000040225    0.000029499
      5        8          -0.000814570    0.000512132    0.000308884
      6        1           0.000033437   -0.000158033   -0.000119455
      7        8           0.000697041   -0.000212620   -0.000167015
      8        1           0.000259135    0.000018606    0.000035362
      9        6          -0.000083908   -0.000033978   -0.000053004
     10        6          -0.000098231   -0.000150449   -0.000067307
     11        1          -0.000003707   -0.000001996   -0.000003247
     12        1          -0.000007759   -0.000000938   -0.000009177
     13        8          -0.000106011   -0.000024038   -0.000063922
     14        1          -0.000002304   -0.000000078   -0.000004555
     15        6           0.000007834   -0.000201090    0.000131794
     16        8          -0.000028581   -0.000151234    0.000053481
     17        1           0.000005081   -0.000023959    0.000012480
     18        1          -0.000002601   -0.000007417    0.000020036
     19        1          -0.000007151   -0.000002112    0.000002066
     20        1          -0.000004540    0.000008798    0.000002641
     21        8           0.000339395    0.000290249    0.000044199
     22        1          -0.000160394    0.000024032    0.000013946
     23        6           0.000113035    0.000029504    0.000011944
     24        1           0.000019465   -0.000003230   -0.000000686
     25        6          -0.000063083   -0.000045343   -0.000041048
     26        1          -0.000003467   -0.000008874   -0.000004321
     27        8           0.000181784   -0.000026805   -0.000002412
     28        1           0.000008662   -0.000003972    0.000002132
     29        8          -0.000119301    0.000001669   -0.000036690
     30        1          -0.000004852   -0.000003135   -0.000002437
 -------------------------------------------------------------------
 Cartesian Forces:  Max     0.000814570 RMS     0.000186497
 IRC-IRC-IRC-IRC-IRC-IRC-IRC-IRC-IRC-IRC-IRC-IRC-IRC-IRC-IRC-IRC-IRC-IRC
 Error in corrector energy =          -0.0000001498
 Magnitude of corrector gradient =     0.0018523084
 Magnitude of analytic gradient =      0.0017692641
 Magnitude of difference =             0.0002520333
 Angle between gradients (degrees)=    7.5368
 Pt  1 Step number   2 out of a maximum of  20
 Modified Bulirsch-Stoer Extrapolation Cycles:
    EPS =    0.000010000000000
 Maximum DWI energy   std dev =  0.000000584 at pt     1
 Maximum DWI gradient std dev =  0.665651080 at pt     4
 CORRECTOR INTEGRATION CONVERGENCE:
   Recorrection delta-x convergence threshold:    0.010000
   Delta-x Convergence Met
 Point Number:   1          Path Number:   1
   CHANGE IN THE REACTION COORDINATE =    0.19090
   NET REACTION COORDINATE UP TO THIS POINT =    0.19090
  # OF POINTS ALONG THE PATH =   1
  # OF STEPS =   2

 Calculating another point on the path.
 IRC-IRC-IRC-IRC-IRC-IRC-IRC-IRC-IRC-IRC-IRC-IRC-IRC-IRC-IRC-IRC-IRC-IRC
                          Input orientation:                          
 ---------------------------------------------------------------------
 Center     Atomic      Atomic             Coordinates (Angstroms)
 Number     Number       Type             X           Y           Z
 ---------------------------------------------------------------------
      1          6           0        0.073924   -1.451510    0.358794
      2          8           0        0.392295    0.075321    0.801094
      3          1           0        2.872259    1.186311    0.378098
      4          1           0        3.651063   -2.359262    0.005573
      5          8           0        3.268455   -1.603200   -0.466631
      6          1           0        3.189918   -0.503367    0.317405
      7          8           0        2.879079    0.364225    0.940713
      8          1           0        1.841996    0.211582    1.019951
      9          6           0       -1.666476    1.044668   -0.065164
     10          6           0       -0.120377    0.980773   -0.192768
     11          1           0       -1.965288    1.894126    0.561767
     12          1           0        0.114125    0.565970   -1.182416
     13          8           0       -2.250098    1.253739   -1.339409
     14          1           0       -2.176922    0.383515   -1.781851
     15          6           0        0.520072    2.358257   -0.080931
     16          8           0        1.904607    2.401486   -0.497076
     17          1           0        0.517169    2.705392    0.956580
     18          1           0       -0.065431    3.062358   -0.684188
     19          1           0        1.929230    2.257395   -1.457080
     20          1           0        0.316315   -1.917549    1.327659
     21          8           0        0.779120   -1.816576   -0.680335
     22          1           0        2.232071   -1.803526   -0.590742
     23          6           0       -1.460711   -1.471796    0.060190
     24          1           0       -1.881221   -2.382463    0.511745
     25          6           0       -2.182734   -0.239221    0.628017
     26          1           0       -3.254188   -0.315633    0.419444
     27          8           0       -1.636738   -1.493065   -1.353346
     28          1           0       -0.741750   -1.769485   -1.671470
     29          8           0       -2.053008   -0.174591    2.042656
     30          1           0       -1.109222   -0.001276    2.203729
 ---------------------------------------------------------------------
                    Distance matrix (angstroms):
                    1          2          3          4          5
     1  C    0.000000
     2  O    1.621173   0.000000
     3  H    3.845667   2.750172   0.000000
     4  H    3.707385   4.144830   3.649165   0.000000
     5  O    3.302933   3.563265   2.941413   0.970049   0.000000
     6  H    3.257316   2.897504   1.720350   1.937586   1.352965
     7  O    3.391817   2.507400   0.996197   2.981246   2.450101
     8  H    2.515766   1.472446   1.556764   3.303169   2.745569
     9  C    3.072399   2.434866   4.562528   6.314108   5.614795
    10  C    2.501594   1.438902   3.053524   5.041720   4.270375
    11  H    3.923374   2.987227   4.892504   7.067111   6.378163
    12  H    2.539127   2.062141   3.229138   4.741121   3.894540
    13  O    3.950106   3.598981   5.403047   7.048862   6.275211
    14  H    3.607766   3.656154   5.550143   6.684543   5.943818
    15  C    3.860923   2.450733   2.667761   5.662648   4.836892
    16  O    4.350803   3.063230   1.782955   5.095830   4.230664
    17  H    4.222990   2.637621   2.861590   6.031287   5.306512
    18  H    4.634893   3.367190   3.643903   6.609241   5.738429
    19  H    4.527199   3.496136   2.324737   5.139804   4.204605
    20  H    1.102109   2.062661   4.131399   3.614355   3.468922
    21  O    1.307809   2.433832   3.810360   3.002172   2.507586
    22  H    2.383932   2.975239   3.207432   1.636451   1.062839
    23  C    1.563547   2.525102   5.093254   5.188527   4.760233
    24  H    2.170866   3.360551   5.945552   5.555440   5.299399
    25  C    2.575777   2.599936   5.258094   6.238205   5.724871
    26  H    3.517132   3.687186   6.308003   7.213196   6.707297
    27  O    2.420643   3.349391   5.523405   5.527911   4.985911
    28  H    2.210974   3.286783   5.098875   4.738894   4.190589
    29  O    2.998291   2.753804   5.374111   6.438860   6.054371
    30  H    2.628078   2.056163   4.538225   5.749113   5.372247
                    6          7          8          9         10
     6  H    0.000000
     7  O    1.112587   0.000000
     8  H    1.679767   1.051247   0.000000
     9  C    5.111490   4.704983   3.765751   0.000000
    10  C    3.663469   3.265218   2.431717   1.552670   0.000000
    11  H    5.690679   5.094319   4.187636   1.097229   2.192540
    12  H    3.585170   3.491898   2.821621   2.155908   1.098388
    13  O    5.951993   5.683190   4.837137   1.417048   2.434133
    14  H    5.830643   5.742462   4.902178   1.909107   2.666698
    15  C    3.933909   3.253435   2.750934   2.550834   1.523202
    16  O    3.279264   2.677175   2.664764   3.844494   2.492306
    17  H    4.224720   3.325648   2.824583   2.927503   2.168358
    18  H    4.931012   4.311655   3.830051   2.649077   2.139511
    19  H    3.515670   3.199330   3.213820   4.041935   2.725644
    20  H    3.358290   3.453111   2.637344   3.827028   3.301919
    21  O    2.920950   3.434169   2.852035   3.813933   2.978587
    22  H    1.852732   2.731871   2.609051   4.856656   3.666704
    23  C    4.757348   4.793754   3.829200   2.527972   2.806346
    24  H    5.411581   5.512601   4.566146   3.481978   3.861123
    25  C    5.388101   5.107238   4.068818   1.547706   2.532861
    26  H    6.447647   6.192810   5.158454   2.146181   3.446192
    27  O    5.202645   5.394890   4.543120   2.846117   3.125086
    28  H    4.584397   4.948397   4.224230   3.369687   3.183801
    29  O    5.529272   5.082331   4.045505   2.465544   3.172861
    30  H    4.721537   4.199446   3.186899   2.559767   2.772262
                   11         12         13         14         15
    11  H    0.000000
    12  H    3.021611   0.000000
    13  O    2.026249   2.467230   0.000000
    14  H    2.796298   2.375186   0.978979   0.000000
    15  C    2.608733   2.142511   3.236907   3.750534   0.000000
    16  O    4.044088   2.654173   4.391858   4.730933   1.446369
    17  H    2.641330   3.052028   3.877709   4.488679   1.094048
    18  H    2.554726   2.551946   2.910874   3.583219   1.096581
    19  H    4.401702   2.496190   4.299762   4.525195   1.972229
    20  H    4.507901   3.536837   4.874094   4.602192   4.506457
[...]
 Harris functional with IExCor=  402 and IRadAn=       1 diagonalized for initial guess.
 HarFok:  IExCor=  402 AccDes= 0.00D+00 IRadAn=         1 IDoV= 1 UseB2=F ITyADJ=14
 ICtDFT=  3500011 ScaDFX=  1.000000  1.000000  1.000000  1.000000
 FoFCou: FMM=F IPFlag=           0 FMFlag=      100000 FMFlg1=           0
         NFxFlg=           0 DoJE=T BraDBF=F KetDBF=T FulRan=T
         wScrn=  0.000000 ICntrl=     500 IOpCl=  0 I1Cent=   200000004 NGrid=           0
         NMat0=    1 NMatS0=      1 NMatT0=    0 NMatD0=    1 NMtDS0=    0 NMtDT0=    0
 Symmetry not used in FoFCou.
 Requested convergence on RMS density matrix=1.00D-08 within 128 cycles.
 Requested convergence on MAX density matrix=1.00D-06.
 Requested convergence on             energy=1.00D-06.
 No special actions if energy rises.
 Integral accuracy reduced to 1.0D-05 until final iterations.
 Initial convergence to 1.0D-05 achieved.  Increase integral accuracy.
 SCF Done:  E(RB3LYP) =  -840.004772751     A.U. after   10 cycles
            NFock= 10  Conv=0.94D-08     -V/T= 2.0084
 DoSCS=F DFT=T ScalE2(SS,OS)=  1.000000  1.000000
 Range of M.O.s used for correlation:     1   242
 NBasis=   242 NAE=    58 NBE=    58 NFC=     0 NFV=     0
 NROrb=    242 NOA=    58 NOB=    58 NVA=   184 NVB=   184
 Symmetrizing basis deriv contribution to polar:
 IMax=3 JMax=2 DiffMx= 0.00D+00
 Calling FoFJK, ICntrl=      2147 FMM=F ISym2X=0 I1Cent= 0 IOpClX= 0 NMat=1 NMatS=1 NMatT=0.
 -------------------------------------------------------------------
 Center     Atomic                   Forces (Hartrees/Bohr)
 Number     Number              X              Y              Z
 -------------------------------------------------------------------
      1        6          -0.001956098    0.011066139    0.004954908
      2        8          -0.003482002   -0.008686057   -0.005604328
      3        1           0.000223616    0.000146364    0.001066507
      4        1           0.001289769    0.000053855   -0.000157946
      5        8           0.008805980   -0.009321030   -0.003970994
      6        1           0.000995924   -0.001432205   -0.001708183
      7        8           0.018727040    0.011726163    0.009540017
      8        1          -0.005851805   -0.001033995    0.002428406
      9        6          -0.000755378   -0.000511451   -0.000724802
     10        6          -0.001329834   -0.001415455   -0.002248265
     11        1           0.000003049   -0.000052650   -0.000032422
     12        1          -0.000172518    0.000024631   -0.000207549
     13        8          -0.001387117    0.000556083   -0.000223570
     14        1          -0.000036654    0.000070427   -0.000106944
     15        6           0.000307332   -0.002146170    0.001248555
     16        8          -0.002529226    0.002095017   -0.001327328
     17        1           0.000116670   -0.000334028    0.000167907
     18        1          -0.000203583   -0.000184057    0.000347617
     19        1          -0.000146973   -0.000128932   -0.000025664
     20        1          -0.000071319    0.000433017   -0.000001656
     21        8          -0.010194972    0.001436034   -0.002160444
     22        1          -0.002177590   -0.000468248   -0.000020142
     23        6           0.001865725    0.000296118    0.000381734
     24        1           0.000475358   -0.000117035   -0.000015275
     25        6          -0.000282757   -0.001127414   -0.000703972
     26        1          -0.000024872   -0.000115284   -0.000042309
     27        8          -0.000673037    0.000633105   -0.000262723
     28        1          -0.000437950   -0.000830883   -0.000191204
     29        8          -0.000896255   -0.000897220   -0.000539069
     30        1          -0.000200520    0.000265159    0.000139138
 -------------------------------------------------------------------
 Cartesian Forces:  Max     0.018727040 RMS     0.003706701
 IRC-IRC-IRC-IRC-IRC-IRC-IRC-IRC-IRC-IRC-IRC-IRC-IRC-IRC-IRC-IRC-IRC-IRC
 Error in corrector energy =          -0.0001277387
 Magnitude of corrector gradient =     0.0329933234
 Magnitude of analytic gradient =      0.0351648580
 Magnitude of difference =             0.0121512910
 Angle between gradients (degrees)=   20.2155
 Pt 10 Step number  19 out of a maximum of  20
 Modified Bulirsch-Stoer Extrapolation Cycles:
    EPS =    0.000010000000000
 Maximum DWI energy   std dev =  0.000026904 at pt    28
 Maximum DWI gradient std dev =  0.179415156 at pt    29
 CORRECTOR INTEGRATION CONVERGENCE:
   Recorrection delta-x convergence threshold:    0.010000
   Delta-x Convergence NOT Met
 IRC-IRC-IRC-IRC-IRC-IRC-IRC-IRC-IRC-IRC-IRC-IRC-IRC-IRC-IRC-IRC-IRC-IRC
                          Input orientation:                          
 ---------------------------------------------------------------------
 Center     Atomic      Atomic             Coordinates (Angstroms)
 Number     Number       Type             X           Y           Z
 ---------------------------------------------------------------------
      1          6           0        0.075133   -1.388086    0.391532
      2          8           0        0.372629    0.038654    0.782542
      3          1           0        2.902784    1.193514    0.418191
      4          1           0        3.675112   -2.312881    0.042566
      5          8           0        3.253551   -1.603887   -0.465839
      6          1           0        3.281760   -0.771965    0.121799
      7          8           0        2.920231    0.377551    0.958589
      8          1           0        1.951729    0.228990    1.109150
      9          6           0       -1.669352    1.043210   -0.068303
     10          6           0       -0.126870    0.974559   -0.200056
     11          1           0       -1.966295    1.891794    0.559969
     12          1           0        0.107496    0.572904   -1.193406
     13          8           0       -2.254442    1.254405   -1.340484
     14          1           0       -2.180009    0.390710   -1.792099
     15          6           0        0.525165    2.349644   -0.076032
     16          8           0        1.895866    2.405366   -0.500020
     17          1           0        0.523212    2.687899    0.964676
     18          1           0       -0.079642    3.050676   -0.665771
     19          1           0        1.921793    2.255756   -1.458679
     20          1           0        0.320537   -1.914034    1.321495
     21          8           0        0.790304   -1.811540   -0.687423
     22          1           0        1.810933   -1.801821   -0.556598
     23          6           0       -1.447608   -1.474481    0.058750
     24          1           0       -1.858316   -2.389162    0.507474
     25          6           0       -2.182632   -0.241674    0.626410
     26          1           0       -3.251926   -0.329539    0.414107
     27          8           0       -1.633790   -1.493373   -1.355186
     28          1           0       -0.775796   -1.798921   -1.715989
     29          8           0       -2.055761   -0.176803    2.040581
     30          1           0       -1.117283    0.012833    2.210386
 ---------------------------------------------------------------------
                    Distance matrix (angstroms):
                    1          2          3          4          5
     1  C    0.000000
     2  O    1.508967   0.000000
     3  H    3.828966   2.805019   0.000000
     4  H    3.733213   4.121125   3.610040   0.000000
     5  O    3.299090   3.543459   2.954657   0.968949   0.000000
     6  H    3.276403   3.091395   2.023506   1.592302   1.018925
     7  O    3.396117   2.576066   0.978840   2.940641   2.462965
     8  H    2.579055   1.623717   1.520603   3.250963   2.744954
     9  C    3.027520   2.429559   4.600402   6.311810   5.603582
    10  C    2.443947   1.446000   3.099834   5.032017   4.259844
    11  H    3.866964   2.992363   4.920938   7.054961   6.365443
    12  H    2.521617   2.063998   3.285732   4.752185   3.894282
    13  O    3.925501   3.589818   5.449186   7.056767   6.266803
    14  H    3.608050   3.642620   5.600416   6.705061   5.938093
    15  C    3.793648   2.470038   2.689603   5.628087   4.819382
    16  O    4.301188   3.092982   1.823618   5.071683   4.233035
    17  H    4.140401   2.659764   2.862551   5.982688   5.283990
    18  H    4.565572   3.372600   3.676804   6.585413   5.728447
    19  H    4.484531   3.512623   2.369249   5.118623   4.201922
    20  H    1.096209   2.026370   4.140146   3.612190   3.448670
    21  O    1.361957   2.399681   3.836053   3.017671   2.481895
    22  H    2.020676   2.692463   3.333823   2.023696   1.458959
    23  C    1.561072   2.475221   5.115985   5.190899   4.732106
    24  H    2.180326   3.308636   5.959162   5.553448   5.262621
    25  C    2.543016   2.575330   5.288154   6.240508   5.709704
    26  H    3.491468   3.661791   6.340360   7.214953   6.687264
    27  O    2.445920   3.307976   5.562799   5.550653   4.968828
    28  H    2.309656   3.307298   5.200129   4.813237   4.223334
    29  O    2.954197   2.743386   5.394171   6.434113   6.042144
    30  H    2.587017   2.063794   4.557073   5.751126   5.374026
                    6          7          8          9         10
     6  H    0.000000
     7  O    1.467075   0.000000
     8  H    1.935395   0.991329   0.000000
     9  C    5.276790   4.749935   3.893787   0.000000
    10  C    3.843526   3.314166   2.567191   1.549621   0.000000
    11  H    5.901668   5.131273   4.291554   1.096812   2.191448
    12  H    3.689768   3.546931   2.970056   2.155049   1.096813
    13  O    6.074041   5.729908   4.974340   1.416114   2.430114
    14  H    5.903027   5.794730   5.051203   1.912590   2.662867
    15  C    4.169219   3.270463   2.817252   2.553965   1.526888
    16  O    3.521760   2.699796   2.707242   3.840915   2.495726
    17  H    4.504518   3.329180   2.847414   2.929059   2.171345
    18  H    5.150910   4.333979   3.903680   2.629461   2.128234
    19  H    3.676209   3.219893   3.271455   4.037294   2.724448
    20  H    3.392998   3.484462   2.701561   3.825767   3.295340
    21  O    2.818316   3.469591   2.956408   3.818746   2.973396
    22  H    1.919415   2.876803   2.630348   4.521617   3.404481
    23  C    4.781676   4.828845   3.944699   2.530629   2.794482
    24  H    5.402264   5.540101   4.661886   3.485457   3.848783
    25  C    5.513204   5.151018   4.188974   1.548228   2.527534
    26  H    6.555169   6.236342   5.279495   2.149814   3.441489
    27  O    5.183102   5.439946   4.679256   2.844572   3.113812
    28  H    4.571199   5.054801   4.419641   3.404559   3.226662
    29  O    5.703076   5.122354   4.134273   2.466807   3.172808
    30  H    4.932513   4.242822   3.267764   2.561031   2.777781
                   11         12         13         14         15
    11  H    0.000000
    12  H    3.019008   0.000000
    13  O    2.025097   2.462687   0.000000
    14  H    2.798420   2.371562   0.977479   0.000000
    15  C    2.611800   2.140041   3.244165   3.755033   0.000000
    16  O    4.037774   2.652729   4.388183   4.726633   1.435859
    17  H    2.644847   3.050138   3.883817   4.492693   1.094301
    18  H    2.530791   2.540231   2.900273   3.571494   1.097738
    19  H    4.395980   2.488782   4.296233   4.518223   1.967510
    20  H    4.504870   3.543299   4.873977   4.610753   4.491537
    21  O    4.782208   2.531367   4.370010   3.859142   4.214208
    22  H    5.399719   2.991076   5.146092   4.718185   4.372504
    23  C    3.442683   2.859724   3.171065   2.727818   4.305105
    24  H    4.282640   3.940970   4.104564   3.622046   5.336455
    25  C    2.145438   3.036438   2.472262   2.499821   3.813203
    26  H    2.570690   3.831999   2.565627   2.556387   4.656681
    27  O    3.903555   2.706982   2.817039   2.009731   4.589782
    28  H    4.496516   2.584347   3.413238   2.602324   4.646778
    29  O    2.545449   3.962374   3.676878   3.876461   4.186187
    30  H    2.641059   3.660541   3.929798   4.158373   3.658693
                   16         17         18         19         20
    16  O    0.000000
    17  H    2.027150   0.000000
    18  H    2.084833   1.775781   0.000000
    19  H    0.970609   2.831153   2.294852   0.000000
    20  H    4.945382   4.620193   5.362622   5.261230   0.000000
    21  O    4.363449   4.800596   4.939476   4.291620   2.065656
    22  H    4.208424   4.912238   5.208926   4.158121   2.400230
    23  C    5.152112   4.693638   4.782604   5.250726   2.216769
    24  H    6.172231   5.626479   5.842262   6.303194   2.373979
    25  C    4.990973   4.002301   4.114835   5.237467   3.089625
    26  H    5.900432   4.864127   4.759766   6.079346   4.012040
    27  O    5.328222   5.245708   4.851706   5.168061   3.340803
    28  H    5.127610   5.385623   5.010606   4.876843   3.231331
    29  O    5.360747   4.001898   4.652527   5.829503   3.030157
    30  H    4.706335   3.376240   4.310159   5.265807   2.563254
                   21         22         23         24         25
    21  O    0.000000
    22  H    1.029025   0.000000
    23  C    2.382988   3.332250   0.000000
    24  H    2.962536   3.865309   1.098489   0.000000
    25  C    3.609569   4.447710   1.543474   2.175094   0.000000
    26  H    4.444021   5.361196   2.166272   2.488557   1.093701
    27  O    2.534437   3.549507   1.426265   2.079027   2.407218
    28  H    1.873707   2.834672   1.925172   2.542445   3.145002
    29  O    4.267840   4.933290   2.445706   2.698877   1.421332
    30  H    3.919761   4.418554   2.636429   3.036218   1.925804
                   26         27         28         29         30
    26  H    0.000000
    27  O    2.665196   0.000000
    28  H    3.581566   0.979639   0.000000
    29  O    2.024736   3.666422   4.287353   0.000000
    30  H    2.810789   3.904963   4.337682   0.972387   0.000000
 Symmetry turned off by external request.
 Stoichiometry    C6H16O8
 Framework group  C1[X(C6H16O8)]
 Deg. of freedom    84
 Full point group                 C1      NOp   1
 Rotational constants (GHZ):      0.8001456      0.5336281      0.4228578
 Standard basis: 6-31G(d) (6D, 7F)
   242 basis functions,   456 primitive gaussians,   242 cartesian basis functions
    58 alpha electrons       58 beta electrons
       nuclear repulsion energy      1138.4162649143 Hartrees.
 NAtoms=   30 NActive=   30 NUniq=   30 SFac= 1.00D+00 NAtFMM=   60 NAOKFM=F Big=F
 Integral buffers will be    131072 words long.
 Raffenetti 2 integral format.
 Two-electron integral symmetry is turned off.
 One-electron integrals computed using PRISM.
 NBasis=   242 RedAO= T EigKep=  1.34D-03  NBF=   242
 NBsUse=   242 1.00D-06 EigRej= -1.00D+00 NBFU=   242
 Initial guess from the checkpoint file:  "/scratch/10461056.yak.local/Gau-20675.chk"
 B after Tr=    -0.000133   -0.000065    0.000061
         Rot=    1.000000   -0.000002    0.000006    0.000008 Ang=  -0.00 deg.
 ExpMin= 1.61D-01 ExpMax= 5.48D+03 ExpMxC= 8.25D+02 IAcc=1 IRadAn=         1 AccDes= 0.00D+00
 Harris functional with IExCor=  402 and IRadAn=       1 diagonalized for initial guess.
 HarFok:  IExCor=  402 AccDes= 0.00D+00 IRadAn=         1 IDoV= 1 UseB2=F ITyADJ=14
 ICtDFT=  3500011 ScaDFX=  1.000000  1.000000  1.000000  1.000000
 FoFCou: FMM=F IPFlag=           0 FMFlag=      100000 FMFlg1=           0
         NFxFlg=           0 DoJE=T BraDBF=F KetDBF=T FulRan=T
         wScrn=  0.000000 ICntrl=     500 IOpCl=  0 I1Cent=   200000004 NGrid=           0
         NMat0=    1 NMatS0=      1 NMatT0=    0 NMatD0=    1 NMtDS0=    0 NMtDT0=    0
 Symmetry not used in FoFCou.
 Requested convergence on RMS density matrix=1.00D-08 within 128 cycles.
 Requested convergence on MAX density matrix=1.00D-06.
 Requested convergence on             energy=1.00D-06.
 No special actions if energy rises.
 Integral accuracy reduced to 1.0D-05 until final iterations.
 Initial convergence to 1.0D-05 achieved.  Increase integral accuracy.
 SCF Done:  E(RB3LYP) =  -840.004783974     A.U. after   10 cycles
            NFock= 10  Conv=0.92D-08     -V/T= 2.0085
 DoSCS=F DFT=T ScalE2(SS,OS)=  1.000000  1.000000
 Range of M.O.s used for correlation:     1   242
 NBasis=   242 NAE=    58 NBE=    58 NFC=     0 NFV=     0
 NROrb=    242 NOA=    58 NOB=    58 NVA=   184 NVB=   184
 Symmetrizing basis deriv contribution to polar:
 IMax=3 JMax=2 DiffMx= 0.00D+00
 Calling FoFJK, ICntrl=      2147 FMM=F ISym2X=0 I1Cent= 0 IOpClX= 0 NMat=1 NMatS=1 NMatT=0.
 -------------------------------------------------------------------
 Center     Atomic                   Forces (Hartrees/Bohr)
 Number     Number              X              Y              Z
 -------------------------------------------------------------------
      1        6          -0.002138221    0.010946408    0.004953928
      2        8          -0.003771469   -0.008650778   -0.005582755
      3        1          -0.000022373    0.001009101    0.000519029
      4        1           0.001252547    0.000086920   -0.000266927
      5        8           0.008798182   -0.010718333   -0.004701466
      6        1           0.001021112    0.000014656   -0.000811682
      7        8           0.006607678    0.008510984    0.012508247
      8        1           0.006703440    0.001217548   -0.000069169
      9        6          -0.000737174   -0.000568574   -0.000728931
     10        6          -0.001287287   -0.001286167   -0.002284682
     11        1           0.000002593   -0.000032897   -0.000010461
     12        1          -0.000130254    0.000000983   -0.000185049
     13        8          -0.001353147    0.000549732   -0.000211107
     14        1          -0.000030343    0.000081417   -0.000082762
     15        6           0.000411146   -0.002162257    0.001316823
     16        8          -0.002709091    0.002206094   -0.001400765
     17        1           0.000112933   -0.000304254    0.000123980
     18        1          -0.000208599   -0.000105021    0.000305747
     19        1          -0.000131802   -0.000119764   -0.000035490
     20        1          -0.000036778    0.000314595    0.000049037
     21        8          -0.011255606    0.001505670   -0.002117300
     22        1          -0.000917233   -0.000599927   -0.000121562
     23        6           0.001995477    0.000307417    0.000376607
     24        1           0.000402449   -0.000118562   -0.000004843
     25        6          -0.000270391   -0.001165272   -0.000689158
     26        1          -0.000012374   -0.000090372   -0.000023367
     27        8          -0.000613165    0.000615989   -0.000282906
     28        1          -0.000536065   -0.000798670   -0.000139188
     29        8          -0.001009270   -0.000932025   -0.000553231
     30        1          -0.000136917    0.000285359    0.000149404
 -------------------------------------------------------------------
 Cartesian Forces:  Max     0.012508247 RMS     0.003309177
 IRC-IRC-IRC-IRC-IRC-IRC-IRC-IRC-IRC-IRC-IRC-IRC-IRC-IRC-IRC-IRC-IRC-IRC
 Error in corrector energy =          -0.0001225117
 Magnitude of corrector gradient =     0.0334642951
 Magnitude of analytic gradient =      0.0313936079
 Magnitude of difference =             0.0112804132
 Angle between gradients (degrees)=   19.6985
 Pt 10 Step number  20 out of a maximum of  20
 Modified Bulirsch-Stoer Extrapolation Cycles:
    EPS =    0.000010000000000
 Maximum DWI energy   std dev =  0.000026589 at pt    31
 Maximum DWI gradient std dev =  0.107929099 at pt    30
 CORRECTOR INTEGRATION CONVERGENCE:
   Recorrection delta-x convergence threshold:    0.010000
   Delta-x Convergence NOT Met
 Maximum number of corrector steps exceded.
 Error termination via Lnk1e in /global/software/gaussian/g09.e01/l123.exe at Sat Jan 14 02:48:29 2017.
 Job cpu time:       0 days  2 hours 35 minutes  4.9 seconds.
 File lengths (MBytes):  RWF=    220 Int=      0 D2E=      0 Chk=      8 Scr=      1
