 Entering Gaussian System, Link 0=g09
 Initial command:
 /global/software/gaussian/g09.e01/l1.exe "/scratch/10461050.yak.local/Gau-26219.inp" -scrdir="/scratch/10461050.yak.local/"
 Entering Link 1 = /global/software/gaussian/g09.e01/l1.exe PID=     26220.
  
 Copyright (c) 1988,1990,1992,1993,1995,1998,2003,2009,2015,
            Gaussian, Inc.  All Rights Reserved.
  
 This is part of the Gaussian(R) 09 program.  It is based on
 the Gaussian(R) 03 system (copyright 2003, Gaussian, Inc.),
 the Gaussian(R) 98 system (copyright 1998, Gaussian, Inc.),
 the Gaussian(R) 94 system (copyright 1995, Gaussian, Inc.),
 the Gaussian 92(TM) system (copyright 1992, Gaussian, Inc.),
 the Gaussian 90(TM) system (copyright 1990, Gaussian, Inc.),
 the Gaussian 88(TM) system (copyright 1988, Gaussian, Inc.),
 the Gaussian 86(TM) system (copyright 1986, Carnegie Mellon
 University), and the Gaussian 82(TM) system (copyright 1983,
 Carnegie Mellon University). Gaussian is a federally registered
 trademark of Gaussian, Inc.
  
 This software contains proprietary and confidential information,
 including trade secrets, belonging to Gaussian, Inc.
  
 This software is provided under written license and may be
 used, copied, transmitted, or stored only in accord with that
 written license.
  
 The following legend is applicable only to US Government
 contracts under FAR:
  
                    RESTRICTED RIGHTS LEGEND
  
 Use, reproduction and disclosure by the US Government is
 subject to restrictions as set forth in subparagraphs (a)
 and (c) of the Commercial Computer Software - Restricted
 Rights clause in FAR 52.227-19.
  
 Gaussian, Inc.
 340 Quinnipiac St., Bldg. 40, Wallingford CT 06492
  
  
 ---------------------------------------------------------------
 Warning -- This program may not be used in any manner that
 competes with the business of Gaussian, Inc. or will provide
 assistance to any competitor of Gaussian, Inc.  The licensee
 of this program is prohibited from giving any competitor of
 Gaussian, Inc. access to this program.  By using this program,
 the user acknowledges that Gaussian, Inc. is engaged in the
 business of creating and licensing software in the field of
 computational chemistry and represents and warrants to the
 licensee that it is not a competitor of Gaussian, Inc. and that
 it will not use this program in any manner prohibited above.
 ---------------------------------------------------------------
  

 Cite this work as:
 Gaussian 09, Revision E.01,
 M. J. Frisch, G. W. Trucks, H. B. Schlegel, G. E. Scuseria, 
 M. A. Robb, J. R. Cheeseman, G. Scalmani, V. Barone, B. Mennucci, 
 G. A. Petersson, H. Nakatsuji, M. Caricato, X. Li, H. P. Hratchian, 
 A. F. Izmaylov, J. Bloino, G. Zheng, J. L. Sonnenberg, M. Hada, 
 M. Ehara, K. Toyota, R. Fukuda, J. Hasegawa, M. Ishida, T. Nakajima, 
 Y. Honda, O. Kitao, H. Nakai, T. Vreven, J. A. Montgomery, Jr., 
 J. E. Peralta, F. Ogliaro, M. Bearpark, J. J. Heyd, E. Brothers, 
 K. N. Kudin, V. N. Staroverov, T. Keith, R. Kobayashi, J. Normand, 
 K. Raghavachari, A. Rendell, J. C. Burant, S. S. Iyengar, J. Tomasi, 
 M. Cossi, N. Rega, J. M. Millam, M. Klene, J. E. Knox, J. B. Cross, 
 V. Bakken, C. Adamo, J. Jaramillo, R. Gomperts, R. E. Stratmann, 
 O. Yazyev, A. J. Austin, R. Cammi, C. Pomelli, J. W. Ochterski, 
 R. L. Martin, K. Morokuma, V. G. Zakrzewski, G. A. Voth, 
 P. Salvador, J. J. Dannenberg, S. Dapprich, A. D. Daniels, 
 O. Farkas, J. B. Foresman, J. V. Ortiz, J. Cioslowski, 
 and D. J. Fox, Gaussian, Inc., Wallingford CT, 2013.
 
 ******************************************
 Gaussian 09:  ES64L-G09RevE.01 30-Nov-2015
                14-Jan-2017 
 ******************************************
 -------------------------------------
 # b3lyp/6-31g(d) irc=(calcfc,reverse)
 -------------------------------------
 1/10=4,14=-1,18=10,22=2,26=3,38=1,44=3/1,23;
 2/12=2,17=6,18=5,29=1,40=1/2;
 3/5=1,6=6,7=1,11=2,16=1,25=1,30=1,71=2,74=-5,140=1/1,2,3;
 4//1;
 5/5=2,38=5/2;
 8/6=4,10=90,11=11/1;
 11/6=1,8=1,9=11,15=111,16=1/1,2,10;
 10/6=1,13=1/2;
 6/7=2,8=2,9=2,10=2,28=1/1;
 7/10=1,18=20,25=1/1,2,3,16;
 1/10=4,14=-1,18=10,22=2,26=3,44=3/23(2);
 2/29=1/2;
 99/5=20/99;
 2/29=1/2;
 3/5=1,6=6,7=1,11=2,16=1,25=1,30=1,71=2,74=-5,140=1/1,2,3;
 4/5=5,16=3,69=1/1;
 5/5=2,38=5/2;
 8/6=4,10=90,11=11/1;
 11/6=1,8=1,9=11,15=111,16=1/1,2,10;
 10/6=1,13=1/2;
 7/10=1,18=20,25=1/1,2,3,16;
 1/14=-1,18=10,22=2,26=3,44=3/23(-8);
 2/29=1/2;
 6/7=2,8=2,9=2,10=2,19=2,28=1/1;
 99/5=20,9=1/99;
 --------------------------------
 glo_2w_beta_ts_boat2_B3LYP_631Gd
 --------------------------------
 Symbolic Z-matrix:
 Charge =  0 Multiplicity = 1
 6                     0.9687   -0.333    -1.42403 
 8                    -0.28372   0.77103  -0.77597 
 1                     0.56057   3.12493   0.89733 
 1                     2.99151   0.65769   1.0483 
 8                     3.01173   1.36601   0.37359 
 1                     2.04679   1.92575   0.62183 
 8                     0.79007   2.18426   0.87475 
 1                     0.17906   1.53005  -0.06372 
 6                    -1.10072  -0.84448   0.93938 
 6                    -1.43338   0.12239  -0.23474 
 1                    -1.34728  -0.37416   1.89947 
 1                    -1.84603  -0.49289  -1.04761 
 8                    -1.92933  -1.99735   0.86026 
 1                    -1.62071  -2.47324   0.06733 
 6                    -2.48673   1.14939   0.19016 
 8                    -2.89302   2.02987  -0.83934 
 1                    -2.06945   1.78643   0.97793 
 1                    -3.33376   0.59372   0.62471 
 1                    -3.27282   1.49924  -1.55709 
 1                     2.66038   0.84189  -0.55708 
 6                     0.9729   -1.50399  -0.4083 
 1                     2.02187  -1.81284  -0.31203 
 6                     0.3962   -1.23149   0.9984 
 1                     0.4321   -2.1823    1.54611 
 8                     0.19972  -2.55857  -1.02138 
 1                     0.52399  -3.40538  -0.67696 
 8                     1.20271  -0.32142   1.73742 
 1                     0.82222   0.58329   1.7048 
 8                     2.02225   0.356    -1.61191 
 1                     0.38646  -0.59369  -2.31777 
 
 IRC-IRC-IRC-IRC-IRC-IRC-IRC-IRC-IRC-IRC-IRC-IRC-IRC-IRC-IRC-IRC-IRC-IRC
 ------------------------------------------------------------------------
 INPUT DATA FOR L123
 ------------------------------------------------------------------------
 GENERAL PARAMETERS:
 Rxn path following direction = Reverse
 Maximum points per path      =  10
 Step size                    =   0.100 bohr
 Integration scheme           = HPC                                 
    Redo corrector integration= Yes                                 
    DWI Weight Power          =  2
    DWI will use Hessian update vectors when possible.
    Max correction cycles     =  20
 Initial Hessian              = CalcFC
 Hessian evaluation           = All updating
 Hessian updating method      = Bofill                              
 ------------------------------------------------------------------------
 IRC-IRC-IRC-IRC-IRC-IRC-IRC-IRC-IRC-IRC-IRC-IRC-IRC-IRC-IRC-IRC-IRC-IRC
                          Input orientation:                          
 ---------------------------------------------------------------------
 Center     Atomic      Atomic             Coordinates (Angstroms)
 Number     Number       Type             X           Y           Z
 ---------------------------------------------------------------------
      1          6           0        0.968701   -0.332996   -1.424034
      2          8           0       -0.283721    0.771027   -0.775974
      3          1           0        0.560566    3.124929    0.897329
      4          1           0        2.991506    0.657691    1.048304
      5          8           0        3.011728    1.366006    0.373586
      6          1           0        2.046789    1.925751    0.621828
      7          8           0        0.790074    2.184265    0.874750
      8          1           0        0.179055    1.530049   -0.063723
      9          6           0       -1.100723   -0.844483    0.939378
     10          6           0       -1.433382    0.122391   -0.234744
     11          1           0       -1.347278   -0.374155    1.899474
     12          1           0       -1.846029   -0.492885   -1.047613
     13          8           0       -1.929328   -1.997350    0.860257
     14          1           0       -1.620709   -2.473242    0.067326
     15          6           0       -2.486733    1.149388    0.190161
     16          8           0       -2.893017    2.029865   -0.839343
     17          1           0       -2.069450    1.786433    0.977931
     18          1           0       -3.333762    0.593718    0.624713
     19          1           0       -3.272816    1.499241   -1.557092
     20          1           0        2.660383    0.841888   -0.557079
     21          6           0        0.972904   -1.503990   -0.408298
     22          1           0        2.021870   -1.812842   -0.312025
     23          6           0        0.396200   -1.231494    0.998399
     24          1           0        0.432102   -2.182296    1.546107
     25          8           0        0.199724   -2.558568   -1.021384
     26          1           0        0.523989   -3.405378   -0.676955
     27          8           0        1.202706   -0.321422    1.737422
     28          1           0        0.822219    0.583292    1.704795
     29          8           0        2.022246    0.356000   -1.611905
     30          1           0        0.386457   -0.593692   -2.317766
 ---------------------------------------------------------------------
                    Distance matrix (angstroms):
                    1          2          3          4          5
     1  C    0.000000
     2  O    1.790924   0.000000
     3  H    4.184799   3.008923   0.000000
     4  H    3.344496   3.750726   3.466919   0.000000
     5  O    3.208115   3.540547   3.062076   0.978450   0.000000
     6  H    3.232609   2.952713   1.929453   1.637788   1.142824
     7  O    3.413637   2.423874   0.968521   2.684558   2.420012
     8  H    2.438221   1.139113   1.900740   3.147617   2.870921
     9  C    3.182743   2.493952   4.303241   4.360588   4.703045
    10  C    2.718785   1.426667   3.777916   4.638145   4.655711
    11  H    4.051069   3.098486   4.109471   4.540291   4.935324
    12  H    2.844286   2.027823   4.760575   5.396150   5.391946
    13  O    4.048040   3.612366   5.695497   5.594570   5.996920
    14  H    3.675575   3.608874   6.065178   5.660175   6.024375
    15  C    4.091835   2.435125   3.699849   5.566801   5.505783
    16  O    4.564848   2.897777   4.017764   6.330378   6.064480
    17  H    4.414949   2.701122   2.952127   5.185777   5.134234
    18  H    4.854622   3.360969   4.652649   6.339758   6.397244
    19  H    4.622257   3.174135   4.833411   6.836521   6.575771
    20  H    2.234670   2.953081   3.425903   1.649493   1.124402
    21  C    1.550150   2.624880   4.827171   3.296863   3.606248
    22  H    2.129712   3.493906   5.289568   2.982318   3.399258
    23  C    2.646363   2.760576   4.360694   3.210471   3.738768
    24  H    3.539716   3.824471   5.348276   3.855371   4.540895
    25  O    2.388854   3.373447   6.009476   4.735185   5.025494
    26  H    3.193028   4.254945   6.717486   5.057043   5.482571
    27  O    3.170126   3.117703   3.604918   2.152522   2.824893
    28  H    3.263527   2.722602   2.679624   2.267669   2.679311
    29  O    1.272780   2.487672   4.012447   2.847314   2.437491
    30  H    1.098056   2.165345   4.918871   4.436515   4.239792
                    6          7          8          9         10
     6  H    0.000000
     7  O    1.307720   0.000000
     8  H    2.028544   1.296948   0.000000
     9  C    4.204981   3.571079   2.877924   0.000000
    10  C    4.012158   3.228941   2.147255   1.556942   0.000000
    11  H    4.294373   3.487671   3.132064   1.097170   2.192911
    12  H    4.877588   4.220385   3.026758   2.151101   1.099817
    13  O    5.590803   4.988112   4.212073   1.421952   2.436861
    14  H    5.754055   5.306240   4.391203   1.919301   2.619857
    15  C    4.619729   3.503869   2.704771   2.541234   1.531279
    16  O    5.152431   4.065355   3.207652   3.825969   2.476799
    17  H    4.133962   2.888909   2.491295   2.803861   2.155040
    18  H    5.542982   4.427006   3.700073   2.674677   2.138284
    19  H    5.764356   4.784369   3.761185   4.055045   2.651007
    20  H    1.714957   2.711119   2.621823   4.385105   4.168991
    21  C    3.738651   3.909330   3.155047   2.559513   2.909544
    22  H    3.853541   4.347714   3.825250   3.500616   3.961043
    23  C    3.582519   3.440616   2.966711   1.547268   2.588632
    24  H    4.509718   4.432349   4.054268   2.123068   3.458763
    25  O    5.120636   5.141819   4.199325   2.910986   3.236260
    26  H    5.694444   5.807125   4.985326   3.436627   4.058572
    27  O    2.647038   2.681965   2.778476   2.493241   3.321953
    28  H    2.115322   1.803641   2.106577   2.514381   3.010312
    29  O    2.730253   3.323290   2.678173   4.207510   3.727266
    30  H    4.212542   4.251130   3.103869   3.589371   2.857196
                   11         12         13         14         15
    11  H    0.000000
    12  H    2.991349   0.000000
    13  O    2.013335   2.431115   0.000000
    14  H    2.799589   2.283785   0.974915   0.000000
    15  C    2.557595   2.153984   3.265224   3.726732   0.000000
    16  O    3.958502   2.739312   4.476136   4.766423   1.414279
    17  H    2.457420   3.057456   3.788205   4.378973   1.095688
    18  H    2.551061   2.488118   2.956611   3.556891   1.102299
    19  H    4.377803   2.502770   4.458103   4.598784   1.947618
    20  H    4.855385   4.725462   5.579925   5.450479   5.210156
    21  C    3.462020   3.062261   3.205556   2.809359   4.400870
    22  H    4.279218   4.152592   4.125561   3.721346   5.417979
    23  C    2.141654   3.123988   2.452284   2.544947   3.825330
    24  H    2.561335   3.843355   2.465958   2.546660   4.632311
    25  O    3.961854   2.907377   2.896274   2.122863   4.736436
    26  H    4.396355   3.773193   3.219368   2.454091   5.528312
    27  O    2.555672   4.132869   3.658933   3.923165   4.262541
    28  H    2.379353   3.981640   3.865743   4.241651   3.682899
    29  O    4.921037   4.000323   5.221569   4.908722   4.920142
    30  H    4.564991   2.570495   4.175278   3.640067   4.193238
                   16         17         18         19         20
    16  O    0.000000
    17  H    2.009977   0.000000
    18  H    2.097674   1.773645   0.000000
    19  H    0.970037   2.820800   2.363040   0.000000
    20  H    5.686054   5.061595   6.114572   6.052684   0.000000
    21  C    5.255404   4.690888   4.900496   5.325905   2.893590
    22  H    6.261036   5.599792   5.945738   6.368185   2.741412
    23  C    4.983243   3.897144   4.169371   5.239191   3.441649
    24  H    5.872741   4.725611   4.768328   6.075358   4.305150
    25  O    5.536416   5.293906   5.013189   5.367619   4.222976
    26  H    6.422162   6.034855   5.706956   6.264635   4.755819
    27  O    5.379890   3.965714   4.759742   5.847985   2.956831
    28  H    4.729502   3.215218   4.294050   5.314902   2.926054
    29  O    5.249618   5.049294   5.809113   5.417350   1.325128
    30  H    4.452385   4.749536   4.889597   4.283605   3.214288
                   21         22         23         24         25
    21  C    0.000000
    22  H    1.097719   0.000000
    23  C    1.544551   2.167482   0.000000
    24  H    2.138285   2.473159   1.097860   0.000000
    25  O    1.444236   2.092729   2.424717   2.605300   0.000000
    26  H    1.972049   2.216527   2.747528   2.538972   0.969983
    27  O    2.460770   2.663756   1.422968   2.023187   3.690773
    28  H    2.973990   3.353831   1.993473   2.797472   4.206048
    29  O    2.451398   2.528550   3.460903   4.352533   3.487837
    30  H    2.195138   2.860752   3.376957   4.177949   2.361401
                   26         27         28         29         30
    26  H    0.000000
    27  O    3.975004   0.000000
    28  H    4.655230   0.982009   0.000000
    29  O    4.155342   3.514049   3.534434   0.000000
    30  H    3.258336   4.145473   4.213808   2.018901   0.000000
 Symmetry turned off by external request.
 Stoichiometry    C6H16O8
 Framework group  C1[X(C6H16O8)]
 Deg. of freedom    84
 Full point group                 C1      NOp   1
 Rotational constants (GHZ):      0.7208166      0.5854258      0.4543298
 Standard basis: 6-31G(d) (6D, 7F)
   242 basis functions,   456 primitive gaussians,   242 cartesian basis functions
    58 alpha electrons       58 beta electrons
       nuclear repulsion energy      1141.6060732238 Hartrees.
 NAtoms=   30 NActive=   30 NUniq=   30 SFac= 1.00D+00 NAtFMM=   60 NAOKFM=F Big=F
 Integral buffers will be    131072 words long.
 Raffenetti 2 integral format.
 Two-electron integral symmetry is turned off.
 One-electron integrals computed using PRISM.
 NBasis=   242 RedAO= T EigKep=  1.84D-03  NBF=   242
 NBsUse=   242 1.00D-06 EigRej= -1.00D+00 NBFU=   242
 ExpMin= 1.61D-01 ExpMax= 5.48D+03 ExpMxC= 8.25D+02 IAcc=1 IRadAn=         1 AccDes= 0.00D+00
 Harris functional with IExCor=  402 and IRadAn=       1 diagonalized for initial guess.
 HarFok:  IExCor=  402 AccDes= 0.00D+00 IRadAn=         1 IDoV= 1 UseB2=F ITyADJ=14
 ICtDFT=  3500011 ScaDFX=  1.000000  1.000000  1.000000  1.000000
 FoFCou: FMM=F IPFlag=           0 FMFlag=      100000 FMFlg1=           0
         NFxFlg=           0 DoJE=T BraDBF=F KetDBF=T FulRan=T
         wScrn=  0.000000 ICntrl=     500 IOpCl=  0 I1Cent=   200000004 NGrid=           0
         NMat0=    1 NMatS0=      1 NMatT0=    0 NMatD0=    1 NMtDS0=    0 NMtDT0=    0
 Symmetry not used in FoFCou.
 Requested convergence on RMS density matrix=1.00D-08 within 128 cycles.
 Requested convergence on MAX density matrix=1.00D-06.
 Requested convergence on             energy=1.00D-06.
 No special actions if energy rises.
 Integral accuracy reduced to 1.0D-05 until final iterations.
 Initial convergence to 1.0D-05 achieved.  Increase integral accuracy.
 SCF Done:  E(RB3LYP) =  -839.955186678     A.U. after   14 cycles
            NFock= 14  Conv=0.72D-08     -V/T= 2.0086
 DoSCS=F DFT=T ScalE2(SS,OS)=  1.000000  1.000000
 Range of M.O.s used for correlation:     1   242
 NBasis=   242 NAE=    58 NBE=    58 NFC=     0 NFV=     0
 NROrb=    242 NOA=    58 NOB=    58 NVA=   184 NVB=   184
 Symmetrizing basis deriv contribution to polar:
 IMax=3 JMax=2 DiffMx= 0.00D+00
 G2DrvN: will do    31 centers at a time, making    1 passes.
 Calling FoFCou, ICntrl=  3107 FMM=F I1Cent=   0 AccDes= 0.00D+00.
 End of G2Drv F.D. properties file   721 does not exist.
 End of G2Drv F.D. properties file   722 does not exist.
 End of G2Drv F.D. properties file   788 does not exist.
          IDoAtm=111111111111111111111111111111
          Differentiating once with respect to nuclear coordinates.
          There are    93 degrees of freedom in the 1st order CPHF.  IDoFFX=6 NUNeed=     0.
     87 vectors produced by pass  0 Test12= 1.15D-14 1.08D-09 XBig12= 1.40D-01 6.67D-02.
 AX will form    87 AO Fock derivatives at one time.
     87 vectors produced by pass  1 Test12= 1.15D-14 1.08D-09 XBig12= 2.79D-02 3.62D-02.
     87 vectors produced by pass  2 Test12= 1.15D-14 1.08D-09 XBig12= 2.24D-04 1.80D-03.
     87 vectors produced by pass  3 Test12= 1.15D-14 1.08D-09 XBig12= 5.07D-07 7.27D-05.
     87 vectors produced by pass  4 Test12= 1.15D-14 1.08D-09 XBig12= 6.31D-10 2.29D-06.
     72 vectors produced by pass  5 Test12= 1.15D-14 1.08D-09 XBig12= 4.41D-13 4.33D-08.
      1 vectors produced by pass  6 Test12= 1.15D-14 1.08D-09 XBig12= 3.78D-16 1.50D-09.
 InvSVY:  IOpt=1 It=  1 EMax= 5.55D-16
 Solved reduced A of dimension   508 with    93 vectors.
 End of Minotr F.D. properties file   721 does not exist.
 End of Minotr F.D. properties file   722 does not exist.
 End of Minotr F.D. properties file   788 does not exist.

 **********************************************************************

            Population analysis using the SCF density.

 **********************************************************************

 Alpha  occ. eigenvalues --  -19.18465 -19.17367 -19.16822 -19.15721 -19.15067
 Alpha  occ. eigenvalues --  -19.15062 -19.14113 -19.12412 -10.29375 -10.25771
 Alpha  occ. eigenvalues --  -10.25244 -10.24913 -10.24894 -10.24061  -1.06472
 Alpha  occ. eigenvalues --   -1.04972  -1.03712  -1.03070  -1.02193  -1.02094
 Alpha  occ. eigenvalues --   -1.00605  -0.96847  -0.78030  -0.75967  -0.69796
 Alpha  occ. eigenvalues --   -0.65633  -0.62579  -0.59632  -0.55780  -0.54583
 Alpha  occ. eigenvalues --   -0.54060  -0.52910  -0.52705  -0.50927  -0.49111
 Alpha  occ. eigenvalues --   -0.48171  -0.46346  -0.45284  -0.44871  -0.43752
 Alpha  occ. eigenvalues --   -0.43033  -0.41430  -0.40460  -0.39377  -0.38821
 Alpha  occ. eigenvalues --   -0.37240  -0.36994  -0.35445  -0.33900  -0.32942
 Alpha  occ. eigenvalues --   -0.31855  -0.30712  -0.30320  -0.28969  -0.28364
 Alpha  occ. eigenvalues --   -0.27135  -0.25633  -0.25153
 Alpha virt. eigenvalues --    0.02150   0.03573   0.06152   0.07002   0.09018
 Alpha virt. eigenvalues --    0.10662   0.10872   0.11740   0.13187   0.14454
 Alpha virt. eigenvalues --    0.14990   0.15535   0.16274   0.17581   0.18064
 Alpha virt. eigenvalues --    0.19669   0.20899   0.22004   0.24045   0.24676
 Alpha virt. eigenvalues --    0.25148   0.26767   0.28426   0.29198   0.30473
 Alpha virt. eigenvalues --    0.31562   0.34492   0.36235   0.52644   0.53769
 Alpha virt. eigenvalues --    0.54765   0.55854   0.56263   0.57570   0.58070
 Alpha virt. eigenvalues --    0.59781   0.60874   0.61537   0.63296   0.64530
 Alpha virt. eigenvalues --    0.65007   0.67460   0.68644   0.69958   0.72555
 Alpha virt. eigenvalues --    0.75936   0.76707   0.77995   0.79184   0.79816
 Alpha virt. eigenvalues --    0.81038   0.81786   0.82954   0.83551   0.84193
 Alpha virt. eigenvalues --    0.85133   0.86300   0.87416   0.88440   0.89830
 Alpha virt. eigenvalues --    0.90699   0.91617   0.92364   0.94345   0.95193
 Alpha virt. eigenvalues --    0.98092   0.98567   1.01428   1.02077   1.02427
 Alpha virt. eigenvalues --    1.03597   1.04550   1.06179   1.06549   1.09620
 Alpha virt. eigenvalues --    1.10421   1.10998   1.13923   1.17971   1.18900
 Alpha virt. eigenvalues --    1.19416   1.22938   1.24184   1.25790   1.26418
 Alpha virt. eigenvalues --    1.28458   1.30573   1.32007   1.33571   1.36608
 Alpha virt. eigenvalues --    1.38095   1.43146   1.46215   1.47561   1.51427
 Alpha virt. eigenvalues --    1.52133   1.55179   1.55998   1.58365   1.60828
 Alpha virt. eigenvalues --    1.62407   1.64818   1.66562   1.68104   1.68684
 Alpha virt. eigenvalues --    1.69184   1.70900   1.71884   1.73393   1.73755
 Alpha virt. eigenvalues --    1.74107   1.74840   1.76564   1.76704   1.78840
 Alpha virt. eigenvalues --    1.80045   1.81522   1.81793   1.84304   1.85476
 Alpha virt. eigenvalues --    1.88088   1.89807   1.91364   1.91851   1.93814
 Alpha virt. eigenvalues --    1.95579   1.98139   1.99887   2.02878   2.03657
 Alpha virt. eigenvalues --    2.07026   2.08044   2.10981   2.13373   2.15231
 Alpha virt. eigenvalues --    2.15967   2.20477   2.23879   2.25235   2.26850
 Alpha virt. eigenvalues --    2.28386   2.31082   2.35693   2.37026   2.39628
 Alpha virt. eigenvalues --    2.41901   2.44187   2.45427   2.46912   2.48881
 Alpha virt. eigenvalues --    2.52927   2.54582   2.56616   2.58029   2.58095
 Alpha virt. eigenvalues --    2.62173   2.64423   2.65697   2.68446   2.70897
 Alpha virt. eigenvalues --    2.75766   2.78210   2.83271   2.86218   2.88400
 Alpha virt. eigenvalues --    2.90838   2.92071   2.98733   3.03692   3.07630
 Alpha virt. eigenvalues --    3.73713   3.77325   3.79237   3.85652   3.93374
 Alpha virt. eigenvalues --    4.00389   4.04761   4.13933   4.27389   4.35582
 Alpha virt. eigenvalues --    4.40701   4.57560   4.67104   4.73160
          Condensed to atoms (all electrons):
               1          2          3          4          5          6
     1  C    4.702967   0.067341  -0.000027  -0.000597   0.013578  -0.000707
     2  O    0.067341   8.581507   0.003926  -0.000021  -0.000799   0.003702
     3  H   -0.000027   0.003926   0.366756  -0.000116   0.003490  -0.001876
     4  H   -0.000597  -0.000021  -0.000116   0.334363   0.223246  -0.012522
     5  O    0.013578  -0.000799   0.003490   0.223246   8.487123   0.137141
     6  H   -0.000707   0.003702  -0.001876  -0.012522   0.137141   0.302232
     7  O    0.002580  -0.096507   0.226215   0.005112  -0.097139   0.121926
     8  H   -0.000304   0.105736  -0.002378  -0.000145   0.004593  -0.005357
     9  C   -0.016071  -0.041646  -0.000031   0.000179  -0.000021  -0.000034
    10  C   -0.005646   0.168327  -0.000507  -0.000009  -0.000011  -0.000045
    11  H    0.000183   0.002645   0.000013  -0.000016   0.000002   0.000000
    12  H   -0.001878  -0.042141   0.000017   0.000001  -0.000001   0.000007
    13  O    0.000162   0.001486   0.000000  -0.000001   0.000000  -0.000000
    14  H    0.000227  -0.000018   0.000000   0.000000  -0.000000   0.000000
    15  C    0.000836  -0.034726   0.000170   0.000001  -0.000000   0.000005
    16  O   -0.000042   0.001575   0.000023  -0.000000   0.000000  -0.000001
    17  H   -0.000043  -0.003553   0.000510  -0.000001   0.000006  -0.000060
    18  H   -0.000021   0.003411   0.000001   0.000000   0.000000  -0.000001
    19  H   -0.000018  -0.000140   0.000001   0.000000  -0.000000   0.000000
    20  H   -0.020595   0.001661  -0.000141  -0.005852   0.138250  -0.009130
    21  C    0.237113  -0.031158  -0.000018  -0.000392   0.000976  -0.000170
    22  H   -0.043125   0.002429  -0.000001   0.001324  -0.000295  -0.000042
    23  C   -0.024412   0.008327  -0.000040  -0.001230  -0.000331   0.000292
    24  H    0.004783   0.000112   0.000003  -0.000009  -0.000012   0.000007
    25  O   -0.028621   0.000490   0.000000   0.000008   0.000001  -0.000001
    26  H    0.005372  -0.000123   0.000000  -0.000000  -0.000000   0.000000
    27  O    0.007338  -0.002938   0.000898   0.034740  -0.009449   0.001670
    28  H    0.000372   0.004467  -0.001173  -0.004978   0.005276  -0.003803
    29  O    0.383275  -0.042874   0.000036   0.004513  -0.093187   0.005985
    30  H    0.371798  -0.029792   0.000005   0.000041  -0.000220   0.000055
               7          8          9         10         11         12
     1  C    0.002580  -0.000304  -0.016071  -0.005646   0.000183  -0.001878
     2  O   -0.096507   0.105736  -0.041646   0.168327   0.002645  -0.042141
     3  H    0.226215  -0.002378  -0.000031  -0.000507   0.000013   0.000017
     4  H    0.005112  -0.000145   0.000179  -0.000009  -0.000016   0.000001
     5  O   -0.097139   0.004593  -0.000021  -0.000011   0.000002  -0.000001
     6  H    0.121926  -0.005357  -0.000034  -0.000045   0.000000   0.000007
     7  O    8.559230   0.120164  -0.000213   0.006373  -0.000164  -0.000168
     8  H    0.120164   0.310663   0.002000  -0.012791   0.000017   0.001738
     9  C   -0.000213   0.002000   5.061331   0.239080   0.372364  -0.054525
    10  C    0.006373  -0.012791   0.239080   5.067386  -0.058889   0.359182
    11  H   -0.000164   0.000017   0.372364  -0.058889   0.599897   0.005573
    12  H   -0.000168   0.001738  -0.054525   0.359182   0.005573   0.621512
    13  O    0.000001  -0.000039   0.224773  -0.034523  -0.037248   0.003577
    14  H   -0.000001   0.000009  -0.033468  -0.005258   0.006533   0.005434
    15  C   -0.001261  -0.002653  -0.021713   0.330660  -0.004151  -0.040940
    16  O   -0.000067   0.001326   0.002799  -0.039676   0.000094  -0.002469
    17  H    0.005037   0.000935  -0.007344  -0.034983   0.005152   0.005778
    18  H    0.000031   0.000285   0.005749  -0.056353   0.000386  -0.002905
    19  H   -0.000006  -0.000007  -0.000024  -0.004128   0.000033   0.005673
    20  H    0.005069  -0.000286  -0.000009  -0.000009  -0.000002   0.000008
    21  C   -0.000531   0.000539  -0.024711  -0.010903   0.006171  -0.001367
    22  H    0.000032  -0.000152   0.005190   0.000018  -0.000178   0.000056
    23  C    0.001211  -0.001094   0.309366  -0.035662  -0.051602  -0.001436
    24  H   -0.000022   0.000045  -0.052597   0.006628  -0.004432  -0.000288
    25  O    0.000000  -0.000006  -0.003066   0.000973  -0.000149   0.000851
    26  H   -0.000000   0.000004  -0.000883   0.000180   0.000002  -0.000079
    27  O   -0.021564   0.003765  -0.023666   0.001641   0.001795  -0.000105
    28  H    0.056136  -0.005806  -0.007560   0.001416   0.003655   0.000108
    29  O   -0.001870   0.006500   0.000356   0.001076   0.000004   0.000028
    30  H   -0.000054   0.000949   0.000862  -0.001715   0.000019   0.005628
              13         14         15         16         17         18
     1  C    0.000162   0.000227   0.000836  -0.000042  -0.000043  -0.000021
     2  O    0.001486  -0.000018  -0.034726   0.001575  -0.003553   0.003411
     3  H    0.000000   0.000000   0.000170   0.000023   0.000510   0.000001
     4  H   -0.000001   0.000000   0.000001  -0.000000  -0.000001   0.000000
     5  O    0.000000  -0.000000  -0.000000   0.000000   0.000006   0.000000
     6  H   -0.000000   0.000000   0.000005  -0.000001  -0.000060  -0.000001
     7  O    0.000001  -0.000001  -0.001261  -0.000067   0.005037   0.000031
     8  H   -0.000039   0.000009  -0.002653   0.001326   0.000935   0.000285
     9  C    0.224773  -0.033468  -0.021713   0.002799  -0.007344   0.005749
    10  C   -0.034523  -0.005258   0.330660  -0.039676  -0.034983  -0.056353
    11  H   -0.037248   0.006533  -0.004151   0.000094   0.005152   0.000386
    12  H    0.003577   0.005434  -0.040940  -0.002469   0.005778  -0.002905
    13  O    8.284934   0.226898  -0.001019  -0.000015   0.000113   0.003815
    14  H    0.226898   0.372872   0.000082   0.000001  -0.000006  -0.000003
    15  C   -0.001019   0.000082   4.878290   0.267498   0.365766   0.355518
    16  O   -0.000015   0.000001   0.267498   8.213345  -0.040206  -0.034132
    17  H    0.000113  -0.000006   0.365766  -0.040206   0.582468  -0.038739
    18  H    0.003815  -0.000003   0.355518  -0.034132  -0.038739   0.622259
    19  H   -0.000000  -0.000004  -0.033860   0.237150   0.007538  -0.005262
    20  H    0.000000   0.000000   0.000003  -0.000000  -0.000003  -0.000000
    21  C    0.000485  -0.003753   0.000043  -0.000001   0.000009   0.000002
    22  H   -0.000197   0.000339   0.000013  -0.000000  -0.000000  -0.000000
    23  C   -0.029420  -0.008527   0.002007  -0.000047  -0.000233   0.000351
    24  H    0.005928   0.000343  -0.000082   0.000000  -0.000006   0.000001
    25  O   -0.010275   0.038888   0.000070  -0.000000  -0.000001   0.000000
    26  H    0.001086  -0.001359  -0.000005   0.000000   0.000000   0.000000
    27  O    0.001569   0.000070  -0.000031   0.000000  -0.000132  -0.000007
    28  H    0.000077   0.000019  -0.000596   0.000002   0.000894   0.000003
    29  O   -0.000000  -0.000001  -0.000069   0.000000  -0.000001   0.000001
    30  H    0.000002   0.000007  -0.000171  -0.000004   0.000003   0.000008
              19         20         21         22         23         24
     1  C   -0.000018  -0.020595   0.237113  -0.043125  -0.024412   0.004783
     2  O   -0.000140   0.001661  -0.031158   0.002429   0.008327   0.000112
     3  H    0.000001  -0.000141  -0.000018  -0.000001  -0.000040   0.000003
     4  H    0.000000  -0.005852  -0.000392   0.001324  -0.001230  -0.000009
     5  O   -0.000000   0.138250   0.000976  -0.000295  -0.000331  -0.000012
     6  H    0.000000  -0.009130  -0.000170  -0.000042   0.000292   0.000007
     7  O   -0.000006   0.005069  -0.000531   0.000032   0.001211  -0.000022
     8  H   -0.000007  -0.000286   0.000539  -0.000152  -0.001094   0.000045
     9  C   -0.000024  -0.000009  -0.024711   0.005190   0.309366  -0.052597
    10  C   -0.004128  -0.000009  -0.010903   0.000018  -0.035662   0.006628
    11  H    0.000033  -0.000002   0.006171  -0.000178  -0.051602  -0.004432
    12  H    0.005673   0.000008  -0.001367   0.000056  -0.001436  -0.000288
    13  O   -0.000000   0.000000   0.000485  -0.000197  -0.029420   0.005928
    14  H   -0.000004   0.000000  -0.003753   0.000339  -0.008527   0.000343
    15  C   -0.033860   0.000003   0.000043   0.000013   0.002007  -0.000082
    16  O    0.237150  -0.000000  -0.000001  -0.000000  -0.000047   0.000000
    17  H    0.007538  -0.000003   0.000009  -0.000000  -0.000233  -0.000006
    18  H   -0.005262  -0.000000   0.000002  -0.000000   0.000351   0.000001
    19  H    0.401454   0.000000   0.000002  -0.000000  -0.000006  -0.000000
    20  H    0.000000   0.296093  -0.005367   0.001995   0.000333  -0.000006
    21  C    0.000002  -0.005367   5.292660   0.356826   0.264728  -0.061072
    22  H   -0.000000   0.001995   0.356826   0.602910  -0.043129  -0.006498
    23  C   -0.000006   0.000333   0.264728  -0.043129   4.960960   0.368065
    24  H   -0.000000  -0.000006  -0.061072  -0.006498   0.368065   0.626251
    25  O   -0.000000   0.000021   0.147939  -0.027319  -0.031964   0.003035
    26  H    0.000000  -0.000001  -0.016832  -0.009641  -0.000164   0.003861
    27  O    0.000000   0.001347  -0.050213   0.002392   0.215810  -0.036445
    28  H   -0.000000  -0.000357   0.001823  -0.000449  -0.024342   0.003338
    29  O    0.000000   0.131602  -0.045708   0.002058   0.000820  -0.000103
    30  H    0.000005   0.002725  -0.091281   0.004018   0.003281  -0.000248
              25         26         27         28         29         30
     1  C   -0.028621   0.005372   0.007338   0.000372   0.383275   0.371798
     2  O    0.000490  -0.000123  -0.002938   0.004467  -0.042874  -0.029792
     3  H    0.000000   0.000000   0.000898  -0.001173   0.000036   0.000005
     4  H    0.000008  -0.000000   0.034740  -0.004978   0.004513   0.000041
     5  O    0.000001  -0.000000  -0.009449   0.005276  -0.093187  -0.000220
     6  H   -0.000001   0.000000   0.001670  -0.003803   0.005985   0.000055
     7  O    0.000000  -0.000000  -0.021564   0.056136  -0.001870  -0.000054
     8  H   -0.000006   0.000004   0.003765  -0.005806   0.006500   0.000949
     9  C   -0.003066  -0.000883  -0.023666  -0.007560   0.000356   0.000862
    10  C    0.000973   0.000180   0.001641   0.001416   0.001076  -0.001715
    11  H   -0.000149   0.000002   0.001795   0.003655   0.000004   0.000019
    12  H    0.000851  -0.000079  -0.000105   0.000108   0.000028   0.005628
    13  O   -0.010275   0.001086   0.001569   0.000077  -0.000000   0.000002
    14  H    0.038888  -0.001359   0.000070   0.000019  -0.000001   0.000007
    15  C    0.000070  -0.000005  -0.000031  -0.000596  -0.000069  -0.000171
    16  O   -0.000000   0.000000   0.000000   0.000002   0.000000  -0.000004
    17  H   -0.000001   0.000000  -0.000132   0.000894  -0.000001   0.000003
    18  H    0.000000   0.000000  -0.000007   0.000003   0.000001   0.000008
    19  H   -0.000000   0.000000   0.000000  -0.000000   0.000000   0.000005
    20  H    0.000021  -0.000001   0.001347  -0.000357   0.131602   0.002725
    21  C    0.147939  -0.016832  -0.050213   0.001823  -0.045708  -0.091281
    22  H   -0.027319  -0.009641   0.002392  -0.000449   0.002058   0.004018
    23  C   -0.031964  -0.000164   0.215810  -0.024342   0.000820   0.003281
    24  H    0.003035   0.003861  -0.036445   0.003338  -0.000103  -0.000248
    25  O    8.306848   0.231052   0.001710  -0.000085   0.001151   0.010105
    26  H    0.231052   0.378582  -0.000023   0.000002  -0.000143  -0.000473
    27  O    0.001710  -0.000023   8.363537   0.196874  -0.000764  -0.000009
    28  H   -0.000085   0.000002   0.196874   0.340035   0.000137   0.000034
    29  O    0.001151  -0.000143  -0.000764   0.000137   8.277428  -0.038135
    30  H    0.010105  -0.000473  -0.000009   0.000034  -0.038135   0.606664
 Mulliken charges:
               1
     1  C    0.344180
     2  O   -0.630705
     3  H    0.404242
     4  H    0.422362
     5  O   -0.812218
     6  H    0.460725
     7  O   -0.889550
     8  H    0.471752
     9  C    0.063533
    10  C    0.118169
    11  H    0.152292
    12  H    0.133132
    13  O   -0.642169
    14  H    0.400676
    15  C   -0.059686
    16  O   -0.607154
    17  H    0.151103
    18  H    0.145599
    19  H    0.391598
    20  H    0.462651
    21  C    0.034161
    22  H    0.151425
    23  C    0.118089
    24  H    0.139420
    25  O   -0.641657
    26  H    0.409584
    27  O   -0.689811
    28  H    0.434480
    29  O   -0.592118
    30  H    0.155893
 Sum of Mulliken charges =  -0.00000
 Mulliken charges with hydrogens summed into heavy atoms:
               1
     1  C    0.500073
     2  O   -0.158953
     5  O    0.533520
     7  O   -0.485308
     9  C    0.215825
    10  C    0.251301
    13  O   -0.241492
    15  C    0.237016
    16  O   -0.215556
    21  C    0.185586
    23  C    0.257508
    25  O   -0.232072
    27  O   -0.255331
    29  O   -0.592118
 APT charges:
               1
     1  C   -0.415814
     2  O   -0.400004
     3  H    0.827040
     4  H    0.439174
     5  O   -0.622363
     6  H    0.334087
     7  O   -1.303735
     8  H    0.433382
     9  C   -0.272593
    10  C   -0.245283
    11  H    0.427338
    12  H    0.371382
    13  O   -0.636844
    14  H    0.487242
    15  C   -0.688140
    16  O   -0.712541
    17  H    0.325739
    18  H    0.493915
    19  H    0.653814
    20  H    0.359298
    21  C   -0.281687
    22  H    0.491071
    23  C   -0.411509
    24  H    0.512352
    25  O   -1.019075
    26  H    0.842293
    27  O   -0.583093
    28  H    0.408096
    29  O   -0.254382
    30  H    0.440841
 Sum of APT charges =  -0.00000
 APT charges with hydrogens summed into heavy atoms:
               1
     1  C    0.025028
     2  O    0.033378
     5  O    0.510195
     7  O   -0.476695
     9  C    0.154745
    10  C    0.126099
    13  O   -0.149602
    15  C    0.131513
    16  O   -0.058728
    21  C    0.209384
    23  C    0.100843
    25  O   -0.176781
    27  O   -0.174997
    29  O   -0.254382
 Electronic spatial extent (au):  <R**2>=           2812.9551
 Charge=              0.0000 electrons
 Dipole moment (field-independent basis, Debye):
    X=             -0.7539    Y=             -2.3408    Z=              0.6339  Tot=              2.5396
 Quadrupole moment (field-independent basis, Debye-Ang):
   XX=            -89.1944   YY=            -76.3368   ZZ=            -88.8775
   XY=             -4.7491   XZ=              7.1414   YZ=              6.5526
 Traceless Quadrupole moment (field-independent basis, Debye-Ang):
   XX=             -4.3915   YY=              8.4661   ZZ=             -4.0746
   XY=             -4.7491   XZ=              7.1414   YZ=              6.5526
 Octapole moment (field-independent basis, Debye-Ang**2):
  XXX=            -11.0410  YYY=            -17.7972  ZZZ=             -5.0110  XYY=             32.6711
  XXY=            -15.4021  XXZ=             -6.4134  XZZ=            -15.1207  YZZ=             10.8563
  YYZ=              5.6125  XYZ=             -4.3083
 Hexadecapole moment (field-independent basis, Debye-Ang**3):
 XXXX=          -1585.9923 YYYY=           -908.6920 ZZZZ=           -611.5898 XXXY=            -34.5658
 XXXZ=             96.2290 YYYX=             24.4265 YYYZ=             57.1595 ZZZX=             40.4822
 ZZZY=              6.4834 XXYY=           -521.8533 XXZZ=           -345.5143 YYZZ=           -306.4713
 XXYZ=             21.0053 YYXZ=              5.9875 ZZXY=            -11.7240
 N-N= 1.141606073224D+03 E-N=-4.255221005664D+03  KE= 8.327799519096D+02
  Exact polarizability:   0.000   0.000   0.000   0.000   0.000   0.000
 Approx polarizability: 146.077   5.572 140.120   0.415   6.747 126.993
 Calling FoFJK, ICntrl=    100147 FMM=F ISym2X=0 I1Cent= 0 IOpClX= 0 NMat=1 NMatS=1 NMatT=0.
 -------------------------------------------------------------------
 Center     Atomic                   Forces (Hartrees/Bohr)
 Number     Number              X              Y              Z
 -------------------------------------------------------------------
      1        6          -0.000002274   -0.000008179    0.000004434
      2        8           0.000009486    0.000001229   -0.000007298
      3        1           0.000012400   -0.000011047    0.000002962
      4        1           0.000006911   -0.000003403   -0.000010618
      5        8          -0.000006970   -0.000020392    0.000023328
      6        1           0.000012092   -0.000008328   -0.000005923
      7        8           0.000006151    0.000004082   -0.000002332
      8        1           0.000002799    0.000004161    0.000001549
      9        6          -0.000006651    0.000001948   -0.000016530
     10        6          -0.000004600    0.000002335   -0.000010417
     11        1          -0.000004228    0.000008420    0.000006950
     12        1           0.000004430    0.000011748    0.000005045
     13        8          -0.000022385    0.000013031   -0.000009806
     14        1          -0.000000458    0.000005631   -0.000001133
     15        6          -0.000002866    0.000014581    0.000000487
     16        8           0.000015846   -0.000007242   -0.000026773
     17        1          -0.000002069   -0.000002285   -0.000008643
     18        1           0.000007248    0.000009027   -0.000002731
     19        1           0.000013830    0.000021614    0.000016887
     20        1          -0.000007576   -0.000006903    0.000017049
     21        6          -0.000008280   -0.000002057    0.000004021
     22        1           0.000000544   -0.000006081    0.000001810
     23        6          -0.000007161   -0.000000589    0.000001214
     24        1          -0.000006004   -0.000000223   -0.000000827
     25        8          -0.000011046   -0.000014937    0.000009233
     26        1          -0.000011241    0.000011383   -0.000003750
     27        8          -0.000010852    0.000007510   -0.000000179
     28        1           0.000002072   -0.000016224    0.000006132
     29        8           0.000015052   -0.000007832    0.000007681
     30        1           0.000005799   -0.000000977   -0.000001823
 -------------------------------------------------------------------
 Cartesian Forces:  Max     0.000026773 RMS     0.000009549
 IRC-IRC-IRC-IRC-IRC-IRC-IRC-IRC-IRC-IRC-IRC-IRC-IRC-IRC-IRC-IRC-IRC-IRC
          ******** Start new reaction path calculation ********
 Supplied step size of   0.1000 bohr.
    Integration on MW PES will use step size of   0.1083 sqrt(amu)*bohr.
 Point Number:   0          Path Number:   1
 Calculating another point on the path.
 IRC-IRC-IRC-IRC-IRC-IRC-IRC-IRC-IRC-IRC-IRC-IRC-IRC-IRC-IRC-IRC-IRC-IRC
                          Input orientation:                          
 ---------------------------------------------------------------------
 Center     Atomic      Atomic             Coordinates (Angstroms)
 Number     Number       Type             X           Y           Z
 ---------------------------------------------------------------------
      1          6           0        0.961548   -0.325965   -1.408726
      2          8           0       -0.286060    0.775733   -0.762936
      3          1           0        0.549159    3.128890    0.908673
      4          1           0        2.987283    0.663305    1.061684
      5          8           0        3.007821    1.371120    0.386173
      6          1           0        2.073972    1.922168    0.629145
      7          8           0        0.783397    2.189373    0.886881
      8          1           0        0.187917    1.552733   -0.032088
      9          6           0       -1.104679   -0.838872    0.952389
     10          6           0       -1.436674    0.127738   -0.222260
     11          1           0       -1.351151   -0.368483    1.912479
     12          1           0       -1.851512   -0.488067   -1.034057
     13          8           0       -1.933233   -1.991833    0.873440
     14          1           0       -1.625092   -2.467403    0.080199
     15          6           0       -2.490281    1.155007    0.203139
     16          8           0       -2.896980    2.035478   -0.826238
     17          1           0       -2.072960    1.792070    0.990845
     18          1           0       -3.337199    0.599065    0.637665
     19          1           0       -3.276477    1.504666   -1.544001
     20          1           0        2.640697    0.835467   -0.564000
     21          6           0        0.968843   -1.498311   -0.395254
     22          1           0        2.017974   -1.806977   -0.299455
     23          6           0        0.392247   -1.225921    1.011558
     24          1           0        0.428356   -2.176762    1.559174
     25          8           0        0.195858   -2.552971   -1.008325
     26          1           0        0.519907   -3.399737   -0.663563
     27          8           0        1.198854   -0.315775    1.750488
     28          1           0        0.818418    0.589159    1.717523
     29          8           0        2.019693    0.362862   -1.597604
     30          1           0        0.386768   -0.588573   -2.305844
 ---------------------------------------------------------------------
                    Distance matrix (angstroms):
                    1          2          3          4          5
     1  C    0.000000
     2  O    1.785304   0.000000
     3  H    4.180482   3.004866   0.000000
     4  H    3.344426   3.749221   3.470874   0.000000
     5  O    3.207646   3.539010   3.067210   0.978641   0.000000
     6  H    3.231796   2.970177   1.964527   1.614300   1.111200
     7  O    3.410055   2.421573   0.968522   2.686364   2.422459
     8  H    2.454209   1.167271   1.870775   3.134305   2.856533
     9  C    3.179188   2.493878   4.298864   4.360348   4.702906
    10  C    2.713857   1.426934   3.772195   4.637536   4.655075
    11  H    4.047319   3.098629   4.104928   4.539874   4.935228
    12  H    2.842528   2.030108   4.756029   5.397382   5.393214
    13  O    4.045140   3.612524   5.690810   5.594343   5.996741
    14  H    3.673331   3.608575   6.060713   5.660269   6.024264
    15  C    4.087360   2.436338   3.692180   5.566200   5.505392
    16  O    4.561135   2.899633   4.010156   6.330219   6.064486
    17  H    4.410471   2.702167   2.944376   5.185093   5.133923
    18  H    4.850013   3.361896   4.645131   6.339006   6.396765
    19  H    4.618481   3.175531   4.825889   6.836093   6.575394
    20  H    2.209531   2.934118   3.435562   1.671111   1.150884
    21  C    1.549702   2.623214   4.825698   3.296871   3.605787
    22  H    2.130707   3.491959   5.289591   2.982374   3.398556
    23  C    2.644201   2.759628   4.358852   3.210281   3.738577
    24  H    3.538103   3.823586   5.346746   3.855073   4.540599
    25  O    2.388757   3.372348   6.006934   4.735127   5.024963
    26  H    3.193492   4.253705   6.715338   5.056949   5.482038
    27  O    3.168131   3.116674   3.605062   2.152099   2.824771
    28  H    3.260579   2.721647   2.678988   2.267068   2.679075
    29  O    1.276647   2.486690   4.011833   2.845753   2.434821
    30  H    1.097340   2.166701   4.917217   4.435101   4.237602
                    6          7          8          9         10
     6  H    0.000000
     7  O    1.342911   0.000000
     8  H    2.032464   1.266654   0.000000
     9  C    4.222754   3.569229   2.891328   0.000000
    10  C    4.033547   3.226337   2.169348   1.557034   0.000000
    11  H    4.315727   3.485797   3.137060   1.097172   2.193322
    12  H    4.897438   4.219175   3.054191   2.150998   1.100147
    13  O    5.606851   4.986256   4.228854   1.421989   2.437152
    14  H    5.766519   5.304443   4.411474   1.919286   2.619492
    15  C    4.647840   3.500627   2.717768   2.541029   1.531775
    16  O    5.180863   4.062467   3.221849   3.825931   2.477248
    17  H    4.164708   2.885730   2.493039   2.803731   2.155571
    18  H    5.570587   4.423856   3.712748   2.674110   2.138601
    19  H    5.790006   4.781274   3.780240   4.054731   2.651001
    20  H    1.710466   2.718029   2.610274   4.373864   4.152423
    21  C    3.737697   3.908616   3.170269   2.559394   2.908690
    22  H    3.843430   4.347688   3.835133   3.500757   3.960262
    23  C    3.589555   3.439881   2.975208   1.547286   2.588368
    24  H    4.513783   4.431836   4.061903   2.123283   3.458694
    25  O    5.122059   5.140704   4.220179   2.911002   3.235624
    26  H    5.692880   5.806157   5.003592   3.436366   4.057837
    27  O    2.651722   2.682199   2.773246   2.493362   3.321813
    28  H    2.130234   1.803297   2.094552   2.514559   3.010167
    29  O    2.718969   3.322233   2.687384   4.208126   3.727375
    30  H    4.214811   4.250622   3.129648   3.592095   2.859959
                   11         12         13         14         15
    11  H    0.000000
    12  H    2.991110   0.000000
    13  O    2.013377   2.430337   0.000000
    14  H    2.799600   2.282675   0.974859   0.000000
    15  C    2.557438   2.153688   3.265304   3.726328   0.000000
    16  O    3.958433   2.739429   4.476265   4.766054   1.414302
    17  H    2.457317   3.057498   3.788302   4.378696   1.095668
    18  H    2.550625   2.486720   2.956259   3.556024   1.102341
    19  H    4.377536   2.502309   4.458008   4.598090   1.947527
    20  H    4.849464   4.706659   5.566031   5.433313   5.197841
    21  C    3.461866   3.063180   3.205495   2.809571   4.400422
    22  H    4.279360   4.153563   4.125760   3.721858   5.417593
    23  C    2.141563   3.124648   2.452255   2.545262   3.825092
    24  H    2.561512   3.843740   2.466076   2.547251   4.632274
    25  O    3.961859   2.907958   2.896368   2.123221   4.736254
    26  H    4.396061   3.773423   3.219079   2.454271   5.527938
    27  O    2.555689   4.133777   3.659010   3.923523   4.262301
    28  H    2.379520   3.982479   3.865951   4.241950   3.682531
    29  O    4.921192   4.003485   5.222669   4.910180   4.920369
    30  H    4.567609   2.576324   4.178444   3.642909   4.196723
                   16         17         18         19         20
    16  O    0.000000
    17  H    2.009987   0.000000
    18  H    2.097638   1.773781   0.000000
    19  H    0.970032   2.820727   2.362936   0.000000
    20  H    5.672272   5.054819   6.102060   6.034996   0.000000
    21  C    5.255284   4.690464   4.899787   5.325433   2.875777
    22  H    6.260889   5.599443   5.945176   6.367659   2.727687
    23  C    4.983295   3.896915   4.168829   5.238942   3.433254
    24  H    5.872906   4.725591   4.767998   6.075228   4.298354
    25  O    5.536486   5.293733   5.012695   5.367353   4.201925
    26  H    6.422083   6.034475   5.706214   6.264254   4.737575
    27  O    5.379941   3.965455   4.759315   5.847755   2.959920
    28  H    4.729350   3.214829   4.293641   5.314495   2.930310
    29  O    5.250364   5.049011   5.809347   5.418118   1.295121
    30  H    4.456218   4.752461   4.893124   4.287356   3.184667
                   21         22         23         24         25
    21  C    0.000000
    22  H    1.097783   0.000000
    23  C    1.544597   2.167804   0.000000
    24  H    2.138273   2.473485   1.097855   0.000000
    25  O    1.444185   2.092632   2.424780   2.605310   0.000000
    26  H    1.972043   2.216678   2.747327   2.538623   0.969990
    27  O    2.460794   2.664003   1.423024   2.023250   3.690813
    28  H    2.973884   3.353894   1.993620   2.797774   4.206045
    29  O    2.452324   2.528515   3.461291   4.352848   3.489370
    30  H    2.194719   2.858485   3.378076   4.178808   2.361962
                   26         27         28         29         30
    26  H    0.000000
    27  O    3.974850   0.000000
    28  H    4.655101   0.982203   0.000000
    29  O    4.156794   3.513409   3.533318   0.000000
    30  H    3.258444   4.145809   4.214363   2.018235   0.000000
 Symmetry turned off by external request.
 Stoichiometry    C6H16O8
 Framework group  C1[X(C6H16O8)]
 Deg. of freedom    84
 Full point group                 C1      NOp   1
 Rotational constants (GHZ):      0.7210609      0.5855764      0.4543894
 Standard basis: 6-31G(d) (6D, 7F)
   242 basis functions,   456 primitive gaussians,   242 cartesian basis functions
    58 alpha electrons       58 beta electrons
       nuclear repulsion energy      1141.6631161408 Hartrees.
 NAtoms=   30 NActive=   30 NUniq=   30 SFac= 1.00D+00 NAtFMM=   60 NAOKFM=F Big=F
 Integral buffers will be    131072 words long.
 Raffenetti 2 integral format.
 Two-electron integral symmetry is turned off.
 One-electron integrals computed using PRISM.
 NBasis=   242 RedAO= T EigKep=  1.84D-03  NBF=   242
 NBsUse=   242 1.00D-06 EigRej= -1.00D+00 NBFU=   242
 Initial guess from the checkpoint file:  "/scratch/10461050.yak.local/Gau-26220.chk"
 B after Tr=    -0.007219    0.010516    0.024672
         Rot=    1.000000    0.000003   -0.000040    0.000036 Ang=   0.01 deg.
 ExpMin= 1.61D-01 ExpMax= 5.48D+03 ExpMxC= 8.25D+02 IAcc=1 IRadAn=         1 AccDes= 0.00D+00
 Harris functional with IExCor=  402 and IRadAn=       1 diagonalized for initial guess.
 HarFok:  IExCor=  402 AccDes= 0.00D+00 IRadAn=         1 IDoV= 1 UseB2=F ITyADJ=14
 ICtDFT=  3500011 ScaDFX=  1.000000  1.000000  1.000000  1.000000
 FoFCou: FMM=F IPFlag=           0 FMFlag=      100000 FMFlg1=           0
         NFxFlg=           0 DoJE=T BraDBF=F KetDBF=T FulRan=T
         wScrn=  0.000000 ICntrl=     500 IOpCl=  0 I1Cent=   200000004 NGrid=           0
         NMat0=    1 NMatS0=      1 NMatT0=    0 NMatD0=    1 NMtDS0=    0 NMtDT0=    0
 Symmetry not used in FoFCou.
 Requested convergence on RMS density matrix=1.00D-08 within 128 cycles.
 Requested convergence on MAX density matrix=1.00D-06.
 Requested convergence on             energy=1.00D-06.
 No special actions if energy rises.
 Integral accuracy reduced to 1.0D-05 until final iterations.
 Initial convergence to 1.0D-05 achieved.  Increase integral accuracy.
 SCF Done:  E(RB3LYP) =  -839.955470325     A.U. after   11 cycles
            NFock= 11  Conv=0.71D-08     -V/T= 2.0086
 DoSCS=F DFT=T ScalE2(SS,OS)=  1.000000  1.000000
 Range of M.O.s used for correlation:     1   242
 NBasis=   242 NAE=    58 NBE=    58 NFC=     0 NFV=     0
 NROrb=    242 NOA=    58 NOB=    58 NVA=   184 NVB=   184
 Symmetrizing basis deriv contribution to polar:
 IMax=3 JMax=2 DiffMx= 0.00D+00
 Calling FoFJK, ICntrl=      2147 FMM=F ISym2X=0 I1Cent= 0 IOpClX= 0 NMat=1 NMatS=1 NMatT=0.
 -------------------------------------------------------------------
 Center     Atomic                   Forces (Hartrees/Bohr)
 Number     Number              X              Y              Z
 -------------------------------------------------------------------
      1        6          -0.003583638    0.001495611    0.002370758
      2        8           0.001997480   -0.001775396   -0.000561755
      3        1          -0.000648671   -0.000180653   -0.000156363
      4        1          -0.000006458    0.000044402   -0.000017315
      5        8           0.001170489   -0.000961163   -0.000269996
      6        1           0.001966343   -0.000277054   -0.000299944
      7        8          -0.003959234   -0.000586962   -0.001321719
      8        1           0.001396771    0.002006535    0.002070756
      9        6          -0.000042772    0.000016305   -0.000113970
     10        6           0.000681934   -0.000274699   -0.000694656
     11        1          -0.000000582    0.000015341   -0.000000314
     12        1          -0.000142069   -0.000059834    0.000050241
     13        8           0.000001510   -0.000092745    0.000109485
     14        1          -0.000040954    0.000027914   -0.000021964
     15        6           0.000402809    0.000043089   -0.000138637
     16        8          -0.000043530    0.000022000   -0.000023652
     17        1           0.000032479    0.000003752   -0.000022797
     18        1           0.000052968   -0.000013085   -0.000015910
     19        1           0.000037582    0.000006160    0.000015836
     20        1          -0.001642912   -0.001400748   -0.002397960
     21        6          -0.000141767    0.000088918   -0.000062225
     22        1           0.000003275    0.000018486   -0.000042801
     23        6          -0.000039425   -0.000014445    0.000060398
     24        1           0.000009871   -0.000004773   -0.000003278
     25        8           0.000068929   -0.000009952   -0.000050408
     26        1          -0.000025500    0.000016394    0.000022501
     27        8           0.000075675    0.000095586   -0.000046284
     28        1           0.000019181   -0.000023132   -0.000025537
     29        8           0.001994395    0.001817181    0.001685652
     30        1           0.000405823   -0.000043032   -0.000098145
 -------------------------------------------------------------------
 Cartesian Forces:  Max     0.003959234 RMS     0.000972548
 IRC-IRC-IRC-IRC-IRC-IRC-IRC-IRC-IRC-IRC-IRC-IRC-IRC-IRC-IRC-IRC-IRC-IRC
 Pt  1 Step number   1 out of a maximum of  20
 Modified Bulirsch-Stoer Extrapolation Cycles:
    EPS =    0.000010000000000
 Maximum DWI energy   std dev =  0.000002429 at pt    47
 Maximum DWI gradient std dev =  0.135140483 at pt     2
 CORRECTOR INTEGRATION CONVERGENCE:
   Recorrection delta-x convergence threshold:    0.010000
   Delta-x Convergence Met
 Point Number:   1          Path Number:   1
   CHANGE IN THE REACTION COORDINATE =    0.10810
   NET REACTION COORDINATE UP TO THIS POINT =    0.10810
  # OF POINTS ALONG THE PATH =   1
  # OF STEPS =   1

 Calculating another point on the path.
 IRC-IRC-IRC-IRC-IRC-IRC-IRC-IRC-IRC-IRC-IRC-IRC-IRC-IRC-IRC-IRC-IRC-IRC
                          Input orientation:                          
 ---------------------------------------------------------------------
 Center     Atomic      Atomic             Coordinates (Angstroms)
 Number     Number       Type             X           Y           Z
 ---------------------------------------------------------------------
      1          6           0        0.958213   -0.324631   -1.406526
      2          8           0       -0.284619    0.774641   -0.763220
      3          1           0        0.542271    3.127575    0.906756
      4          1           0        2.987407    0.663468    1.061884
      5          8           0        3.008374    1.370604    0.385857
      6          1           0        2.098923    1.915952    0.624985
      7          8           0        0.780757    2.189069    0.885984
      8          1           0        0.202239    1.572620   -0.011203
      9          6           0       -1.104727   -0.838860    0.952289
     10          6           0       -1.436049    0.127468   -0.222917
     11          1           0       -1.351146   -0.368389    1.912402
     12          1           0       -1.853340   -0.488899   -1.033499
     13          8           0       -1.933232   -1.991899    0.873518
     14          1           0       -1.625563   -2.467095    0.079937
     15          6           0       -2.489914    1.155034    0.202997
     16          8           0       -2.897005    2.035507   -0.826239
     17          1           0       -2.072675    1.792178    0.990686
     18          1           0       -3.336713    0.598899    0.637532
     19          1           0       -3.276124    1.504575   -1.544059
     20          1           0        2.623567    0.821698   -0.586834
     21          6           0        0.968734   -1.498234   -0.395312
     22          1           0        2.017993   -1.806762   -0.299904
     23          6           0        0.392195   -1.225936    1.011608
     24          1           0        0.428466   -2.176817    1.559126
     25          8           0        0.195901   -2.552970   -1.008359
     26          1           0        0.519675   -3.399694   -0.663260
     27          8           0        1.198896   -0.315796    1.750477
     28          1           0        0.818361    0.588823    1.717613
     29          8           0        2.021048    0.364114   -1.596532
     30          1           0        0.391314   -0.589197   -2.307142
 ---------------------------------------------------------------------
                    Distance matrix (angstroms):
                    1          2          3          4          5
     1  C    0.000000
     2  O    1.779571   0.000000
     3  H    4.176362   3.001477   0.000000
     4  H    3.344699   3.748269   3.474849   0.000000
     5  O    3.207743   3.538270   3.072450   0.978515   0.000000
     6  H    3.232409   2.985126   1.992634   1.596559   1.087055
     7  O    3.406725   2.419815   0.968556   2.688439   2.425343
     8  H    2.473455   1.199721   1.837432   3.120133   2.841278
     9  C    3.175557   2.493779   4.295030   4.360569   4.703209
    10  C    2.708840   1.427077   3.767034   4.637345   4.654985
    11  H    4.043555   3.098863   4.100990   4.539951   4.935571
    12  H    2.840944   2.032355   4.752096   5.399204   5.395237
    13  O    4.042133   3.612558   5.686671   5.594564   5.996975
    14  H    3.670916   3.608032   6.056688   5.660754   6.024524
    15  C    4.082836   2.437539   3.685152   5.566002   5.505550
    16  O    4.557377   2.901433   4.003062   6.330388   6.065046
    17  H    4.406107   2.703462   2.937392   5.184928   5.134258
    18  H    4.845355   3.362776   4.638233   6.338670   6.396796
    19  H    4.614599   3.176730   4.818793   6.835951   6.575519
    20  H    2.181597   2.913910   3.446690   1.695785   1.181314
    21  C    1.549196   2.621490   4.824454   3.297183   3.605633
    22  H    2.131774   3.490032   5.289751   2.982661   3.398055
    23  C    2.641987   2.758695   4.357359   3.210530   3.738713
    24  H    3.536428   3.822680   5.345570   3.855211   4.540560
    25  O    2.388546   3.371051   6.004684   4.735386   5.024766
    26  H    3.193865   4.252287   6.713471   5.057183   5.481788
    27  O    3.166176   3.115853   3.605527   2.152183   2.824950
    28  H    3.257944   2.721328   2.679361   2.267226   2.679722
    29  O    1.280660   2.485768   4.011228   2.844405   2.432633
    30  H    1.096576   2.168095   4.915925   4.433870   4.235808
                    6          7          8          9         10
     6  H    0.000000
     7  O    1.371231   0.000000
     8  H    2.029784   1.232735   0.000000
     9  C    4.237864   3.567604   2.907183   0.000000
    10  C    4.051375   3.223986   2.194828   1.557137   0.000000
    11  H    4.333433   3.484126   3.143370   1.097216   2.193780
    12  H    4.914698   4.218340   3.085507   2.150871   1.100492
    13  O    5.620618   4.984614   4.248383   1.422014   2.437433
    14  H    5.777541   5.302824   4.434914   1.919223   2.619045
    15  C    4.670599   3.497569   2.732755   2.540826   1.532294
    16  O    5.203811   4.059708   3.237880   3.825887   2.477701
    17  H    4.189425   2.882804   2.495439   2.803704   2.156243
    18  H    5.592935   4.420851   3.727354   2.673571   2.138959
    19  H    5.810776   4.778276   3.801748   4.054430   2.650984
    20  H    1.714978   2.726691   2.599627   4.361941   4.134594
    21  C    3.738316   3.908101   3.188291   2.559305   2.907853
    22  H    3.836740   4.347844   3.847146   3.500886   3.959492
    23  C    3.596368   3.439334   2.985655   1.547295   2.588094
    24  H    4.518164   4.431500   4.071288   2.123455   3.458587
    25  O    5.124507   5.139798   4.244390   2.911004   3.234954
    26  H    5.692951   5.805393   5.024922   3.436066   4.057047
    27  O    2.656592   2.682636   2.768204   2.493467   3.321701
    28  H    2.143583   1.803831   2.082370   2.514412   3.010128
    29  O    2.710979   3.321396   2.698485   4.208813   3.727511
    30  H    4.217709   4.250468   3.159199   3.595046   2.863015
                   11         12         13         14         15
    11  H    0.000000
    12  H    2.990828   0.000000
    13  O    2.013427   2.429425   0.000000
    14  H    2.799607   2.281421   0.974804   0.000000
    15  C    2.557280   2.153291   3.265376   3.725864   0.000000
    16  O    3.958352   2.739492   4.476385   4.765621   1.414313
    17  H    2.457278   3.057571   3.788457   4.378445   1.095671
    18  H    2.550179   2.485164   2.955956   3.555174   1.102350
    19  H    4.377289   2.501784   4.457955   4.597377   1.947436
    20  H    4.843638   4.686135   5.550979   5.414411   5.184846
    21  C    3.461783   3.064334   3.205471   2.809792   4.400006
    22  H    4.279523   4.154774   4.125939   3.722341   5.417229
    23  C    2.141508   3.125398   2.452219   2.545552   3.824843
    24  H    2.561687   3.844140   2.466146   2.547803   4.632199
    25  O    3.961893   2.908679   2.896458   2.123557   4.736062
    26  H    4.395773   3.773726   3.218747   2.454411   5.527529
    27  O    2.555720   4.134807   3.659045   3.923820   4.262084
    28  H    2.379278   3.983477   3.865733   4.241861   3.682302
    29  O    4.921471   4.006934   5.223818   4.911626   4.920634
    30  H    4.570501   2.582769   4.181827   3.645880   4.200549
                   16         17         18         19         20
    16  O    0.000000
    17  H    2.009962   0.000000
    18  H    2.097573   1.773817   0.000000
    19  H    0.969992   2.820627   2.362892   0.000000
    20  H    5.657505   5.048275   6.088813   6.015726   0.000000
    21  C    5.255184   4.690199   4.899143   5.324970   2.856088
    22  H    6.260772   5.599245   5.944650   6.367146   2.712535
    23  C    4.983325   3.896798   4.168298   5.238672   3.424447
    24  H    5.873023   4.725648   4.767652   6.075063   4.291236
    25  O    5.536547   5.293668   5.012244   5.367085   4.178472
    26  H    6.421968   6.034181   5.705483   6.263845   4.717239
    27  O    5.380009   3.965351   4.758893   5.847523   2.964220
    28  H    4.729485   3.214743   4.293171   5.314313   2.936575
    29  O    5.251110   5.048924   5.809627   5.418804   1.261706
    30  H    4.460402   4.755823   4.897025   4.291419   3.151672
                   21         22         23         24         25
    21  C    0.000000
    22  H    1.097833   0.000000
    23  C    1.544657   2.168096   0.000000
    24  H    2.138269   2.473768   1.097847   0.000000
    25  O    1.444148   2.092547   2.424833   2.605294   0.000000
    26  H    1.972054   2.216848   2.747117   2.538257   0.969981
    27  O    2.460802   2.664200   1.423042   2.023259   3.690816
    28  H    2.973697   3.353851   1.993342   2.797481   4.205858
    29  O    2.453291   2.528627   3.461765   4.353255   3.490915
    30  H    2.194278   2.856143   3.379280   4.179706   2.362504
                   26         27         28         29         30
    26  H    0.000000
    27  O    3.974656   0.000000
    28  H    4.654679   0.981948   0.000000
    29  O    4.158288   3.512930   3.532776   0.000000
    30  H    3.258483   4.146228   4.215300   2.017375   0.000000
 Symmetry turned off by external request.
 Stoichiometry    C6H16O8
 Framework group  C1[X(C6H16O8)]
 Deg. of freedom    84
 Full point group                 C1      NOp   1
 Rotational constants (GHZ):      0.7212492      0.5856902      0.4544266
 Standard basis: 6-31G(d) (6D, 7F)
   242 basis functions,   456 primitive gaussians,   242 cartesian basis functions
    58 alpha electrons       58 beta electrons
       nuclear repulsion energy      1141.7017524277 Hartrees.
 NAtoms=   30 NActive=   30 NUniq=   30 SFac= 1.00D+00 NAtFMM=   60 NAOKFM=F Big=F
 Integral buffers will be    131072 words long.
 Raffenetti 2 integral format.
 Two-electron integral symmetry is turned off.
 One-electron integrals computed using PRISM.
 NBasis=   242 RedAO= T EigKep=  1.84D-03  NBF=   242
 NBsUse=   242 1.00D-06 EigRej= -1.00D+00 NBFU=   242
 Initial guess from the checkpoint file:  "/scratch/10461050.yak.local/Gau-26220.chk"
 B after Tr=     0.000151   -0.000023   -0.000078
         Rot=    1.000000    0.000003   -0.000039    0.000036 Ang=   0.01 deg.
 ExpMin= 1.61D-01 ExpMax= 5.48D+03 ExpMxC= 8.25D+02 IAcc=1 IRadAn=         1 AccDes= 0.00D+00
 Harris functional with IExCor=  402 and IRadAn=       1 diagonalized for initial guess.
 HarFok:  IExCor=  402 AccDes= 0.00D+00 IRadAn=         1 IDoV= 1 UseB2=F ITyADJ=14
 ICtDFT=  3500011 ScaDFX=  1.000000  1.000000  1.000000  1.000000
 FoFCou: FMM=F IPFlag=           0 FMFlag=      100000 FMFlg1=           0
         NFxFlg=           0 DoJE=T BraDBF=F KetDBF=T FulRan=T
         wScrn=  0.000000 ICntrl=     500 IOpCl=  0 I1Cent=   200000004 NGrid=           0
         NMat0=    1 NMatS0=      1 NMatT0=    0 NMatD0=    1 NMtDS0=    0 NMtDT0=    0
 Symmetry not used in FoFCou.
 Requested convergence on RMS density matrix=1.00D-08 within 128 cycles.
 Requested convergence on MAX density matrix=1.00D-06.
 Requested convergence on             energy=1.00D-06.
 No special actions if energy rises.
 Integral accuracy reduced to 1.0D-05 until final iterations.
 Initial convergence to 1.0D-05 achieved.  Increase integral accuracy.
 SCF Done:  E(RB3LYP) =  -839.956366172     A.U. after   11 cycles
            NFock= 11  Conv=0.76D-08     -V/T= 2.0086
 DoSCS=F DFT=T ScalE2(SS,OS)=  1.000000  1.000000
 Range of M.O.s used for correlation:     1   242
 NBasis=   242 NAE=    58 NBE=    58 NFC=     0 NFV=     0
 NROrb=    242 NOA=    58 NOB=    58 NVA=   184 NVB=   184
 Symmetrizing basis deriv contribution to polar:
 IMax=3 JMax=2 DiffMx= 0.00D+00
 Calling FoFJK, ICntrl=      2147 FMM=F ISym2X=0 I1Cent= 0 IOpClX= 0 NMat=1 NMatS=1 NMatT=0.
 -------------------------------------------------------------------
 Center     Atomic                   Forces (Hartrees/Bohr)
 Number     Number              X              Y              Z
 -------------------------------------------------------------------
      1        6          -0.007600790    0.002978682    0.004889524
      2        8           0.003871736   -0.004080735   -0.001572023
      3        1          -0.001244358   -0.000286707   -0.000345589
      4        1           0.000025720    0.000121255   -0.000011277
      5        8           0.002804147   -0.001580136   -0.000059949
      6        1           0.003713348   -0.000552494   -0.000535495
      7        8          -0.007712481   -0.000759198   -0.002450907
      8        1           0.002913497    0.004280940    0.004326557
      9        6          -0.000097502    0.000017840   -0.000214125
     10        6           0.001420183   -0.000617359   -0.001484607
     11        1           0.000005825    0.000010498   -0.000012156
     12        1          -0.000332295   -0.000158508    0.000108796
     13        8           0.000019934   -0.000201074    0.000242994
     14        1          -0.000080538    0.000048079   -0.000045075
     15        6           0.000842386    0.000061985   -0.000313019
     16        8          -0.000091019    0.000093483    0.000006843
     17        1           0.000050790    0.000014992   -0.000021403
     18        1           0.000090158   -0.000045836   -0.000020473
     19        1           0.000054781   -0.000032283   -0.000006170
     20        1          -0.003406912   -0.002974928   -0.005133869
     21        6          -0.000234761    0.000169652   -0.000140398
     22        1           0.000009234    0.000049392   -0.000083710
     23        6          -0.000101399   -0.000035521    0.000107312
     24        1           0.000031046   -0.000009353   -0.000008526
     25        8           0.000133772    0.000005945   -0.000109881
     26        1          -0.000030205    0.000009550    0.000054507
     27        8           0.000133079   -0.000020715   -0.000038363
     28        1          -0.000000874   -0.000073067   -0.000000888
     29        8           0.003968990    0.003672375    0.003078665
     30        1           0.000844507   -0.000106755   -0.000207296
 -------------------------------------------------------------------
 Cartesian Forces:  Max     0.007712481 RMS     0.001986156
 IRC-IRC-IRC-IRC-IRC-IRC-IRC-IRC-IRC-IRC-IRC-IRC-IRC-IRC-IRC-IRC-IRC-IRC
 Pt  2 Step number   1 out of a maximum of  20
 Modified Bulirsch-Stoer Extrapolation Cycles:
    EPS =    0.000010000000000
 Maximum DWI energy   std dev =  0.000008010 at pt    62
 Maximum DWI gradient std dev =  0.079788869 at pt    55
 CORRECTOR INTEGRATION CONVERGENCE:
   Recorrection delta-x convergence threshold:    0.010000
   Delta-x Convergence Met
 Point Number:   2          Path Number:   1
   CHANGE IN THE REACTION COORDINATE =    0.10817
   NET REACTION COORDINATE UP TO THIS POINT =    0.21627
  # OF POINTS ALONG THE PATH =   2
  # OF STEPS =   1

 Calculating another point on the path.
 IRC-IRC-IRC-IRC-IRC-IRC-IRC-IRC-IRC-IRC-IRC-IRC-IRC-IRC-IRC-IRC-IRC-IRC
                          Input orientation:                          
 ---------------------------------------------------------------------
 Center     Atomic      Atomic             Coordinates (Angstroms)
 Number     Number       Type             X           Y           Z
 ---------------------------------------------------------------------
      1          6           0        0.954904   -0.323423   -1.404421
      2          8           0       -0.283406    0.773323   -0.763760
      3          1           0        0.536076    3.126522    0.904913
      4          1           0        2.987668    0.663894    1.062073
      5          8           0        3.009262    1.370198    0.385849
      6          1           0        2.118548    1.912142    0.622084
      7          8           0        0.778387    2.188918    0.885248
      8          1           0        0.217267    1.594520    0.010939
      9          6           0       -1.104772   -0.838861    0.952198
     10          6           0       -1.435448    0.127184   -0.223569
     11          1           0       -1.351116   -0.368359    1.912362
     12          1           0       -1.855272   -0.489831   -1.032857
     13          8           0       -1.933230   -1.991962    0.873594
     14          1           0       -1.625966   -2.466844    0.079726
     15          6           0       -2.489562    1.155051    0.202858
     16          8           0       -2.897033    2.035539   -0.826238
     17          1           0       -2.072498    1.792274    0.990624
     18          1           0       -3.336232    0.598677    0.637432
     19          1           0       -3.275836    1.504404   -1.544071
     20          1           0        2.605901    0.806625   -0.612404
     21          6           0        0.968654   -1.498163   -0.395376
     22          1           0        2.018041   -1.806503   -0.300312
     23          6           0        0.392146   -1.225945    1.011651
     24          1           0        0.428645   -2.176862    1.559069
     25          8           0        0.195942   -2.552969   -1.008391
     26          1           0        0.519543   -3.399645   -0.662996
     27          8           0        1.198921   -0.315846    1.750478
     28          1           0        0.818281    0.588162    1.717829
     29          8           0        2.022314    0.365285   -1.595646
     30          1           0        0.395834   -0.589843   -2.308395
 ---------------------------------------------------------------------
                    Distance matrix (angstroms):
                    1          2          3          4          5
     1  C    0.000000
     2  O    1.773896   0.000000
     3  H    4.172596   2.998927   0.000000
     4  H    3.345224   3.747742   3.478439   0.000000
     5  O    3.208396   3.538294   3.077459   0.978065   0.000000
     6  H    3.233967   2.997808   2.014678   1.583377   1.069057
     7  O    3.403762   2.418789   0.968608   2.690332   2.428272
     8  H    2.495167   1.234989   1.802181   3.105813   2.825972
     9  C    3.172002   2.493650   4.291722   4.361010   4.703825
    10  C    2.703931   1.427061   3.762500   4.637337   4.655311
    11  H    4.039901   3.099205   4.097638   4.540219   4.936164
    12  H    2.839514   2.034388   4.748843   5.401286   5.397789
    13  O    4.039145   3.612429   5.683074   5.595028   5.997519
    14  H    3.668492   3.607300   6.053189   5.661461   6.025109
    15  C    4.078428   2.438686   3.678866   5.565926   5.506073
    16  O    4.553725   2.903126   3.996669   6.330627   6.065984
    17  H    4.401997   2.704991   2.931249   5.184942   5.134996
    18  H    4.840794   3.363568   4.632096   6.338477   6.397174
    19  H    4.610815   3.177736   4.812428   6.835930   6.576098
    20  H    2.151765   2.893461   3.459530   1.723366   1.215246
    21  C    1.548670   2.619734   4.823441   3.297737   3.605813
    22  H    2.132803   3.488115   5.289945   2.983141   3.397758
    23  C    2.639820   2.757812   4.356154   3.211039   3.739102
    24  H    3.534750   3.821798   5.344655   3.855580   4.540667
    25  O    2.388250   3.369545   6.002752   4.735901   5.024929
    26  H    3.194119   4.250711   6.711890   5.057653   5.481804
    27  O    3.164331   3.115280   3.606139   2.152536   2.825295
    28  H    3.255472   2.721448   2.680250   2.267596   2.680699
    29  O    1.284620   2.484929   4.010752   2.843334   2.431098
    30  H    1.095768   2.169213   4.914915   4.432778   4.234468
                    6          7          8          9         10
     6  H    0.000000
     7  O    1.393517   0.000000
     8  H    2.022190   1.196904   0.000000
     9  C    4.250504   3.566261   2.924910   0.000000
    10  C    4.065968   3.222001   2.222507   1.557246   0.000000
    11  H    4.347881   3.482731   3.150893   1.097257   2.194282
    12  H    4.929458   4.217936   3.119207   2.150702   1.100867
    13  O    5.632245   4.983248   4.269855   1.422028   2.437690
    14  H    5.787145   5.301499   4.460596   1.919161   2.618637
    15  C    4.688668   3.494857   2.748979   2.540638   1.532810
    16  O    5.221965   4.057268   3.254878   3.825860   2.478157
    17  H    4.208926   2.880274   2.498382   2.803719   2.156994
    18  H    5.610709   4.418187   3.743201   2.673015   2.139301
    19  H    5.827337   4.775655   3.824650   4.054105   2.650942
    20  H    1.727322   2.737426   2.591315   4.350253   4.116471
    21  C    3.740008   3.907782   3.208483   2.559244   2.907056
    22  H    3.832654   4.348066   3.860910   3.501011   3.958740
    23  C    3.602751   3.438961   2.997838   1.547299   2.587822
    24  H    4.522573   4.431296   4.082243   2.123654   3.458506
    25  O    5.127580   5.139124   4.270966   2.911002   3.234284
    26  H    5.694149   5.804834   5.048490   3.435822   4.056305
    27  O    2.661375   2.683154   2.763899   2.493551   3.321601
    28  H    2.155058   1.804772   2.070615   2.514103   3.010119
    29  O    2.705615   3.320817   2.711150   4.209530   3.727654
    30  H    4.220827   4.250555   3.191025   3.597957   2.866046
                   11         12         13         14         15
    11  H    0.000000
    12  H    2.990526   0.000000
    13  O    2.013451   2.428381   0.000000
    14  H    2.799596   2.280131   0.974756   0.000000
    15  C    2.557195   2.152895   3.265439   3.725464   0.000000
    16  O    3.958347   2.739608   4.476507   4.765273   1.414330
    17  H    2.457301   3.057723   3.788606   4.378265   1.095706
    18  H    2.549763   2.483538   2.955605   3.554359   1.102388
    19  H    4.377067   2.501263   4.457833   4.596694   1.947315
    20  H    4.838700   4.664724   5.535701   5.394751   5.172020
[...]
 Alpha  occ. eigenvalues --  -19.14876 -19.14613 -19.14254 -10.30244 -10.26060
 Alpha  occ. eigenvalues --  -10.25113 -10.24677 -10.24501 -10.24078  -1.06705
 Alpha  occ. eigenvalues --   -1.05019  -1.03706  -1.02756  -1.02448  -1.01891
 Alpha  occ. eigenvalues --   -1.00710  -0.98388  -0.77803  -0.76215  -0.70076
 Alpha  occ. eigenvalues --   -0.65885  -0.62845  -0.60162  -0.55931  -0.55589
 Alpha  occ. eigenvalues --   -0.53218  -0.53191  -0.52581  -0.50999  -0.49930
 Alpha  occ. eigenvalues --   -0.48240  -0.45990  -0.45084  -0.44380  -0.43673
 Alpha  occ. eigenvalues --   -0.43238  -0.40922  -0.40175  -0.39257  -0.38324
 Alpha  occ. eigenvalues --   -0.37522  -0.36142  -0.35761  -0.33916  -0.32873
 Alpha  occ. eigenvalues --   -0.32434  -0.31211  -0.30430  -0.29379  -0.29008
 Alpha  occ. eigenvalues --   -0.27191  -0.26229  -0.25415
 Alpha virt. eigenvalues --    0.02780   0.03625   0.06062   0.07233   0.09098
 Alpha virt. eigenvalues --    0.10840   0.11428   0.11798   0.13242   0.14541
 Alpha virt. eigenvalues --    0.15176   0.15399   0.16366   0.17405   0.18271
 Alpha virt. eigenvalues --    0.19317   0.20846   0.21915   0.24083   0.24491
 Alpha virt. eigenvalues --    0.25200   0.26849   0.28413   0.29365   0.30491
 Alpha virt. eigenvalues --    0.31948   0.34381   0.36391   0.52864   0.53245
 Alpha virt. eigenvalues --    0.55246   0.55547   0.56361   0.58015   0.58102
 Alpha virt. eigenvalues --    0.58951   0.60499   0.61554   0.62956   0.64656
 Alpha virt. eigenvalues --    0.67883   0.68617   0.69859   0.71444   0.73056
 Alpha virt. eigenvalues --    0.75264   0.76957   0.78182   0.78928   0.80293
 Alpha virt. eigenvalues --    0.81770   0.82718   0.82755   0.83701   0.84610
 Alpha virt. eigenvalues --    0.85325   0.85966   0.88123   0.88441   0.89195
 Alpha virt. eigenvalues --    0.90477   0.91435   0.91917   0.94291   0.95554
 Alpha virt. eigenvalues --    0.97206   0.99775   1.00843   1.02105   1.02438
 Alpha virt. eigenvalues --    1.03855   1.05045   1.05767   1.08141   1.09280
 Alpha virt. eigenvalues --    1.10496   1.12135   1.13814   1.17708   1.18669
 Alpha virt. eigenvalues --    1.19893   1.22614   1.24116   1.25395   1.25828
 Alpha virt. eigenvalues --    1.29132   1.30708   1.31471   1.33355   1.37578
 Alpha virt. eigenvalues --    1.39415   1.42088   1.46130   1.46748   1.49902
 Alpha virt. eigenvalues --    1.52852   1.54689   1.56816   1.58056   1.60344
 Alpha virt. eigenvalues --    1.62291   1.64759   1.67331   1.67622   1.68378
 Alpha virt. eigenvalues --    1.69078   1.70957   1.71473   1.73291   1.73747
 Alpha virt. eigenvalues --    1.74337   1.75102   1.75977   1.76680   1.78067
 Alpha virt. eigenvalues --    1.79177   1.80751   1.81097   1.83354   1.86395
 Alpha virt. eigenvalues --    1.88113   1.89738   1.91133   1.91633   1.93429
 Alpha virt. eigenvalues --    1.95820   1.97856   2.00949   2.01912   2.04518
 Alpha virt. eigenvalues --    2.06913   2.07899   2.10737   2.13595   2.13877
 Alpha virt. eigenvalues --    2.15834   2.20744   2.22405   2.25104   2.26852
 Alpha virt. eigenvalues --    2.29190   2.31880   2.36008   2.37179   2.39956
 Alpha virt. eigenvalues --    2.41888   2.42184   2.44679   2.45643   2.46955
 Alpha virt. eigenvalues --    2.52803   2.53528   2.55478   2.58001   2.58835
 Alpha virt. eigenvalues --    2.62031   2.63831   2.66304   2.68835   2.72810
 Alpha virt. eigenvalues --    2.76883   2.79070   2.83299   2.86929   2.88953
 Alpha virt. eigenvalues --    2.90500   2.91632   2.98637   3.03119   3.07716
 Alpha virt. eigenvalues --    3.73785   3.77566   3.80145   3.84454   3.92327
 Alpha virt. eigenvalues --    3.99611   4.05032   4.11686   4.27604   4.36265
 Alpha virt. eigenvalues --    4.40521   4.57905   4.66620   4.73544
          Condensed to atoms (all electrons):
               1          2          3          4          5          6
     1  C    4.685572   0.124574  -0.000031  -0.000277   0.008902  -0.000611
     2  O    0.124574   8.514756   0.003240  -0.000001  -0.000634   0.001243
     3  H   -0.000031   0.003240   0.352311  -0.000065   0.002472  -0.002236
     4  H   -0.000277  -0.000001  -0.000065   0.349395   0.229817  -0.017119
     5  O    0.008902  -0.000634   0.002472   0.229817   8.414197   0.200180
     6  H   -0.000611   0.001243  -0.002236  -0.017119   0.200180   0.303372
     7  O    0.003695  -0.081453   0.233353   0.003080  -0.066884   0.078650
     8  H   -0.003492   0.088634  -0.000786  -0.000085   0.004548  -0.002262
     9  C   -0.019713  -0.040009  -0.000033   0.000160  -0.000020  -0.000015
    10  C   -0.004807   0.161988  -0.000549  -0.000009  -0.000006   0.000009
    11  H    0.000201   0.002856   0.000018  -0.000015   0.000002  -0.000002
    12  H   -0.004357  -0.040725   0.000019   0.000001  -0.000001   0.000003
    13  O    0.000225   0.001439   0.000000  -0.000001   0.000000  -0.000000
    14  H    0.000257  -0.000025   0.000000   0.000000  -0.000000   0.000000
    15  C    0.001800  -0.035097   0.000139   0.000001  -0.000001   0.000004
    16  O   -0.000064   0.001893   0.000027  -0.000000   0.000000  -0.000000
    17  H   -0.000050  -0.002779   0.000747  -0.000001   0.000005  -0.000031
    18  H   -0.000054   0.003171   0.000003   0.000000   0.000000  -0.000000
    19  H   -0.000032  -0.000160   0.000001   0.000000  -0.000000   0.000000
    20  H   -0.018408   0.002874  -0.000048  -0.007593   0.125070  -0.011804
    21  C    0.243260  -0.035074  -0.000021  -0.000333   0.000847  -0.000260
    22  H   -0.044130   0.002622  -0.000000   0.001146  -0.000084  -0.000041
    23  C   -0.026192   0.006332  -0.000030  -0.001099  -0.000387   0.000294
    24  H    0.005291   0.000119   0.000003  -0.000011  -0.000013   0.000004
    25  O   -0.031504   0.000617   0.000000   0.000007   0.000001  -0.000001
    26  H    0.005588  -0.000129   0.000000   0.000000  -0.000000   0.000000
    27  O    0.008232  -0.003141   0.000798   0.032048  -0.008667   0.000677
    28  H    0.000432   0.003186  -0.000925  -0.004231   0.004208  -0.001453
    29  O    0.352024  -0.039315  -0.000002   0.004744  -0.087445   0.008705
    30  H    0.379212  -0.031560   0.000005   0.000034  -0.000130   0.000058
               7          8          9         10         11         12
     1  C    0.003695  -0.003492  -0.019713  -0.004807   0.000201  -0.004357
     2  O   -0.081453   0.088634  -0.040009   0.161988   0.002856  -0.040725
     3  H    0.233353  -0.000786  -0.000033  -0.000549   0.000018   0.000019
     4  H    0.003080  -0.000085   0.000160  -0.000009  -0.000015   0.000001
     5  O   -0.066884   0.004548  -0.000020  -0.000006   0.000002  -0.000001
     6  H    0.078650  -0.002262  -0.000015   0.000009  -0.000002   0.000003
     7  O    8.493213   0.143881  -0.000658   0.008360  -0.000182  -0.000156
     8  H    0.143881   0.312814   0.001224  -0.013269   0.000069   0.001365
     9  C   -0.000658   0.001224   5.075450   0.234265   0.370556  -0.060799
    10  C    0.008360  -0.013269   0.234265   5.067448  -0.057762   0.353055
    11  H   -0.000182   0.000069   0.370556  -0.057762   0.603908   0.005779
    12  H   -0.000156   0.001365  -0.060799   0.353055   0.005779   0.647128
    13  O    0.000001  -0.000025   0.224188  -0.034856  -0.037159   0.003706
    14  H   -0.000001   0.000007  -0.033836  -0.005249   0.006627   0.005798
    15  C   -0.001268  -0.001957  -0.019515   0.331486  -0.004755  -0.042960
    16  O   -0.000082   0.000954   0.002813  -0.039122   0.000097  -0.002593
    17  H    0.005688   0.000745  -0.007806  -0.035560   0.005285   0.006097
    18  H    0.000039   0.000183   0.005139  -0.054995   0.000512  -0.002694
    19  H   -0.000006   0.000014  -0.000035  -0.004240   0.000034   0.005897
    20  H    0.003222  -0.000341  -0.000015  -0.000089  -0.000002   0.000011
    21  C   -0.000610   0.000778  -0.019652  -0.013560   0.006122  -0.001141
    22  H    0.000032  -0.000151   0.004971   0.000106  -0.000178   0.000051
    23  C    0.001262  -0.000342   0.308782  -0.035138  -0.052405  -0.001001
    24  H   -0.000022   0.000044  -0.052090   0.006623  -0.004343  -0.000260
    25  O    0.000000  -0.000008  -0.003425   0.001239  -0.000148   0.000562
    26  H   -0.000000   0.000003  -0.000815   0.000153   0.000002  -0.000074
    27  O   -0.019337   0.003297  -0.023661   0.001716   0.001719  -0.000118
    28  H    0.052163  -0.006362  -0.007310   0.001398   0.003777   0.000085
    29  O   -0.001679   0.005024   0.000324   0.001289   0.000004  -0.000027
    30  H   -0.000073   0.000647   0.000311  -0.002266   0.000026   0.005821
              13         14         15         16         17         18
     1  C    0.000225   0.000257   0.001800  -0.000064  -0.000050  -0.000054
     2  O    0.001439  -0.000025  -0.035097   0.001893  -0.002779   0.003171
     3  H    0.000000   0.000000   0.000139   0.000027   0.000747   0.000003
     4  H   -0.000001   0.000000   0.000001  -0.000000  -0.000001   0.000000
     5  O    0.000000  -0.000000  -0.000001   0.000000   0.000005   0.000000
     6  H   -0.000000   0.000000   0.000004  -0.000000  -0.000031  -0.000000
     7  O    0.000001  -0.000001  -0.001268  -0.000082   0.005688   0.000039
     8  H   -0.000025   0.000007  -0.001957   0.000954   0.000745   0.000183
     9  C    0.224188  -0.033836  -0.019515   0.002813  -0.007806   0.005139
    10  C   -0.034856  -0.005249   0.331486  -0.039122  -0.035560  -0.054995
    11  H   -0.037159   0.006627  -0.004755   0.000097   0.005285   0.000512
    12  H    0.003706   0.005798  -0.042960  -0.002593   0.006097  -0.002694
    13  O    8.285785   0.227252  -0.000994  -0.000015   0.000116   0.003911
    14  H    0.227252   0.373777   0.000065   0.000001  -0.000004  -0.000001
    15  C   -0.000994   0.000065   4.880725   0.267009   0.362350   0.356098
    16  O   -0.000015   0.000001   0.267009   8.215587  -0.040887  -0.034383
    17  H    0.000116  -0.000004   0.362350  -0.040887   0.593732  -0.039111
    18  H    0.003911  -0.000001   0.356098  -0.034383  -0.039111   0.620253
    19  H   -0.000001  -0.000004  -0.033921   0.237425   0.007649  -0.005307
    20  H   -0.000000   0.000001   0.000005  -0.000000  -0.000002  -0.000000
    21  C    0.000423  -0.003838  -0.000023  -0.000000   0.000003   0.000003
    22  H   -0.000193   0.000328   0.000014  -0.000000  -0.000000  -0.000000
    23  C   -0.030037  -0.008467   0.001795  -0.000047  -0.000210   0.000394
    24  H    0.005970   0.000301  -0.000085   0.000000  -0.000006   0.000002
    25  O   -0.010067   0.038247   0.000073  -0.000000  -0.000001   0.000000
    26  H    0.001089  -0.001325  -0.000005   0.000000   0.000000   0.000000
    27  O    0.001571   0.000067  -0.000023   0.000000  -0.000127  -0.000007
    28  H    0.000087   0.000021  -0.000530   0.000002   0.000819   0.000003
    29  O   -0.000000  -0.000001  -0.000066   0.000000  -0.000001   0.000000
    30  H    0.000010   0.000044  -0.000175  -0.000001   0.000006   0.000007
              19         20         21         22         23         24
     1  C   -0.000032  -0.018408   0.243260  -0.044130  -0.026192   0.005291
     2  O   -0.000160   0.002874  -0.035074   0.002622   0.006332   0.000119
     3  H    0.000001  -0.000048  -0.000021  -0.000000  -0.000030   0.000003
     4  H    0.000000  -0.007593  -0.000333   0.001146  -0.001099  -0.000011
     5  O   -0.000000   0.125070   0.000847  -0.000084  -0.000387  -0.000013
     6  H    0.000000  -0.011804  -0.000260  -0.000041   0.000294   0.000004
     7  O   -0.000006   0.003222  -0.000610   0.000032   0.001262  -0.000022
     8  H    0.000014  -0.000341   0.000778  -0.000151  -0.000342   0.000044
     9  C   -0.000035  -0.000015  -0.019652   0.004971   0.308782  -0.052090
    10  C   -0.004240  -0.000089  -0.013560   0.000106  -0.035138   0.006623
    11  H    0.000034  -0.000002   0.006122  -0.000178  -0.052405  -0.004343
    12  H    0.005897   0.000011  -0.001141   0.000051  -0.001001  -0.000260
    13  O   -0.000001  -0.000000   0.000423  -0.000193  -0.030037   0.005970
    14  H   -0.000004   0.000001  -0.003838   0.000328  -0.008467   0.000301
    15  C   -0.033921   0.000005  -0.000023   0.000014   0.001795  -0.000085
    16  O    0.237425  -0.000000  -0.000000  -0.000000  -0.000047   0.000000
    17  H    0.007649  -0.000002   0.000003  -0.000000  -0.000210  -0.000006
    18  H   -0.005307  -0.000000   0.000003  -0.000000   0.000394   0.000002
    19  H    0.400754  -0.000000   0.000003  -0.000000  -0.000006  -0.000000
    20  H   -0.000000   0.294929  -0.006037   0.002359   0.000235   0.000002
    21  C    0.000003  -0.006037   5.256586   0.359529   0.263834  -0.062570
    22  H   -0.000000   0.002359   0.359529   0.598696  -0.044008  -0.006061
    23  C   -0.000006   0.000235   0.263834  -0.044008   4.963553   0.368166
    24  H   -0.000000   0.000002  -0.062570  -0.006061   0.368166   0.626375
    25  O   -0.000000   0.000005   0.153618  -0.026943  -0.032329   0.003163
    26  H    0.000000  -0.000005  -0.017076  -0.009472  -0.000239   0.003920
    27  O    0.000000   0.001657  -0.051066   0.002451   0.218040  -0.036354
    28  H   -0.000000  -0.000286   0.001753  -0.000447  -0.025616   0.003594
    29  O    0.000000   0.159686  -0.035961   0.001627   0.000763  -0.000094
    30  H    0.000007   0.003330  -0.074949   0.003006   0.003476  -0.000209
              25         26         27         28         29         30
     1  C   -0.031504   0.005588   0.008232   0.000432   0.352024   0.379212
     2  O    0.000617  -0.000129  -0.003141   0.003186  -0.039315  -0.031560
     3  H    0.000000   0.000000   0.000798  -0.000925  -0.000002   0.000005
     4  H    0.000007   0.000000   0.032048  -0.004231   0.004744   0.000034
     5  O    0.000001  -0.000000  -0.008667   0.004208  -0.087445  -0.000130
     6  H   -0.000001   0.000000   0.000677  -0.001453   0.008705   0.000058
     7  O    0.000000  -0.000000  -0.019337   0.052163  -0.001679  -0.000073
     8  H   -0.000008   0.000003   0.003297  -0.006362   0.005024   0.000647
     9  C   -0.003425  -0.000815  -0.023661  -0.007310   0.000324   0.000311
    10  C    0.001239   0.000153   0.001716   0.001398   0.001289  -0.002266
    11  H   -0.000148   0.000002   0.001719   0.003777   0.000004   0.000026
    12  H    0.000562  -0.000074  -0.000118   0.000085  -0.000027   0.005821
    13  O   -0.010067   0.001089   0.001571   0.000087  -0.000000   0.000010
    14  H    0.038247  -0.001325   0.000067   0.000021  -0.000001   0.000044
    15  C    0.000073  -0.000005  -0.000023  -0.000530  -0.000066  -0.000175
    16  O   -0.000000   0.000000   0.000000   0.000002   0.000000  -0.000001
    17  H   -0.000001   0.000000  -0.000127   0.000819  -0.000001   0.000006
    18  H    0.000000   0.000000  -0.000007   0.000003   0.000000   0.000007
    19  H   -0.000000   0.000000   0.000000  -0.000000   0.000000   0.000007
    20  H    0.000005  -0.000005   0.001657  -0.000286   0.159686   0.003330
    21  C    0.153618  -0.017076  -0.051066   0.001753  -0.035961  -0.074949
    22  H   -0.026943  -0.009472   0.002451  -0.000447   0.001627   0.003006
    23  C   -0.032329  -0.000239   0.218040  -0.025616   0.000763   0.003476
    24  H    0.003163   0.003920  -0.036354   0.003594  -0.000094  -0.000209
    25  O    8.305693   0.231029   0.001712  -0.000087   0.001200   0.008247
    26  H    0.231029   0.378207  -0.000022   0.000002  -0.000152  -0.000347
    27  O    0.001712  -0.000022   8.347515   0.205843  -0.000788  -0.000023
    28  H   -0.000087   0.000002   0.205843   0.334748   0.000087   0.000032
    29  O    0.001200  -0.000152  -0.000788   0.000087   8.272232  -0.039983
    30  H    0.008247  -0.000347  -0.000023   0.000032  -0.039983   0.573172
 Mulliken charges:
               1
     1  C    0.334455
     2  O   -0.609443
     3  H    0.411594
     4  H    0.410407
     5  O   -0.825979
     6  H    0.442639
     7  O   -0.854231
     8  H    0.464849
     9  C    0.061224
    10  C    0.132343
    11  H    0.149357
    12  H    0.121528
    13  O   -0.642426
    14  H    0.399955
    15  C   -0.060187
    16  O   -0.608614
    17  H    0.143336
    18  H    0.146834
    19  H    0.391928
    20  H    0.451242
    21  C    0.035413
    22  H    0.154772
    23  C    0.120628
    24  H    0.138542
    25  O   -0.640899
    26  H    0.409666
    27  O   -0.684007
    28  H    0.435004
    29  O   -0.602196
    30  H    0.172265
 Sum of Mulliken charges =  -0.00000
 Mulliken charges with hydrogens summed into heavy atoms:
               1
     1  C    0.506720
     2  O   -0.609443
     5  O    0.027066
     7  O    0.022213
     9  C    0.210581
    10  C    0.253871
    13  O   -0.242471
    15  C    0.229983
    16  O   -0.216685
    21  C    0.190185
    23  C    0.259170
    25  O   -0.231232
    27  O   -0.249002
    29  O   -0.150954
 APT charges:
               1
     1  C   -0.358220
     2  O   -0.446405
     3  H    0.852409
     4  H    0.423114
     5  O   -0.664025
     6  H    0.256641
     7  O   -1.171505
     8  H    0.318408
     9  C   -0.271758
    10  C   -0.232459
    11  H    0.425674
    12  H    0.354670
    13  O   -0.636341
    14  H    0.484794
    15  C   -0.678515
    16  O   -0.710558
    17  H    0.321443
    18  H    0.496485
    19  H    0.650159
    20  H    0.440707
    21  C   -0.291838
    22  H    0.496019
    23  C   -0.410964
    24  H    0.511158
    25  O   -1.016174
    26  H    0.841553
    27  O   -0.578805
    28  H    0.413294
    29  O   -0.297878
    30  H    0.478916
 Sum of APT charges =  -0.00000
 APT charges with hydrogens summed into heavy atoms:
               1
     1  C    0.120696
     2  O   -0.446405
     5  O    0.015730
     7  O   -0.000688
     9  C    0.153916
    10  C    0.122211
    13  O   -0.151547
    15  C    0.139414
    16  O   -0.060400
    21  C    0.204181
    23  C    0.100195
    25  O   -0.174621
    27  O   -0.165511
    29  O    0.142829
 Electronic spatial extent (au):  <R**2>=           2815.2725
 Charge=              0.0000 electrons
 Dipole moment (field-independent basis, Debye):
    X=             -1.0739    Y=             -2.0929    Z=              0.4604  Tot=              2.3970
 Quadrupole moment (field-independent basis, Debye-Ang):
   XX=            -91.9353   YY=            -74.9376   ZZ=            -87.9384
   XY=             -5.6009   XZ=              6.1737   YZ=              7.0519
 Traceless Quadrupole moment (field-independent basis, Debye-Ang):
   XX=             -6.9982   YY=              9.9995   ZZ=             -3.0013
   XY=             -5.6009   XZ=              6.1737   YZ=              7.0519
 Octapole moment (field-independent basis, Debye-Ang**2):
  XXX=            -18.6444  YYY=            -13.8727  ZZZ=             -9.5619  XYY=             32.5068
  XXY=            -19.7525  XXZ=             -9.7826  XZZ=            -13.2175  YZZ=             11.3807
  YYZ=              6.2290  XYZ=             -4.7187
 Hexadecapole moment (field-independent basis, Debye-Ang**3):
 XXXX=          -1622.3728 YYYY=           -894.3870 ZZZZ=           -606.3761 XXXY=            -47.8611
 XXXZ=             88.6437 YYYX=             24.3314 YYYZ=             61.5462 ZZZX=             37.6653
 ZZZY=              8.6933 XXYY=           -527.1210 XXZZ=           -345.2084 YYZZ=           -304.4579
 XXYZ=             19.5594 YYXZ=              6.7575 ZZXY=            -11.4857
 N-N= 1.141528007462D+03 E-N=-4.255089883890D+03  KE= 8.328976199961D+02
  Exact polarizability:   0.000   0.000   0.000   0.000   0.000   0.000
 Approx polarizability: 140.383   2.724 138.479  -0.093   6.447 124.877

 This type of calculation cannot be archived.


 I LOVE THOSE WHO LONG FOR THE IMPOSSIBLE.

                                 -- GOETHE
 Job cpu time:       0 days  1 hours 10 minutes 52.8 seconds.
 File lengths (MBytes):  RWF=    220 Int=      0 D2E=      0 Chk=      9 Scr=      1
 Normal termination of Gaussian 09 at Sat Jan 14 01:12:51 2017.
