 Entering Gaussian System, Link 0=g09
 Initial command:
 /global/software/gaussian/g09.e01/l1.exe "/scratch/10461052.yak.local/Gau-1544.inp" -scrdir="/scratch/10461052.yak.local/"
 Entering Link 1 = /global/software/gaussian/g09.e01/l1.exe PID=      1545.
  
 Copyright (c) 1988,1990,1992,1993,1995,1998,2003,2009,2015,
            Gaussian, Inc.  All Rights Reserved.
  
 This is part of the Gaussian(R) 09 program.  It is based on
 the Gaussian(R) 03 system (copyright 2003, Gaussian, Inc.),
 the Gaussian(R) 98 system (copyright 1998, Gaussian, Inc.),
 the Gaussian(R) 94 system (copyright 1995, Gaussian, Inc.),
 the Gaussian 92(TM) system (copyright 1992, Gaussian, Inc.),
 the Gaussian 90(TM) system (copyright 1990, Gaussian, Inc.),
 the Gaussian 88(TM) system (copyright 1988, Gaussian, Inc.),
 the Gaussian 86(TM) system (copyright 1986, Carnegie Mellon
 University), and the Gaussian 82(TM) system (copyright 1983,
 Carnegie Mellon University). Gaussian is a federally registered
 trademark of Gaussian, Inc.
  
 This software contains proprietary and confidential information,
 including trade secrets, belonging to Gaussian, Inc.
  
 This software is provided under written license and may be
 used, copied, transmitted, or stored only in accord with that
 written license.
  
 The following legend is applicable only to US Government
 contracts under FAR:
  
                    RESTRICTED RIGHTS LEGEND
  
 Use, reproduction and disclosure by the US Government is
 subject to restrictions as set forth in subparagraphs (a)
 and (c) of the Commercial Computer Software - Restricted
 Rights clause in FAR 52.227-19.
  
 Gaussian, Inc.
 340 Quinnipiac St., Bldg. 40, Wallingford CT 06492
  
  
 ---------------------------------------------------------------
 Warning -- This program may not be used in any manner that
 competes with the business of Gaussian, Inc. or will provide
 assistance to any competitor of Gaussian, Inc.  The licensee
 of this program is prohibited from giving any competitor of
 Gaussian, Inc. access to this program.  By using this program,
 the user acknowledges that Gaussian, Inc. is engaged in the
 business of creating and licensing software in the field of
 computational chemistry and represents and warrants to the
 licensee that it is not a competitor of Gaussian, Inc. and that
 it will not use this program in any manner prohibited above.
 ---------------------------------------------------------------
  

 Cite this work as:
 Gaussian 09, Revision E.01,
 M. J. Frisch, G. W. Trucks, H. B. Schlegel, G. E. Scuseria, 
 M. A. Robb, J. R. Cheeseman, G. Scalmani, V. Barone, B. Mennucci, 
 G. A. Petersson, H. Nakatsuji, M. Caricato, X. Li, H. P. Hratchian, 
 A. F. Izmaylov, J. Bloino, G. Zheng, J. L. Sonnenberg, M. Hada, 
 M. Ehara, K. Toyota, R. Fukuda, J. Hasegawa, M. Ishida, T. Nakajima, 
 Y. Honda, O. Kitao, H. Nakai, T. Vreven, J. A. Montgomery, Jr., 
 J. E. Peralta, F. Ogliaro, M. Bearpark, J. J. Heyd, E. Brothers, 
 K. N. Kudin, V. N. Staroverov, T. Keith, R. Kobayashi, J. Normand, 
 K. Raghavachari, A. Rendell, J. C. Burant, S. S. Iyengar, J. Tomasi, 
 M. Cossi, N. Rega, J. M. Millam, M. Klene, J. E. Knox, J. B. Cross, 
 V. Bakken, C. Adamo, J. Jaramillo, R. Gomperts, R. E. Stratmann, 
 O. Yazyev, A. J. Austin, R. Cammi, C. Pomelli, J. W. Ochterski, 
 R. L. Martin, K. Morokuma, V. G. Zakrzewski, G. A. Voth, 
 P. Salvador, J. J. Dannenberg, S. Dapprich, A. D. Daniels, 
 O. Farkas, J. B. Foresman, J. V. Ortiz, J. Cioslowski, 
 and D. J. Fox, Gaussian, Inc., Wallingford CT, 2013.
 
 ******************************************
 Gaussian 09:  ES64L-G09RevE.01 30-Nov-2015
                14-Jan-2017 
 ******************************************
 -------------------------------------
 # b3lyp/6-31g(d) irc=(calcfc,reverse)
 -------------------------------------
 1/10=4,14=-1,18=10,22=2,26=3,38=1,44=3/1,23;
 2/12=2,17=6,18=5,29=1,40=1/2;
 3/5=1,6=6,7=1,11=2,16=1,25=1,30=1,71=2,74=-5,140=1/1,2,3;
 4//1;
 5/5=2,38=5/2;
 8/6=4,10=90,11=11/1;
 11/6=1,8=1,9=11,15=111,16=1/1,2,10;
 10/6=1,13=1/2;
 6/7=2,8=2,9=2,10=2,28=1/1;
 7/10=1,18=20,25=1/1,2,3,16;
 1/10=4,14=-1,18=10,22=2,26=3,44=3/23(2);
 2/29=1/2;
 99/5=20/99;
 2/29=1/2;
 3/5=1,6=6,7=1,11=2,16=1,25=1,30=1,71=2,74=-5,140=1/1,2,3;
 4/5=5,16=3,69=1/1;
 5/5=2,38=5/2;
 8/6=4,10=90,11=11/1;
 11/6=1,8=1,9=11,15=111,16=1/1,2,10;
 10/6=1,13=1/2;
 7/10=1,18=20,25=1/1,2,3,16;
 1/14=-1,18=10,22=2,26=3,44=3/23(-8);
 2/29=1/2;
 6/7=2,8=2,9=2,10=2,19=2,28=1/1;
 99/5=20,9=1/99;
 ---------------------------------
 glo_1w_alpha_ts_boat2_B3LYP_631Gd
 ---------------------------------
 Symbolic Z-matrix:
 Charge =  0 Multiplicity = 1
 6                    -1.49077  -1.32721  -0.3705 
 8                    -1.17816   0.28186  -0.82409 
 1                    -3.99845   0.5653   -1.49898 
 8                    -3.53082   0.65812  -0.65232 
 1                    -2.32003   0.67647  -0.83709 
 6                     1.05373   0.34927  -0.07715 
 6                    -0.32118   1.01159   0.07455 
 1                     1.39127   0.53145  -1.10127 
 1                    -0.68311   0.92195   1.10471 
 8                     2.04608   0.9998    0.75545 
 1                     1.84803   0.76613   1.67936 
 6                    -0.32175   2.49228  -0.33058 
 8                     0.39207   3.291     0.59362 
 1                    -1.35269   2.86266  -0.33562 
 1                     0.07194   2.58648  -1.357 
 1                     1.27612   2.89127   0.67316 
 1                    -1.44716  -1.72334  -1.39365 
 8                    -2.63475  -1.36012   0.26323 
 1                    -3.37659  -0.37095  -0.20654 
 8                     4.00344  -0.5876   -0.61602 
 1                     4.41578  -0.07439  -1.327 
 1                     3.59269   0.07853  -0.02842 
 6                     1.05381  -1.19462   0.13028 
 1                     1.70514  -1.40322   0.99495 
 6                    -0.31479  -1.76484   0.51035 
 1                    -0.24711  -2.85994   0.40759 
 8                    -0.58182  -1.39226   1.85038 
 1                    -1.56269  -1.37287   1.88914 
 8                     1.51759  -1.87221  -1.01827 
 1                     2.46349  -1.62316  -1.10077 
 
 IRC-IRC-IRC-IRC-IRC-IRC-IRC-IRC-IRC-IRC-IRC-IRC-IRC-IRC-IRC-IRC-IRC-IRC
 ------------------------------------------------------------------------
 INPUT DATA FOR L123
 ------------------------------------------------------------------------
 GENERAL PARAMETERS:
 Rxn path following direction = Reverse
 Maximum points per path      =  10
 Step size                    =   0.100 bohr
 Integration scheme           = HPC                                 
    Redo corrector integration= Yes                                 
    DWI Weight Power          =  2
    DWI will use Hessian update vectors when possible.
    Max correction cycles     =  20
 Initial Hessian              = CalcFC
 Hessian evaluation           = All updating
 Hessian updating method      = Bofill                              
 ------------------------------------------------------------------------
 IRC-IRC-IRC-IRC-IRC-IRC-IRC-IRC-IRC-IRC-IRC-IRC-IRC-IRC-IRC-IRC-IRC-IRC
                          Input orientation:                          
 ---------------------------------------------------------------------
 Center     Atomic      Atomic             Coordinates (Angstroms)
 Number     Number       Type             X           Y           Z
 ---------------------------------------------------------------------
      1          6           0       -1.490768   -1.327205   -0.370502
      2          8           0       -1.178156    0.281858   -0.824093
      3          1           0       -3.998446    0.565297   -1.498982
      4          8           0       -3.530820    0.658120   -0.652315
      5          1           0       -2.320033    0.676470   -0.837091
      6          6           0        1.053725    0.349273   -0.077148
      7          6           0       -0.321181    1.011588    0.074545
      8          1           0        1.391271    0.531447   -1.101266
      9          1           0       -0.683108    0.921954    1.104705
     10          8           0        2.046081    0.999800    0.755445
     11          1           0        1.848028    0.766128    1.679359
     12          6           0       -0.321745    2.492276   -0.330575
     13          8           0        0.392068    3.291000    0.593622
     14          1           0       -1.352689    2.862661   -0.335624
     15          1           0        0.071940    2.586483   -1.357000
     16          1           0        1.276123    2.891267    0.673160
     17          1           0       -1.447161   -1.723341   -1.393648
     18          8           0       -2.634754   -1.360123    0.263230
     19          1           0       -3.376588   -0.370945   -0.206541
     20          8           0        4.003439   -0.587600   -0.616022
     21          1           0        4.415775   -0.074387   -1.327000
     22          1           0        3.592693    0.078526   -0.028418
     23          6           0        1.053806   -1.194617    0.130275
     24          1           0        1.705138   -1.403218    0.994949
     25          6           0       -0.314790   -1.764836    0.510346
     26          1           0       -0.247108   -2.859944    0.407588
     27          8           0       -0.581816   -1.392255    1.850375
     28          1           0       -1.562686   -1.372865    1.889137
     29          8           0        1.517592   -1.872206   -1.018268
     30          1           0        2.463486   -1.623160   -1.100769
 ---------------------------------------------------------------------
                    Distance matrix (angstroms):
                    1          2          3          4          5
     1  C    0.000000
     2  O    1.700751   0.000000
     3  H    3.338185   2.913734   0.000000
     4  O    2.860550   2.388746   0.971666   0.000000
     5  H    2.218130   1.208210   1.807631   1.224942   0.000000
     6  C    3.061222   2.354520   5.252876   4.630794   3.473732
     7  C    2.652537   1.440299   4.024604   3.309841   2.222340
     8  H    3.506387   2.596358   5.404477   4.944146   3.723520
     9  H    2.808428   2.091664   4.230586   3.356515   2.551540
    10  O    4.380869   3.661432   6.465875   5.761975   4.658719
    11  H    4.442019   3.957219   6.657585   5.863478   4.869630
    12  C    3.994577   2.421352   4.312372   3.710230   2.747156
    13  O    5.079609   3.678377   5.575398   4.886048   4.029665
    14  H    4.192286   2.632415   3.692061   3.115212   2.442674
    15  H    4.328070   2.675449   4.546800   4.146691   3.104833
    16  H    5.151740   3.882559   6.160310   5.463564   4.485368
    17  H    1.098022   2.101804   3.428996   3.250010   2.613571
    18  O    1.308206   2.449500   2.944875   2.390494   2.336122
    19  H    2.120762   2.375000   1.712793   1.132023   1.615853
    20  O    5.549199   5.258153   8.132586   7.636635   6.452367
    21  H    6.113239   5.627778   8.440254   8.008754   6.795212
    22  H    5.285327   4.841017   7.747574   7.174233   5.997651
    23  C    2.596770   2.841206   5.592587   5.006384   3.977380
    24  H    3.476212   3.802865   6.528829   5.863263   4.887072
    25  C    1.533081   2.591348   4.799608   4.191103   3.434612
    26  H    2.121651   3.500687   5.425848   4.927772   4.283978
    27  O    2.400567   3.211083   5.169484   4.377684   3.810970
    28  H    2.261244   3.201185   4.600951   3.802293   3.493661
    29  O    3.125197   3.456118   6.049726   5.658881   4.610416
    30  H    4.031998   4.119126   6.834068   6.429390   5.314121
                    6          7          8          9         10
     6  C    0.000000
     7  C    1.533636   0.000000
     8  H    1.093591   2.132032   0.000000
     9  H    2.177459   1.095562   3.053171   0.000000
    10  O    1.449540   2.463269   2.023736   2.752547   0.000000
    11  H    1.972309   2.709455   2.827645   2.600223   0.973368
    12  C    2.559024   1.535109   2.715371   2.157898   3.002253
    13  O    3.088929   2.444153   3.389127   2.651337   2.830467
    14  H    3.489235   2.158406   3.681044   2.507834   4.026453
    15  H    2.758085   2.164292   2.455444   3.066064   3.298063
    16  H    2.659729   2.538289   2.954758   2.811229   2.043833
    17  H    3.504758   3.302008   3.636791   3.717947   4.923092
    18  O    4.079555   3.318619   4.652823   3.118474   5.265143
    19  H    4.490337   3.365400   4.934301   3.262788   5.675359
    20  O    3.141485   4.662255   2.882906   5.215686   2.869148
    21  H    3.611786   5.057907   3.092833   5.736244   3.332552
    22  H    2.553828   4.024875   2.490462   4.503089   1.963465
    23  C    1.557761   2.600199   2.147061   2.906244   2.488155
    24  H    2.155216   3.283961   2.869766   3.334995   2.438873
    25  C    2.586008   2.810426   3.283421   2.776286   3.643761
    26  H    3.496600   3.886536   4.057396   3.870248   4.503037
    27  O    3.069733   2.999994   4.038055   2.433485   3.718419
    28  H    3.698330   3.243408   4.614626   2.579765   4.465198
    29  O    2.456796   3.590487   2.408401   4.142152   3.416691
    30  H    2.631676   4.009692   2.406653   4.608988   3.240320
                   11         12         13         14         15
    11  H    0.000000
    12  C    3.424520   0.000000
    13  O    3.110245   1.414789   0.000000
    14  H    4.324372   1.095471   2.022659   0.000000
    15  H    3.960765   1.103364   2.098512   1.774557   0.000000
    16  H    2.419861   1.928694   0.973481   2.815869   2.380021
    17  H    5.147728   4.490892   5.698739   4.707415   4.569857
    18  O    5.159622   4.532504   5.559115   4.453563   5.052429
    19  H    5.669759   4.188733   5.315343   3.816941   4.686393
    20  O    3.427412   5.317361   5.435879   6.377384   5.106911
    21  H    4.042027   5.479481   5.586129   6.548607   5.094117
    22  H    2.536366   4.608721   4.577218   5.683536   4.522243
    23  C    2.622017   3.962033   4.557779   4.740230   4.180044
    24  H    2.279232   4.586953   4.890900   5.414652   4.910877
    25  C    3.528477   4.339378   5.105689   4.817326   4.750844
    26  H    4.376688   5.403398   6.186862   5.875618   5.734033
    27  O    3.254536   4.462484   4.945782   4.845322   5.152185
    28  H    4.031410   4.626702   5.220255   4.788877   5.374555
    29  O    3.787768   4.785894   5.524825   5.578842   4.699421
    30  H    3.717068   5.028670   5.595597   5.938959   4.848324
                   16         17         18         19         20
    16  H    0.000000
    17  H    5.743046   0.000000
    18  O    5.791141   2.070640   0.000000
    19  H    5.750097   2.638349   1.322677   0.000000
    20  O    4.604645   5.621712   6.740585   7.394553   0.000000
    21  H    4.759533   6.090773   7.341111   7.878090   0.968968
    22  H    3.710825   5.523650   6.398114   6.986031   0.978629
    23  C    4.127784   2.976025   3.694664   4.518879   3.102541
    24  H    4.327841   3.967980   4.401356   5.322885   2.922781
    25  C    4.923089   2.215667   2.367930   3.439690   4.615376
    26  H    5.955434   2.444677   2.823324   4.045481   4.927319
    27  O    4.815219   3.373741   2.595114   3.617282   5.268315
    28  H    5.265003   3.303461   1.947579   2.947194   6.154203
    29  O    5.060624   2.992128   4.375665   5.183212   2.826915
    30  H    4.993667   3.922878   5.284102   6.039383   1.918025
                   21         22         23         24         25
    21  H    0.000000
    22  H    1.545044   0.000000
    23  C    3.831632   2.844648   0.000000
    24  H    3.808516   2.608775   1.102456   0.000000
    25  C    5.348991   4.353926   1.530575   2.108487   0.000000
    26  H    5.701807   4.854769   2.131336   2.505655   1.101999
    27  O    6.066993   4.808283   2.381819   2.441727   1.416262
    28  H    6.911699   5.688716   3.157752   3.388092   1.900513
    29  O    3.424461   3.015162   1.411869   2.075612   2.388684
    30  H    2.502261   2.306682   1.919978   2.239531   3.214744
                   26         27         28         29         30
    26  H    0.000000
    27  O    2.085132   0.000000
    28  H    2.477325   0.981827   0.000000
    29  O    2.474441   3.587057   4.265027   0.000000
    30  H    3.339475   4.246932   5.021180   0.981604   0.000000
 Symmetry turned off by external request.
 Stoichiometry    C6H16O8
 Framework group  C1[X(C6H16O8)]
 Deg. of freedom    84
 Full point group                 C1      NOp   1
 Rotational constants (GHZ):      0.7597961      0.5135090      0.3678789
 Standard basis: 6-31G(d) (6D, 7F)
   242 basis functions,   456 primitive gaussians,   242 cartesian basis functions
    58 alpha electrons       58 beta electrons
       nuclear repulsion energy      1115.0818958172 Hartrees.
 NAtoms=   30 NActive=   30 NUniq=   30 SFac= 1.00D+00 NAtFMM=   60 NAOKFM=F Big=F
 Integral buffers will be    131072 words long.
 Raffenetti 2 integral format.
 Two-electron integral symmetry is turned off.
 One-electron integrals computed using PRISM.
 NBasis=   242 RedAO= T EigKep=  1.43D-03  NBF=   242
 NBsUse=   242 1.00D-06 EigRej= -1.00D+00 NBFU=   242
 ExpMin= 1.61D-01 ExpMax= 5.48D+03 ExpMxC= 8.25D+02 IAcc=1 IRadAn=         1 AccDes= 0.00D+00
 Harris functional with IExCor=  402 and IRadAn=       1 diagonalized for initial guess.
 HarFok:  IExCor=  402 AccDes= 0.00D+00 IRadAn=         1 IDoV= 1 UseB2=F ITyADJ=14
 ICtDFT=  3500011 ScaDFX=  1.000000  1.000000  1.000000  1.000000
 FoFCou: FMM=F IPFlag=           0 FMFlag=      100000 FMFlg1=           0
         NFxFlg=           0 DoJE=T BraDBF=F KetDBF=T FulRan=T
         wScrn=  0.000000 ICntrl=     500 IOpCl=  0 I1Cent=   200000004 NGrid=           0
         NMat0=    1 NMatS0=      1 NMatT0=    0 NMatD0=    1 NMtDS0=    0 NMtDT0=    0
 Symmetry not used in FoFCou.
 Requested convergence on RMS density matrix=1.00D-08 within 128 cycles.
 Requested convergence on MAX density matrix=1.00D-06.
 Requested convergence on             energy=1.00D-06.
 No special actions if energy rises.
 Integral accuracy reduced to 1.0D-05 until final iterations.
 Initial convergence to 1.0D-05 achieved.  Increase integral accuracy.
 SCF Done:  E(RB3LYP) =  -839.960269526     A.U. after   14 cycles
            NFock= 14  Conv=0.54D-08     -V/T= 2.0086
 DoSCS=F DFT=T ScalE2(SS,OS)=  1.000000  1.000000
 Range of M.O.s used for correlation:     1   242
 NBasis=   242 NAE=    58 NBE=    58 NFC=     0 NFV=     0
 NROrb=    242 NOA=    58 NOB=    58 NVA=   184 NVB=   184
 Symmetrizing basis deriv contribution to polar:
 IMax=3 JMax=2 DiffMx= 0.00D+00
 G2DrvN: will do    31 centers at a time, making    1 passes.
 Calling FoFCou, ICntrl=  3107 FMM=F I1Cent=   0 AccDes= 0.00D+00.
 End of G2Drv F.D. properties file   721 does not exist.
 End of G2Drv F.D. properties file   722 does not exist.
 End of G2Drv F.D. properties file   788 does not exist.
          IDoAtm=111111111111111111111111111111
          Differentiating once with respect to nuclear coordinates.
          There are    93 degrees of freedom in the 1st order CPHF.  IDoFFX=6 NUNeed=     0.
     87 vectors produced by pass  0 Test12= 1.15D-14 1.08D-09 XBig12= 1.26D-01 8.84D-02.
 AX will form    87 AO Fock derivatives at one time.
     87 vectors produced by pass  1 Test12= 1.15D-14 1.08D-09 XBig12= 3.34D-02 3.19D-02.
     87 vectors produced by pass  2 Test12= 1.15D-14 1.08D-09 XBig12= 3.54D-04 2.94D-03.
     87 vectors produced by pass  3 Test12= 1.15D-14 1.08D-09 XBig12= 1.18D-06 1.03D-04.
     87 vectors produced by pass  4 Test12= 1.15D-14 1.08D-09 XBig12= 1.91D-09 3.21D-06.
     66 vectors produced by pass  5 Test12= 1.15D-14 1.08D-09 XBig12= 1.63D-12 9.42D-08.
      1 vectors produced by pass  6 Test12= 1.15D-14 1.08D-09 XBig12= 1.07D-15 2.23D-09.
 InvSVY:  IOpt=1 It=  1 EMax= 4.72D-16
 Solved reduced A of dimension   502 with    93 vectors.
 End of Minotr F.D. properties file   721 does not exist.
 End of Minotr F.D. properties file   722 does not exist.
 End of Minotr F.D. properties file   788 does not exist.

 **********************************************************************

            Population analysis using the SCF density.

 **********************************************************************

 Alpha  occ. eigenvalues --  -19.19730 -19.18757 -19.17819 -19.16250 -19.14247
 Alpha  occ. eigenvalues --  -19.14188 -19.13436 -19.12255 -10.29262 -10.25601
 Alpha  occ. eigenvalues --  -10.25181 -10.24424 -10.23902 -10.23899  -1.07546
 Alpha  occ. eigenvalues --   -1.06149  -1.02975  -1.02235  -1.01983  -1.01324
 Alpha  occ. eigenvalues --   -1.00980  -0.98850  -0.78259  -0.75596  -0.69358
 Alpha  occ. eigenvalues --   -0.65108  -0.62922  -0.57962  -0.56859  -0.54573
 Alpha  occ. eigenvalues --   -0.53737  -0.53557  -0.52252  -0.51294  -0.49090
 Alpha  occ. eigenvalues --   -0.48394  -0.47138  -0.44867  -0.44468  -0.42984
 Alpha  occ. eigenvalues --   -0.42141  -0.41464  -0.40226  -0.39570  -0.38865
 Alpha  occ. eigenvalues --   -0.37574  -0.35978  -0.35791  -0.34989  -0.33844
 Alpha  occ. eigenvalues --   -0.32321  -0.30983  -0.30163  -0.28770  -0.27861
 Alpha  occ. eigenvalues --   -0.26353  -0.26096  -0.25234
 Alpha virt. eigenvalues --    0.03316   0.04504   0.05704   0.06322   0.09398
 Alpha virt. eigenvalues --    0.09719   0.11170   0.12219   0.13124   0.14237
 Alpha virt. eigenvalues --    0.15813   0.16745   0.17570   0.18245   0.18938
 Alpha virt. eigenvalues --    0.19559   0.20504   0.20789   0.21945   0.23810
 Alpha virt. eigenvalues --    0.24686   0.25183   0.26379   0.27862   0.29217
 Alpha virt. eigenvalues --    0.30554   0.33467   0.34807   0.51881   0.52963
 Alpha virt. eigenvalues --    0.53733   0.54503   0.55030   0.56641   0.59724
 Alpha virt. eigenvalues --    0.60773   0.61409   0.62990   0.64708   0.65190
 Alpha virt. eigenvalues --    0.66912   0.67848   0.70561   0.71769   0.74380
 Alpha virt. eigenvalues --    0.75528   0.76961   0.78303   0.78673   0.79265
 Alpha virt. eigenvalues --    0.81540   0.82306   0.83986   0.84451   0.85371
 Alpha virt. eigenvalues --    0.86177   0.86751   0.87698   0.88296   0.88699
 Alpha virt. eigenvalues --    0.90695   0.92064   0.92660   0.93698   0.94130
 Alpha virt. eigenvalues --    0.96720   0.97161   0.98362   1.00953   1.01849
 Alpha virt. eigenvalues --    1.02790   1.03781   1.05752   1.07866   1.09442
 Alpha virt. eigenvalues --    1.10753   1.12158   1.13599   1.14194   1.15728
 Alpha virt. eigenvalues --    1.16173   1.17892   1.19244   1.22899   1.24166
 Alpha virt. eigenvalues --    1.26424   1.30361   1.32783   1.33845   1.36678
 Alpha virt. eigenvalues --    1.40133   1.43220   1.44607   1.45584   1.47897
 Alpha virt. eigenvalues --    1.48979   1.54533   1.56024   1.58663   1.61185
 Alpha virt. eigenvalues --    1.61426   1.62637   1.63666   1.66602   1.68447
 Alpha virt. eigenvalues --    1.69864   1.70503   1.71142   1.73669   1.74627
 Alpha virt. eigenvalues --    1.75135   1.75835   1.78229   1.78840   1.79924
 Alpha virt. eigenvalues --    1.80572   1.82498   1.83361   1.86220   1.87320
 Alpha virt. eigenvalues --    1.89334   1.89627   1.91029   1.92419   1.93388
 Alpha virt. eigenvalues --    1.95478   1.98786   2.00146   2.03737   2.05112
 Alpha virt. eigenvalues --    2.08666   2.09135   2.09655   2.10849   2.13352
 Alpha virt. eigenvalues --    2.17104   2.21608   2.23227   2.24885   2.27913
 Alpha virt. eigenvalues --    2.30889   2.31407   2.34545   2.37519   2.37832
 Alpha virt. eigenvalues --    2.39472   2.42902   2.47115   2.48028   2.50292
 Alpha virt. eigenvalues --    2.52394   2.53215   2.55704   2.56582   2.58665
 Alpha virt. eigenvalues --    2.59235   2.60194   2.64504   2.66737   2.68634
 Alpha virt. eigenvalues --    2.71331   2.77214   2.83348   2.85653   2.89080
 Alpha virt. eigenvalues --    2.90875   2.93747   2.96849   3.00522   3.04310
 Alpha virt. eigenvalues --    3.69195   3.74180   3.78198   3.81544   3.90697
 Alpha virt. eigenvalues --    3.96086   4.07183   4.12796   4.28426   4.35597
 Alpha virt. eigenvalues --    4.39080   4.51775   4.62376   4.78825
          Condensed to atoms (all electrons):
               1          2          3          4          5          6
     1  C    4.779274   0.068636   0.000485   0.018215  -0.011225  -0.019972
     2  O    0.068636   8.624518   0.003892  -0.098129   0.112900  -0.041019
     3  H    0.000485   0.003892   0.360786   0.227188  -0.003214   0.000002
     4  O    0.018215  -0.098129   0.227188   8.493118   0.131284  -0.000095
     5  H   -0.011225   0.112900  -0.003214   0.131284   0.307668   0.001682
     6  C   -0.019972  -0.041019   0.000002  -0.000095   0.001682   5.131318
     7  C   -0.006480   0.121610  -0.000164   0.005116  -0.012950   0.303447
     8  H    0.001422   0.004048  -0.000000   0.000001  -0.000008   0.345240
     9  H    0.000573  -0.033066  -0.000018   0.000217   0.000946  -0.054538
    10  O    0.000132   0.001400  -0.000000   0.000000  -0.000012   0.161590
    11  H    0.000108  -0.000036   0.000000  -0.000000   0.000002  -0.025849
    12  C    0.000887  -0.026652   0.000060  -0.000959  -0.001950  -0.027047
    13  O   -0.000015   0.001363   0.000000   0.000002   0.000057  -0.000749
    14  H   -0.000119  -0.000056  -0.000053   0.001512   0.004380   0.005216
    15  H   -0.000074   0.005208  -0.000001   0.000009   0.000211  -0.014367
    16  H   -0.000004   0.000026   0.000000  -0.000000   0.000016   0.000253
    17  H    0.362139  -0.044995   0.000167   0.000134   0.000950   0.000814
    18  O    0.324946  -0.050672   0.004236  -0.096835   0.012051   0.000349
    19  H   -0.022492   0.008029  -0.003437   0.136729  -0.020061  -0.000001
    20  O   -0.000000   0.000000  -0.000000  -0.000000   0.000000   0.006350
    21  H    0.000000  -0.000000   0.000000  -0.000000   0.000000   0.000119
    22  H   -0.000004  -0.000010   0.000000  -0.000000   0.000000  -0.006970
    23  C   -0.029622   0.001177  -0.000003   0.000034  -0.000072   0.295242
    24  H    0.006658   0.000111   0.000000  -0.000000   0.000005  -0.074546
    25  C    0.278962  -0.011326   0.000041  -0.000400   0.001810  -0.030051
    26  H   -0.044897   0.002191  -0.000000   0.000003  -0.000097   0.006123
    27  O   -0.024835  -0.001198   0.000000  -0.000012  -0.000187   0.003816
    28  H   -0.013503   0.000222  -0.000005   0.000268  -0.000079  -0.000202
    29  O    0.004330  -0.000387   0.000000  -0.000000   0.000008  -0.050154
    30  H   -0.000169  -0.000015  -0.000000   0.000000   0.000001   0.000594
               7          8          9         10         11         12
     1  C   -0.006480   0.001422   0.000573   0.000132   0.000108   0.000887
     2  O    0.121610   0.004048  -0.033066   0.001400  -0.000036  -0.026652
     3  H   -0.000164  -0.000000  -0.000018  -0.000000   0.000000   0.000060
     4  O    0.005116   0.000001   0.000217   0.000000  -0.000000  -0.000959
     5  H   -0.012950  -0.000008   0.000946  -0.000012   0.000002  -0.001950
     6  C    0.303447   0.345240  -0.054538   0.161590  -0.025849  -0.027047
     7  C    5.043049  -0.034045   0.351252  -0.027945  -0.001909   0.325146
     8  H   -0.034045   0.583900   0.006090  -0.037773   0.006866  -0.010456
     9  H    0.351252   0.006090   0.593234   0.001032   0.004660  -0.045734
    10  O   -0.027945  -0.037773   0.001032   8.289795   0.232043   0.000075
    11  H   -0.001909   0.006866   0.004660   0.232043   0.365872  -0.000936
    12  C    0.325146  -0.010456  -0.045734   0.000075  -0.000936   4.874141
    13  O   -0.036937   0.000058   0.006149  -0.011973   0.001801   0.266940
    14  H   -0.034654  -0.000002  -0.006249  -0.000095   0.000009   0.372922
    15  H   -0.047277   0.007762   0.006916   0.000428   0.000124   0.344788
    16  H   -0.008535  -0.000530  -0.000681   0.038106  -0.001939  -0.031805
    17  H    0.003451   0.000108   0.000283  -0.000000  -0.000000  -0.000108
    18  O    0.000513   0.000002   0.002588   0.000000  -0.000001  -0.000081
    19  H   -0.000478   0.000001  -0.000096  -0.000000   0.000000  -0.000005
    20  O    0.000187   0.004196  -0.000000  -0.014760   0.000527  -0.000003
    21  H    0.000003   0.000587   0.000000   0.000373   0.000004  -0.000000
    22  H    0.000584  -0.002756  -0.000024   0.048089  -0.002145  -0.000013
    23  C   -0.038948  -0.045579  -0.007122  -0.025939  -0.005444   0.003409
    24  H    0.004021   0.005205   0.000161   0.001214   0.006736  -0.000181
    25  C   -0.002152   0.000503  -0.005653   0.001789  -0.000345   0.000316
    26  H    0.000194  -0.000256   0.000275  -0.000084  -0.000004   0.000015
    27  O   -0.005131   0.000042   0.017885  -0.000426   0.001613   0.000393
    28  H    0.000734   0.000009  -0.000099   0.000015  -0.000038  -0.000032
    29  O    0.003224   0.005311   0.000003   0.001560  -0.000026  -0.000052
    30  H    0.000106   0.001802  -0.000001   0.000103  -0.000033  -0.000002
              13         14         15         16         17         18
     1  C   -0.000015  -0.000119  -0.000074  -0.000004   0.362139   0.324946
     2  O    0.001363  -0.000056   0.005208   0.000026  -0.044995  -0.050672
     3  H    0.000000  -0.000053  -0.000001   0.000000   0.000167   0.004236
     4  O    0.000002   0.001512   0.000009  -0.000000   0.000134  -0.096835
     5  H    0.000057   0.004380   0.000211   0.000016   0.000950   0.012051
     6  C   -0.000749   0.005216  -0.014367   0.000253   0.000814   0.000349
     7  C   -0.036937  -0.034654  -0.047277  -0.008535   0.003451   0.000513
     8  H    0.000058  -0.000002   0.007762  -0.000530   0.000108   0.000002
     9  H    0.006149  -0.006249   0.006916  -0.000681   0.000283   0.002588
    10  O   -0.011973  -0.000095   0.000428   0.038106  -0.000000   0.000000
    11  H    0.001801   0.000009   0.000124  -0.001939  -0.000000  -0.000001
    12  C    0.266940   0.372922   0.344788  -0.031805  -0.000108  -0.000081
    13  O    8.246658  -0.035314  -0.035621   0.229860   0.000001   0.000000
    14  H   -0.035314   0.574817  -0.046475   0.006060  -0.000000   0.000020
    15  H   -0.035621  -0.046475   0.660017  -0.004094   0.000009   0.000002
    16  H    0.229860   0.006060  -0.004094   0.366119  -0.000000   0.000000
    17  H    0.000001  -0.000000   0.000009  -0.000000   0.644229  -0.051231
    18  O    0.000000   0.000020   0.000002   0.000000  -0.051231   8.409567
    19  H    0.000000   0.000022   0.000001   0.000000  -0.001517   0.124993
    20  O   -0.000000  -0.000000  -0.000001   0.000005   0.000000   0.000000
    21  H    0.000000   0.000000   0.000000  -0.000003  -0.000000  -0.000000
    22  H    0.000013   0.000001  -0.000005   0.000030  -0.000000  -0.000000
    23  C    0.000013  -0.000141  -0.000013   0.000302  -0.002140   0.002467
    24  H    0.000001   0.000005  -0.000004  -0.000001  -0.000143  -0.000084
    25  C    0.000006   0.000019   0.000002  -0.000020  -0.067552  -0.057449
    26  H   -0.000000  -0.000000  -0.000001   0.000000   0.001386  -0.000864
    27  O   -0.000001   0.000002  -0.000007  -0.000001   0.002909  -0.022734
    28  H   -0.000000  -0.000001  -0.000000  -0.000000   0.002347   0.056213
    29  O    0.000000   0.000001  -0.000017  -0.000004   0.003746   0.000013
    30  H    0.000000  -0.000000   0.000000  -0.000001  -0.000032   0.000001
              19         20         21         22         23         24
     1  C   -0.022492  -0.000000   0.000000  -0.000004  -0.029622   0.006658
     2  O    0.008029   0.000000  -0.000000  -0.000010   0.001177   0.000111
     3  H   -0.003437  -0.000000   0.000000   0.000000  -0.000003   0.000000
     4  O    0.136729  -0.000000  -0.000000  -0.000000   0.000034  -0.000000
     5  H   -0.020061   0.000000   0.000000   0.000000  -0.000072   0.000005
     6  C   -0.000001   0.006350   0.000119  -0.006970   0.295242  -0.074546
     7  C   -0.000478   0.000187   0.000003   0.000584  -0.038948   0.004021
     8  H    0.000001   0.004196   0.000587  -0.002756  -0.045579   0.005205
     9  H   -0.000096  -0.000000   0.000000  -0.000024  -0.007122   0.000161
    10  O   -0.000000  -0.014760   0.000373   0.048089  -0.025939   0.001214
    11  H    0.000000   0.000527   0.000004  -0.002145  -0.005444   0.006736
    12  C   -0.000005  -0.000003  -0.000000  -0.000013   0.003409  -0.000181
    13  O    0.000000  -0.000000   0.000000   0.000013   0.000013   0.000001
    14  H    0.000022  -0.000000   0.000000   0.000001  -0.000141   0.000005
    15  H    0.000001  -0.000001   0.000000  -0.000005  -0.000013  -0.000004
    16  H    0.000000   0.000005  -0.000003   0.000030   0.000302  -0.000001
    17  H   -0.001517   0.000000  -0.000000  -0.000000  -0.002140  -0.000143
    18  O    0.124993   0.000000  -0.000000  -0.000000   0.002467  -0.000084
    19  H    0.309886   0.000000   0.000000   0.000000  -0.000103   0.000004
    20  O    0.000000   8.311230   0.242493   0.217545   0.000562   0.001004
    21  H    0.000000   0.242493   0.374544  -0.015887  -0.000214  -0.000041
    22  H    0.000000   0.217545  -0.015887   0.337527   0.000208   0.000572
    23  C   -0.000103   0.000562  -0.000214   0.000208   4.941612   0.359002
    24  H    0.000004   0.001004  -0.000041   0.000572   0.359002   0.644801
    25  C    0.003780   0.000053  -0.000004   0.000027   0.314724  -0.045121
    26  H   -0.000108   0.000002  -0.000000  -0.000003  -0.048025  -0.006975
    27  O    0.000142   0.000000  -0.000000  -0.000004  -0.046861   0.003547
    28  H   -0.000955  -0.000000   0.000000   0.000000   0.007341  -0.000358
    29  O    0.000001  -0.017924   0.000911   0.002164   0.226972  -0.032516
    30  H   -0.000000   0.054385  -0.002259  -0.005375  -0.025144  -0.005131
              25         26         27         28         29         30
     1  C    0.278962  -0.044897  -0.024835  -0.013503   0.004330  -0.000169
     2  O   -0.011326   0.002191  -0.001198   0.000222  -0.000387  -0.000015
     3  H    0.000041  -0.000000   0.000000  -0.000005   0.000000  -0.000000
     4  O   -0.000400   0.000003  -0.000012   0.000268  -0.000000   0.000000
     5  H    0.001810  -0.000097  -0.000187  -0.000079   0.000008   0.000001
     6  C   -0.030051   0.006123   0.003816  -0.000202  -0.050154   0.000594
     7  C   -0.002152   0.000194  -0.005131   0.000734   0.003224   0.000106
     8  H    0.000503  -0.000256   0.000042   0.000009   0.005311   0.001802
     9  H   -0.005653   0.000275   0.017885  -0.000099   0.000003  -0.000001
    10  O    0.001789  -0.000084  -0.000426   0.000015   0.001560   0.000103
    11  H   -0.000345  -0.000004   0.001613  -0.000038  -0.000026  -0.000033
    12  C    0.000316   0.000015   0.000393  -0.000032  -0.000052  -0.000002
    13  O    0.000006  -0.000000  -0.000001  -0.000000   0.000000   0.000000
    14  H    0.000019  -0.000000   0.000002  -0.000001   0.000001  -0.000000
    15  H    0.000002  -0.000001  -0.000007  -0.000000  -0.000017   0.000000
    16  H   -0.000020   0.000000  -0.000001  -0.000000  -0.000004  -0.000001
    17  H   -0.067552   0.001386   0.002909   0.002347   0.003746  -0.000032
    18  O   -0.057449  -0.000864  -0.022734   0.056213   0.000013   0.000001
    19  H    0.003780  -0.000108   0.000142  -0.000955   0.000001  -0.000000
    20  O    0.000053   0.000002   0.000000  -0.000000  -0.017924   0.054385
    21  H   -0.000004  -0.000000  -0.000000   0.000000   0.000911  -0.002259
    22  H    0.000027  -0.000003  -0.000004   0.000000   0.002164  -0.005375
    23  C    0.314724  -0.048025  -0.046861   0.007341   0.226972  -0.025144
    24  H   -0.045121  -0.006975   0.003547  -0.000358  -0.032516  -0.005131
    25  C    5.046746   0.354786   0.219098  -0.049735  -0.046480   0.005494
    26  H    0.354786   0.606773  -0.034027   0.000943   0.007036  -0.000135
    27  O    0.219098  -0.034027   8.325745   0.223528   0.001253  -0.000104
    28  H   -0.049735   0.000943   0.223528   0.357460  -0.000108   0.000008
    29  O   -0.046480   0.007036   0.001253  -0.000108   8.338806   0.221044
    30  H    0.005494  -0.000135  -0.000104   0.000008   0.221044   0.325385
 Mulliken charges:
               1
     1  C    0.326644
     2  O   -0.647770
     3  H    0.410038
     4  O   -0.817400
     5  H    0.475886
     6  C    0.083403
     7  C    0.094969
     8  H    0.158251
     9  H    0.161017
    10  O   -0.658734
    11  H    0.418342
    12  C   -0.043075
    13  O   -0.632310
    14  H    0.158175
    15  H    0.122480
    16  H    0.406841
    17  H    0.145046
    18  O   -0.658010
    19  H    0.465664
    20  O   -0.805852
    21  H    0.399373
    22  H    0.426436
    23  C    0.122304
    24  H    0.132054
    25  C    0.088133
    26  H    0.155751
    27  O   -0.664446
    28  H    0.416028
    29  O   -0.668713
    30  H    0.429476
 Sum of Mulliken charges =  -0.00000
 Mulliken charges with hydrogens summed into heavy atoms:
               1
     1  C    0.471691
     2  O   -0.171884
     4  O    0.058302
     6  C    0.241654
     7  C    0.255985
    10  O   -0.240393
    12  C    0.237580
    13  O   -0.225470
    18  O   -0.658010
    20  O    0.019957
    23  C    0.254358
    25  C    0.243884
    27  O   -0.248418
    29  O   -0.239237
 APT charges:
               1
     1  C   -0.270385
     2  O   -0.398468
     3  H    0.886405
     4  O   -1.213755
     5  H    0.417644
     6  C   -0.131950
     7  C   -0.194697
     8  H    0.359616
     9  H    0.325081
    10  O   -0.803625
    11  H    0.576980
    12  C   -0.705386
    13  O   -0.502356
    14  H    0.506163
    15  H    0.359978
    16  H    0.415427
    17  H    0.432546
    18  O   -0.400607
    19  H    0.343393
    20  O   -0.956709
    21  H    0.836485
    22  H    0.203487
    23  C   -0.320783
    24  H    0.416618
    25  C   -0.433682
    26  H    0.547384
    27  O   -0.725977
    28  H    0.593345
    29  O   -0.803960
    30  H    0.641788
 Sum of APT charges =  -0.00000
 APT charges with hydrogens summed into heavy atoms:
               1
     1  C    0.162161
     2  O    0.019176
     4  O    0.016043
     6  C    0.227666
     7  C    0.130384
    10  O   -0.226645
    12  C    0.160755
    13  O   -0.086929
    18  O   -0.400607
    20  O    0.083263
    23  C    0.095835
    25  C    0.113703
    27  O   -0.132632
    29  O   -0.162172
 Electronic spatial extent (au):  <R**2>=           3156.3264
 Charge=             -0.0000 electrons
 Dipole moment (field-independent basis, Debye):
    X=              0.7954    Y=              1.3299    Z=             -2.4000  Tot=              2.8568
 Quadrupole moment (field-independent basis, Debye-Ang):
   XX=            -74.4558   YY=            -98.4672   ZZ=            -79.4595
   XY=              5.2725   XZ=              5.7410   YZ=             -3.1296
 Traceless Quadrupole moment (field-independent basis, Debye-Ang):
   XX=              9.6717   YY=            -14.3397   ZZ=              4.6680
   XY=              5.2725   XZ=              5.7410   YZ=             -3.1296
 Octapole moment (field-independent basis, Debye-Ang**2):
  XXX=              6.1251  YYY=            -33.1680  ZZZ=             -6.7656  XYY=             -0.8603
  XXY=             31.1125  XXZ=            -46.9270  XZZ=              1.1454  YZZ=              9.9689
  YYZ=             -9.6650  XYZ=             -1.3073
 Hexadecapole moment (field-independent basis, Debye-Ang**3):
 XXXX=          -1769.8429 YYYY=          -1499.2973 ZZZZ=           -372.1826 XXXY=             85.6244
 XXXZ=             18.3482 YYYX=              1.8511 YYYZ=            -40.2975 ZZZX=             11.6383
 ZZZY=             15.9198 XXYY=           -575.6692 XXZZ=           -255.9399 YYZZ=           -298.1969
 XXYZ=            -13.7020 YYXZ=             14.4566 ZZXY=              7.7772
 N-N= 1.115081895817D+03 E-N=-4.202204283277D+03  KE= 8.328179106919D+02
  Exact polarizability:   0.000   0.000   0.000   0.000   0.000   0.000
 Approx polarizability: 143.401   2.051 131.717  -1.088   1.632 131.197
 Calling FoFJK, ICntrl=    100147 FMM=F ISym2X=0 I1Cent= 0 IOpClX= 0 NMat=1 NMatS=1 NMatT=0.
 -------------------------------------------------------------------
 Center     Atomic                   Forces (Hartrees/Bohr)
 Number     Number              X              Y              Z
 -------------------------------------------------------------------
      1        6          -0.000015006    0.000007387   -0.000002955
      2        8          -0.000005694    0.000011984    0.000012968
      3        1           0.000007121    0.000002826    0.000032117
      4        8          -0.000034651   -0.000006023   -0.000016291
      5        1           0.000009696    0.000001223   -0.000002605
      6        6          -0.000000937   -0.000004793    0.000001337
      7        6          -0.000001438    0.000002787    0.000005349
      8        1          -0.000000364   -0.000000100   -0.000005020
      9        1           0.000006321    0.000003958   -0.000001897
     10        8          -0.000006733   -0.000019627    0.000028203
     11        1           0.000020381    0.000000280   -0.000027442
     12        6          -0.000000018    0.000006524   -0.000009577
     13        8           0.000031727   -0.000022367    0.000024104
     14        1           0.000026779   -0.000001138   -0.000004131
     15        1          -0.000003544   -0.000008870    0.000007692
     16        1          -0.000014584    0.000015428   -0.000025298
     17        1          -0.000004685    0.000005433    0.000000879
     18        8          -0.000010138    0.000005748    0.000009124
     19        1           0.000010991   -0.000004703   -0.000000404
     20        8           0.000153435    0.000042297   -0.000158088
     21        1          -0.000104347   -0.000078762    0.000158072
     22        1          -0.000016630    0.000057998   -0.000004302
     23        6          -0.000003813   -0.000003978    0.000003172
     24        1          -0.000004139   -0.000002276    0.000000769
     25        6          -0.000005591   -0.000004155    0.000000338
     26        1          -0.000005309   -0.000000143   -0.000000813
     27        8          -0.000007057   -0.000009613   -0.000003580
     28        1           0.000001943   -0.000005320    0.000002582
     29        8           0.000012534    0.000014418   -0.000017323
     30        1          -0.000036247   -0.000006425   -0.000006981
 -------------------------------------------------------------------
 Cartesian Forces:  Max     0.000158088 RMS     0.000034793
 IRC-IRC-IRC-IRC-IRC-IRC-IRC-IRC-IRC-IRC-IRC-IRC-IRC-IRC-IRC-IRC-IRC-IRC
          ******** Start new reaction path calculation ********
 Supplied step size of   0.1000 bohr.
    Integration on MW PES will use step size of   0.1077 sqrt(amu)*bohr.
 Point Number:   0          Path Number:   1
 Calculating another point on the path.
 IRC-IRC-IRC-IRC-IRC-IRC-IRC-IRC-IRC-IRC-IRC-IRC-IRC-IRC-IRC-IRC-IRC-IRC
                          Input orientation:                          
 ---------------------------------------------------------------------
 Center     Atomic      Atomic             Coordinates (Angstroms)
 Number     Number       Type             X           Y           Z
 ---------------------------------------------------------------------
      1          6           0       -1.484903   -1.319687   -0.380078
      2          8           0       -1.170316    0.295021   -0.835947
      3          1           0       -3.992582    0.575473   -1.509184
      4          8           0       -3.524043    0.669502   -0.663391
      5          1           0       -2.272981    0.681085   -0.847654
      6          6           0        1.061865    0.360439   -0.088444
      7          6           0       -0.312859    1.023643    0.063588
      8          1           0        1.399547    0.542670   -1.112517
      9          1           0       -0.675555    0.932479    1.093158
     10          8           0        2.054039    1.011093    0.744211
     11          1           0        1.856272    0.777110    1.668147
     12          6           0       -0.313480    2.503763   -0.341672
     13          8           0        0.400233    3.302296    0.582458
     14          1           0       -1.344483    2.874033   -0.346751
     15          1           0        0.080140    2.597695   -1.368153
     16          1           0        1.284379    2.902761    0.661948
     17          1           0       -1.438837   -1.711054   -1.405438
     18          8           0       -2.624711   -1.350260    0.252106
     19          1           0       -3.385797   -0.332380   -0.229885
     20          8           0        4.011590   -0.576337   -0.627219
     21          1           0        4.424047   -0.063182   -1.338175
     22          1           0        3.601073    0.089791   -0.039571
     23          6           0        1.062006   -1.183421    0.119137
     24          1           0        1.713622   -1.391692    0.983659
     25          6           0       -0.306314   -1.753365    0.499241
     26          1           0       -0.238771   -2.848502    0.396071
     27          8           0       -0.573618   -1.380982    1.839163
     28          1           0       -1.555001   -1.361853    1.876311
     29          8           0        1.525755   -1.860896   -1.029469
     30          1           0        2.471703   -1.612078   -1.111937
 ---------------------------------------------------------------------
                    Distance matrix (angstroms):
                    1          2          3          4          5
     1  C    0.000000
     2  O    1.707063   0.000000
     3  H    3.339905   2.914977   0.000000
     4  O    2.862731   2.389570   0.971461   0.000000
     5  H    2.200632   1.168355   1.845482   1.264612   0.000000
     6  C    3.064947   2.354925   5.254729   4.632131   3.435173
     7  C    2.657390   1.440585   4.026764   3.311437   2.188558
     8  H    3.510683   2.596539   5.406799   4.945658   3.684667
     9  H    2.810289   2.091073   4.231112   3.356859   2.526207
    10  O    4.384139   3.661437   6.467549   5.763075   4.622342
    11  H    4.444686   3.957667   6.659218   5.864762   4.836238
    12  C    3.999060   2.420128   4.314763   3.711568   2.723567
    13  O    5.083595   3.677254   5.577397   4.887094   4.007747
    14  H    4.196203   2.630770   3.694193   3.116200   2.433523
    15  H    4.332613   2.673797   4.549323   4.147861   3.079203
    16  H    5.155949   3.881949   6.162500   5.464878   4.457528
    17  H    1.098478   2.102560   3.429371   3.250502   2.594080
    18  O    1.303746   2.450729   2.946466   2.392983   2.336568
    19  H    2.147261   2.381029   1.681961   1.100366   1.626994
    20  O    5.552035   5.258800   8.134575   7.638010   6.412920
    21  H    6.116571   5.628271   8.442557   8.010261   6.756088
    22  H    5.288641   4.841744   7.749790   7.175827   5.958787
    23  C    2.598948   2.842751   5.594104   5.007746   3.941219
    24  H    3.477863   3.804348   6.530297   5.864677   4.852125
    25  C    1.533086   2.593282   4.800608   4.192348   3.407118
    26  H    2.119559   3.502482   5.426298   4.928674   4.259443
    27  O    2.399839   3.212669   5.169957   4.378614   3.789319
    28  H    2.257871   3.201493   4.599632   3.801791   3.479810
    29  O    3.127088   3.457489   6.051287   5.660158   4.574399
    30  H    4.034333   4.120376   6.835947   6.430846   5.276407
                    6          7          8          9         10
     6  C    0.000000
     7  C    1.533890   0.000000
     8  H    1.093601   2.132344   0.000000
     9  H    2.177623   1.095388   3.053359   0.000000
    10  O    1.449509   2.462847   2.023665   2.752931   0.000000
    11  H    1.972387   2.709339   2.827659   2.600942   0.973405
    12  C    2.559206   1.534598   2.715612   2.158418   3.002058
    13  O    3.089076   2.443356   3.389263   2.652200   2.830344
    14  H    3.489325   2.157909   3.681216   2.508074   4.026251
    15  H    2.758034   2.163786   2.455465   3.066279   3.297827
    16  H    2.660076   2.537773   2.954999   2.812347   2.043906
    17  H    3.504150   3.302186   3.636138   3.716699   4.922526
    18  O    4.078395   3.318978   4.651885   3.117287   5.263921
    19  H    4.503521   3.371628   4.944114   3.270432   5.687320
    20  O    3.141450   4.662404   2.882788   5.215894   2.869279
    21  H    3.611862   5.058103   3.092827   5.736607   3.332767
    22  H    2.554059   4.025119   2.490589   4.503637   1.963778
    23  C    1.557752   2.600859   2.147160   2.906005   2.488119
    24  H    2.155030   3.284357   2.869557   3.334956   2.438565
    25  C    2.585624   2.810980   3.283215   2.775398   3.643282
    26  H    3.496242   3.887099   4.057089   3.869436   4.502739
    27  O    3.069693   3.000480   4.038097   2.432903   3.718269
    28  H    3.697910   3.243374   4.614071   2.578898   4.465165
    29  O    2.456634   3.591078   2.408310   4.141770   3.416629
    30  H    2.631730   4.010321   2.406753   4.608953   3.240487
                   11         12         13         14         15
    11  H    0.000000
    12  C    3.424693   0.000000
    13  O    3.110520   1.414587   0.000000
    14  H    4.324550   1.095488   2.022590   0.000000
    15  H    3.960844   1.103369   2.098524   1.774592   0.000000
    16  H    2.420308   1.928628   0.973479   2.815886   2.380034
    17  H    5.147390   4.490291   5.698034   4.706671   4.568808
    18  O    5.158496   4.532974   5.559289   4.454466   5.052505
    19  H    5.684433   4.182743   5.310819   3.802855   4.679072
    20  O    3.427232   5.317404   5.435900   6.377401   5.106835
    21  H    4.041971   5.479633   5.586264   6.548747   5.094182
    22  H    2.536344   4.608931   4.577388   5.683739   4.522353
    23  C    2.621825   3.962276   4.557879   4.740377   4.180063
    24  H    2.278722   4.586962   4.890754   5.414648   4.910651
    25  C    3.527948   4.339392   5.105471   4.817293   4.750603
    26  H    4.376350   5.403387   6.186710   5.875525   5.733695
    27  O    3.254377   4.462617   4.945784   4.845369   5.152100
    28  H    4.031783   4.626425   5.220276   4.788429   5.373849
    29  O    3.787539   4.786032   5.524822   5.578882   4.699313
    30  H    3.716967   5.028986   5.595805   5.939190   4.848444
                   16         17         18         19         20
    16  H    0.000000
    17  H    5.742585   0.000000
    18  O    5.791127   2.069763   0.000000
    19  H    5.750831   2.659571   1.359282   0.000000
    20  O    4.604753   5.621421   6.738892   7.412067   0.000000
    21  H    4.759708   6.090437   7.339656   7.892682   0.968972
    22  H    3.711064   5.523525   6.396813   7.002200   0.978561
    23  C    4.128071   2.976062   3.692885   4.541920   3.102523
    24  H    4.327826   3.968347   4.399776   5.347795   2.922394
    25  C    4.923036   2.216349   2.366123   3.469012   4.615041
    26  H    5.955477   2.445278   2.821023   4.077557   4.927010
    27  O    4.815438   3.374164   2.593584   3.645391   5.268266
    28  H    5.265329   3.302319   1.944854   2.974507   6.153994
    29  O    5.060789   2.992092   4.373735   5.205674   2.826885
    30  H    4.994014   3.922788   5.282291   6.060194   1.918063
                   21         22         23         24         25
    21  H    0.000000
    22  H    1.545011   0.000000
    23  C    3.831711   2.844840   0.000000
    24  H    3.808182   2.608498   1.102442   0.000000
    25  C    5.348750   4.353758   1.530233   2.108461   0.000000
    26  H    5.701534   4.854663   2.131012   2.505872   1.102058
    27  O    6.067019   4.808415   2.381761   2.442022   1.416160
    28  H    6.911474   5.688846   3.157249   3.388453   1.899690
    29  O    3.424496   3.015298   1.411855   2.075604   2.388513
    30  H    2.502381   2.306903   1.920036   2.239370   3.214535
                   26         27         28         29         30
    26  H    0.000000
    27  O    2.085246   0.000000
    28  H    2.476630   0.982272   0.000000
    29  O    2.474082   3.587023   4.264231   0.000000
    30  H    3.339087   4.246925   5.020616   0.981595   0.000000
 Symmetry turned off by external request.
 Stoichiometry    C6H16O8
 Framework group  C1[X(C6H16O8)]
 Deg. of freedom    84
 Full point group                 C1      NOp   1
 Rotational constants (GHZ):      0.7595811      0.5134917      0.3678179
 Standard basis: 6-31G(d) (6D, 7F)
   242 basis functions,   456 primitive gaussians,   242 cartesian basis functions
    58 alpha electrons       58 beta electrons
       nuclear repulsion energy      1115.0985293147 Hartrees.
 NAtoms=   30 NActive=   30 NUniq=   30 SFac= 1.00D+00 NAtFMM=   60 NAOKFM=F Big=F
 Integral buffers will be    131072 words long.
 Raffenetti 2 integral format.
 Two-electron integral symmetry is turned off.
 One-electron integrals computed using PRISM.
 NBasis=   242 RedAO= T EigKep=  1.43D-03  NBF=   242
 NBsUse=   242 1.00D-06 EigRej= -1.00D+00 NBFU=   242
 Initial guess from the checkpoint file:  "/scratch/10461052.yak.local/Gau-1545.chk"
 B after Tr=     0.015576    0.021440   -0.021244
         Rot=    1.000000   -0.000007    0.000030    0.000034 Ang=  -0.01 deg.
 ExpMin= 1.61D-01 ExpMax= 5.48D+03 ExpMxC= 8.25D+02 IAcc=1 IRadAn=         1 AccDes= 0.00D+00
 Harris functional with IExCor=  402 and IRadAn=       1 diagonalized for initial guess.
 HarFok:  IExCor=  402 AccDes= 0.00D+00 IRadAn=         1 IDoV= 1 UseB2=F ITyADJ=14
 ICtDFT=  3500011 ScaDFX=  1.000000  1.000000  1.000000  1.000000
 FoFCou: FMM=F IPFlag=           0 FMFlag=      100000 FMFlg1=           0
         NFxFlg=           0 DoJE=T BraDBF=F KetDBF=T FulRan=T
         wScrn=  0.000000 ICntrl=     500 IOpCl=  0 I1Cent=   200000004 NGrid=           0
         NMat0=    1 NMatS0=      1 NMatT0=    0 NMatD0=    1 NMtDS0=    0 NMtDT0=    0
 Symmetry not used in FoFCou.
 Requested convergence on RMS density matrix=1.00D-08 within 128 cycles.
 Requested convergence on MAX density matrix=1.00D-06.
 Requested convergence on             energy=1.00D-06.
 No special actions if energy rises.
 Integral accuracy reduced to 1.0D-05 until final iterations.
 Initial convergence to 1.0D-05 achieved.  Increase integral accuracy.
 SCF Done:  E(RB3LYP) =  -839.960609292     A.U. after   11 cycles
            NFock= 11  Conv=0.76D-08     -V/T= 2.0085
 DoSCS=F DFT=T ScalE2(SS,OS)=  1.000000  1.000000
 Range of M.O.s used for correlation:     1   242
 NBasis=   242 NAE=    58 NBE=    58 NFC=     0 NFV=     0
 NROrb=    242 NOA=    58 NOB=    58 NVA=   184 NVB=   184
 Symmetrizing basis deriv contribution to polar:
 IMax=3 JMax=2 DiffMx= 0.00D+00
 Calling FoFJK, ICntrl=      2147 FMM=F ISym2X=0 I1Cent= 0 IOpClX= 0 NMat=1 NMatS=1 NMatT=0.
 -------------------------------------------------------------------
 Center     Atomic                   Forces (Hartrees/Bohr)
 Number     Number              X              Y              Z
 -------------------------------------------------------------------
      1        6          -0.003295305   -0.005515254    0.002318792
      2        8           0.000293180    0.003442069   -0.001284764
      3        1          -0.000278074   -0.000070829    0.000194877
      4        8          -0.003441032    0.001361847   -0.000372509
      5        1           0.004314513   -0.000531852    0.000034324
      6        6          -0.000028650   -0.000138591   -0.000158707
      7        6           0.000258477    0.001149175    0.000334645
      8        1           0.000013749   -0.000004619   -0.000013420
      9        1          -0.000069961   -0.000086507   -0.000047334
     10        8          -0.000396788    0.000041358   -0.000068206
     11        1           0.000031177   -0.000033664   -0.000031348
     12        6           0.000150733    0.000343842    0.000115660
     13        8           0.000046117    0.000044550    0.000064395
     14        1           0.000032976    0.000011421    0.000001568
     15        1           0.000002438   -0.000014870    0.000011640
     16        1          -0.000002212    0.000044694   -0.000028735
     17        1           0.000001423    0.000128791   -0.000058725
     18        8           0.003625542   -0.002720458    0.000119272
     19        1          -0.001892832    0.002215717   -0.000940583
     20        8           0.000139739    0.000045157   -0.000181367
     21        1          -0.000090306   -0.000085724    0.000159370
     22        1           0.000010549    0.000059167    0.000000100
     23        6           0.000056679   -0.000095719    0.000067606
     24        1           0.000035334    0.000029770   -0.000011886
     25        6           0.000457291    0.000297711    0.000115465
     26        1           0.000020584    0.000020856   -0.000039241
     27        8           0.000055786    0.000014658   -0.000058221
     28        1          -0.000043203   -0.000033600   -0.000186871
     29        8           0.000020540    0.000109119   -0.000050890
     30        1          -0.000028465   -0.000028216   -0.000004909
 -------------------------------------------------------------------
 Cartesian Forces:  Max     0.005515254 RMS     0.001180559
 IRC-IRC-IRC-IRC-IRC-IRC-IRC-IRC-IRC-IRC-IRC-IRC-IRC-IRC-IRC-IRC-IRC-IRC
 Pt  1 Step number   1 out of a maximum of  20
 Modified Bulirsch-Stoer Extrapolation Cycles:
    EPS =    0.000010000000000
 Maximum DWI energy   std dev =  0.000004090 at pt     1
 Maximum DWI gradient std dev =  0.112479974 at pt     1
 CORRECTOR INTEGRATION CONVERGENCE:
   Recorrection delta-x convergence threshold:    0.010000
   Delta-x Convergence Met
 Point Number:   1          Path Number:   1
   CHANGE IN THE REACTION COORDINATE =    0.10756
   NET REACTION COORDINATE UP TO THIS POINT =    0.10756
  # OF POINTS ALONG THE PATH =   1
  # OF STEPS =   1

 Calculating another point on the path.
 IRC-IRC-IRC-IRC-IRC-IRC-IRC-IRC-IRC-IRC-IRC-IRC-IRC-IRC-IRC-IRC-IRC-IRC
                          Input orientation:                          
 ---------------------------------------------------------------------
 Center     Atomic      Atomic             Coordinates (Angstroms)
 Number     Number       Type             X           Y           Z
 ---------------------------------------------------------------------
      1          6           0       -1.487435   -1.324236   -0.378277
      2          8           0       -1.170027    0.297136   -0.836768
      3          1           0       -3.995743    0.574898   -1.508153
      4          8           0       -3.526190    0.670291   -0.663527
      5          1           0       -2.233195    0.675380   -0.847262
      6          6           0        1.061848    0.360348   -0.088560
      7          6           0       -0.312606    1.024588    0.063871
      8          1           0        1.399645    0.542619   -1.112607
      9          1           0       -0.676247    0.931715    1.092764
     10          8           0        2.053805    1.011119    0.744150
     11          1           0        1.856513    0.776724    1.668082
     12          6           0       -0.313338    2.504060   -0.341568
     13          8           0        0.400258    3.302337    0.582501
     14          1           0       -1.344360    2.874181   -0.346722
     15          1           0        0.080223    2.597593   -1.368096
     16          1           0        1.284560    2.903168    0.661701
     17          1           0       -1.438977   -1.709972   -1.406070
     18          8           0       -2.622631   -1.351947    0.252261
     19          1           0       -3.402812   -0.308941   -0.240225
     20          8           0        4.011620   -0.576330   -0.627234
     21          1           0        4.423988   -0.063250   -1.338032
     22          1           0        3.601275    0.089961   -0.039675
     23          6           0        1.062049   -1.183482    0.119172
     24          1           0        1.713921   -1.391439    0.983551
     25          6           0       -0.305959   -1.753182    0.499353
     26          1           0       -0.238410   -2.848363    0.395802
     27          8           0       -0.573583   -1.380974    1.839126
     28          1           0       -1.555402   -1.362153    1.874794
     29          8           0        1.525745   -1.860835   -1.029497
     30          1           0        2.471710   -1.612266   -1.111999
 ---------------------------------------------------------------------
                    Distance matrix (angstroms):
                    1          2          3          4          5
     1  C    0.000000
     2  O    1.714587   0.000000
     3  H    3.342894   2.917633   0.000000
     4  O    2.866361   2.391811   0.971068   0.000000
     5  H    2.185079   1.128497   1.885060   1.305994   0.000000
     6  C    3.069300   2.354799   5.257424   4.634300   3.395907
     7  C    2.663211   1.440662   4.029762   3.313873   2.154245
     8  H    3.515625   2.596067   5.409965   4.947911   3.644937
     9  H    2.812703   2.090359   4.232156   3.357837   2.500699
    10  O    4.387950   3.660897   6.469945   5.764899   4.585159
    11  H    4.447876   3.957805   6.661689   5.866959   4.802389
    12  C    4.004460   2.418605   4.317719   3.713325   2.699194
    13  O    5.088385   3.675780   5.579838   4.888481   3.984997
    14  H    4.200973   2.629011   3.696683   3.117352   2.423901
    15  H    4.337976   2.671617   4.552407   4.149352   3.052552
    16  H    5.161052   3.880955   6.165283   5.466744   4.428839
    17  H    1.098863   2.103550   3.430467   3.251688   2.575452
    18  O    1.298852   2.452655   2.949106   2.396775   2.338945
    19  H    2.172223   2.389251   1.655409   1.073919   1.644806
    20  O    5.555263   5.258927   8.137519   7.640285   6.372826
    21  H    6.120141   5.627979   8.445593   8.012388   6.715989
    22  H    5.292407   4.841860   7.752824   7.178212   5.919118
    23  C    2.601372   2.843979   5.596548   5.010092   3.904868
    24  H    3.479622   3.805523   6.532636   5.867057   4.816985
    25  C    1.533007   2.595310   4.802555   4.194686   3.380166
    26  H    2.117126   3.504469   5.427828   4.930781   4.235699
    27  O    2.399003   3.214374   5.171159   4.380507   3.768233
    28  H    2.254415   3.202237   4.599104   3.802355   3.467064
    29  O    3.129102   3.458492   6.053820   5.662382   4.538197
    30  H    4.036848   4.121143   6.838756   6.433195   5.238277
                    6          7          8          9         10
     6  C    0.000000
     7  C    1.534137   0.000000
     8  H    1.093619   2.132651   0.000000
     9  H    2.177834   1.095208   3.053586   0.000000
    10  O    1.449444   2.462288   2.023602   2.753365   0.000000
    11  H    1.972474   2.709245   2.827679   2.601900   0.973404
    12  C    2.559424   1.534020   2.715891   2.159000   3.001836
    13  O    3.089228   2.442395   3.389427   2.653127   2.830200
    14  H    3.489390   2.157335   3.681348   2.508320   4.025981
    15  H    2.757910   2.163144   2.455416   3.066469   3.297501
    16  H    2.660532   2.537204   2.955268   2.813754   2.044110
    17  H    3.503739   3.302614   3.635665   3.715432   4.922125
    18  O    4.077192   3.319582   4.650908   3.116081   5.262612
    19  H    4.517094   3.379371   4.954776   3.278756   5.699669
    20  O    3.141447   4.662564   2.882715   5.216195   2.869448
    21  H    3.611731   5.058067   3.092659   5.736821   3.332794
    22  H    2.554249   4.025260   2.490634   4.504238   1.964072
    23  C    1.557742   2.601597   2.147248   2.905789   2.488061
    24  H    2.154850   3.284785   2.869361   3.334947   2.438261
    25  C    2.585255   2.811706   3.283017   2.774512   3.642769
    26  H    3.495869   3.887857   4.056757   3.868648   4.502354
    27  O    3.069659   3.001061   4.038139   2.432308   3.718097
    28  H    3.697535   3.243534   4.613570   2.578044   4.465103
    29  O    2.456464   3.591748   2.408194   4.141388   3.416546
    30  H    2.631795   4.010996   2.406835   4.608954   3.240692
                   11         12         13         14         15
    11  H    0.000000
    12  C    3.425001   0.000000
    13  O    3.110930   1.414344   0.000000
    14  H    4.324852   1.095456   2.022489   0.000000
    15  H    3.960953   1.103358   2.098552   1.774582   0.000000
    16  H    2.421094   1.928501   0.973447   2.815844   2.379891
    17  H    5.147264   4.489799   5.697407   4.705915   4.567770
    18  O    5.157375   4.533680   5.559611   4.455661   5.052706
    19  H    5.699193   4.179485   5.308630   3.792207   4.674566
    20  O    3.426911   5.317487   5.435941   6.377400   5.106716
    21  H    4.041560   5.479623   5.586236   6.548666   5.094044
    22  H    2.536193   4.609035   4.577442   5.683790   4.522249
    23  C    2.621584   3.962566   4.557984   4.740516   4.180009
    24  H    2.278124   4.587006   4.890612   5.414631   4.910356
    25  C    3.527412   4.339505   5.105284   4.817323   4.750341
    26  H    4.375917   5.403495   6.186587   5.875541   5.733350
    27  O    3.254271   4.462806   4.945794   4.845449   5.151964
    28  H    4.032206   4.626292   5.220354   4.788131   5.373192
    29  O    3.787223   4.786207   5.524818   5.578894   4.699124
    30  H    3.716799   5.029333   5.596032   5.939381   4.848475
                   16         17         18         19         20
    16  H    0.000000
    17  H    5.742334   0.000000
    18  O    5.791354   2.068642   0.000000
    19  H    5.753484   2.679315   1.392511   0.000000
    20  O    4.604901   5.621453   6.737090   7.429339   0.000000
    21  H    4.759682   6.090212   7.337888   7.907234   0.968778
    22  H    3.711230   5.523671   6.395415   7.018303   0.978546
    23  C    4.128505   2.976355   3.690930   4.563877   3.102535
    24  H    4.328001   3.968945   4.397957   5.371256   2.922063
    25  C    4.923180   2.217258   2.364109   3.496184   4.614723
    26  H    5.955690   2.446230   2.818577   4.106901   4.926610
    27  O    4.815901   3.374677   2.591829   3.671170   5.268251
    28  H    5.265923   3.301303   1.942085   2.999247   6.153812
    29  O    5.061032   2.992348   4.371601   5.227045   2.826896
    30  H    4.994445   3.922946   5.280273   6.080186   1.918197
                   21         22         23         24         25
    21  H    0.000000
    22  H    1.544688   0.000000
    23  C    3.831578   2.845093   0.000000
    24  H    3.807663   2.608379   1.102422   0.000000
    25  C    5.348294   4.353643   1.529883   2.108370   0.000000
    26  H    5.700963   4.854540   2.130621   2.505927   1.102138
    27  O    6.066831   4.808636   2.381709   2.442292   1.416034
    28  H    6.911042   5.689037   3.156768   3.388753   1.898908
    29  O    3.424371   3.015489   1.411829   2.075598   2.388328
    30  H    2.502385   2.307243   1.920100   2.239272   3.214306
                   26         27         28         29         30
    26  H    0.000000
    27  O    2.085366   0.000000
    28  H    2.476026   0.982648   0.000000
    29  O    2.473647   3.586982   4.263456   0.000000
    30  H    3.338585   4.246933   5.020072   0.981552   0.000000
 Symmetry turned off by external request.
 Stoichiometry    C6H16O8
 Framework group  C1[X(C6H16O8)]
 Deg. of freedom    84
 Full point group                 C1      NOp   1
 Rotational constants (GHZ):      0.7592759      0.5134386      0.3677220
 Standard basis: 6-31G(d) (6D, 7F)
   242 basis functions,   456 primitive gaussians,   242 cartesian basis functions
    58 alpha electrons       58 beta electrons
       nuclear repulsion energy      1115.0919137174 Hartrees.
 NAtoms=   30 NActive=   30 NUniq=   30 SFac= 1.00D+00 NAtFMM=   60 NAOKFM=F Big=F
 Integral buffers will be    131072 words long.
 Raffenetti 2 integral format.
 Two-electron integral symmetry is turned off.
 One-electron integrals computed using PRISM.
 NBasis=   242 RedAO= T EigKep=  1.43D-03  NBF=   242
 NBsUse=   242 1.00D-06 EigRej= -1.00D+00 NBFU=   242
 Initial guess from the checkpoint file:  "/scratch/10461052.yak.local/Gau-1545.chk"
 B after Tr=     0.000159    0.000143   -0.000100
         Rot=    1.000000   -0.000007    0.000026    0.000032 Ang=  -0.00 deg.
 ExpMin= 1.61D-01 ExpMax= 5.48D+03 ExpMxC= 8.25D+02 IAcc=1 IRadAn=         1 AccDes= 0.00D+00
 Harris functional with IExCor=  402 and IRadAn=       1 diagonalized for initial guess.
 HarFok:  IExCor=  402 AccDes= 0.00D+00 IRadAn=         1 IDoV= 1 UseB2=F ITyADJ=14
 ICtDFT=  3500011 ScaDFX=  1.000000  1.000000  1.000000  1.000000
 FoFCou: FMM=F IPFlag=           0 FMFlag=      100000 FMFlg1=           0
         NFxFlg=           0 DoJE=T BraDBF=F KetDBF=T FulRan=T
         wScrn=  0.000000 ICntrl=     500 IOpCl=  0 I1Cent=   200000004 NGrid=           0
         NMat0=    1 NMatS0=      1 NMatT0=    0 NMatD0=    1 NMtDS0=    0 NMtDT0=    0
 Symmetry not used in FoFCou.
 Requested convergence on RMS density matrix=1.00D-08 within 128 cycles.
 Requested convergence on MAX density matrix=1.00D-06.
 Requested convergence on             energy=1.00D-06.
 No special actions if energy rises.
 Integral accuracy reduced to 1.0D-05 until final iterations.
 Initial convergence to 1.0D-05 achieved.  Increase integral accuracy.
 SCF Done:  E(RB3LYP) =  -839.961444945     A.U. after   11 cycles
            NFock= 11  Conv=0.97D-08     -V/T= 2.0085
 DoSCS=F DFT=T ScalE2(SS,OS)=  1.000000  1.000000
 Range of M.O.s used for correlation:     1   242
 NBasis=   242 NAE=    58 NBE=    58 NFC=     0 NFV=     0
 NROrb=    242 NOA=    58 NOB=    58 NVA=   184 NVB=   184
 Symmetrizing basis deriv contribution to polar:
 IMax=3 JMax=2 DiffMx= 0.00D+00
 Calling FoFJK, ICntrl=      2147 FMM=F ISym2X=0 I1Cent= 0 IOpClX= 0 NMat=1 NMatS=1 NMatT=0.
 -------------------------------------------------------------------
 Center     Atomic                   Forces (Hartrees/Bohr)
 Number     Number              X              Y              Z
 -------------------------------------------------------------------
      1        6          -0.005702062   -0.010472271    0.004098637
      2        8           0.002713837    0.005859012   -0.002480250
      3        1          -0.000591847   -0.000043858    0.000253165
      4        8          -0.007155185    0.003754412   -0.001150003
      5        1           0.006146039   -0.000425078    0.000018910
      6        6          -0.000040510   -0.000192783   -0.000256333
      7        6           0.000601404    0.002115441    0.000616376
      8        1           0.000020019   -0.000008261   -0.000014669
      9        1          -0.000137712   -0.000148788   -0.000077756
     10        8          -0.000702077    0.000090683   -0.000188763
     11        1           0.000028206   -0.000065859   -0.000008305
     12        6           0.000310570    0.000680607    0.000245360
     13        8           0.000066036    0.000150027    0.000114269
     14        1           0.000011511    0.000025439    0.000006044
     15        1           0.000015762   -0.000011280    0.000007328
     16        1           0.000028417    0.000067579   -0.000022937
     17        1          -0.000033054    0.000199451   -0.000093232
     18        8           0.006266444   -0.005045852    0.000391012
     19        1          -0.003030432    0.002965552   -0.001214859
     20        8           0.000016466    0.000013977   -0.000039553
     21        1           0.000020050   -0.000011275   -0.000001211
     22        1           0.000043444    0.000011723    0.000002833
     23        6           0.000097204   -0.000133279    0.000075334
     24        1           0.000062334    0.000052634   -0.000019309
     25        6           0.000826366    0.000419964    0.000249528
     26        1           0.000079545    0.000024756   -0.000045756
     27        8           0.000101049    0.000034488   -0.000103364
     28        1          -0.000058878   -0.000049153   -0.000288496
     29        8          -0.000016428    0.000177063   -0.000074364
     30        1           0.000013483   -0.000035071    0.000000361
 -------------------------------------------------------------------
 Cartesian Forces:  Max     0.010472271 RMS     0.002118436
 IRC-IRC-IRC-IRC-IRC-IRC-IRC-IRC-IRC-IRC-IRC-IRC-IRC-IRC-IRC-IRC-IRC-IRC
 Pt  2 Step number   1 out of a maximum of  20
 Modified Bulirsch-Stoer Extrapolation Cycles:
    EPS =    0.000010000000000
 Maximum DWI energy   std dev =  0.000014614 at pt    36
 Maximum DWI gradient std dev =  0.069233807 at pt    37
 CORRECTOR INTEGRATION CONVERGENCE:
   Recorrection delta-x convergence threshold:    0.010000
   Delta-x Convergence Met
 Point Number:   2          Path Number:   1
   CHANGE IN THE REACTION COORDINATE =    0.10746
   NET REACTION COORDINATE UP TO THIS POINT =    0.21503
  # OF POINTS ALONG THE PATH =   2
  # OF STEPS =   1

 Calculating another point on the path.
 IRC-IRC-IRC-IRC-IRC-IRC-IRC-IRC-IRC-IRC-IRC-IRC-IRC-IRC-IRC-IRC-IRC-IRC
                          Input orientation:                          
 ---------------------------------------------------------------------
 Center     Atomic      Atomic             Coordinates (Angstroms)
 Number     Number       Type             X           Y           Z
 ---------------------------------------------------------------------
      1          6           0       -1.490395   -1.330207   -0.376104
      2          8           0       -1.168570    0.299612   -0.837876
      3          1           0       -4.000117    0.574989   -1.507252
      4          8           0       -3.529376    0.671995   -0.664002
      5          1           0       -2.196518    0.672376   -0.847137
      6          6           0        1.061832    0.360282   -0.088678
      7          6           0       -0.312217    1.025750    0.064202
      8          1           0        1.399730    0.542569   -1.112701
      9          1           0       -0.677103    0.930897    1.092328
     10          8           0        2.053527    1.011152    0.744073
     11          1           0        1.856668    0.776323    1.668013
     12          6           0       -0.313144    2.504469   -0.341413
     13          8           0        0.400296    3.302432    0.582562
     14          1           0       -1.344273    2.874355   -0.346672
     15          1           0        0.080332    2.597549   -1.368032
     16          1           0        1.284751    2.903607    0.661558
     17          1           0       -1.439458   -1.708950   -1.406721
     18          8           0       -2.620225   -1.354113    0.252547
     19          1           0       -3.420519   -0.289395   -0.248496
     20          8           0        4.011622   -0.576325   -0.627254
     21          1           0        4.424137   -0.063334   -1.338038
     22          1           0        3.601567    0.090037   -0.039651
     23          6           0        1.062096   -1.183522    0.119184
     24          1           0        1.714253   -1.391130    0.983426
     25          6           0       -0.305509   -1.753047    0.499523
     26          1           0       -0.237580   -2.848305    0.395724
     27          8           0       -0.573542   -1.380962    1.839083
     28          1           0       -1.555716   -1.362419    1.873239
     29          8           0        1.525738   -1.860764   -1.029528
     30          1           0        2.471789   -1.612481   -1.111981
 ---------------------------------------------------------------------
                    Distance matrix (angstroms):
                    1          2          3          4          5
     1  C    0.000000
     2  O    1.724271   0.000000
     3  H    3.347831   2.922594   0.000000
     4  O    2.872132   2.396311   0.970607   0.000000
     5  H    2.175044   1.093488   1.923072   1.345381   0.000000
     6  C    3.074773   2.353651   5.261348   4.637603   3.359986
     7  C    2.670675   1.440265   4.034013   3.317460   2.122735
     8  H    3.521744   2.594363   5.414339   4.951178   3.608375
     9  H    2.816083   2.089437   4.234018   3.359641   2.477292
    10  O    4.392738   3.659339   6.473431   5.767713   4.550780
    11  H    4.451821   3.957120   6.665191   5.870149   4.771279
    12  C    4.011466   2.416531   4.321555   3.715666   2.675709
    13  O    5.094614   3.673678   5.583001   4.890342   3.962912
    14  H    4.207203   2.627063   3.699667   3.118616   2.413607
    15  H    4.344924   2.668584   4.556336   4.151315   3.026825
    16  H    5.167529   3.879160   6.168957   5.469280   4.401566
    17  H    1.099187   2.105062   3.432704   3.253965   2.560661
    18  O    1.293171   2.455836   2.953376   2.402443   2.344246
    19  H    2.196577   2.401160   1.633267   1.052979   1.667799
    20  O    5.559101   5.257948   8.141737   7.643710   6.336292
    21  H    6.124702   5.626746   8.450097   8.015822   6.679471
    22  H    5.297015   4.841001   7.757231   7.181841   5.882937
    23  C    2.604234   2.844560   5.600326   5.013775   3.872557
    24  H    3.481637   3.806102   6.536293   5.870788   4.785723
    25  C    1.532799   2.597483   4.805937   4.198564   3.357392
    26  H    2.114210   3.506834   5.431109   4.934718   4.216317
    27  O    2.397968   3.216286   5.173502   4.383723   3.750470
    28  H    2.250522   3.203493   4.599605   3.804177   3.457088
    29  O    3.131375   3.458793   6.057738   5.665920   4.506135
    30  H    4.039814   4.121098   6.843013   6.436886   5.204210
                    6          7          8          9         10
     6  C    0.000000
     7  C    1.534350   0.000000
     8  H    1.093630   2.132914   0.000000
     9  H    2.178135   1.095072   3.053881   0.000000
    10  O    1.449333   2.461541   2.023520   2.753918   0.000000
    11  H    1.972515   2.708964   2.827685   2.602942   0.973428
    12  C    2.559682   1.533341   2.716224   2.159678   3.001568
    13  O    3.089408   2.441239   3.389635   2.654210   2.830057
    14  H    3.489479   2.156687   3.681518   2.508559   4.025704
    15  H    2.757799   2.162392   2.455391   3.066727   3.297142
    16  H    2.661024   2.536432   2.955625   2.815319   2.044312
    17  H    3.503628   3.303464   3.635488   3.714192   4.921973
    18  O    4.075921   3.320561   4.649875   3.114839   5.261182
    19  H    4.532008   3.389532   4.967274   3.288350   5.713300
    20  O    3.141426   4.662653   2.882632   5.216591   2.869626
    21  H    3.611848   5.058204   3.092723   5.737406   3.333092
    22  H    2.554543   4.025426   2.490846   4.505047   1.964461
    23  C    1.557734   2.602430   2.147307   2.905613   2.487974
    24  H    2.154647   3.285249   2.869123   3.335004   2.437901
    25  C    2.584910   2.812696   3.282827   2.773635   3.642204
    26  H    3.495447   3.888930   4.056372   3.867919   4.501770
    27  O    3.069632   3.001793   4.038168   2.431678   3.717896
    28  H    3.697076   3.243803   4.612968   2.577029   4.464918
    29  O    2.456309   3.592532   2.408071   4.141033   3.416449
    30  H    2.631904   4.011777   2.406980   4.609042   3.240884
                   11         12         13         14         15
    11  H    0.000000
    12  C    3.425254   0.000000
    13  O    3.111342   1.414027   0.000000
    14  H    4.325126   1.095477   2.022435   0.000000
    15  H    3.961036   1.103375   2.098584   1.774626   0.000000
    16  H    2.421854   1.928350   0.973428   2.815875   2.379818
    17  H    5.147331   4.489584   5.697007   4.705258   4.566968
    18  O    5.156052   4.534762   5.560204   4.457248   5.053209
    19  H    5.714671   4.179723   5.309473   3.785466   4.673732
    20  O    3.426621   5.317575   5.435999   6.377423   5.106590
[...]
 Alpha  occ. eigenvalues --  -19.14192 -19.13546 -19.12424 -10.28834 -10.25750
 Alpha  occ. eigenvalues --  -10.25253 -10.24569 -10.23883 -10.23796  -1.07907
 Alpha  occ. eigenvalues --   -1.06243  -1.03504  -1.02366  -1.02244  -1.01673
 Alpha  occ. eigenvalues --   -1.01140  -0.99631  -0.78740  -0.75433  -0.69501
 Alpha  occ. eigenvalues --   -0.65132  -0.62989  -0.57792  -0.56351  -0.54691
 Alpha  occ. eigenvalues --   -0.54396  -0.53649  -0.52292  -0.50851  -0.49777
 Alpha  occ. eigenvalues --   -0.48228  -0.47319  -0.44758  -0.44355  -0.42653
 Alpha  occ. eigenvalues --   -0.42192  -0.41556  -0.40323  -0.39651  -0.38747
 Alpha  occ. eigenvalues --   -0.37891  -0.36083  -0.35824  -0.35009  -0.33915
 Alpha  occ. eigenvalues --   -0.32409  -0.31273  -0.30628  -0.29081  -0.27840
 Alpha  occ. eigenvalues --   -0.26491  -0.25986  -0.24994
 Alpha virt. eigenvalues --    0.02262   0.03740   0.06079   0.06243   0.09263
 Alpha virt. eigenvalues --    0.09516   0.11108   0.12152   0.13388   0.14285
 Alpha virt. eigenvalues --    0.15542   0.16661   0.17506   0.18350   0.18721
 Alpha virt. eigenvalues --    0.19528   0.20540   0.21354   0.21883   0.23821
 Alpha virt. eigenvalues --    0.24233   0.25382   0.26774   0.28241   0.29397
 Alpha virt. eigenvalues --    0.30472   0.33255   0.35762   0.51893   0.53267
 Alpha virt. eigenvalues --    0.53769   0.54784   0.56694   0.57471   0.59833
 Alpha virt. eigenvalues --    0.61278   0.62449   0.63281   0.64589   0.67013
 Alpha virt. eigenvalues --    0.68872   0.70964   0.71906   0.72097   0.74630
 Alpha virt. eigenvalues --    0.75600   0.77022   0.78269   0.78750   0.79197
 Alpha virt. eigenvalues --    0.81569   0.82356   0.83967   0.84701   0.85730
 Alpha virt. eigenvalues --    0.85854   0.86644   0.87536   0.88191   0.88788
 Alpha virt. eigenvalues --    0.90654   0.91913   0.92652   0.93104   0.94426
 Alpha virt. eigenvalues --    0.96907   0.97477   0.98363   1.01032   1.02096
 Alpha virt. eigenvalues --    1.03012   1.04398   1.06168   1.08373   1.09441
 Alpha virt. eigenvalues --    1.10913   1.12407   1.13220   1.14331   1.15156
 Alpha virt. eigenvalues --    1.16297   1.18673   1.19189   1.22733   1.22896
 Alpha virt. eigenvalues --    1.26907   1.29541   1.30800   1.33579   1.35967
 Alpha virt. eigenvalues --    1.39699   1.42045   1.43557   1.44454   1.47727
 Alpha virt. eigenvalues --    1.48353   1.52783   1.56549   1.58393   1.58894
 Alpha virt. eigenvalues --    1.61745   1.62282   1.63470   1.66177   1.68183
 Alpha virt. eigenvalues --    1.69521   1.70344   1.70925   1.72011   1.74411
 Alpha virt. eigenvalues --    1.74576   1.75735   1.77833   1.78091   1.79793
 Alpha virt. eigenvalues --    1.80144   1.82524   1.84024   1.85354   1.86431
 Alpha virt. eigenvalues --    1.88718   1.89204   1.91315   1.92175   1.93640
 Alpha virt. eigenvalues --    1.94929   1.98811   1.99209   2.04813   2.05482
 Alpha virt. eigenvalues --    2.08122   2.09078   2.10119   2.11426   2.14495
 Alpha virt. eigenvalues --    2.18022   2.21682   2.23616   2.25000   2.28324
 Alpha virt. eigenvalues --    2.30796   2.31759   2.35272   2.37404   2.38313
 Alpha virt. eigenvalues --    2.39709   2.42946   2.47291   2.49277   2.50321
 Alpha virt. eigenvalues --    2.52149   2.52694   2.54847   2.56631   2.57847
 Alpha virt. eigenvalues --    2.59378   2.60623   2.62450   2.66671   2.68305
 Alpha virt. eigenvalues --    2.72065   2.74553   2.83335   2.86954   2.89587
 Alpha virt. eigenvalues --    2.90730   2.94013   2.97916   3.00541   3.04578
 Alpha virt. eigenvalues --    3.69112   3.73519   3.77788   3.81778   3.90454
 Alpha virt. eigenvalues --    3.95910   4.08988   4.13620   4.28052   4.34311
 Alpha virt. eigenvalues --    4.37967   4.51023   4.61620   4.78581
          Condensed to atoms (all electrons):
               1          2          3          4          5          6
     1  C    4.767221   0.037207   0.000644   0.009331  -0.007998  -0.016805
     2  O    0.037207   8.571186   0.002929  -0.069276   0.150635  -0.044694
     3  H    0.000644   0.002929   0.366935   0.234804  -0.004765   0.000002
     4  O    0.009331  -0.069276   0.234804   8.398717   0.113174  -0.000079
     5  H   -0.007998   0.150635  -0.004765   0.113174   0.297619   0.002493
     6  C   -0.016805  -0.044694   0.000002  -0.000079   0.002493   5.129776
     7  C   -0.005932   0.135132  -0.000108   0.002747  -0.014474   0.303981
     8  H    0.001217   0.003947  -0.000000   0.000000  -0.000021   0.345179
     9  H    0.000877  -0.033658  -0.000015   0.000277   0.001178  -0.053474
    10  O    0.000099   0.001420  -0.000000   0.000000  -0.000020   0.164913
    11  H    0.000100  -0.000035   0.000000  -0.000000   0.000002  -0.026052
    12  C    0.000561  -0.028550   0.000070  -0.001123  -0.003317  -0.027171
    13  O   -0.000010   0.001581   0.000000   0.000001   0.000084  -0.000961
    14  H   -0.000088  -0.000187  -0.000067   0.001657   0.005076   0.005228
    15  H   -0.000049   0.005652  -0.000002   0.000018   0.000239  -0.014642
    16  H   -0.000003   0.000032   0.000000  -0.000000   0.000023   0.000500
    17  H    0.356076  -0.036207   0.000067   0.000520   0.001204   0.000774
    18  O    0.385621  -0.045716   0.002595  -0.059983   0.007641   0.000394
    19  H   -0.012031   0.006146  -0.007161   0.181332  -0.015789   0.000010
    20  O   -0.000000   0.000000  -0.000000  -0.000000   0.000000   0.006396
    21  H    0.000000  -0.000000   0.000000  -0.000000   0.000000   0.000119
    22  H   -0.000003  -0.000010   0.000000  -0.000000   0.000000  -0.006966
    23  C   -0.028039   0.003745  -0.000002   0.000024  -0.000053   0.293262
    24  H    0.006319   0.000097   0.000000  -0.000000   0.000006  -0.075654
    25  C    0.277553  -0.013534   0.000028  -0.000193   0.001662  -0.031909
    26  H   -0.044018   0.001775   0.000000   0.000001  -0.000103   0.006257
    27  O   -0.025252  -0.000821   0.000000  -0.000008  -0.000236   0.003825
    28  H   -0.013743   0.000192  -0.000004   0.000203  -0.000019  -0.000187
    29  O    0.003967  -0.000304   0.000000  -0.000000   0.000016  -0.050037
    30  H   -0.000155  -0.000013  -0.000000   0.000000   0.000001   0.000756
               7          8          9         10         11         12
     1  C   -0.005932   0.001217   0.000877   0.000099   0.000100   0.000561
     2  O    0.135132   0.003947  -0.033658   0.001420  -0.000035  -0.028550
     3  H   -0.000108  -0.000000  -0.000015  -0.000000   0.000000   0.000070
     4  O    0.002747   0.000000   0.000277   0.000000  -0.000000  -0.001123
     5  H   -0.014474  -0.000021   0.001178  -0.000020   0.000002  -0.003317
     6  C    0.303981   0.345179  -0.053474   0.164913  -0.026052  -0.027171
     7  C    5.044381  -0.034288   0.351950  -0.028522  -0.001973   0.326907
     8  H   -0.034288   0.582827   0.006028  -0.037739   0.006864  -0.010386
     9  H    0.351950   0.006028   0.589687   0.000982   0.004559  -0.045942
    10  O   -0.028522  -0.037739   0.000982   8.287027   0.232364  -0.000000
    11  H   -0.001973   0.006864   0.004559   0.232364   0.365419  -0.000935
    12  C    0.326907  -0.010386  -0.045942  -0.000000  -0.000935   4.879309
    13  O   -0.038392   0.000084   0.006395  -0.011748   0.001785   0.265261
    14  H   -0.035107  -0.000007  -0.006272  -0.000091   0.000008   0.373718
    15  H   -0.047968   0.007758   0.006946   0.000455   0.000124   0.344264
    16  H   -0.008967  -0.000534  -0.000722   0.037584  -0.001921  -0.031988
    17  H    0.002766   0.000122   0.000341   0.000000  -0.000000  -0.000084
    18  O    0.000713  -0.000001   0.002339   0.000000  -0.000001  -0.000062
    19  H   -0.000268   0.000001  -0.000062  -0.000000   0.000000   0.000024
    20  O    0.000188   0.004226  -0.000000  -0.014709   0.000528  -0.000003
    21  H    0.000003   0.000583   0.000000   0.000369   0.000004  -0.000000
    22  H    0.000589  -0.002795  -0.000023   0.048001  -0.002158  -0.000011
    23  C   -0.039215  -0.045571  -0.007519  -0.025971  -0.005497   0.003462
    24  H    0.003965   0.005230   0.000173   0.001275   0.006821  -0.000181
    25  C   -0.000997   0.000787  -0.005510   0.001855  -0.000286   0.000237
    26  H    0.000190  -0.000257   0.000293  -0.000086  -0.000005   0.000014
    27  O   -0.005240   0.000039   0.018382  -0.000426   0.001630   0.000398
    28  H    0.000705   0.000010  -0.000073   0.000015  -0.000038  -0.000031
    29  O    0.003276   0.005418   0.000009   0.001563  -0.000024  -0.000052
    30  H    0.000100   0.001763  -0.000002   0.000097  -0.000034  -0.000002
              13         14         15         16         17         18
     1  C   -0.000010  -0.000088  -0.000049  -0.000003   0.356076   0.385621
     2  O    0.001581  -0.000187   0.005652   0.000032  -0.036207  -0.045716
     3  H    0.000000  -0.000067  -0.000002   0.000000   0.000067   0.002595
     4  O    0.000001   0.001657   0.000018  -0.000000   0.000520  -0.059983
     5  H    0.000084   0.005076   0.000239   0.000023   0.001204   0.007641
     6  C   -0.000961   0.005228  -0.014642   0.000500   0.000774   0.000394
     7  C   -0.038392  -0.035107  -0.047968  -0.008967   0.002766   0.000713
     8  H    0.000084  -0.000007   0.007758  -0.000534   0.000122  -0.000001
     9  H    0.006395  -0.006272   0.006946  -0.000722   0.000341   0.002339
    10  O   -0.011748  -0.000091   0.000455   0.037584   0.000000   0.000000
    11  H    0.001785   0.000008   0.000124  -0.001921  -0.000000  -0.000001
    12  C    0.265261   0.373718   0.344264  -0.031988  -0.000084  -0.000062
    13  O    8.247766  -0.035272  -0.035212   0.230632   0.000001   0.000000
    14  H   -0.035272   0.572016  -0.046582   0.006111  -0.000002   0.000014
    15  H   -0.035212  -0.046582   0.661066  -0.004214   0.000009   0.000002
    16  H    0.230632   0.006111  -0.004214   0.366712  -0.000000   0.000000
    17  H    0.000001  -0.000002   0.000009  -0.000000   0.649490  -0.051266
    18  O    0.000000   0.000014   0.000002   0.000000  -0.051266   8.296333
    19  H    0.000000   0.000001   0.000000   0.000000  -0.001675   0.084134
    20  O   -0.000000  -0.000000  -0.000001   0.000005   0.000000   0.000000
    21  H    0.000000   0.000000   0.000000  -0.000003  -0.000000  -0.000000
    22  H    0.000012   0.000001  -0.000006   0.000032  -0.000000  -0.000000
    23  C    0.000007  -0.000140  -0.000021   0.000300  -0.001281   0.002491
    24  H    0.000001   0.000005  -0.000004  -0.000001  -0.000167  -0.000093
    25  C    0.000008   0.000021   0.000004  -0.000020  -0.076012  -0.062094
    26  H   -0.000000  -0.000000  -0.000001   0.000000   0.003197  -0.001664
    27  O   -0.000002   0.000001  -0.000007  -0.000001   0.002797  -0.024883
    28  H   -0.000000  -0.000001  -0.000000  -0.000000   0.002620   0.059465
    29  O    0.000000   0.000001  -0.000016  -0.000004   0.003601   0.000014
    30  H    0.000000  -0.000000   0.000000  -0.000001  -0.000034   0.000001
              19         20         21         22         23         24
     1  C   -0.012031  -0.000000   0.000000  -0.000003  -0.028039   0.006319
     2  O    0.006146   0.000000  -0.000000  -0.000010   0.003745   0.000097
     3  H   -0.007161  -0.000000   0.000000   0.000000  -0.000002   0.000000
     4  O    0.181332  -0.000000  -0.000000  -0.000000   0.000024  -0.000000
     5  H   -0.015789   0.000000   0.000000   0.000000  -0.000053   0.000006
     6  C    0.000010   0.006396   0.000119  -0.006966   0.293262  -0.075654
     7  C   -0.000268   0.000188   0.000003   0.000589  -0.039215   0.003965
     8  H    0.000001   0.004226   0.000583  -0.002795  -0.045571   0.005230
     9  H   -0.000062  -0.000000   0.000000  -0.000023  -0.007519   0.000173
    10  O   -0.000000  -0.014709   0.000369   0.048001  -0.025971   0.001275
    11  H    0.000000   0.000528   0.000004  -0.002158  -0.005497   0.006821
    12  C    0.000024  -0.000003  -0.000000  -0.000011   0.003462  -0.000181
    13  O    0.000000  -0.000000   0.000000   0.000012   0.000007   0.000001
    14  H    0.000001  -0.000000   0.000000   0.000001  -0.000140   0.000005
    15  H    0.000000  -0.000001   0.000000  -0.000006  -0.000021  -0.000004
    16  H    0.000000   0.000005  -0.000003   0.000032   0.000300  -0.000001
    17  H   -0.001675   0.000000  -0.000000  -0.000000  -0.001281  -0.000167
    18  O    0.084134   0.000000  -0.000000  -0.000000   0.002491  -0.000093
    19  H    0.315445  -0.000000   0.000000   0.000000  -0.000077   0.000002
    20  O   -0.000000   8.310821   0.242596   0.217675   0.000477   0.001025
    21  H    0.000000   0.242596   0.374169  -0.015893  -0.000211  -0.000041
    22  H    0.000000   0.217675  -0.015893   0.337656   0.000220   0.000551
    23  C   -0.000077   0.000477  -0.000211   0.000220   4.947679   0.358175
    24  H    0.000002   0.001025  -0.000041   0.000551   0.358175   0.646272
    25  C    0.002376   0.000053  -0.000004   0.000025   0.307820  -0.043517
    26  H   -0.000056   0.000002  -0.000000  -0.000003  -0.049222  -0.007722
    27  O    0.000073   0.000000  -0.000000  -0.000004  -0.048165   0.003489
    28  H   -0.000729  -0.000000   0.000000   0.000000   0.007471  -0.000393
    29  O    0.000000  -0.017907   0.000910   0.002151   0.228176  -0.032760
    30  H   -0.000000   0.054411  -0.002262  -0.005358  -0.025066  -0.005224
              25         26         27         28         29         30
     1  C    0.277553  -0.044018  -0.025252  -0.013743   0.003967  -0.000155
     2  O   -0.013534   0.001775  -0.000821   0.000192  -0.000304  -0.000013
     3  H    0.000028   0.000000   0.000000  -0.000004   0.000000  -0.000000
     4  O   -0.000193   0.000001  -0.000008   0.000203  -0.000000   0.000000
     5  H    0.001662  -0.000103  -0.000236  -0.000019   0.000016   0.000001
     6  C   -0.031909   0.006257   0.003825  -0.000187  -0.050037   0.000756
     7  C   -0.000997   0.000190  -0.005240   0.000705   0.003276   0.000100
     8  H    0.000787  -0.000257   0.000039   0.000010   0.005418   0.001763
     9  H   -0.005510   0.000293   0.018382  -0.000073   0.000009  -0.000002
    10  O    0.001855  -0.000086  -0.000426   0.000015   0.001563   0.000097
    11  H   -0.000286  -0.000005   0.001630  -0.000038  -0.000024  -0.000034
    12  C    0.000237   0.000014   0.000398  -0.000031  -0.000052  -0.000002
    13  O    0.000008  -0.000000  -0.000002  -0.000000   0.000000   0.000000
    14  H    0.000021  -0.000000   0.000001  -0.000001   0.000001  -0.000000
    15  H    0.000004  -0.000001  -0.000007  -0.000000  -0.000016   0.000000
    16  H   -0.000020   0.000000  -0.000001  -0.000000  -0.000004  -0.000001
    17  H   -0.076012   0.003197   0.002797   0.002620   0.003601  -0.000034
    18  O   -0.062094  -0.001664  -0.024883   0.059465   0.000014   0.000001
    19  H    0.002376  -0.000056   0.000073  -0.000729   0.000000  -0.000000
    20  O    0.000053   0.000002   0.000000  -0.000000  -0.017907   0.054411
    21  H   -0.000004  -0.000000  -0.000000   0.000000   0.000910  -0.002262
    22  H    0.000025  -0.000003  -0.000004   0.000000   0.002151  -0.005358
    23  C    0.307820  -0.049222  -0.048165   0.007471   0.228176  -0.025066
    24  H   -0.043517  -0.007722   0.003489  -0.000393  -0.032760  -0.005224
    25  C    5.078997   0.350073   0.223905  -0.052112  -0.046200   0.005383
    26  H    0.350073   0.609145  -0.033350   0.001392   0.007513  -0.000135
    27  O    0.223905  -0.033350   8.325827   0.221358   0.001259  -0.000105
    28  H   -0.052112   0.001392   0.221358   0.359930  -0.000110   0.000008
    29  O   -0.046200   0.007513   0.001259  -0.000110   8.336542   0.221021
    30  H    0.005383  -0.000135  -0.000105   0.000008   0.221021   0.325069
 Mulliken charges:
               1
     1  C    0.307332
     2  O   -0.648671
     3  H    0.404050
     4  O   -0.812144
     5  H    0.465741
     6  C    0.084768
     7  C    0.083858
     8  H    0.159516
     9  H    0.162857
    10  O   -0.658707
    11  H    0.418754
    12  C   -0.044387
    13  O   -0.632023
    14  H    0.159960
    15  H    0.122187
    16  H    0.406449
    17  H    0.143144
    18  O   -0.595994
    19  H    0.448302
    20  O   -0.805780
    21  H    0.399662
    22  H    0.426319
    23  C    0.122743
    24  H    0.132353
    25  C    0.081599
    26  H    0.156769
    27  O   -0.664484
    28  H    0.414071
    29  O   -0.668023
    30  H    0.429780
 Sum of Mulliken charges =  -0.00000
 Mulliken charges with hydrogens summed into heavy atoms:
               1
     1  C    0.450476
     2  O   -0.182929
     4  O    0.040208
     6  C    0.244284
     7  C    0.246715
    10  O   -0.239953
    12  C    0.237760
    13  O   -0.225575
    18  O   -0.595994
    20  O    0.020200
    23  C    0.255096
    25  C    0.238368
    27  O   -0.250413
    29  O   -0.238243
 APT charges:
               1
     1  C   -0.360194
     2  O   -0.507085
     3  H    0.881816
     4  O   -1.229579
     5  H    0.572931
     6  C   -0.136181
     7  C   -0.201906
     8  H    0.362220
     9  H    0.323942
    10  O   -0.801491
    11  H    0.575792
    12  C   -0.707125
    13  O   -0.506949
    14  H    0.507363
    15  H    0.359789
    16  H    0.415786
    17  H    0.413338
    18  O   -0.271068
    19  H    0.313613
    20  O   -0.959864
    21  H    0.839845
    22  H    0.203842
    23  C   -0.318920
    24  H    0.416520
    25  C   -0.435744
    26  H    0.541156
    27  O   -0.716217
    28  H    0.585614
    29  O   -0.805123
    30  H    0.643882
 Sum of APT charges =  -0.00000
 APT charges with hydrogens summed into heavy atoms:
               1
     1  C    0.053144
     2  O    0.065846
     4  O   -0.034151
     6  C    0.226038
     7  C    0.122035
    10  O   -0.225699
    12  C    0.160026
    13  O   -0.091163
    18  O   -0.271068
    20  O    0.083823
    23  C    0.097600
    25  C    0.105412
    27  O   -0.130603
    29  O   -0.161241
 Electronic spatial extent (au):  <R**2>=           3176.3534
 Charge=             -0.0000 electrons
 Dipole moment (field-independent basis, Debye):
    X=              0.9681    Y=              1.1262    Z=             -2.2981  Tot=              2.7362
 Quadrupole moment (field-independent basis, Debye-Ang):
   XX=            -74.5462   YY=            -98.0313   ZZ=            -79.4663
   XY=              5.9160   XZ=              5.3271   YZ=             -3.0796
 Traceless Quadrupole moment (field-independent basis, Debye-Ang):
   XX=              9.4684   YY=            -14.0167   ZZ=              4.5482
   XY=              5.9160   XZ=              5.3271   YZ=             -3.0796
 Octapole moment (field-independent basis, Debye-Ang**2):
  XXX=              4.2296  YYY=            -37.7644  ZZZ=             -4.2100  XYY=             -2.1393
  XXY=             28.0757  XXZ=            -45.0943  XZZ=              0.5599  YZZ=              9.1170
  YYZ=             -8.8632  XYZ=             -1.5222
 Hexadecapole moment (field-independent basis, Debye-Ang**3):
 XXXX=          -1767.3337 YYYY=          -1512.7767 ZZZZ=           -373.7238 XXXY=             94.5921
 XXXZ=             15.1204 YYYX=              3.7481 YYYZ=            -39.4454 ZZZX=             10.9917
 ZZZY=             17.0181 XXYY=           -577.7033 XXZZ=           -256.2584 YYZZ=           -300.3594
 XXYZ=            -13.6646 YYXZ=             14.2168 ZZXY=              7.7979
 N-N= 1.112049239379D+03 E-N=-4.196256270268D+03  KE= 8.330212137338D+02
  Exact polarizability:   0.000   0.000   0.000   0.000   0.000   0.000
 Approx polarizability: 142.734   3.085 129.253  -3.085   2.094 131.726

 This type of calculation cannot be archived.


 STEINBACH'S GUIDELINES FOR SYSTEMS PROGRAMMING:
 NEVER TEST FOR AN ERROR CONDITION YOU DON'T KNOW HOW
 TO HANDLE.
 Job cpu time:       0 days  1 hours  2 minutes  1.6 seconds.
 File lengths (MBytes):  RWF=    220 Int=      0 D2E=      0 Chk=      9 Scr=      1
 Normal termination of Gaussian 09 at Sat Jan 14 01:10:44 2017.
