 Entering Gaussian System, Link 0=g09
 Initial command:
 /global/software/gaussian/g09.d01/l1.exe "/home/iawad/Gau-15578.inp" -scrdir="/home/iawad/"
 Entering Link 1 = /global/software/gaussian/g09.d01/l1.exe PID=     15579.
  
 Copyright (c) 1988,1990,1992,1993,1995,1998,2003,2009,2013,
            Gaussian, Inc.  All Rights Reserved.
  
 This is part of the Gaussian(R) 09 program.  It is based on
 the Gaussian(R) 03 system (copyright 2003, Gaussian, Inc.),
 the Gaussian(R) 98 system (copyright 1998, Gaussian, Inc.),
 the Gaussian(R) 94 system (copyright 1995, Gaussian, Inc.),
 the Gaussian 92(TM) system (copyright 1992, Gaussian, Inc.),
 the Gaussian 90(TM) system (copyright 1990, Gaussian, Inc.),
 the Gaussian 88(TM) system (copyright 1988, Gaussian, Inc.),
 the Gaussian 86(TM) system (copyright 1986, Carnegie Mellon
 University), and the Gaussian 82(TM) system (copyright 1983,
 Carnegie Mellon University). Gaussian is a federally registered
 trademark of Gaussian, Inc.
  
 This software contains proprietary and confidential information,
 including trade secrets, belonging to Gaussian, Inc.
  
 This software is provided under written license and may be
 used, copied, transmitted, or stored only in accord with that
 written license.
  
 The following legend is applicable only to US Government
 contracts under FAR:
  
                    RESTRICTED RIGHTS LEGEND
  
 Use, reproduction and disclosure by the US Government is
 subject to restrictions as set forth in subparagraphs (a)
 and (c) of the Commercial Computer Software - Restricted
 Rights clause in FAR 52.227-19.
  
 Gaussian, Inc.
 340 Quinnipiac St., Bldg. 40, Wallingford CT 06492
  
  
 ---------------------------------------------------------------
 Warning -- This program may not be used in any manner that
 competes with the business of Gaussian, Inc. or will provide
 assistance to any competitor of Gaussian, Inc.  The licensee
 of this program is prohibited from giving any competitor of
 Gaussian, Inc. access to this program.  By using this program,
 the user acknowledges that Gaussian, Inc. is engaged in the
 business of creating and licensing software in the field of
 computational chemistry and represents and warrants to the
 licensee that it is not a competitor of Gaussian, Inc. and that
 it will not use this program in any manner prohibited above.
 ---------------------------------------------------------------
  

 Cite this work as:
 Gaussian 09, Revision D.01,
 M. J. Frisch, G. W. Trucks, H. B. Schlegel, G. E. Scuseria, 
 M. A. Robb, J. R. Cheeseman, G. Scalmani, V. Barone, B. Mennucci, 
 G. A. Petersson, H. Nakatsuji, M. Caricato, X. Li, H. P. Hratchian, 
 A. F. Izmaylov, J. Bloino, G. Zheng, J. L. Sonnenberg, M. Hada, 
 M. Ehara, K. Toyota, R. Fukuda, J. Hasegawa, M. Ishida, T. Nakajima, 
 Y. Honda, O. Kitao, H. Nakai, T. Vreven, J. A. Montgomery, Jr., 
 J. E. Peralta, F. Ogliaro, M. Bearpark, J. J. Heyd, E. Brothers, 
 K. N. Kudin, V. N. Staroverov, T. Keith, R. Kobayashi, J. Normand, 
 K. Raghavachari, A. Rendell, J. C. Burant, S. S. Iyengar, J. Tomasi, 
 M. Cossi, N. Rega, J. M. Millam, M. Klene, J. E. Knox, J. B. Cross, 
 V. Bakken, C. Adamo, J. Jaramillo, R. Gomperts, R. E. Stratmann, 
 O. Yazyev, A. J. Austin, R. Cammi, C. Pomelli, J. W. Ochterski, 
 R. L. Martin, K. Morokuma, V. G. Zakrzewski, G. A. Voth, 
 P. Salvador, J. J. Dannenberg, S. Dapprich, A. D. Daniels, 
 O. Farkas, J. B. Foresman, J. V. Ortiz, J. Cioslowski, 
 and D. J. Fox, Gaussian, Inc., Wallingford CT, 2013.
 
 ******************************************
 Gaussian 09:  ES64L-G09RevD.01 24-Apr-2013
                22-Jan-2017 
 ******************************************
 %nproc=20
 Will use up to   20 processors via shared memory.
 --------------------------------------------------
 # b3lyp/6-31g(d) irc=(calcfc,reverse,maxpoints=20)
 --------------------------------------------------
 1/10=4,14=-1,18=10,22=2,26=3,38=1,42=20,44=3/1,23;
 2/12=2,17=6,18=5,29=1,40=1/2;
 3/5=1,6=6,7=1,11=2,16=1,25=1,30=1,71=2,74=-5,140=1/1,2,3;
 4//1;
 5/5=2,38=5/2;
 8/6=4,10=90,11=11/1;
 11/6=1,8=1,9=11,15=111,16=1/1,2,10;
 10/6=1,13=1/2;
 6/7=2,8=2,9=2,10=2,28=1/1;
 7/10=1,18=20,25=1/1,2,3,16;
 1/10=4,14=-1,18=10,22=2,26=3,42=20,44=3/23(2);
 2/29=1/2;
 99/5=20/99;
 2/29=1/2;
 3/5=1,6=6,7=1,11=2,16=1,25=1,30=1,71=2,74=-5,140=1/1,2,3;
 4/5=5,16=3,69=1/1;
 5/5=2,38=5/2;
 8/6=4,10=90,11=11/1;
 11/6=1,8=1,9=11,15=111,16=1/1,2,10;
 10/6=1,13=1/2;
 7/10=1,18=20,25=1/1,2,3,16;
 1/14=-1,18=10,22=2,26=3,42=20,44=3/23(-8);
 2/29=1/2;
 6/7=2,8=2,9=2,10=2,19=2,28=1/1;
 99/5=20,9=1/99;
 ---------------------------------
 glo_1w_alpha_ts_boat5_B3LYP_631Gd
 ---------------------------------
 Symbolic Z-matrix:
 Charge =  0 Multiplicity = 1
 8                    0    -1.39508  -0.25292  -1.12445 
 6                    0    -0.63587   0.7278    1.01212 
 6                    0     1.0668   -0.63736  -0.4043 
 6                    0     0.62101  -0.17989   0.99428 
 6                    0    -0.07644  -1.34199  -1.15464 
 6                    0    -1.28819   0.95488  -0.36073 
 1                    0     0.36222  -1.09004   1.5484 
 1                    0    -2.32477   1.28394  -0.17989 
 1                    0    -0.34616   1.70554   1.41181 
 1                    0     1.49149   0.19861  -0.96261 
 6                    0    -0.62675   2.08345  -1.17379 
 1                    0    -1.02522   2.04779  -2.19647 
 1                    0     0.45735   1.96636  -1.23343 
 8                    0    -0.84601   3.34287  -0.54843 
 1                    0    -1.74766   3.62998  -0.7598 
 8                    0     2.11348  -1.59368  -0.29478 
 1                    0     1.6595   -2.44443  -0.13769 
 8                    0     1.72741   0.48146   1.61077 
 1                    0     1.66993   0.3528    2.56897 
 8                    0    -1.5771    0.09934   1.9254 
 1                    0    -2.23838   0.7646    2.17605 
 1                    0     0.05123  -1.33497  -2.24696 
 8                    0    -0.4299   -2.46793  -0.60953 
 1                    0    -1.74455  -2.3854   -0.03727 
 8                    0    -2.63995  -1.838     0.18321 
 1                    0    -2.45776  -1.41672   1.05585 
 1                    0    -2.24479  -1.00393  -0.52663 
 8                    0     3.90719   0.673    -0.37872 
 1                    0     3.4048    0.81403   0.44178 
 1                    0     3.78896  -0.28272  -0.50753 
 
 IRC-IRC-IRC-IRC-IRC-IRC-IRC-IRC-IRC-IRC-IRC-IRC-IRC-IRC-IRC-IRC-IRC-IRC
 ------------------------------------------------------------------------
 INPUT DATA FOR L123
 ------------------------------------------------------------------------
 GENERAL PARAMETERS:
 Rxn path following direction = Reverse
 Maximum points per path      =  20
 Step size                    =   0.100 bohr
 Integration scheme           = HPC                                 
    Redo corrector integration= Yes                                 
    DWI Weight Power          =  2
    DWI will use Hessian update vectors when possible.
    Max correction cycles     =  20
 Initial Hessian              = CalcFC
 Hessian evaluation           = All updating
 Hessian updating method      = Bofill                              
 ------------------------------------------------------------------------
 IRC-IRC-IRC-IRC-IRC-IRC-IRC-IRC-IRC-IRC-IRC-IRC-IRC-IRC-IRC-IRC-IRC-IRC
                          Input orientation:                          
 ---------------------------------------------------------------------
 Center     Atomic      Atomic             Coordinates (Angstroms)
 Number     Number       Type             X           Y           Z
 ---------------------------------------------------------------------
      1          8           0       -1.395075   -0.252915   -1.124447
      2          6           0       -0.635865    0.727803    1.012119
      3          6           0        1.066798   -0.637357   -0.404303
      4          6           0        0.621013   -0.179893    0.994282
      5          6           0       -0.076438   -1.341991   -1.154644
      6          6           0       -1.288189    0.954880   -0.360728
      7          1           0        0.362220   -1.090035    1.548404
      8          1           0       -2.324770    1.283942   -0.179885
      9          1           0       -0.346163    1.705540    1.411808
     10          1           0        1.491492    0.198606   -0.962613
     11          6           0       -0.626749    2.083453   -1.173794
     12          1           0       -1.025221    2.047786   -2.196470
     13          1           0        0.457354    1.966358   -1.233433
     14          8           0       -0.846008    3.342868   -0.548425
     15          1           0       -1.747659    3.629984   -0.759800
     16          8           0        2.113477   -1.593684   -0.294783
     17          1           0        1.659502   -2.444430   -0.137689
     18          8           0        1.727413    0.481457    1.610767
     19          1           0        1.669929    0.352801    2.568970
     20          8           0       -1.577095    0.099343    1.925398
     21          1           0       -2.238378    0.764597    2.176048
     22          1           0        0.051229   -1.334970   -2.246955
     23          8           0       -0.429902   -2.467928   -0.609525
     24          1           0       -1.744545   -2.385398   -0.037266
     25          8           0       -2.639947   -1.837996    0.183211
     26          1           0       -2.457761   -1.416724    1.055850
     27          1           0       -2.244794   -1.003930   -0.526631
     28          8           0        3.907187    0.673004   -0.378719
     29          1           0        3.404796    0.814030    0.441782
     30          1           0        3.788959   -0.282723   -0.507529
 ---------------------------------------------------------------------
                    Distance matrix (angstroms):
                    1          2          3          4          5
     1  O    0.000000
     2  C    2.470450   0.000000
     3  C    2.593689   2.601725   0.000000
     4  C    2.925569   1.550475   1.537543   0.000000
     5  C    1.710498   3.048256   1.538346   2.540628   0.000000
     6  C    1.432990   1.536815   2.843076   2.601694   2.715559
     7  H    3.306507   2.142034   2.124715   1.096532   2.749977
     8  H    2.029399   2.140692   3.904419   3.492724   3.591751
     9  H    3.371699   1.095285   3.283883   2.159772   3.993354
    10  H    2.926146   2.950468   1.091288   2.174956   2.206518
    11  C    2.459954   2.572175   3.295910   3.373455   3.469420
    12  H    2.565005   3.491274   3.846869   4.225345   3.670992
    13  H    2.892844   2.787768   2.799680   3.097724   3.352061
    14  O    3.682789   3.052544   4.418347   4.116059   4.786193
    15  H    3.915889   3.577490   5.124231   4.816905   5.260173
    16  O    3.846549   3.828339   1.422003   2.426508   2.366102
    17  H    3.886756   4.080910   1.920389   2.736411   2.294135
    18  O    4.215522   2.450336   2.397637   1.428831   3.771782
    19  H    4.837610   2.807329   3.191321   1.965612   4.448305
    20  O    3.075512   1.454288   3.600056   2.403462   3.716998
    21  H    3.555244   1.980942   4.421298   3.234926   4.495020
    22  H    2.126655   3.917741   2.216621   3.487761   1.099769
    23  O    2.470422   3.589547   2.373440   2.985251   1.299933
    24  H    2.419003   3.467333   3.330768   3.394732   2.262700
    25  O    2.402531   3.359577   3.940389   3.747132   2.933847
    26  H    2.690251   2.814287   3.893838   3.318492   3.250010
    27  H    1.281963   2.820515   3.334064   3.347396   2.282642
    28  O    5.433914   4.751500   3.128180   3.662172   4.531173
    29  H    5.160446   4.081625   2.878996   3.007089   4.394996
    30  H    5.220698   4.786393   2.747104   3.507405   4.059815
                    6          7          8          9         10
     6  C    0.000000
     7  H    3.248124   0.000000
     8  H    1.102491   3.980285   0.000000
     9  H    2.143079   2.887162   2.574125   0.000000
    10  H    2.942931   3.039911   4.044066   3.359420   0.000000
    11  C    1.540213   4.296446   2.123758   2.628095   2.843271
    12  H    2.152567   5.078877   2.517717   3.687536   3.357933
    13  H    2.198095   4.133909   3.052191   2.776863   2.065849
    14  O    2.435824   5.050459   2.561588   2.602537   3.939777
    15  H    2.743456   5.661976   2.484607   3.222353   4.723091
    16  O    4.250983   2.591892   5.290744   4.455015   2.011260
    17  H    4.504879   2.521951   5.456827   4.862703   2.773872
    18  O    3.633838   2.082601   4.502289   2.416129   2.599605
    19  H    4.206672   2.198507   4.937697   2.689527   3.539448
    20  O    2.458004   2.306011   2.528737   2.087783   4.215055
    21  H    2.715566   3.255258   2.414043   2.247201   4.907491
    22  H    3.255043   3.815948   4.095955   4.773800   2.464903
    23  O    3.537537   2.680057   4.225121   4.637956   3.305576
    24  H    3.386790   2.937818   3.717668   4.559722   4.243263
    25  O    3.150123   3.381746   3.158745   4.396310   4.746520
    26  H    2.999850   2.881255   2.972932   3.786038   4.720178
    27  H    2.186219   3.333123   2.315381   3.834524   3.949178
    28  O    5.203048   4.403283   6.264987   4.728964   2.530132
    29  H    4.763189   3.755975   5.782319   3.975605   2.451898
    30  H    5.227872   4.076905   6.319768   4.973558   2.391053
                   11         12         13         14         15
    11  C    0.000000
    12  H    1.098143   0.000000
    13  H    1.092038   1.769774   0.000000
    14  O    1.423126   2.103665   2.015631   0.000000
    15  H    1.954377   2.255945   2.802510   0.969582   0.000000
    16  O    4.669351   5.169927   4.037042   5.761287   6.512397
    17  H    5.177082   5.623728   4.701156   6.319739   6.992444
    18  O    3.982744   4.952316   3.450718   4.412740   5.254421
    19  H    4.719975   5.731163   4.304901   4.998859   5.787966
    20  O    3.800637   4.592471   4.195586   4.144242   4.439010
    21  H    3.944385   4.715638   4.509519   4.001116   4.131640
    22  H    3.646498   3.550258   3.477202   5.056897   5.486201
    23  O    4.590448   4.823326   4.565017   5.825996   6.240480
    24  H    4.744659   4.983243   5.021649   5.820798   6.058621
    25  O    4.612179   4.834203   5.106198   5.531262   5.619987
    26  H    4.535985   4.963123   5.018362   5.274956   5.410184
    27  H    3.545254   3.686284   4.077227   4.566369   4.666334
    28  O    4.814363   5.433497   3.782149   5.454341   6.392671
    29  H    4.524917   5.301658   3.580729   5.044290   5.993429
    30  H    5.053828   5.608932   4.084715   5.884684   6.784324
                   16         17         18         19         20
    16  O    0.000000
    17  H    0.977006   0.000000
    18  O    2.843655   3.409182   0.000000
    19  H    3.490934   3.892379   0.968509   0.000000
    20  O    4.627728   4.604636   3.341374   3.319878   0.000000
    21  H    5.532191   5.553801   4.015870   3.949535   0.970919
    22  H    2.851451   2.875143   4.581596   5.353680   4.702895
    23  O    2.707793   2.142146   4.275813   4.740109   3.785864
    24  H    3.946829   3.406040   4.794722   5.094000   3.170809
    25  O    4.783639   4.353849   5.147000   5.391333   2.813921
    26  H    4.769879   4.408239   4.628899   4.739048   1.957076
    27  H    4.404099   4.179694   4.749029   5.171897   2.770466
    28  O    2.891767   3.850789   2.957391   3.714394   5.976236
    29  H    2.829685   3.741577   2.071411   2.783420   5.247012
    30  H    2.138018   3.056852   3.053051   3.789330   5.904206
                   21         22         23         24         25
    21  H    0.000000
    22  H    5.404946   0.000000
    23  O    4.634568   2.048477   0.000000
    24  H    3.881378   3.034951   1.436168   0.000000
    25  O    3.302446   3.660761   2.430955   1.072382   0.000000
    26  H    2.461937   4.148522   2.826785   1.625395   0.985982
    27  H    3.229892   2.888048   2.333237   1.548606   1.164340
    28  O    6.656064   4.731879   5.359950   6.435253   7.034618
    29  H    5.903858   4.805613   5.155716   6.081245   6.605984
    30  H    6.680363   4.254815   4.752295   5.938186   6.650325
                   26         27         28         29         30
    26  H    0.000000
    27  H    1.649242   0.000000
    28  O    6.851096   6.378155   0.000000
    29  H    6.302612   6.013374   0.972372   0.000000
    30  H    6.538473   6.076733   0.971588   1.500546   0.000000
 Symmetry turned off by external request.
 Stoichiometry    C6H16O8
 Framework group  C1[X(C6H16O8)]
 Deg. of freedom    84
 Full point group                 C1      NOp   1
 Rotational constants (GHZ):      0.6727007      0.5625577      0.4226286
 Standard basis: 6-31G(d) (6D, 7F)
   242 basis functions,   456 primitive gaussians,   242 cartesian basis functions
    58 alpha electrons       58 beta electrons
       nuclear repulsion energy      1124.0910741006 Hartrees.
 NAtoms=   30 NActive=   30 NUniq=   30 SFac= 1.00D+00 NAtFMM=   60 NAOKFM=F Big=F
 Integral buffers will be    131072 words long.
 Raffenetti 2 integral format.
 Two-electron integral symmetry is turned off.
 One-electron integrals computed using PRISM.
 NBasis=   242 RedAO= T EigKep=  1.51D-03  NBF=   242
 NBsUse=   242 1.00D-06 EigRej= -1.00D+00 NBFU=   242
 ExpMin= 1.61D-01 ExpMax= 5.48D+03 ExpMxC= 8.25D+02 IAcc=1 IRadAn=         1 AccDes= 0.00D+00
 Harris functional with IExCor=  402 and IRadAn=       1 diagonalized for initial guess.
 HarFok:  IExCor=  402 AccDes= 0.00D+00 IRadAn=         1 IDoV= 1 UseB2=F ITyADJ=14
 ICtDFT=  3500011 ScaDFX=  1.000000  1.000000  1.000000  1.000000
 FoFCou: FMM=F IPFlag=           0 FMFlag=      100000 FMFlg1=           0
         NFxFlg=           0 DoJE=T BraDBF=F KetDBF=T FulRan=T
         wScrn=  0.000000 ICntrl=     500 IOpCl=  0 I1Cent=   200000004 NGrid=           0
         NMat0=    1 NMatS0=      1 NMatT0=    0 NMatD0=    1 NMtDS0=    0 NMtDT0=    0
 Symmetry not used in FoFCou.
 Requested convergence on RMS density matrix=1.00D-08 within 128 cycles.
 Requested convergence on MAX density matrix=1.00D-06.
 Requested convergence on             energy=1.00D-06.
 No special actions if energy rises.
 Integral accuracy reduced to 1.0D-05 until final iterations.
 Initial convergence to 1.0D-05 achieved.  Increase integral accuracy.
 SCF Done:  E(RB3LYP) =  -839.940690893     A.U. after   14 cycles
            NFock= 14  Conv=0.99D-08     -V/T= 2.0086
 DoSCS=F DFT=T ScalE2(SS,OS)=  1.000000  1.000000
 Range of M.O.s used for correlation:     1   242
 NBasis=   242 NAE=    58 NBE=    58 NFC=     0 NFV=     0
 NROrb=    242 NOA=    58 NOB=    58 NVA=   184 NVB=   184
 Symmetrizing basis deriv contribution to polar:
 IMax=3 JMax=2 DiffMx= 0.00D+00
 G2DrvN: will do    31 centers at a time, making    1 passes.
 Calling FoFCou, ICntrl=  3107 FMM=F I1Cent=   0 AccDes= 0.00D+00.
 End of G2Drv F.D. properties file   721 does not exist.
 End of G2Drv F.D. properties file   722 does not exist.
 End of G2Drv F.D. properties file   788 does not exist.
          IDoAtm=111111111111111111111111111111
          Differentiating once with respect to nuclear coordinates.
          There are    93 degrees of freedom in the 1st order CPHF.  IDoFFX=6 NUNeed=     0.
     87 vectors produced by pass  0 Test12= 1.15D-14 1.08D-09 XBig12= 1.24D-01 6.48D-02.
 AX will form    87 AO Fock derivatives at one time.
     87 vectors produced by pass  1 Test12= 1.15D-14 1.08D-09 XBig12= 1.31D-02 1.38D-02.
     87 vectors produced by pass  2 Test12= 1.15D-14 1.08D-09 XBig12= 9.04D-05 1.32D-03.
     87 vectors produced by pass  3 Test12= 1.15D-14 1.08D-09 XBig12= 2.25D-07 5.68D-05.
     87 vectors produced by pass  4 Test12= 1.15D-14 1.08D-09 XBig12= 3.10D-10 1.80D-06.
     72 vectors produced by pass  5 Test12= 1.15D-14 1.08D-09 XBig12= 2.52D-13 6.36D-08.
      3 vectors produced by pass  6 Test12= 1.15D-14 1.08D-09 XBig12= 2.26D-16 1.98D-09.
 InvSVY:  IOpt=1 It=  1 EMax= 9.99D-16
 Solved reduced A of dimension   510 with    93 vectors.
 End of Minotr F.D. properties file   721 does not exist.
 End of Minotr F.D. properties file   722 does not exist.
 End of Minotr F.D. properties file   788 does not exist.

 **********************************************************************

            Population analysis using the SCF density.

 **********************************************************************

 Alpha  occ. eigenvalues --  -19.19677 -19.19675 -19.18160 -19.16998 -19.16985
 Alpha  occ. eigenvalues --  -19.14975 -19.10656 -19.09354 -10.28745 -10.26659
 Alpha  occ. eigenvalues --  -10.26515 -10.25548 -10.25176 -10.23942  -1.08349
 Alpha  occ. eigenvalues --   -1.05985  -1.04569  -1.04242  -1.03019  -1.02018
 Alpha  occ. eigenvalues --   -0.98156  -0.95353  -0.79814  -0.75782  -0.70645
 Alpha  occ. eigenvalues --   -0.64926  -0.63569  -0.58963  -0.56750  -0.55224
 Alpha  occ. eigenvalues --   -0.54789  -0.53915  -0.51391  -0.50644  -0.49537
 Alpha  occ. eigenvalues --   -0.48086  -0.46614  -0.46413  -0.45432  -0.44366
 Alpha  occ. eigenvalues --   -0.43774  -0.41323  -0.41086  -0.39494  -0.38160
 Alpha  occ. eigenvalues --   -0.37763  -0.36992  -0.35642  -0.33991  -0.32809
 Alpha  occ. eigenvalues --   -0.32525  -0.31926  -0.29402  -0.28517  -0.27960
 Alpha  occ. eigenvalues --   -0.27138  -0.25188  -0.23669
 Alpha virt. eigenvalues --    0.02829   0.03396   0.04863   0.05436   0.08270
 Alpha virt. eigenvalues --    0.09710   0.10188   0.11586   0.12285   0.12644
 Alpha virt. eigenvalues --    0.14609   0.15442   0.16919   0.18089   0.18354
 Alpha virt. eigenvalues --    0.19706   0.20860   0.21687   0.22478   0.22955
 Alpha virt. eigenvalues --    0.23851   0.25328   0.25686   0.27292   0.28993
 Alpha virt. eigenvalues --    0.30063   0.33542   0.36025   0.50609   0.51927
 Alpha virt. eigenvalues --    0.52572   0.54121   0.54999   0.58329   0.59428
 Alpha virt. eigenvalues --    0.60427   0.61315   0.62841   0.64108   0.65135
 Alpha virt. eigenvalues --    0.66377   0.68088   0.69372   0.69395   0.71048
 Alpha virt. eigenvalues --    0.74152   0.76288   0.79163   0.80136   0.80528
 Alpha virt. eigenvalues --    0.81058   0.82111   0.83178   0.83906   0.84350
 Alpha virt. eigenvalues --    0.85828   0.86431   0.87539   0.87771   0.89469
 Alpha virt. eigenvalues --    0.90692   0.92399   0.93524   0.95016   0.95588
 Alpha virt. eigenvalues --    0.96255   0.97758   0.98497   1.01403   1.01973
 Alpha virt. eigenvalues --    1.03009   1.03798   1.04236   1.05215   1.08324
 Alpha virt. eigenvalues --    1.09323   1.12631   1.13969   1.15387   1.17161
 Alpha virt. eigenvalues --    1.18609   1.19790   1.22204   1.22711   1.25293
 Alpha virt. eigenvalues --    1.26165   1.30634   1.31926   1.33941   1.34552
 Alpha virt. eigenvalues --    1.38144   1.41611   1.43523   1.46649   1.47704
 Alpha virt. eigenvalues --    1.49308   1.50544   1.54579   1.57657   1.60289
 Alpha virt. eigenvalues --    1.61978   1.63419   1.64555   1.67199   1.67841
 Alpha virt. eigenvalues --    1.68899   1.70207   1.72287   1.72846   1.74375
 Alpha virt. eigenvalues --    1.75256   1.76604   1.77897   1.78659   1.78963
 Alpha virt. eigenvalues --    1.79944   1.80686   1.81807   1.84856   1.85698
 Alpha virt. eigenvalues --    1.87477   1.89226   1.90159   1.91890   1.92504
 Alpha virt. eigenvalues --    1.92819   1.97727   1.99581   2.00502   2.03697
 Alpha virt. eigenvalues --    2.04153   2.07955   2.09927   2.12032   2.13987
 Alpha virt. eigenvalues --    2.18158   2.18803   2.23541   2.25716   2.27363
 Alpha virt. eigenvalues --    2.29724   2.30973   2.34886   2.36997   2.38846
 Alpha virt. eigenvalues --    2.40668   2.42704   2.44514   2.46293   2.48129
 Alpha virt. eigenvalues --    2.51698   2.52590   2.53370   2.55422   2.57868
 Alpha virt. eigenvalues --    2.62277   2.63458   2.64501   2.67375   2.69359
 Alpha virt. eigenvalues --    2.71812   2.78155   2.80600   2.83741   2.87030
 Alpha virt. eigenvalues --    2.92143   2.93561   2.97355   3.00324   3.05180
 Alpha virt. eigenvalues --    3.69846   3.72123   3.79739   3.83444   3.87922
 Alpha virt. eigenvalues --    3.88870   3.96924   4.07941   4.30328   4.32769
 Alpha virt. eigenvalues --    4.46813   4.54845   4.66219   4.76641
          Condensed to atoms (all electrons):
               1          2          3          4          5          6
     1  O    8.585149  -0.038339  -0.017847  -0.006506   0.075549   0.141751
     2  C   -0.038339   5.166886  -0.036952   0.257442  -0.003187   0.278141
     3  C   -0.017847  -0.036952   5.169535   0.268089   0.242792  -0.001375
     4  C   -0.006506   0.257442   0.268089   5.032264  -0.020148  -0.031366
     5  C    0.075549  -0.003187   0.242792  -0.020148   4.772276  -0.009235
     6  C    0.141751   0.278141  -0.001375  -0.031366  -0.009235   5.067169
     7  H    0.000321  -0.051570  -0.037929   0.340890  -0.007562   0.002631
     8  H   -0.034341  -0.051477   0.000077   0.004062   0.002509   0.350514
     9  H    0.003330   0.346816   0.001031  -0.034882   0.000191  -0.044711
    10  H    0.000783  -0.001937   0.333468  -0.052305  -0.024211  -0.001029
    11  C   -0.031056  -0.040621  -0.004311  -0.002152  -0.001735   0.300935
    12  H    0.006626   0.005522   0.000033  -0.000082   0.000124  -0.041011
    13  H    0.002014  -0.008306  -0.000605   0.001705   0.000684  -0.045142
    14  O    0.001443  -0.002480   0.000051   0.000229   0.000019  -0.045513
    15  H   -0.000018  -0.000494   0.000000  -0.000011  -0.000001  -0.003582
    16  O    0.000708   0.003917   0.238132  -0.042653  -0.026056  -0.000085
    17  H    0.000542  -0.000064  -0.040995  -0.003064  -0.012791  -0.000054
    18  O    0.000009  -0.046636  -0.046366   0.226365   0.001983   0.003051
    19  H    0.000002   0.000342   0.006335  -0.022264  -0.000116   0.000011
    20  O    0.000283   0.167724   0.001534  -0.032966   0.000478  -0.033677
    21  H   -0.000111  -0.017268  -0.000227   0.005652   0.000010  -0.002257
    22  H   -0.037404  -0.000525  -0.083218   0.006807   0.370498   0.003062
    23  O   -0.043129   0.000669  -0.065504  -0.003840   0.323789   0.001299
    24  H    0.003009   0.000228   0.001923   0.000393  -0.018996  -0.000138
    25  O   -0.094723   0.001141  -0.001770  -0.000148   0.015746   0.008068
    26  H    0.006105  -0.005954  -0.000255  -0.000487   0.000389  -0.000078
    27  H    0.112162   0.000964   0.002461  -0.000139  -0.010173  -0.005146
    28  O    0.000000  -0.000056  -0.000994  -0.001773   0.000268   0.000018
    29  H    0.000001   0.000292   0.000746  -0.002873   0.000056  -0.000031
    30  H   -0.000001  -0.000004  -0.001239   0.000408   0.000286   0.000000
               7          8          9         10         11         12
     1  O    0.000321  -0.034341   0.003330   0.000783  -0.031056   0.006626
     2  C   -0.051570  -0.051477   0.346816  -0.001937  -0.040621   0.005522
     3  C   -0.037929   0.000077   0.001031   0.333468  -0.004311   0.000033
     4  C    0.340890   0.004062  -0.034882  -0.052305  -0.002152  -0.000082
     5  C   -0.007562   0.002509   0.000191  -0.024211  -0.001735   0.000124
     6  C    0.002631   0.350514  -0.044711  -0.001029   0.300935  -0.041011
     7  H    0.610613  -0.000340   0.004652   0.006367   0.000060   0.000006
     8  H   -0.000340   0.652704   0.000755  -0.000030  -0.045663  -0.005076
     9  H    0.004652   0.000755   0.564371   0.000199  -0.001825   0.000500
    10  H    0.006367  -0.000030   0.000199   0.585751  -0.000906   0.000250
    11  C    0.000060  -0.045663  -0.001825  -0.000906   4.971488   0.350585
    12  H    0.000006  -0.005076   0.000500   0.000250   0.350585   0.597432
    13  H   -0.000011   0.005751   0.000097   0.007361   0.380882  -0.034766
    14  O   -0.000003   0.003156   0.014051  -0.000001   0.228165  -0.024468
    15  H    0.000000   0.005716  -0.000346   0.000002  -0.026920  -0.009061
    16  O   -0.001896   0.000002  -0.000055  -0.043106   0.000051  -0.000003
    17  H    0.005232   0.000001   0.000003   0.007493   0.000000   0.000000
    18  O   -0.030659  -0.000081   0.004750  -0.001107   0.000231   0.000003
    19  H   -0.007518   0.000005   0.000624  -0.000059  -0.000011   0.000000
    20  O    0.000752  -0.001523  -0.029541  -0.000050   0.003081  -0.000076
    21  H    0.000111   0.005619  -0.005854   0.000007  -0.000200   0.000000
    22  H    0.000442  -0.000224   0.000004   0.000522   0.000575   0.000101
    23  O    0.014103  -0.000161  -0.000017   0.003349  -0.000004   0.000010
    24  H    0.000398  -0.000190  -0.000003  -0.000052  -0.000002   0.000000
    25  O    0.000360   0.002008  -0.000026  -0.000002  -0.000005   0.000001
    26  H    0.001101  -0.000493   0.000497   0.000001   0.000118   0.000000
    27  H   -0.000189  -0.006805  -0.000148  -0.000022   0.001404   0.000068
    28  O   -0.000050   0.000000  -0.000004   0.023230  -0.000054   0.000000
    29  H    0.000296   0.000000   0.000046  -0.001736   0.000003  -0.000001
    30  H   -0.000029   0.000000   0.000000  -0.005111   0.000005   0.000000
              13         14         15         16         17         18
     1  O    0.002014   0.001443  -0.000018   0.000708   0.000542   0.000009
     2  C   -0.008306  -0.002480  -0.000494   0.003917  -0.000064  -0.046636
     3  C   -0.000605   0.000051   0.000000   0.238132  -0.040995  -0.046366
     4  C    0.001705   0.000229  -0.000011  -0.042653  -0.003064   0.226365
     5  C    0.000684   0.000019  -0.000001  -0.026056  -0.012791   0.001983
     6  C   -0.045142  -0.045513  -0.003582  -0.000085  -0.000054   0.003051
     7  H   -0.000011  -0.000003   0.000000  -0.001896   0.005232  -0.030659
     8  H    0.005751   0.003156   0.005716   0.000002   0.000001  -0.000081
     9  H    0.000097   0.014051  -0.000346  -0.000055   0.000003   0.004750
    10  H    0.007361  -0.000001   0.000002  -0.043106   0.007493  -0.001107
    11  C    0.380882   0.228165  -0.026920   0.000051   0.000000   0.000231
    12  H   -0.034766  -0.024468  -0.009061  -0.000003   0.000000   0.000003
    13  H    0.529151  -0.034142   0.006780   0.000010   0.000004   0.000179
    14  O   -0.034142   8.233678   0.233840   0.000000   0.000000  -0.000011
    15  H    0.006780   0.233840   0.399172   0.000000   0.000000   0.000000
    16  O    0.000010   0.000000   0.000000   8.286520   0.226091   0.002427
    17  H    0.000004   0.000000   0.000000   0.226091   0.369415  -0.000058
    18  O    0.000179  -0.000011   0.000000   0.002427  -0.000058   8.258482
    19  H   -0.000001  -0.000001   0.000000  -0.000393   0.000060   0.235575
    20  O    0.000016  -0.000051  -0.000010  -0.000013  -0.000003   0.001227
    21  H    0.000018   0.000068   0.000000   0.000001   0.000000  -0.000216
    22  H   -0.000151  -0.000001   0.000000   0.001744   0.001859  -0.000036
    23  O    0.000006   0.000000   0.000000  -0.014639   0.038487   0.000052
    24  H   -0.000001   0.000000   0.000000   0.000065  -0.000152   0.000005
    25  O    0.000003   0.000000   0.000000   0.000000   0.000058   0.000000
    26  H   -0.000001  -0.000001   0.000000  -0.000001  -0.000013   0.000003
    27  H   -0.000079  -0.000021  -0.000006  -0.000026  -0.000055   0.000001
    28  O    0.000065   0.000000   0.000000  -0.007237   0.000204  -0.007469
    29  H    0.000127   0.000000   0.000000   0.001220   0.000018   0.032224
    30  H   -0.000017   0.000000   0.000000   0.024027  -0.000351   0.000646
              19         20         21         22         23         24
     1  O    0.000002   0.000283  -0.000111  -0.037404  -0.043129   0.003009
     2  C    0.000342   0.167724  -0.017268  -0.000525   0.000669   0.000228
     3  C    0.006335   0.001534  -0.000227  -0.083218  -0.065504   0.001923
     4  C   -0.022264  -0.032966   0.005652   0.006807  -0.003840   0.000393
     5  C   -0.000116   0.000478   0.000010   0.370498   0.323789  -0.018996
     6  C    0.000011  -0.033677  -0.002257   0.003062   0.001299  -0.000138
     7  H   -0.007518   0.000752   0.000111   0.000442   0.014103   0.000398
     8  H    0.000005  -0.001523   0.005619  -0.000224  -0.000161  -0.000190
     9  H    0.000624  -0.029541  -0.005854   0.000004  -0.000017  -0.000003
    10  H   -0.000059  -0.000050   0.000007   0.000522   0.003349  -0.000052
    11  C   -0.000011   0.003081  -0.000200   0.000575  -0.000004  -0.000002
    12  H    0.000000  -0.000076   0.000000   0.000101   0.000010   0.000000
    13  H   -0.000001   0.000016   0.000018  -0.000151   0.000006  -0.000001
    14  O   -0.000001  -0.000051   0.000068  -0.000001   0.000000   0.000000
    15  H    0.000000  -0.000010   0.000000   0.000000   0.000000   0.000000
    16  O   -0.000393  -0.000013   0.000001   0.001744  -0.014639   0.000065
    17  H    0.000060  -0.000003   0.000000   0.001859   0.038487  -0.000152
    18  O    0.235575   0.001227  -0.000216  -0.000036   0.000052   0.000005
    19  H    0.381555   0.000482  -0.000065   0.000006   0.000015  -0.000002
    20  O    0.000482   8.313226   0.227905   0.000003  -0.000239   0.000184
    21  H   -0.000065   0.227905   0.382380  -0.000001   0.000000  -0.000030
    22  H    0.000006   0.000003  -0.000001   0.645551  -0.049530   0.002012
    23  O    0.000015  -0.000239   0.000000  -0.049530   8.406928   0.117134
    24  H   -0.000002   0.000184  -0.000030   0.002012   0.117134   0.290048
    25  O    0.000000  -0.016827   0.000988  -0.000361  -0.079046   0.158559
    26  H    0.000002   0.054316  -0.002883   0.000060   0.003869  -0.003622
    27  H   -0.000001   0.001687  -0.000117   0.000433   0.010938  -0.016383
    28  O    0.000407   0.000000   0.000000  -0.000004  -0.000001   0.000000
    29  H   -0.001318  -0.000001   0.000000  -0.000004   0.000000   0.000000
    30  H   -0.000004   0.000000   0.000000  -0.000012   0.000004   0.000000
              25         26         27         28         29         30
     1  O   -0.094723   0.006105   0.112162   0.000000   0.000001  -0.000001
     2  C    0.001141  -0.005954   0.000964  -0.000056   0.000292  -0.000004
     3  C   -0.001770  -0.000255   0.002461  -0.000994   0.000746  -0.001239
     4  C   -0.000148  -0.000487  -0.000139  -0.001773  -0.002873   0.000408
     5  C    0.015746   0.000389  -0.010173   0.000268   0.000056   0.000286
     6  C    0.008068  -0.000078  -0.005146   0.000018  -0.000031   0.000000
     7  H    0.000360   0.001101  -0.000189  -0.000050   0.000296  -0.000029
     8  H    0.002008  -0.000493  -0.006805   0.000000   0.000000   0.000000
     9  H   -0.000026   0.000497  -0.000148  -0.000004   0.000046   0.000000
    10  H   -0.000002   0.000001  -0.000022   0.023230  -0.001736  -0.005111
    11  C   -0.000005   0.000118   0.001404  -0.000054   0.000003   0.000005
    12  H    0.000001   0.000000   0.000068   0.000000  -0.000001   0.000000
    13  H    0.000003  -0.000001  -0.000079   0.000065   0.000127  -0.000017
    14  O    0.000000  -0.000001  -0.000021   0.000000   0.000000   0.000000
    15  H    0.000000   0.000000  -0.000006   0.000000   0.000000   0.000000
    16  O    0.000000  -0.000001  -0.000026  -0.007237   0.001220   0.024027
    17  H    0.000058  -0.000013  -0.000055   0.000204   0.000018  -0.000351
    18  O    0.000000   0.000003   0.000001  -0.007469   0.032224   0.000646
    19  H    0.000000   0.000002  -0.000001   0.000407  -0.001318  -0.000004
    20  O   -0.016827   0.054316   0.001687   0.000000  -0.000001   0.000000
    21  H    0.000988  -0.002883  -0.000117   0.000000   0.000000   0.000000
    22  H   -0.000361   0.000060   0.000433  -0.000004  -0.000004  -0.000012
    23  O   -0.079046   0.003869   0.010938  -0.000001   0.000000   0.000004
    24  H    0.158559  -0.003622  -0.016383   0.000000   0.000000   0.000000
    25  O    8.458329   0.212443   0.143897   0.000000   0.000000   0.000000
    26  H    0.212443   0.313732  -0.012523   0.000000   0.000000   0.000000
    27  H    0.143897  -0.012523   0.305987   0.000000   0.000000   0.000000
    28  O    0.000000   0.000000   0.000000   8.343481   0.240344   0.244415
    29  H    0.000000   0.000000   0.000000   0.240344   0.354548  -0.028923
    30  H    0.000000   0.000000   0.000000   0.244415  -0.028923   0.359788
 Mulliken charges:
               1
     1  O   -0.636310
     2  C    0.075787
     3  C    0.073378
     4  C    0.113353
     5  C    0.326565
     6  C    0.107779
     7  H    0.149421
     8  H    0.113526
     9  H    0.175495
    10  H    0.162880
    11  C   -0.082117
    12  H    0.153282
    13  H    0.188372
    14  O   -0.608007
    15  H    0.394940
    16  O   -0.648752
    17  H    0.408134
    18  O   -0.634573
    19  H    0.406333
    20  O   -0.657918
    21  H    0.406472
    22  H    0.137792
    23  O   -0.664543
    24  H    0.465612
    25  O   -0.808693
    26  H    0.433677
    27  H    0.471830
    28  O   -0.834792
    29  H    0.404966
    30  H    0.406112
 Sum of Mulliken charges =   0.00000
 Mulliken charges with hydrogens summed into heavy atoms:
               1
     1  O   -0.636310
     2  C    0.251281
     3  C    0.236258
     4  C    0.262774
     5  C    0.464356
     6  C    0.221305
    11  C    0.259537
    14  O   -0.213067
    16  O   -0.240618
    18  O   -0.228240
    20  O   -0.251447
    23  O   -0.664543
    25  O    0.562426
    28  O   -0.023713
 APT charges:
               1
     1  O   -0.427065
     2  C   -0.191359
     3  C   -0.122036
     4  C   -0.219936
     5  C   -0.354593
     6  C   -0.353363
     7  H    0.354647
     8  H    0.449766
     9  H    0.421357
    10  H    0.306169
    11  C   -0.568454
    12  H    0.492015
    13  H    0.264925
    14  O   -0.930929
    15  H    0.825818
    16  O   -0.771590
    17  H    0.584160
    18  O   -0.947130
    19  H    0.771530
    20  O   -0.990075
    21  H    0.789669
    22  H    0.486219
    23  O   -0.462431
    24  H    0.361082
    25  O   -0.562304
    26  H    0.398220
    27  H    0.340422
    28  O   -0.556352
    29  H    0.234105
    30  H    0.377514
 Sum of APT charges =   0.00000
 APT charges with hydrogens summed into heavy atoms:
               1
     1  O   -0.427065
     2  C    0.229999
     3  C    0.184133
     4  C    0.134711
     5  C    0.131626
     6  C    0.096402
    11  C    0.188485
    14  O   -0.105111
    16  O   -0.187431
    18  O   -0.175600
    20  O   -0.200406
    23  O   -0.462431
    25  O    0.537420
    28  O    0.055267
 Electronic spatial extent (au):  <R**2>=           2979.5774
 Charge=              0.0000 electrons
 Dipole moment (field-independent basis, Debye):
    X=             -5.9678    Y=              1.8638    Z=              3.2728  Tot=              7.0569
 Quadrupole moment (field-independent basis, Debye-Ang):
   XX=            -96.2224   YY=            -89.5268   ZZ=            -74.6689
   XY=            -16.5168   XZ=              2.1458   YZ=             -1.8056
 Traceless Quadrupole moment (field-independent basis, Debye-Ang):
   XX=             -9.4164   YY=             -2.7207   ZZ=             12.1371
   XY=            -16.5168   XZ=              2.1458   YZ=             -1.8056
 Octapole moment (field-independent basis, Debye-Ang**2):
  XXX=            -89.1258  YYY=              2.3067  ZZZ=             26.6270  XYY=            -16.2808
  XXY=              4.6167  XXZ=             30.1421  XZZ=              2.3085  YZZ=              7.3207
  YYZ=              6.4880  XYZ=              8.3606
 Hexadecapole moment (field-independent basis, Debye-Ang**3):
 XXXX=          -1912.4553 YYYY=          -1313.1777 ZZZZ=           -536.8391 XXXY=           -180.1788
 XXXZ=             25.7175 YYYX=           -105.1788 YYYZ=            -39.1902 ZZZX=             17.2210
 ZZZY=             15.7956 XXYY=           -440.1339 XXZZ=           -320.6014 YYZZ=           -293.4185
 XXYZ=             16.3860 YYXZ=             16.6292 ZZXY=            -13.6975
 N-N= 1.124091074101D+03 E-N=-4.219950510955D+03  KE= 8.328069967398D+02
  Exact polarizability:   0.000   0.000   0.000   0.000   0.000   0.000
 Approx polarizability: 138.150  -2.347 145.155  -6.661  -1.360 122.805
 Calling FoFJK, ICntrl=    100147 FMM=F ISym2X=0 I1Cent= 0 IOpClX= 0 NMat=1 NMatS=1 NMatT=0.
 -------------------------------------------------------------------
 Center     Atomic                   Forces (Hartrees/Bohr)
 Number     Number              X              Y              Z
 -------------------------------------------------------------------
      1        8          -0.000003155    0.000001629    0.000004277
      2        6           0.000005160    0.000000578    0.000001275
      3        6          -0.000000909   -0.000001602   -0.000000695
      4        6           0.000004576   -0.000003863    0.000003546
      5        6          -0.000005883   -0.000000732    0.000000744
      6        6           0.000001124    0.000001238    0.000002538
      7        1           0.000004668    0.000005975   -0.000002228
      8        1           0.000000389    0.000001177    0.000002335
      9        1           0.000002988    0.000002344    0.000000222
     10        1          -0.000001252   -0.000000623   -0.000002113
     11        6          -0.000001092    0.000000746    0.000000439
     12        1          -0.000001676   -0.000000132    0.000000917
     13        1          -0.000000902   -0.000000241   -0.000001098
     14        8           0.000007540   -0.000002390    0.000000246
     15        1          -0.000003947    0.000001446    0.000000739
     16        8          -0.000003082   -0.000003337   -0.000006488
     17        1          -0.000001158   -0.000001078   -0.000001289
     18        8          -0.000002202   -0.000005304   -0.000000673
     19        1           0.000004164    0.000000907   -0.000014201
     20        8           0.000002179    0.000005944    0.000006880
     21        1           0.000005010   -0.000000773    0.000002052
     22        1          -0.000003378   -0.000000609    0.000001039
     23        8          -0.000004707    0.000000737    0.000002917
     24        1          -0.000000732    0.000000690    0.000002736
     25        8          -0.000003785    0.000002876    0.000009386
     26        1           0.000001168    0.000002670    0.000005018
     27        1          -0.000001528    0.000000843    0.000002936
     28        8           0.000000586   -0.000004923   -0.000018522
     29        1           0.000000916   -0.000004517   -0.000001945
     30        1          -0.000001080    0.000000325   -0.000000991
 -------------------------------------------------------------------
 Cartesian Forces:  Max     0.000018522 RMS     0.000003911
 IRC-IRC-IRC-IRC-IRC-IRC-IRC-IRC-IRC-IRC-IRC-IRC-IRC-IRC-IRC-IRC-IRC-IRC
          ******** Start new reaction path calculation ********
 Supplied step size of   0.1000 bohr.
    Integration on MW PES will use step size of   0.1152 sqrt(amu)*bohr.
 Point Number:   0          Path Number:   1
 Calculating another point on the path.
 IRC-IRC-IRC-IRC-IRC-IRC-IRC-IRC-IRC-IRC-IRC-IRC-IRC-IRC-IRC-IRC-IRC-IRC
                          Input orientation:                          
 ---------------------------------------------------------------------
 Center     Atomic      Atomic             Coordinates (Angstroms)
 Number     Number       Type             X           Y           Z
 ---------------------------------------------------------------------
      1          8           0       -1.404395   -0.239554   -1.121435
      2          6           0       -0.641681    0.740532    1.014218
      3          6           0        1.061289   -0.624382   -0.402305
      4          6           0        0.615314   -0.167093    0.996161
      5          6           0       -0.078483   -1.334364   -1.152886
      6          6           0       -1.294870    0.968818   -0.357997
      7          1           0        0.356310   -1.077230    1.550089
      8          1           0       -2.330733    1.298883   -0.176745
      9          1           0       -0.351648    1.718489    1.413184
     10          1           0        1.485817    0.211522   -0.960865
     11          6           0       -0.632514    2.096151   -1.172065
     12          1           0       -1.030810    2.060717   -2.194811
     13          1           0        0.451544    1.978927   -1.231329
     14          8           0       -0.851696    3.355506   -0.546547
     15          1           0       -1.753278    3.642918   -0.757942
     16          8           0        2.108030   -1.580690   -0.292785
     17          1           0        1.653862   -2.431352   -0.135703
     18          8           0        1.721669    0.494312    1.612690
     19          1           0        1.664294    0.365443    2.570884
     20          8           0       -1.582570    0.112422    1.927382
     21          1           0       -2.244140    0.777389    2.178031
     22          1           0        0.043428   -1.319995   -2.246212
     23          8           0       -0.432864   -2.454539   -0.609135
     24          1           0       -1.776358   -2.375482   -0.024205
     25          8           0       -2.647153   -1.824727    0.185584
     26          1           0       -2.464222   -1.405290    1.057891
     27          1           0       -2.220797   -0.966275   -0.544644
     28          8           0        3.901483    0.685854   -0.376804
     29          1           0        3.399237    0.826829    0.443789
     30          1           0        3.783338   -0.269895   -0.505565
 ---------------------------------------------------------------------
                    Distance matrix (angstroms):
                    1          2          3          4          5
     1  O    0.000000
     2  C    2.470489   0.000000
     3  C    2.597082   2.601852   0.000000
     4  C    2.927232   1.550531   1.537437   0.000000
     5  C    1.719779   3.052659   1.538352   2.542102   0.000000
     6  C    1.433526   1.536796   2.844597   2.602468   2.723250
     7  H    3.307389   2.141823   2.124596   1.096480   2.749771
     8  H    2.029121   2.140805   3.905847   3.493421   3.599927
     9  H    3.371425   1.095305   3.283510   2.159709   3.997406
    10  H    2.929604   2.950771   1.091307   2.175104   2.207639
    11  C    2.460464   2.572473   3.295876   3.373507   3.475018
    12  H    2.565726   3.491729   3.847039   4.225537   3.676834
    13  H    2.894519   2.787695   2.799337   3.097407   3.356334
    14  O    3.682449   3.052569   4.418125   4.115916   4.791700
    15  H    3.915028   3.577715   5.124268   4.816979   5.266333
    16  O    3.849991   3.828478   1.422036   2.426487   2.362475
    17  H    3.889547   4.080770   1.920250   2.736159   2.288900
    18  O    4.217378   2.450350   2.397453   1.428840   3.772667
    19  H    4.839018   2.807387   3.191116   1.965631   4.448942
    20  O    3.074235   1.453845   3.600043   2.403330   3.720688
    21  H    3.553284   1.980832   4.421420   3.235018   4.499398
    22  H    2.128066   3.917340   2.218087   3.488441   1.100195
    23  O    2.472343   3.589897   2.371654   2.984638   1.294621
    24  H    2.429909   3.474962   3.355823   3.411484   2.289242
    25  O    2.401150   3.359927   3.941951   3.748130   2.937690
    26  H    2.689170   2.815691   3.895024   3.319711   3.253355
    27  H    1.235850   2.799437   3.302914   3.325101   2.257202
    28  O    5.437205   4.751660   3.127951   3.662166   4.530311
    29  H    5.163524   4.081893   2.878869   3.007195   4.394845
    30  H    5.224250   4.786596   2.746976   3.507439   4.057805
                    6          7          8          9         10
     6  C    0.000000
     7  H    3.248615   0.000000
     8  H    1.102184   3.980964   0.000000
     9  H    2.142139   2.887212   2.573077   0.000000
    10  H    2.944344   3.039993   4.045152   3.359068   0.000000
    11  C    1.540227   4.296305   2.123734   2.627741   2.843195
    12  H    2.153104   5.078886   2.518488   3.687277   3.357909
    13  H    2.198406   4.133455   3.052158   2.776039   2.065573
    14  O    2.434797   5.050179   2.560078   2.602002   3.939576
    15  H    2.742428   5.661905   2.483092   3.222078   4.723070
    16  O    4.252525   2.591945   5.292261   4.454765   2.011344
    17  H    4.506172   2.521741   5.458327   4.862335   2.773791
    18  O    3.634318   2.082754   4.502374   2.416000   2.599766
    19  H    4.207024   2.198670   4.937714   2.689800   3.539604
    20  O    2.457467   2.305836   2.528792   2.087827   4.215067
    21  H    2.714627   3.255190   2.413385   2.247707   4.907694
    22  H    3.255005   3.816901   4.096078   4.772803   2.465390
    23  O    3.539137   2.679930   4.228125   4.637945   3.303473
    24  H    3.395230   2.951633   3.719080   4.566891   4.267518
    25  O    3.150880   3.382516   3.160434   4.396672   4.747852
    26  H    3.001418   2.881889   2.975684   3.787769   4.721469
    27  H    2.153314   3.322905   2.297472   3.812449   3.911449
    28  O    5.204085   4.403366   6.265489   4.728585   2.530131
    29  H    4.764206   3.756160   5.782772   3.975414   2.452107
    30  H    5.229185   4.077012   6.320685   4.973266   2.391164
                   11         12         13         14         15
    11  C    0.000000
    12  H    1.098137   0.000000
    13  H    1.091987   1.769847   0.000000
    14  O    1.423126   2.103648   2.015523   0.000000
    15  H    1.954507   2.256084   2.802535   0.969610   0.000000
    16  O    4.669355   5.170093   4.036791   5.761111   6.512461
    17  H    5.176856   5.623706   4.700694   6.319362   6.992320
    18  O    3.982829   4.952456   3.450470   4.412589   5.254415
    19  H    4.720205   5.731438   4.304755   4.998905   5.788154
    20  O    3.800573   4.592686   4.195106   4.143923   4.438977
    21  H    3.944568   4.716021   4.509339   4.001114   4.131845
    22  H    3.644275   3.547653   3.475548   5.054742   5.483941
    23  O    4.589720   4.822804   4.563433   5.825458   6.240562
    24  H    4.756202   4.994720   5.038012   5.828556   6.063006
    25  O    4.612511   4.834824   5.106598   5.531229   5.620000
    26  H    4.537394   4.964669   5.019476   5.276328   5.411755
    27  H    3.506387   3.647163   4.035735   4.533457   4.637751
    28  O    4.814407   5.433499   3.782107   5.454225   6.392638
    29  H    4.525171   5.301886   3.580816   5.044344   5.993573
    30  H    5.053924   5.609039   4.084702   5.884620   6.784388
                   16         17         18         19         20
    16  O    0.000000
    17  H    0.977021   0.000000
    18  O    2.843544   3.408956   0.000000
    19  H    3.490693   3.892015   0.968522   0.000000
    20  O    4.627775   4.604519   3.341088   3.319675   0.000000
    21  H    5.532346   5.553719   4.015891   3.949670   0.970918
    22  H    2.854193   2.877996   4.582502   5.354654   4.702613
    23  O    2.705519   2.139883   4.274838   4.739503   3.787483
    24  H    3.973953   3.432486   4.811583   5.107372   3.167951
    25  O    4.785411   4.355450   5.147929   5.392131   2.814203
    26  H    4.770805   4.408637   4.630115   4.740178   1.958768
    27  H    4.379461   4.162531   4.725509   5.154990   2.771612
    28  O    2.891497   3.850572   2.957426   3.714370   5.976031
    29  H    2.829470   3.741375   2.071505   2.783421   5.246887
    30  H    2.137783   3.056692   3.053113   3.789267   5.904098
                   21         22         23         24         25
    21  H    0.000000
    22  H    5.404250   0.000000
    23  O    4.636202   2.047941   0.000000
    24  H    3.874179   3.059900   1.467436   0.000000
    25  O    3.302010   3.661640   2.435429   1.051487   0.000000
    26  H    2.463176   4.148817   2.829543   1.607907   0.985044
    27  H    3.233244   2.854324   2.327185   1.566603   1.204970
    28  O    6.656144   4.733150   5.357482   6.460185   7.035903
    29  H    5.904045   4.806913   5.153738   6.104146   6.607287
    30  H    6.680493   4.256699   4.749712   5.964514   6.651797
                   26         27         28         29         30
    26  H    0.000000
    27  H    1.679318   0.000000
    28  O    6.852258   6.343502   0.000000
    29  H    6.303937   5.981388   0.972367   0.000000
    30  H    6.539536   6.044511   0.971593   1.500537   0.000000
 Symmetry turned off by external request.
 Stoichiometry    C6H16O8
 Framework group  C1[X(C6H16O8)]
 Deg. of freedom    84
 Full point group                 C1      NOp   1
 Rotational constants (GHZ):      0.6726212      0.5623922      0.4225221
 Standard basis: 6-31G(d) (6D, 7F)
   242 basis functions,   456 primitive gaussians,   242 cartesian basis functions
    58 alpha electrons       58 beta electrons
       nuclear repulsion energy      1124.0339510940 Hartrees.
 NAtoms=   30 NActive=   30 NUniq=   30 SFac= 1.00D+00 NAtFMM=   60 NAOKFM=F Big=F
 Integral buffers will be    131072 words long.
 Raffenetti 2 integral format.
 Two-electron integral symmetry is turned off.
 One-electron integrals computed using PRISM.
 NBasis=   242 RedAO= T EigKep=  1.51D-03  NBF=   242
 NBsUse=   242 1.00D-06 EigRej= -1.00D+00 NBFU=   242
 Initial guess from the checkpoint file:  "/home/iawad/Gau-15579.chk"
 B after Tr=    -0.010749    0.024473    0.003555
         Rot=    1.000000   -0.000009    0.000017    0.000034 Ang=   0.00 deg.
 ExpMin= 1.61D-01 ExpMax= 5.48D+03 ExpMxC= 8.25D+02 IAcc=1 IRadAn=         1 AccDes= 0.00D+00
 Harris functional with IExCor=  402 and IRadAn=       1 diagonalized for initial guess.
 HarFok:  IExCor=  402 AccDes= 0.00D+00 IRadAn=         1 IDoV= 1 UseB2=F ITyADJ=14
 ICtDFT=  3500011 ScaDFX=  1.000000  1.000000  1.000000  1.000000
 FoFCou: FMM=F IPFlag=           0 FMFlag=      100000 FMFlg1=           0
         NFxFlg=           0 DoJE=T BraDBF=F KetDBF=T FulRan=T
         wScrn=  0.000000 ICntrl=     500 IOpCl=  0 I1Cent=   200000004 NGrid=           0
         NMat0=    1 NMatS0=      1 NMatT0=    0 NMatD0=    1 NMtDS0=    0 NMtDT0=    0
 Symmetry not used in FoFCou.
 Requested convergence on RMS density matrix=1.00D-08 within 128 cycles.
 Requested convergence on MAX density matrix=1.00D-06.
 Requested convergence on             energy=1.00D-06.
 No special actions if energy rises.
 Integral accuracy reduced to 1.0D-05 until final iterations.
 Initial convergence to 1.0D-05 achieved.  Increase integral accuracy.
 SCF Done:  E(RB3LYP) =  -839.940931449     A.U. after   12 cycles
            NFock= 12  Conv=0.42D-08     -V/T= 2.0085
 DoSCS=F DFT=T ScalE2(SS,OS)=  1.000000  1.000000
 Range of M.O.s used for correlation:     1   242
 NBasis=   242 NAE=    58 NBE=    58 NFC=     0 NFV=     0
 NROrb=    242 NOA=    58 NOB=    58 NVA=   184 NVB=   184
 Symmetrizing basis deriv contribution to polar:
 IMax=3 JMax=2 DiffMx= 0.00D+00
 Calling FoFJK, ICntrl=      2147 FMM=F ISym2X=0 I1Cent= 0 IOpClX= 0 NMat=1 NMatS=1 NMatT=0.
 -------------------------------------------------------------------
 Center     Atomic                   Forces (Hartrees/Bohr)
 Number     Number              X              Y              Z
 -------------------------------------------------------------------
      1        8          -0.003621551    0.000860837    0.000943854
      2        6          -0.000113623   -0.000099835    0.000164021
      3        6           0.000144090    0.000098846    0.000068351
      4        6          -0.000000327   -0.000038341   -0.000030102
      5        6           0.003111170   -0.004217556   -0.000217531
      6        6          -0.000824835    0.000918404    0.000702198
      7        1          -0.000015346    0.000004661   -0.000018412
      8        1          -0.000017236    0.000133687    0.000085817
      9        1           0.000019095    0.000011365   -0.000042458
     10        1          -0.000002388    0.000002590   -0.000017325
     11        6          -0.000066612   -0.000125647   -0.000166406
     12        1           0.000005786    0.000006888   -0.000019064
     13        1          -0.000009441   -0.000019475    0.000011961
     14        8           0.000005702   -0.000242070   -0.000052979
     15        1           0.000000237    0.000008568   -0.000003910
     16        8           0.000268720    0.000152506    0.000077799
     17        1           0.000020403    0.000019161    0.000010639
     18        8          -0.000061383    0.000007871   -0.000003031
     19        1           0.000007840   -0.000012952   -0.000014627
     20        8           0.000263427    0.000283906    0.000078543
     21        1          -0.000000835   -0.000006045    0.000005685
     22        1          -0.000155219    0.000132095   -0.000051686
     23        8           0.002831170    0.000551272   -0.001602110
     24        1          -0.000947682   -0.000691589    0.000487101
     25        8          -0.002809450    0.000247552    0.001457393
     26        1          -0.000077249   -0.000127609   -0.000043748
     27        1           0.002045961    0.002144281   -0.001787127
     28        8          -0.000017430    0.000003427   -0.000029632
     29        1           0.000010829   -0.000006658    0.000004858
     30        1           0.000006174   -0.000000139    0.000001930
 -------------------------------------------------------------------
 Cartesian Forces:  Max     0.004217556 RMS     0.000939232
 IRC-IRC-IRC-IRC-IRC-IRC-IRC-IRC-IRC-IRC-IRC-IRC-IRC-IRC-IRC-IRC-IRC-IRC
 Pt  1 Step number   1 out of a maximum of  20
 Modified Bulirsch-Stoer Extrapolation Cycles:
    EPS =    0.000010000000000
 Maximum DWI energy   std dev =  0.000001425 at pt     5
 Maximum DWI gradient std dev =  0.149208543 at pt     2
 CORRECTOR INTEGRATION CONVERGENCE:
   Recorrection delta-x convergence threshold:    0.010000
   Delta-x Convergence Met
 Point Number:   1          Path Number:   1
   CHANGE IN THE REACTION COORDINATE =    0.11500
   NET REACTION COORDINATE UP TO THIS POINT =    0.11500
  # OF POINTS ALONG THE PATH =   1
  # OF STEPS =   1

 Calculating another point on the path.
 IRC-IRC-IRC-IRC-IRC-IRC-IRC-IRC-IRC-IRC-IRC-IRC-IRC-IRC-IRC-IRC-IRC-IRC
                          Input orientation:                          
 ---------------------------------------------------------------------
 Center     Atomic      Atomic             Coordinates (Angstroms)
 Number     Number       Type             X           Y           Z
 ---------------------------------------------------------------------
      1          8           0       -1.407659   -0.238786   -1.120684
      2          6           0       -0.641860    0.740395    1.014466
      3          6           0        1.061475   -0.624274   -0.402208
      4          6           0        0.615297   -0.167135    0.996134
      5          6           0       -0.074715   -1.339442   -1.153127
      6          6           0       -1.295851    0.970037   -0.357078
      7          1           0        0.356035   -1.077213    1.549897
      8          1           0       -2.331066    1.300701   -0.175563
      9          1           0       -0.351320    1.718649    1.412447
     10          1           0        1.485819    0.211524   -0.961108
     11          6           0       -0.632606    2.096009   -1.172271
     12          1           0       -1.030729    2.060817   -2.195090
     13          1           0        0.451406    1.978639   -1.231152
     14          8           0       -0.851699    3.355272   -0.546599
     15          1           0       -1.753206    3.643042   -0.757988
     16          8           0        2.108281   -1.580548   -0.292734
     17          1           0        1.654262   -2.431191   -0.135295
     18          8           0        1.721613    0.494318    1.612663
     19          1           0        1.664397    0.365204    2.570831
     20          8           0       -1.582255    0.112742    1.927468
     21          1           0       -2.244206    0.777313    2.178115
     22          1           0        0.041305   -1.318173   -2.247319
     23          8           0       -0.430391   -2.454046   -0.610563
     24          1           0       -1.797713   -2.378883   -0.015442
     25          8           0       -2.649256   -1.824787    0.186557
     26          1           0       -2.465113   -1.407227    1.057965
     27          1           0       -2.190626   -0.938420   -0.567512
     28          8           0        3.901457    0.685861   -0.376837
     29          1           0        3.399431    0.826746    0.443895
     30          1           0        3.783526   -0.269921   -0.505548
 ---------------------------------------------------------------------
                    Distance matrix (angstroms):
                    1          2          3          4          5
     1  O    0.000000
     2  C    2.470650   0.000000
     3  C    2.600276   2.602045   0.000000
     4  C    2.928892   1.550610   1.537339   0.000000
     5  C    1.728941   3.057096   1.538270   2.543569   0.000000
     6  C    1.434171   1.536741   2.846200   2.603235   2.731037
     7  H    3.308411   2.141537   2.124503   1.096409   2.749663
     8  H    2.028782   2.140918   3.907203   3.494063   3.607923
     9  H    3.371077   1.095346   3.283024   2.159593   4.001325
    10  H    2.932654   2.951206   1.091328   2.175313   2.208537
    11  C    2.460617   2.572857   3.295883   3.373582   3.480508
    12  H    2.566047   3.492275   3.847267   4.225764   3.682583
    13  H    2.895738   2.787701   2.799016   3.097096   3.360440
    14  O    3.681836   3.052628   4.417903   4.115756   4.797074
    15  H    3.914019   3.577994   5.124354   4.817074   5.272440
    16  O    3.853266   3.828684   1.422057   2.426503   2.358788
    17  H    3.892684   4.080819   1.920309   2.735970   2.284132
    18  O    4.219120   2.450388   2.397235   1.428833   3.773469
    19  H    4.840414   2.807465   3.190852   1.965620   4.449515
    20  O    3.073319   1.453225   3.599985   2.403113   3.724457
    21  H    3.551668   1.980645   4.421543   3.235092   4.503834
    22  H    2.129291   3.917098   2.219613   3.489176   1.100532
    23  O    2.474399   3.590250   2.370051   2.984108   1.289659
    24  H    2.440024   3.482327   3.376863   3.426038   2.311598
    25  O    2.401217   3.360837   3.944287   3.749738   2.942545
    26  H    2.688861   2.817520   3.896401   3.321231   3.256919
    27  H    1.186813   2.778444   3.271418   3.303494   2.231780
    28  O    5.440129   4.751887   3.127714   3.662171   4.529286
    29  H    5.166370   4.082284   2.878782   3.007352   4.394603
    30  H    5.227596   4.786985   2.746963   3.507604   4.055769
                    6          7          8          9         10
     6  C    0.000000
     7  H    3.249079   0.000000
     8  H    1.101797   3.981483   0.000000
     9  H    2.140976   2.887228   2.572130   0.000000
    10  H    2.945825   3.040132   4.046233   3.358611   0.000000
    11  C    1.540210   4.296154   2.123843   2.627221   2.843167
    12  H    2.153690   5.078905   2.519354   3.686869   3.357917
    13  H    2.198680   4.132984   3.052215   2.774992   2.065340
    14  O    2.433626   5.049835   2.558799   2.601303   3.939411
    15  H    2.741325   5.661805   2.481875   3.221702   4.723119
    16  O    4.254144   2.592103   5.293688   4.454433   2.011394
    17  H    4.507849   2.521611   5.459989   4.861999   2.773857
    18  O    3.634732   2.082895   4.502468   2.415807   2.599975
    19  H    4.207320   2.198791   4.937769   2.690126   3.539788
    20  O    2.456854   2.305542   2.528776   2.087914   4.215058
    21  H    2.713618   3.255023   2.412733   2.248417   4.907945
    22  H    3.255288   3.817849   4.096196   4.771827   2.465955
    23  O    3.540850   2.679874   4.230830   4.637909   3.301516
    24  H    3.403505   2.963657   3.721484   4.573914   4.287899
    25  O    3.152504   3.383687   3.162444   4.397642   4.750004
    26  H    3.003481   2.882669   2.978664   3.790103   4.723015
    27  H    2.118280   3.314840   2.277501   3.789894   3.872149
    28  O    5.205110   4.403493   6.266011   4.728033   2.530154
    29  H    4.765267   3.756402   5.783335   3.975137   2.452436
    30  H    5.230642   4.077286   6.321707   4.972933   2.391398
                   11         12         13         14         15
    11  C    0.000000
    12  H    1.098135   0.000000
    13  H    1.091936   1.769931   0.000000
    14  O    1.423098   2.103613   2.015394   0.000000
    15  H    1.954658   2.256252   2.802577   0.969645   0.000000
    16  O    4.669380   5.170288   4.036542   5.760924   6.512560
    17  H    5.176931   5.624062   4.700464   6.319190   6.992488
    18  O    3.982915   4.952605   3.450205   4.412415   5.254409
    19  H    4.720457   5.731737   4.304601   4.998961   5.788374
    20  O    3.800468   4.592893   4.194547   4.143515   4.438910
    21  H    3.944781   4.716443   4.509169   4.001127   4.132093
    22  H    3.642324   3.545357   3.474154   5.052820   5.481973
    23  O    4.589053   4.822356   4.561950   5.824926   6.240678
    24  H    4.766591   5.005005   5.052176   5.835889   6.067697
    25  O    4.613667   4.836299   5.107842   5.531883   5.620696
    26  H    4.539239   4.966604   5.020978   5.278174   5.413845
    27  H    3.464234   3.604136   3.991238   4.497661   4.606237
    28  O    4.814454   5.433508   3.782061   5.454087   6.392606
    29  H    4.525521   5.302216   3.580990   5.044465   5.993806
    30  H    5.054143   5.609273   4.084795   5.884643   6.784572
                   16         17         18         19         20
    16  O    0.000000
    17  H    0.976993   0.000000
    18  O    2.843434   3.408592   0.000000
    19  H    3.490413   3.891406   0.968519   0.000000
    20  O    4.627806   4.604522   3.340695   3.319397   0.000000
    21  H    5.532517   5.553775   4.015911   3.949840   0.970905
    22  H    2.856858   2.881161   4.583451   5.355628   4.702374
    23  O    2.703492   2.138266   4.273957   4.738942   3.789036
    24  H    3.996376   3.454451   4.826145   5.119084   3.166942
    25  O    4.787852   4.357933   5.149419   5.393368   2.814832
    26  H    4.771829   4.409264   4.631656   4.741637   1.961066
    27  H    4.355276   4.147088   4.702288   5.139049   2.774885
    28  O    2.891222   3.850226   2.957451   3.714297   5.975733
    29  H    2.829267   3.741019   2.071618   2.783383   5.246712
    30  H    2.137633   3.056459   3.053255   3.789221   5.904033
                   21         22         23         24         25
    21  H    0.000000
    22  H    5.403618   0.000000
    23  O    4.637707   2.047358   0.000000
    24  H    3.869447   3.080320   1.493114   0.000000
    25  O    3.301710   3.663268   2.440231   1.035833   0.000000
    26  H    2.464904   4.149092   2.831944   1.594283   0.983674
    27  H    3.238067   2.819127   2.323231   1.591884   1.250843
    28  O    6.656224   4.734515   5.355236   6.481035   7.037941
    29  H    5.904287   4.808359   5.151991   6.123508   6.609346
    30  H    6.680741   4.258735   4.747476   5.986498   6.654119
                   26         27         28         29         30
    26  H    0.000000
    27  H    1.713854   0.000000
    28  O    6.853677   6.307783   0.000000
    29  H    6.305600   5.948738   0.972357   0.000000
    30  H    6.540911   6.011757   0.971594   1.500549   0.000000
 Symmetry turned off by external request.
 Stoichiometry    C6H16O8
 Framework group  C1[X(C6H16O8)]
 Deg. of freedom    84
 Full point group                 C1      NOp   1
 Rotational constants (GHZ):      0.6724996      0.5622000      0.4223993
 Standard basis: 6-31G(d) (6D, 7F)
   242 basis functions,   456 primitive gaussians,   242 cartesian basis functions
    58 alpha electrons       58 beta electrons
       nuclear repulsion energy      1123.9666010770 Hartrees.
 NAtoms=   30 NActive=   30 NUniq=   30 SFac= 1.00D+00 NAtFMM=   60 NAOKFM=F Big=F
 Integral buffers will be    131072 words long.
 Raffenetti 2 integral format.
 Two-electron integral symmetry is turned off.
 One-electron integrals computed using PRISM.
 NBasis=   242 RedAO= T EigKep=  1.52D-03  NBF=   242
 NBsUse=   242 1.00D-06 EigRej= -1.00D+00 NBFU=   242
 Initial guess from the checkpoint file:  "/home/iawad/Gau-15579.chk"
 B after Tr=     0.000050    0.000213   -0.000121
         Rot=    1.000000   -0.000013    0.000021    0.000032 Ang=   0.00 deg.
 ExpMin= 1.61D-01 ExpMax= 5.48D+03 ExpMxC= 8.25D+02 IAcc=1 IRadAn=         1 AccDes= 0.00D+00
 Harris functional with IExCor=  402 and IRadAn=       1 diagonalized for initial guess.
 HarFok:  IExCor=  402 AccDes= 0.00D+00 IRadAn=         1 IDoV= 1 UseB2=F ITyADJ=14
 ICtDFT=  3500011 ScaDFX=  1.000000  1.000000  1.000000  1.000000
 FoFCou: FMM=F IPFlag=           0 FMFlag=      100000 FMFlg1=           0
         NFxFlg=           0 DoJE=T BraDBF=F KetDBF=T FulRan=T
         wScrn=  0.000000 ICntrl=     500 IOpCl=  0 I1Cent=   200000004 NGrid=           0
         NMat0=    1 NMatS0=      1 NMatT0=    0 NMatD0=    1 NMtDS0=    0 NMtDT0=    0
 Symmetry not used in FoFCou.
 Requested convergence on RMS density matrix=1.00D-08 within 128 cycles.
 Requested convergence on MAX density matrix=1.00D-06.
 Requested convergence on             energy=1.00D-06.
 No special actions if energy rises.
 Integral accuracy reduced to 1.0D-05 until final iterations.
 Initial convergence to 1.0D-05 achieved.  Increase integral accuracy.
 SCF Done:  E(RB3LYP) =  -839.941628343     A.U. after   12 cycles
            NFock= 12  Conv=0.73D-08     -V/T= 2.0085
 DoSCS=F DFT=T ScalE2(SS,OS)=  1.000000  1.000000
 Range of M.O.s used for correlation:     1   242
 NBasis=   242 NAE=    58 NBE=    58 NFC=     0 NFV=     0
 NROrb=    242 NOA=    58 NOB=    58 NVA=   184 NVB=   184
 Symmetrizing basis deriv contribution to polar:
 IMax=3 JMax=2 DiffMx= 0.00D+00
 Calling FoFJK, ICntrl=      2147 FMM=F ISym2X=0 I1Cent= 0 IOpClX= 0 NMat=1 NMatS=1 NMatT=0.
 -------------------------------------------------------------------
 Center     Atomic                   Forces (Hartrees/Bohr)
 Number     Number              X              Y              Z
 -------------------------------------------------------------------
      1        8          -0.006036459    0.002569967    0.000967904
      2        6          -0.000278327   -0.000208080    0.000387050
      3        6           0.000289112    0.000166769    0.000152312
      4        6          -0.000025438   -0.000068543   -0.000050932
      5        6           0.006201992   -0.008159519   -0.000476517
      6        6          -0.001592126    0.001930896    0.001457759
      7        1          -0.000043980   -0.000000134   -0.000026642
      8        1          -0.000044105    0.000230536    0.000155750
      9        1           0.000037303    0.000019987   -0.000094710
     10        1          -0.000000597    0.000001395   -0.000030393
     11        6          -0.000144672   -0.000230005   -0.000329585
     12        1           0.000014128    0.000013520   -0.000038787
     13        1          -0.000016806   -0.000038143    0.000026115
     14        8           0.000000496   -0.000494477   -0.000111190
     15        1           0.000008855    0.000016422   -0.000009093
     16        8           0.000550020    0.000294455    0.000129884
     17        1           0.000066546    0.000034245    0.000055814
     18        8          -0.000117314    0.000015946   -0.000040808
     19        1           0.000007414   -0.000030611   -0.000000728
     20        8           0.000652085    0.000669477    0.000183135
     21        1          -0.000014708   -0.000012789    0.000005382
     22        1          -0.000280782    0.000229608   -0.000098648
     23        8           0.005207122    0.001046119   -0.003024062
     24        1          -0.001867474   -0.001106215    0.000855217
     25        8          -0.005809997   -0.000480276    0.003281429
     26        1          -0.000142679   -0.000284748   -0.000039012
     27        1           0.003383888    0.003870881   -0.003262348
     28        8          -0.000051023    0.000009241   -0.000053415
     29        1           0.000022422   -0.000006422    0.000020556
     30        1           0.000025104    0.000000499    0.000008565
 -------------------------------------------------------------------
 Cartesian Forces:  Max     0.008159519 RMS     0.001778911
 IRC-IRC-IRC-IRC-IRC-IRC-IRC-IRC-IRC-IRC-IRC-IRC-IRC-IRC-IRC-IRC-IRC-IRC
 Pt  2 Step number   1 out of a maximum of  20
 Modified Bulirsch-Stoer Extrapolation Cycles:
    EPS =    0.000010000000000
 Maximum DWI energy   std dev =  0.000006055 at pt    35
 Maximum DWI gradient std dev =  0.080551690 at pt    27
 CORRECTOR INTEGRATION CONVERGENCE:
   Recorrection delta-x convergence threshold:    0.010000
   Delta-x Convergence Met
 Point Number:   2          Path Number:   1
   CHANGE IN THE REACTION COORDINATE =    0.11502
   NET REACTION COORDINATE UP TO THIS POINT =    0.23002
  # OF POINTS ALONG THE PATH =   2
  # OF STEPS =   1

 Calculating another point on the path.
 IRC-IRC-IRC-IRC-IRC-IRC-IRC-IRC-IRC-IRC-IRC-IRC-IRC-IRC-IRC-IRC-IRC-IRC
                          Input orientation:                          
 ---------------------------------------------------------------------
 Center     Atomic      Atomic             Coordinates (Angstroms)
 Number     Number       Type             X           Y           Z
 ---------------------------------------------------------------------
      1          8           0       -1.410544   -0.237308   -1.120420
      2          6           0       -0.642079    0.740253    1.014755
      3          6           0        1.061688   -0.624189   -0.402099
      4          6           0        0.615259   -0.167180    0.996104
      5          6           0       -0.070502   -1.344815   -1.153469
      6          6           0       -1.296905    0.971412   -0.356066
      7          1           0        0.355668   -1.077188    1.549716
      8          1           0       -2.331493    1.302552   -0.174271
      9          1           0       -0.350963    1.718829    1.411641
     10          1           0        1.485798    0.211488   -0.961389
     11          6           0       -0.632717    2.095872   -1.172476
     12          1           0       -1.030620    2.060906   -2.195391
     13          1           0        0.451257    1.978309   -1.230925
     14          8           0       -0.851699    3.355023   -0.546660
     15          1           0       -1.753114    3.643178   -0.758065
     16          8           0        2.108587   -1.580395   -0.292674
     17          1           0        1.654968   -2.431040   -0.134594
     18          8           0        1.721554    0.494321    1.612634
     19          1           0        1.664435    0.364956    2.570792
     20          8           0       -1.581878    0.113117    1.927578
     21          1           0       -2.244353    0.777188    2.178115
     22          1           0        0.039188   -1.316541   -2.248424
     23          8           0       -0.427878   -2.453614   -0.612030
     24          1           0       -1.816357   -2.383399   -0.008294
     25          8           0       -2.652125   -1.825373    0.188173
     26          1           0       -2.465942   -1.409442    1.058137
     27          1           0       -2.163338   -0.909433   -0.592043
     28          8           0        3.901422    0.685870   -0.376867
     29          1           0        3.399671    0.826705    0.444046
     30          1           0        3.783795   -0.269956   -0.505449
 ---------------------------------------------------------------------
                    Distance matrix (angstroms):
                    1          2          3          4          5
     1  O    0.000000
     2  C    2.470857   0.000000
     3  C    2.603381   2.602306   0.000000
     4  C    2.930610   1.550703   1.537247   0.000000
     5  C    1.738786   3.061928   1.538087   2.545144   0.000000
     6  C    1.434627   1.536679   2.847986   2.604060   2.739494
     7  H    3.309763   2.141208   2.124443   1.096353   2.749628
     8  H    2.028426   2.141047   3.908697   3.494745   3.616554
     9  H    3.370536   1.095390   3.282525   2.159464   4.005541
    10  H    2.935218   2.951710   1.091343   2.175547   2.209308
    11  C    2.459970   2.573280   3.295940   3.373661   3.486370
    12  H    2.565481   3.492868   3.847517   4.225982   3.688681
    13  H    2.896113   2.787695   2.798674   3.096720   3.364727
    14  O    3.680536   3.052700   4.417700   4.115580   4.802808
    15  H    3.912394   3.578305   5.124475   4.817171   5.278978
    16  O    3.856596   3.828960   1.422077   2.426552   2.354760
    17  H    3.896367   4.080995   1.920482   2.735788   2.279306
    18  O    4.220770   2.450449   2.397006   1.428838   3.774283
    19  H    4.841824   2.807508   3.190579   1.965599   4.450105
    20  O    3.072857   1.452504   3.599925   2.402836   3.728629
    21  H    3.550321   1.980418   4.421682   3.235176   4.508656
    22  H    2.130460   3.916996   2.221209   3.489964   1.100799
    23  O    2.477116   3.590695   2.368474   2.983624   1.284643
    24  H    2.450963   3.490381   3.396033   3.439942   2.331972
    25  O    2.403308   3.362433   3.947616   3.752087   2.948850
    26  H    2.689587   2.819494   3.897831   3.322780   3.260907
    27  H    1.139137   2.759980   3.243182   3.285385   2.210140
    28  O    5.442620   4.752154   3.127457   3.662186   4.528021
    29  H    5.168931   4.082759   2.878754   3.007578   4.394275
    30  H    5.230718   4.787473   2.747004   3.507825   4.053499
                    6          7          8          9         10
     6  C    0.000000
     7  H    3.249580   0.000000
     8  H    1.101397   3.981976   0.000000
     9  H    2.139679   2.887231   2.571168   0.000000
    10  H    2.947429   3.040317   4.047429   3.358130   0.000000
    11  C    1.540157   4.295992   2.124056   2.626634   2.843161
    12  H    2.154303   5.078904   2.520377   3.686412   3.357896
    13  H    2.198929   4.132453   3.052354   2.773813   2.065086
    14  O    2.432311   5.049458   2.557558   2.600540   3.939251
    15  H    2.740085   5.661685   2.480700   3.221300   4.723176
    16  O    4.255951   2.592363   5.295254   4.454095   2.011440
    17  H    4.509910   2.521507   5.461974   4.861689   2.774016
    18  O    3.635174   2.083085   4.502606   2.415605   2.600225
    19  H    4.207591   2.198919   4.937803   2.690433   3.540023
    20  O    2.456199   2.305144   2.528725   2.087978   4.215026
    21  H    2.712463   3.254797   2.411913   2.249243   4.908210
    22  H    3.255901   3.818811   4.096570   4.770929   2.466579
    23  O    3.542813   2.679858   4.233694   4.637934   3.299541
    24  H    3.412555   2.975109   3.725473   4.581689   4.306513
    25  O    3.155126   3.385321   3.165135   4.399271   4.753178
    26  H    3.005841   2.883319   2.981915   3.792648   4.724632
    27  H    2.084219   3.310689   2.257363   3.769246   3.835240
    28  O    5.206206   4.403688   6.266624   4.727425   2.530207
    29  H    4.766440   3.756764   5.784029   3.974844   2.452886
    30  H    5.232287   4.077669   6.322911   4.972597   2.391748
                   11         12         13         14         15
    11  C    0.000000
    12  H    1.098137   0.000000
    13  H    1.091895   1.770021   0.000000
    14  O    1.423046   2.103583   2.015255   0.000000
    15  H    1.954785   2.256433   2.802612   0.969678   0.000000
    16  O    4.669447   5.170496   4.036265   5.760742   6.512684
    17  H    5.177222   5.624665   4.700343   6.319154   6.992844
[...]
 Alpha  occ. eigenvalues --  -19.15614 -19.13442 -19.09683 -10.28960 -10.26392
 Alpha  occ. eigenvalues --  -10.26372 -10.26145 -10.25037 -10.24897  -1.07315
 Alpha  occ. eigenvalues --   -1.05494  -1.05125  -1.04066  -1.03489  -1.01742
 Alpha  occ. eigenvalues --   -1.01062  -0.95712  -0.80015  -0.75908  -0.70977
 Alpha  occ. eigenvalues --   -0.65487  -0.62955  -0.58742  -0.56629  -0.55174
 Alpha  occ. eigenvalues --   -0.53925  -0.53515  -0.51444  -0.50553  -0.49650
 Alpha  occ. eigenvalues --   -0.47367  -0.46909  -0.46229  -0.45213  -0.44493
 Alpha  occ. eigenvalues --   -0.43647  -0.41714  -0.40641  -0.38830  -0.38274
 Alpha  occ. eigenvalues --   -0.37523  -0.36956  -0.35380  -0.34404  -0.32991
 Alpha  occ. eigenvalues --   -0.32815  -0.31291  -0.30257  -0.29411  -0.29164
 Alpha  occ. eigenvalues --   -0.27436  -0.25638  -0.24964
 Alpha virt. eigenvalues --   -0.00485   0.03504   0.04669   0.05093   0.08403
 Alpha virt. eigenvalues --    0.09079   0.09441   0.11427   0.12099   0.12652
 Alpha virt. eigenvalues --    0.14214   0.15338   0.16527   0.17679   0.18355
 Alpha virt. eigenvalues --    0.19469   0.21284   0.21637   0.22446   0.22628
 Alpha virt. eigenvalues --    0.24118   0.25025   0.25723   0.27375   0.28795
 Alpha virt. eigenvalues --    0.29769   0.32581   0.35601   0.50669   0.51939
 Alpha virt. eigenvalues --    0.52767   0.54715   0.55354   0.57983   0.59243
 Alpha virt. eigenvalues --    0.62998   0.63315   0.64407   0.64544   0.66174
 Alpha virt. eigenvalues --    0.67331   0.69020   0.71080   0.72899   0.74420
 Alpha virt. eigenvalues --    0.76887   0.78685   0.79505   0.79869   0.80615
 Alpha virt. eigenvalues --    0.81227   0.82326   0.83285   0.84103   0.84207
 Alpha virt. eigenvalues --    0.85485   0.85938   0.87187   0.87571   0.89917
 Alpha virt. eigenvalues --    0.90698   0.91827   0.92241   0.94001   0.95393
 Alpha virt. eigenvalues --    0.96112   0.97385   0.98458   0.99898   1.01875
 Alpha virt. eigenvalues --    1.02006   1.03337   1.04950   1.05139   1.06503
 Alpha virt. eigenvalues --    1.08196   1.10914   1.13061   1.13780   1.16512
 Alpha virt. eigenvalues --    1.18237   1.18973   1.20800   1.22849   1.24114
 Alpha virt. eigenvalues --    1.25370   1.27539   1.30040   1.32163   1.34766
 Alpha virt. eigenvalues --    1.37788   1.40636   1.42253   1.44205   1.46528
 Alpha virt. eigenvalues --    1.47228   1.48745   1.50999   1.57153   1.59813
 Alpha virt. eigenvalues --    1.60864   1.62970   1.64672   1.65651   1.66871
 Alpha virt. eigenvalues --    1.68075   1.70910   1.71555   1.73031   1.74485
 Alpha virt. eigenvalues --    1.75133   1.77156   1.77758   1.78235   1.78770
 Alpha virt. eigenvalues --    1.79166   1.79584   1.80694   1.82809   1.84757
 Alpha virt. eigenvalues --    1.86297   1.88217   1.89401   1.90797   1.92065
 Alpha virt. eigenvalues --    1.92765   1.97390   2.00013   2.01664   2.03332
 Alpha virt. eigenvalues --    2.06653   2.08900   2.09718   2.11852   2.14975
 Alpha virt. eigenvalues --    2.17472   2.20099   2.23689   2.25825   2.26919
 Alpha virt. eigenvalues --    2.29541   2.32378   2.34938   2.36410   2.37522
 Alpha virt. eigenvalues --    2.39880   2.42273   2.44555   2.44932   2.47016
 Alpha virt. eigenvalues --    2.48828   2.51597   2.53417   2.53778   2.55669
 Alpha virt. eigenvalues --    2.61318   2.61876   2.63329   2.64572   2.66638
 Alpha virt. eigenvalues --    2.70362   2.73161   2.80928   2.83759   2.87598
 Alpha virt. eigenvalues --    2.91460   2.94379   2.97204   3.00389   3.05501
 Alpha virt. eigenvalues --    3.69697   3.72356   3.79495   3.80812   3.86059
 Alpha virt. eigenvalues --    3.88013   3.95677   4.06517   4.29407   4.30119
 Alpha virt. eigenvalues --    4.42638   4.54273   4.62150   4.74842
          Condensed to atoms (all electrons):
               1          2          3          4          5          6
     1  O    8.485401  -0.041186  -0.009551  -0.005636   0.039335   0.170411
     2  C   -0.041186   5.145336  -0.037794   0.268100  -0.000621   0.280386
     3  C   -0.009551  -0.037794   5.170035   0.278922   0.249449  -0.000715
     4  C   -0.005636   0.268100   0.278922   5.008886  -0.021734  -0.029014
     5  C    0.039335  -0.000621   0.249449  -0.021734   4.755124  -0.006080
     6  C    0.170411   0.280386  -0.000715  -0.029014  -0.006080   5.053048
     7  H    0.000142  -0.050993  -0.036479   0.341904  -0.008373   0.002723
     8  H   -0.030548  -0.054617   0.000082   0.003914   0.001069   0.349846
     9  H    0.003617   0.345931   0.001275  -0.038769   0.000123  -0.046167
    10  H    0.000030  -0.002446   0.332332  -0.048688  -0.022863  -0.000418
    11  C   -0.038004  -0.037142  -0.003542  -0.002835  -0.000734   0.297985
    12  H    0.007672   0.005505   0.000003  -0.000072  -0.000004  -0.042741
    13  H    0.002333  -0.008415  -0.000606   0.001683   0.000429  -0.044887
    14  O    0.001591  -0.002443   0.000050   0.000205   0.000006  -0.047085
    15  H   -0.000047  -0.000518   0.000000  -0.000012   0.000000  -0.003652
    16  O    0.000413   0.003521   0.226401  -0.039955  -0.024900  -0.000079
    17  H    0.000231  -0.000020  -0.039354  -0.003377  -0.009880  -0.000032
    18  O    0.000000  -0.046914  -0.047231   0.227151   0.001978   0.002992
    19  H    0.000000   0.000353   0.006397  -0.021890  -0.000112   0.000001
    20  O    0.000221   0.172479   0.001619  -0.033112   0.000340  -0.033285
    21  H   -0.000108  -0.017604  -0.000229   0.005815   0.000005  -0.002815
    22  H   -0.018631  -0.000296  -0.088251   0.005730   0.359433   0.001565
    23  O   -0.029527   0.000418  -0.065113  -0.003602   0.410979   0.001035
    24  H    0.003811   0.000182   0.000894   0.000127  -0.005557  -0.000168
    25  O   -0.054235   0.002010  -0.000868  -0.000120   0.003959   0.002890
    26  H    0.005677  -0.005318  -0.000316  -0.000698   0.000708   0.000326
    27  H    0.152331   0.001058   0.001011  -0.000093  -0.005745  -0.006103
    28  O    0.000000  -0.000053  -0.000748  -0.001908   0.000284   0.000014
    29  H    0.000001   0.000274   0.000660  -0.002703   0.000058  -0.000026
    30  H    0.000000  -0.000002  -0.001561   0.000396   0.000324  -0.000001
               7          8          9         10         11         12
     1  O    0.000142  -0.030548   0.003617   0.000030  -0.038004   0.007672
     2  C   -0.050993  -0.054617   0.345931  -0.002446  -0.037142   0.005505
     3  C   -0.036479   0.000082   0.001275   0.332332  -0.003542   0.000003
     4  C    0.341904   0.003914  -0.038769  -0.048688  -0.002835  -0.000072
     5  C   -0.008373   0.001069   0.000123  -0.022863  -0.000734  -0.000004
     6  C    0.002723   0.349846  -0.046167  -0.000418   0.297985  -0.042741
     7  H    0.609347  -0.000325   0.004744   0.006088   0.000050   0.000006
     8  H   -0.000325   0.657445   0.001186  -0.000038  -0.045704  -0.004778
     9  H    0.004744   0.001186   0.573330   0.000221  -0.001556   0.000498
    10  H    0.006088  -0.000038   0.000221   0.573342  -0.000527   0.000210
    11  C    0.000050  -0.045704  -0.001556  -0.000527   4.969395   0.350997
    12  H    0.000006  -0.004778   0.000498   0.000210   0.350997   0.596975
    13  H   -0.000012   0.005712   0.000096   0.007161   0.380002  -0.035353
    14  O   -0.000003   0.002456   0.013813  -0.000014   0.232498  -0.024520
    15  H    0.000000   0.006365  -0.000322   0.000002  -0.027773  -0.008997
    16  O   -0.002086   0.000001  -0.000053  -0.041671   0.000042  -0.000002
    17  H    0.005598   0.000001   0.000003   0.007489  -0.000001   0.000000
    18  O   -0.031109  -0.000082   0.004947  -0.001212   0.000201   0.000003
    19  H   -0.007642   0.000005   0.000526  -0.000052  -0.000014   0.000000
    20  O    0.001042  -0.002126  -0.031006  -0.000044   0.003145  -0.000077
    21  H    0.000073   0.006467  -0.005545   0.000006  -0.000200  -0.000002
    22  H    0.000422  -0.000105  -0.000002   0.002014   0.000227   0.000166
    23  O    0.012612  -0.000121  -0.000017   0.003309   0.000000   0.000007
    24  H    0.000190  -0.000100  -0.000001  -0.000020  -0.000003   0.000000
    25  O    0.000285   0.001016  -0.000020  -0.000004   0.000017   0.000000
    26  H    0.001288  -0.000361   0.000476   0.000002   0.000098   0.000000
    27  H   -0.000061  -0.007500  -0.000175   0.000001   0.002778   0.000154
    28  O   -0.000049   0.000000  -0.000004   0.023004  -0.000049   0.000000
    29  H    0.000286   0.000000   0.000051  -0.001856   0.000001  -0.000001
    30  H   -0.000032   0.000000   0.000001  -0.005035   0.000005   0.000000
              13         14         15         16         17         18
     1  O    0.002333   0.001591  -0.000047   0.000413   0.000231   0.000000
     2  C   -0.008415  -0.002443  -0.000518   0.003521  -0.000020  -0.046914
     3  C   -0.000606   0.000050   0.000000   0.226401  -0.039354  -0.047231
     4  C    0.001683   0.000205  -0.000012  -0.039955  -0.003377   0.227151
     5  C    0.000429   0.000006   0.000000  -0.024900  -0.009880   0.001978
     6  C   -0.044887  -0.047085  -0.003652  -0.000079  -0.000032   0.002992
     7  H   -0.000012  -0.000003   0.000000  -0.002086   0.005598  -0.031109
     8  H    0.005712   0.002456   0.006365   0.000001   0.000001  -0.000082
     9  H    0.000096   0.013813  -0.000322  -0.000053   0.000003   0.004947
    10  H    0.007161  -0.000014   0.000002  -0.041671   0.007489  -0.001212
    11  C    0.380002   0.232498  -0.027773   0.000042  -0.000001   0.000201
    12  H   -0.035353  -0.024520  -0.008997  -0.000002   0.000000   0.000003
    13  H    0.534877  -0.034372   0.006900   0.000016   0.000003   0.000236
    14  O   -0.034372   8.232022   0.234684   0.000000   0.000000  -0.000010
    15  H    0.006900   0.234684   0.398569   0.000000   0.000000   0.000000
    16  O    0.000016   0.000000   0.000000   8.282088   0.227921   0.002498
    17  H    0.000003   0.000000   0.000000   0.227921   0.374336  -0.000067
    18  O    0.000236  -0.000010   0.000000   0.002498  -0.000067   8.257519
    19  H   -0.000003  -0.000001   0.000000  -0.000347   0.000049   0.236001
    20  O    0.000025  -0.000046  -0.000009  -0.000012  -0.000005   0.001186
    21  H    0.000018   0.000048  -0.000001   0.000001   0.000000  -0.000217
    22  H   -0.000080   0.000000   0.000000   0.002862   0.002168  -0.000034
    23  O    0.000003   0.000000   0.000000  -0.014367   0.029622   0.000041
    24  H    0.000000   0.000000   0.000000   0.000021  -0.000036   0.000002
    25  O    0.000001   0.000000   0.000000   0.000000   0.000012   0.000000
    26  H   -0.000001  -0.000001   0.000000  -0.000002  -0.000004   0.000003
    27  H   -0.000165  -0.000041  -0.000012  -0.000018  -0.000022   0.000001
    28  O    0.000060   0.000000   0.000000  -0.007925   0.000262  -0.007296
    29  H    0.000132   0.000000   0.000000   0.001395   0.000019   0.031666
    30  H   -0.000017   0.000000   0.000000   0.024458  -0.000400   0.000641
              19         20         21         22         23         24
     1  O    0.000000   0.000221  -0.000108  -0.018631  -0.029527   0.003811
     2  C    0.000353   0.172479  -0.017604  -0.000296   0.000418   0.000182
     3  C    0.006397   0.001619  -0.000229  -0.088251  -0.065113   0.000894
     4  C   -0.021890  -0.033112   0.005815   0.005730  -0.003602   0.000127
     5  C   -0.000112   0.000340   0.000005   0.359433   0.410979  -0.005557
     6  C    0.000001  -0.033285  -0.002815   0.001565   0.001035  -0.000168
     7  H   -0.007642   0.001042   0.000073   0.000422   0.012612   0.000190
     8  H    0.000005  -0.002126   0.006467  -0.000105  -0.000121  -0.000100
     9  H    0.000526  -0.031006  -0.005545  -0.000002  -0.000017  -0.000001
    10  H   -0.000052  -0.000044   0.000006   0.002014   0.003309  -0.000020
    11  C   -0.000014   0.003145  -0.000200   0.000227   0.000000  -0.000003
    12  H    0.000000  -0.000077  -0.000002   0.000166   0.000007   0.000000
    13  H   -0.000003   0.000025   0.000018  -0.000080   0.000003   0.000000
    14  O   -0.000001  -0.000046   0.000048   0.000000   0.000000   0.000000
    15  H    0.000000  -0.000009  -0.000001   0.000000   0.000000   0.000000
    16  O   -0.000347  -0.000012   0.000001   0.002862  -0.014367   0.000021
    17  H    0.000049  -0.000005   0.000000   0.002168   0.029622  -0.000036
    18  O    0.236001   0.001186  -0.000217  -0.000034   0.000041   0.000002
    19  H    0.378791   0.000545  -0.000064   0.000005   0.000014  -0.000001
    20  O    0.000545   8.306805   0.227930   0.000002  -0.000167   0.000334
    21  H   -0.000064   0.227930   0.382741  -0.000001  -0.000002  -0.000034
    22  H    0.000005   0.000002  -0.000001   0.637209  -0.048582   0.000401
    23  O    0.000014  -0.000167  -0.000002  -0.048582   8.213315   0.049853
    24  H   -0.000001   0.000334  -0.000034   0.000401   0.049853   0.310581
    25  O    0.000000  -0.015023   0.001005   0.000072  -0.026285   0.221848
    26  H    0.000002   0.048580  -0.002902   0.000040   0.001816  -0.011584
    27  H   -0.000001   0.001577  -0.000070   0.000367   0.006378  -0.012302
    28  O    0.000402   0.000000   0.000000  -0.000003  -0.000001   0.000000
    29  H   -0.001276  -0.000001   0.000000  -0.000003   0.000000   0.000000
    30  H   -0.000006   0.000000   0.000000  -0.000022   0.000004   0.000000
              25         26         27         28         29         30
     1  O   -0.054235   0.005677   0.152331   0.000000   0.000001   0.000000
     2  C    0.002010  -0.005318   0.001058  -0.000053   0.000274  -0.000002
     3  C   -0.000868  -0.000316   0.001011  -0.000748   0.000660  -0.001561
     4  C   -0.000120  -0.000698  -0.000093  -0.001908  -0.002703   0.000396
     5  C    0.003959   0.000708  -0.005745   0.000284   0.000058   0.000324
     6  C    0.002890   0.000326  -0.006103   0.000014  -0.000026  -0.000001
     7  H    0.000285   0.001288  -0.000061  -0.000049   0.000286  -0.000032
     8  H    0.001016  -0.000361  -0.007500   0.000000   0.000000   0.000000
     9  H   -0.000020   0.000476  -0.000175  -0.000004   0.000051   0.000001
    10  H   -0.000004   0.000002   0.000001   0.023004  -0.001856  -0.005035
    11  C    0.000017   0.000098   0.002778  -0.000049   0.000001   0.000005
    12  H    0.000000   0.000000   0.000154   0.000000  -0.000001   0.000000
    13  H    0.000001  -0.000001  -0.000165   0.000060   0.000132  -0.000017
    14  O    0.000000  -0.000001  -0.000041   0.000000   0.000000   0.000000
    15  H    0.000000   0.000000  -0.000012   0.000000   0.000000   0.000000
    16  O    0.000000  -0.000002  -0.000018  -0.007925   0.001395   0.024458
    17  H    0.000012  -0.000004  -0.000022   0.000262   0.000019  -0.000400
    18  O    0.000000   0.000003   0.000001  -0.007296   0.031666   0.000641
    19  H    0.000000   0.000002  -0.000001   0.000402  -0.001276  -0.000006
    20  O   -0.015023   0.048580   0.001577   0.000000  -0.000001   0.000000
    21  H    0.001005  -0.002902  -0.000070   0.000000   0.000000   0.000000
    22  H    0.000072   0.000040   0.000367  -0.000003  -0.000003  -0.000022
    23  O   -0.026285   0.001816   0.006378  -0.000001   0.000000   0.000004
    24  H    0.221848  -0.011584  -0.012302   0.000000   0.000000   0.000000
    25  O    8.356926   0.218277   0.115321   0.000000   0.000000   0.000000
    26  H    0.218277   0.338494  -0.012316   0.000000   0.000000   0.000000
    27  H    0.115321  -0.012316   0.310986   0.000000   0.000000   0.000000
    28  O    0.000000   0.000000   0.000000   8.343282   0.240613   0.244446
    29  H    0.000000   0.000000   0.000000   0.240613   0.354779  -0.028878
    30  H    0.000000   0.000000   0.000000   0.244446  -0.028878   0.359782
 Mulliken charges:
               1
     1  O   -0.645745
     2  C    0.080830
     3  C    0.063229
     4  C    0.111386
     5  C    0.283001
     6  C    0.100045
     7  H    0.150363
     8  H    0.110839
     9  H    0.172798
    10  H    0.169673
    11  C   -0.079357
    12  H    0.154350
    13  H    0.184224
    14  O   -0.608837
    15  H    0.394822
    16  O   -0.640223
    17  H    0.405482
    18  O   -0.632895
    19  H    0.408317
    20  O   -0.650915
    21  H    0.405685
    22  H    0.143326
    23  O   -0.541622
    24  H    0.441561
    25  O   -0.827088
    26  H    0.417716
    27  H    0.452661
    28  O   -0.834331
    29  H    0.404809
    30  H    0.405898
 Sum of Mulliken charges =   0.00000
 Mulliken charges with hydrogens summed into heavy atoms:
               1
     1  O   -0.193084
     2  C    0.253628
     3  C    0.232902
     4  C    0.261749
     5  C    0.426326
     6  C    0.210884
    11  C    0.259217
    14  O   -0.214015
    16  O   -0.234741
    18  O   -0.224577
    20  O   -0.245229
    23  O   -0.541622
    25  O    0.032188
    28  O   -0.023625
 APT charges:
               1
     1  O   -0.532714
     2  C   -0.197636
     3  C   -0.119663
     4  C   -0.226094
     5  C   -0.453204
     6  C   -0.381364
     7  H    0.356122
     8  H    0.448671
     9  H    0.415614
    10  H    0.310346
    11  C   -0.556296
    12  H    0.489711
    13  H    0.253849
    14  O   -0.935496
    15  H    0.825417
    16  O   -0.788926
    17  H    0.597258
    18  O   -0.943768
    19  H    0.771613
    20  O   -0.971401
    21  H    0.788379
    22  H    0.469984
    23  O   -0.223484
    24  H    0.380451
    25  O   -0.661824
    26  H    0.340991
    27  H    0.489881
    28  O   -0.564510
    29  H    0.237596
    30  H    0.380498
 Sum of APT charges =   0.00000
 APT charges with hydrogens summed into heavy atoms:
               1
     1  O   -0.042833
     2  C    0.217979
     3  C    0.190683
     4  C    0.130028
     5  C    0.016780
     6  C    0.067307
    11  C    0.187264
    14  O   -0.110079
    16  O   -0.191668
    18  O   -0.172154
    20  O   -0.183022
    23  O   -0.223484
    25  O    0.059617
    28  O    0.053585
 Electronic spatial extent (au):  <R**2>=           3037.0926
 Charge=              0.0000 electrons
 Dipole moment (field-independent basis, Debye):
    X=             -4.5225    Y=              1.3476    Z=              2.8614  Tot=              5.5187
 Quadrupole moment (field-independent basis, Debye-Ang):
   XX=            -99.3282   YY=            -87.4235   ZZ=            -74.3685
   XY=            -18.6258   XZ=              2.9100   YZ=             -0.7550
 Traceless Quadrupole moment (field-independent basis, Debye-Ang):
   XX=            -12.2881   YY=             -0.3834   ZZ=             12.6716
   XY=            -18.6258   XZ=              2.9100   YZ=             -0.7550
 Octapole moment (field-independent basis, Debye-Ang**2):
  XXX=            -72.6377  YYY=             -9.4573  ZZZ=             24.1753  XYY=            -14.2148
  XXY=              8.2855  XXZ=             28.1904  XZZ=              3.6247  YZZ=              4.8156
  YYZ=              4.6643  XYZ=              6.2947
 Hexadecapole moment (field-independent basis, Debye-Ang**3):
 XXXX=          -1985.3819 YYYY=          -1316.0797 ZZZZ=           -541.3848 XXXY=           -199.3468
 XXXZ=             36.5452 YYYX=           -100.8977 YYYZ=            -33.7277 ZZZX=             21.3051
 ZZZY=             19.1261 XXYY=           -452.9837 XXZZ=           -329.5178 YYZZ=           -297.1757
 XXYZ=             21.6719 YYXZ=             23.0254 ZZXY=            -11.7804
 N-N= 1.113393937567D+03 E-N=-4.198633083090D+03  KE= 8.329710022541D+02
  Exact polarizability:   0.000   0.000   0.000   0.000   0.000   0.000
 Approx polarizability: 135.254  -1.395 145.161  -4.900  -2.439 122.754

 This type of calculation cannot be archived.


 ART, GLORY, FREEDOM FAIL, BUT NATURE STILL IS FAIR.

                                           -- BYRON
 Job cpu time:       0 days  4 hours 19 minutes 46.2 seconds.
 File lengths (MBytes):  RWF=    329 Int=      0 D2E=      0 Chk=      9 Scr=      2
 Normal termination of Gaussian 09 at Sun Jan 22 19:23:52 2017.
