 Entering Gaussian System, Link 0=g09
 Initial command:
 /global/software/gaussian/g09.d01/l1.exe "/home/iawad/Gau-4878.inp" -scrdir="/home/iawad/"
 Entering Link 1 = /global/software/gaussian/g09.d01/l1.exe PID=      4879.
  
 Copyright (c) 1988,1990,1992,1993,1995,1998,2003,2009,2013,
            Gaussian, Inc.  All Rights Reserved.
  
 This is part of the Gaussian(R) 09 program.  It is based on
 the Gaussian(R) 03 system (copyright 2003, Gaussian, Inc.),
 the Gaussian(R) 98 system (copyright 1998, Gaussian, Inc.),
 the Gaussian(R) 94 system (copyright 1995, Gaussian, Inc.),
 the Gaussian 92(TM) system (copyright 1992, Gaussian, Inc.),
 the Gaussian 90(TM) system (copyright 1990, Gaussian, Inc.),
 the Gaussian 88(TM) system (copyright 1988, Gaussian, Inc.),
 the Gaussian 86(TM) system (copyright 1986, Carnegie Mellon
 University), and the Gaussian 82(TM) system (copyright 1983,
 Carnegie Mellon University). Gaussian is a federally registered
 trademark of Gaussian, Inc.
  
 This software contains proprietary and confidential information,
 including trade secrets, belonging to Gaussian, Inc.
  
 This software is provided under written license and may be
 used, copied, transmitted, or stored only in accord with that
 written license.
  
 The following legend is applicable only to US Government
 contracts under FAR:
  
                    RESTRICTED RIGHTS LEGEND
  
 Use, reproduction and disclosure by the US Government is
 subject to restrictions as set forth in subparagraphs (a)
 and (c) of the Commercial Computer Software - Restricted
 Rights clause in FAR 52.227-19.
  
 Gaussian, Inc.
 340 Quinnipiac St., Bldg. 40, Wallingford CT 06492
  
  
 ---------------------------------------------------------------
 Warning -- This program may not be used in any manner that
 competes with the business of Gaussian, Inc. or will provide
 assistance to any competitor of Gaussian, Inc.  The licensee
 of this program is prohibited from giving any competitor of
 Gaussian, Inc. access to this program.  By using this program,
 the user acknowledges that Gaussian, Inc. is engaged in the
 business of creating and licensing software in the field of
 computational chemistry and represents and warrants to the
 licensee that it is not a competitor of Gaussian, Inc. and that
 it will not use this program in any manner prohibited above.
 ---------------------------------------------------------------
  

 Cite this work as:
 Gaussian 09, Revision D.01,
 M. J. Frisch, G. W. Trucks, H. B. Schlegel, G. E. Scuseria, 
 M. A. Robb, J. R. Cheeseman, G. Scalmani, V. Barone, B. Mennucci, 
 G. A. Petersson, H. Nakatsuji, M. Caricato, X. Li, H. P. Hratchian, 
 A. F. Izmaylov, J. Bloino, G. Zheng, J. L. Sonnenberg, M. Hada, 
 M. Ehara, K. Toyota, R. Fukuda, J. Hasegawa, M. Ishida, T. Nakajima, 
 Y. Honda, O. Kitao, H. Nakai, T. Vreven, J. A. Montgomery, Jr., 
 J. E. Peralta, F. Ogliaro, M. Bearpark, J. J. Heyd, E. Brothers, 
 K. N. Kudin, V. N. Staroverov, T. Keith, R. Kobayashi, J. Normand, 
 K. Raghavachari, A. Rendell, J. C. Burant, S. S. Iyengar, J. Tomasi, 
 M. Cossi, N. Rega, J. M. Millam, M. Klene, J. E. Knox, J. B. Cross, 
 V. Bakken, C. Adamo, J. Jaramillo, R. Gomperts, R. E. Stratmann, 
 O. Yazyev, A. J. Austin, R. Cammi, C. Pomelli, J. W. Ochterski, 
 R. L. Martin, K. Morokuma, V. G. Zakrzewski, G. A. Voth, 
 P. Salvador, J. J. Dannenberg, S. Dapprich, A. D. Daniels, 
 O. Farkas, J. B. Foresman, J. V. Ortiz, J. Cioslowski, 
 and D. J. Fox, Gaussian, Inc., Wallingford CT, 2013.
 
 ******************************************
 Gaussian 09:  ES64L-G09RevD.01 24-Apr-2013
                22-Jan-2017 
 ******************************************
 %NPROCS=20
 Will use up to   20 processors via shared memory.
 --------------------------------------------------
 # b3lyp/6-31g(d) irc=(calcfc,forward,maxpoints=20)
 --------------------------------------------------
 1/10=4,14=-1,18=10,22=1,26=3,38=1,42=20,44=3/1,23;
 2/12=2,17=6,18=5,29=1,40=1/2;
 3/5=1,6=6,7=1,11=2,16=1,25=1,30=1,71=2,74=-5,140=1/1,2,3;
 4//1;
 5/5=2,38=5/2;
 8/6=4,10=90,11=11/1;
 11/6=1,8=1,9=11,15=111,16=1/1,2,10;
 10/6=1,13=1/2;
 6/7=2,8=2,9=2,10=2,28=1/1;
 7/10=1,18=20,25=1/1,2,3,16;
 1/10=4,14=-1,18=10,22=1,26=3,42=20,44=3/23(2);
 2/29=1/2;
 99/5=20/99;
 2/29=1/2;
 3/5=1,6=6,7=1,11=2,16=1,25=1,30=1,71=2,74=-5,140=1/1,2,3;
 4/5=5,16=3,69=1/1;
 5/5=2,38=5/2;
 8/6=4,10=90,11=11/1;
 11/6=1,8=1,9=11,15=111,16=1/1,2,10;
 10/6=1,13=1/2;
 7/10=1,18=20,25=1/1,2,3,16;
 1/14=-1,18=10,22=1,26=3,42=20,44=3/23(-8);
 2/29=1/2;
 6/7=2,8=2,9=2,10=2,19=2,28=1/1;
 99/5=20,9=1/99;
 ---------------------------------
 glo_1w_alpha_ts_boat5_B3LYP_631Gd
 ---------------------------------
 Symbolic Z-matrix:
 Charge =  0 Multiplicity = 1
 8                    0    -1.39508  -0.25292  -1.12445 
 6                    0    -0.63587   0.7278    1.01212 
 6                    0     1.0668   -0.63736  -0.4043 
 6                    0     0.62101  -0.17989   0.99428 
 6                    0    -0.07644  -1.34199  -1.15464 
 6                    0    -1.28819   0.95488  -0.36073 
 1                    0     0.36222  -1.09004   1.5484 
 1                    0    -2.32477   1.28394  -0.17989 
 1                    0    -0.34616   1.70554   1.41181 
 1                    0     1.49149   0.19861  -0.96261 
 6                    0    -0.62675   2.08345  -1.17379 
 1                    0    -1.02522   2.04779  -2.19647 
 1                    0     0.45735   1.96636  -1.23343 
 8                    0    -0.84601   3.34287  -0.54843 
 1                    0    -1.74766   3.62998  -0.7598 
 8                    0     2.11348  -1.59368  -0.29478 
 1                    0     1.6595   -2.44443  -0.13769 
 8                    0     1.72741   0.48146   1.61077 
 1                    0     1.66993   0.3528    2.56897 
 8                    0    -1.5771    0.09934   1.9254 
 1                    0    -2.23838   0.7646    2.17605 
 1                    0     0.05123  -1.33497  -2.24696 
 8                    0    -0.4299   -2.46793  -0.60953 
 1                    0    -1.74455  -2.3854   -0.03727 
 8                    0    -2.63995  -1.838     0.18321 
 1                    0    -2.45776  -1.41672   1.05585 
 1                    0    -2.24479  -1.00393  -0.52663 
 8                    0     3.90719   0.673    -0.37872 
 1                    0     3.4048    0.81403   0.44178 
 1                    0     3.78896  -0.28272  -0.50753 
 
 IRC-IRC-IRC-IRC-IRC-IRC-IRC-IRC-IRC-IRC-IRC-IRC-IRC-IRC-IRC-IRC-IRC-IRC
 ------------------------------------------------------------------------
 INPUT DATA FOR L123
 ------------------------------------------------------------------------
 GENERAL PARAMETERS:
 Rxn path following direction = Forward
 Maximum points per path      =  20
 Step size                    =   0.100 bohr
 Integration scheme           = HPC                                 
    Redo corrector integration= Yes                                 
    DWI Weight Power          =  2
    DWI will use Hessian update vectors when possible.
    Max correction cycles     =  20
 Initial Hessian              = CalcFC
 Hessian evaluation           = All updating
 Hessian updating method      = Bofill                              
 ------------------------------------------------------------------------
 IRC-IRC-IRC-IRC-IRC-IRC-IRC-IRC-IRC-IRC-IRC-IRC-IRC-IRC-IRC-IRC-IRC-IRC
                          Input orientation:                          
 ---------------------------------------------------------------------
 Center     Atomic      Atomic             Coordinates (Angstroms)
 Number     Number       Type             X           Y           Z
 ---------------------------------------------------------------------
      1          8           0       -1.395075   -0.252915   -1.124447
      2          6           0       -0.635865    0.727803    1.012119
      3          6           0        1.066798   -0.637357   -0.404303
      4          6           0        0.621013   -0.179893    0.994282
      5          6           0       -0.076438   -1.341991   -1.154644
      6          6           0       -1.288189    0.954880   -0.360728
      7          1           0        0.362220   -1.090035    1.548404
      8          1           0       -2.324770    1.283942   -0.179885
      9          1           0       -0.346163    1.705540    1.411808
     10          1           0        1.491492    0.198606   -0.962613
     11          6           0       -0.626749    2.083453   -1.173794
     12          1           0       -1.025221    2.047786   -2.196470
     13          1           0        0.457354    1.966358   -1.233433
     14          8           0       -0.846008    3.342868   -0.548425
     15          1           0       -1.747659    3.629984   -0.759800
     16          8           0        2.113477   -1.593684   -0.294783
     17          1           0        1.659502   -2.444430   -0.137689
     18          8           0        1.727413    0.481457    1.610767
     19          1           0        1.669929    0.352801    2.568970
     20          8           0       -1.577095    0.099343    1.925398
     21          1           0       -2.238378    0.764597    2.176048
     22          1           0        0.051229   -1.334970   -2.246955
     23          8           0       -0.429902   -2.467928   -0.609525
     24          1           0       -1.744545   -2.385398   -0.037266
     25          8           0       -2.639947   -1.837996    0.183211
     26          1           0       -2.457761   -1.416724    1.055850
     27          1           0       -2.244794   -1.003930   -0.526631
     28          8           0        3.907187    0.673004   -0.378719
     29          1           0        3.404796    0.814030    0.441782
     30          1           0        3.788959   -0.282723   -0.507529
 ---------------------------------------------------------------------
                    Distance matrix (angstroms):
                    1          2          3          4          5
     1  O    0.000000
     2  C    2.470450   0.000000
     3  C    2.593689   2.601725   0.000000
     4  C    2.925569   1.550475   1.537543   0.000000
     5  C    1.710498   3.048256   1.538346   2.540628   0.000000
     6  C    1.432990   1.536815   2.843076   2.601694   2.715559
     7  H    3.306507   2.142034   2.124715   1.096532   2.749977
     8  H    2.029399   2.140692   3.904419   3.492724   3.591751
     9  H    3.371699   1.095285   3.283883   2.159772   3.993354
    10  H    2.926146   2.950468   1.091288   2.174956   2.206518
    11  C    2.459954   2.572175   3.295910   3.373455   3.469420
    12  H    2.565005   3.491274   3.846869   4.225345   3.670992
    13  H    2.892844   2.787768   2.799680   3.097724   3.352061
    14  O    3.682789   3.052544   4.418347   4.116059   4.786193
    15  H    3.915889   3.577490   5.124231   4.816905   5.260173
    16  O    3.846549   3.828339   1.422003   2.426508   2.366102
    17  H    3.886756   4.080910   1.920389   2.736411   2.294135
    18  O    4.215522   2.450336   2.397637   1.428831   3.771782
    19  H    4.837610   2.807329   3.191321   1.965612   4.448305
    20  O    3.075512   1.454288   3.600056   2.403462   3.716998
    21  H    3.555244   1.980942   4.421298   3.234926   4.495020
    22  H    2.126655   3.917741   2.216621   3.487761   1.099769
    23  O    2.470422   3.589547   2.373440   2.985251   1.299933
    24  H    2.419003   3.467333   3.330768   3.394732   2.262700
    25  O    2.402531   3.359577   3.940389   3.747132   2.933847
    26  H    2.690251   2.814287   3.893838   3.318492   3.250010
    27  H    1.281963   2.820515   3.334064   3.347396   2.282642
    28  O    5.433914   4.751500   3.128180   3.662172   4.531173
    29  H    5.160446   4.081625   2.878996   3.007089   4.394996
    30  H    5.220698   4.786393   2.747104   3.507405   4.059815
                    6          7          8          9         10
     6  C    0.000000
     7  H    3.248124   0.000000
     8  H    1.102491   3.980285   0.000000
     9  H    2.143079   2.887162   2.574125   0.000000
    10  H    2.942931   3.039911   4.044066   3.359420   0.000000
    11  C    1.540213   4.296446   2.123758   2.628095   2.843271
    12  H    2.152567   5.078877   2.517717   3.687536   3.357933
    13  H    2.198095   4.133909   3.052191   2.776863   2.065849
    14  O    2.435824   5.050459   2.561588   2.602537   3.939777
    15  H    2.743456   5.661976   2.484607   3.222353   4.723091
    16  O    4.250983   2.591892   5.290744   4.455015   2.011260
    17  H    4.504879   2.521951   5.456827   4.862703   2.773872
    18  O    3.633838   2.082601   4.502289   2.416129   2.599605
    19  H    4.206672   2.198507   4.937697   2.689527   3.539448
    20  O    2.458004   2.306011   2.528737   2.087783   4.215055
    21  H    2.715566   3.255258   2.414043   2.247201   4.907491
    22  H    3.255043   3.815948   4.095955   4.773800   2.464903
    23  O    3.537537   2.680057   4.225121   4.637956   3.305576
    24  H    3.386790   2.937818   3.717668   4.559722   4.243263
    25  O    3.150123   3.381746   3.158745   4.396310   4.746520
    26  H    2.999850   2.881255   2.972932   3.786038   4.720178
    27  H    2.186219   3.333123   2.315381   3.834524   3.949178
    28  O    5.203048   4.403283   6.264987   4.728964   2.530132
    29  H    4.763189   3.755975   5.782319   3.975605   2.451898
    30  H    5.227872   4.076905   6.319768   4.973558   2.391053
                   11         12         13         14         15
    11  C    0.000000
    12  H    1.098143   0.000000
    13  H    1.092038   1.769774   0.000000
    14  O    1.423126   2.103665   2.015631   0.000000
    15  H    1.954377   2.255945   2.802510   0.969582   0.000000
    16  O    4.669351   5.169927   4.037042   5.761287   6.512397
    17  H    5.177082   5.623728   4.701156   6.319739   6.992444
    18  O    3.982744   4.952316   3.450718   4.412740   5.254421
    19  H    4.719975   5.731163   4.304901   4.998859   5.787966
    20  O    3.800637   4.592471   4.195586   4.144242   4.439010
    21  H    3.944385   4.715638   4.509519   4.001116   4.131640
    22  H    3.646498   3.550258   3.477202   5.056897   5.486201
    23  O    4.590448   4.823326   4.565017   5.825996   6.240480
    24  H    4.744659   4.983243   5.021649   5.820798   6.058621
    25  O    4.612179   4.834203   5.106198   5.531262   5.619987
    26  H    4.535985   4.963123   5.018362   5.274956   5.410184
    27  H    3.545254   3.686284   4.077227   4.566369   4.666334
    28  O    4.814363   5.433497   3.782149   5.454341   6.392671
    29  H    4.524917   5.301658   3.580729   5.044290   5.993429
    30  H    5.053828   5.608932   4.084715   5.884684   6.784324
                   16         17         18         19         20
    16  O    0.000000
    17  H    0.977006   0.000000
    18  O    2.843655   3.409182   0.000000
    19  H    3.490934   3.892379   0.968509   0.000000
    20  O    4.627728   4.604636   3.341374   3.319878   0.000000
    21  H    5.532191   5.553801   4.015870   3.949535   0.970919
    22  H    2.851451   2.875143   4.581596   5.353680   4.702895
    23  O    2.707793   2.142146   4.275813   4.740109   3.785864
    24  H    3.946829   3.406040   4.794722   5.094000   3.170809
    25  O    4.783639   4.353849   5.147000   5.391333   2.813921
    26  H    4.769879   4.408239   4.628899   4.739048   1.957076
    27  H    4.404099   4.179694   4.749029   5.171897   2.770466
    28  O    2.891767   3.850789   2.957391   3.714394   5.976236
    29  H    2.829685   3.741577   2.071411   2.783420   5.247012
    30  H    2.138018   3.056852   3.053051   3.789330   5.904206
                   21         22         23         24         25
    21  H    0.000000
    22  H    5.404946   0.000000
    23  O    4.634568   2.048477   0.000000
    24  H    3.881378   3.034951   1.436168   0.000000
    25  O    3.302446   3.660761   2.430955   1.072382   0.000000
    26  H    2.461937   4.148522   2.826785   1.625395   0.985982
    27  H    3.229892   2.888048   2.333237   1.548606   1.164340
    28  O    6.656064   4.731879   5.359950   6.435253   7.034618
    29  H    5.903858   4.805613   5.155716   6.081245   6.605984
    30  H    6.680363   4.254815   4.752295   5.938186   6.650325
                   26         27         28         29         30
    26  H    0.000000
    27  H    1.649242   0.000000
    28  O    6.851096   6.378155   0.000000
    29  H    6.302612   6.013374   0.972372   0.000000
    30  H    6.538473   6.076733   0.971588   1.500546   0.000000
 Symmetry turned off by external request.
 Stoichiometry    C6H16O8
 Framework group  C1[X(C6H16O8)]
 Deg. of freedom    84
 Full point group                 C1      NOp   1
 Rotational constants (GHZ):      0.6727007      0.5625577      0.4226286
 Standard basis: 6-31G(d) (6D, 7F)
   242 basis functions,   456 primitive gaussians,   242 cartesian basis functions
    58 alpha electrons       58 beta electrons
       nuclear repulsion energy      1124.0910741006 Hartrees.
 NAtoms=   30 NActive=   30 NUniq=   30 SFac= 1.00D+00 NAtFMM=   60 NAOKFM=F Big=F
 Integral buffers will be    131072 words long.
 Raffenetti 2 integral format.
 Two-electron integral symmetry is turned off.
 One-electron integrals computed using PRISM.
 NBasis=   242 RedAO= T EigKep=  1.51D-03  NBF=   242
 NBsUse=   242 1.00D-06 EigRej= -1.00D+00 NBFU=   242
 ExpMin= 1.61D-01 ExpMax= 5.48D+03 ExpMxC= 8.25D+02 IAcc=1 IRadAn=         1 AccDes= 0.00D+00
 Harris functional with IExCor=  402 and IRadAn=       1 diagonalized for initial guess.
 HarFok:  IExCor=  402 AccDes= 0.00D+00 IRadAn=         1 IDoV= 1 UseB2=F ITyADJ=14
 ICtDFT=  3500011 ScaDFX=  1.000000  1.000000  1.000000  1.000000
 FoFCou: FMM=F IPFlag=           0 FMFlag=      100000 FMFlg1=           0
         NFxFlg=           0 DoJE=T BraDBF=F KetDBF=T FulRan=T
         wScrn=  0.000000 ICntrl=     500 IOpCl=  0 I1Cent=   200000004 NGrid=           0
         NMat0=    1 NMatS0=      1 NMatT0=    0 NMatD0=    1 NMtDS0=    0 NMtDT0=    0
 Symmetry not used in FoFCou.
 Requested convergence on RMS density matrix=1.00D-08 within 128 cycles.
 Requested convergence on MAX density matrix=1.00D-06.
 Requested convergence on             energy=1.00D-06.
 No special actions if energy rises.
 Integral accuracy reduced to 1.0D-05 until final iterations.
 Initial convergence to 1.0D-05 achieved.  Increase integral accuracy.
 SCF Done:  E(RB3LYP) =  -839.940690893     A.U. after   14 cycles
            NFock= 14  Conv=0.99D-08     -V/T= 2.0086
 DoSCS=F DFT=T ScalE2(SS,OS)=  1.000000  1.000000
 Range of M.O.s used for correlation:     1   242
 NBasis=   242 NAE=    58 NBE=    58 NFC=     0 NFV=     0
 NROrb=    242 NOA=    58 NOB=    58 NVA=   184 NVB=   184
 Symmetrizing basis deriv contribution to polar:
 IMax=3 JMax=2 DiffMx= 0.00D+00
 G2DrvN: will do    31 centers at a time, making    1 passes.
 Calling FoFCou, ICntrl=  3107 FMM=F I1Cent=   0 AccDes= 0.00D+00.
 End of G2Drv F.D. properties file   721 does not exist.
 End of G2Drv F.D. properties file   722 does not exist.
 End of G2Drv F.D. properties file   788 does not exist.
          IDoAtm=111111111111111111111111111111
          Differentiating once with respect to nuclear coordinates.
          There are    93 degrees of freedom in the 1st order CPHF.  IDoFFX=6 NUNeed=     0.
     87 vectors produced by pass  0 Test12= 1.15D-14 1.08D-09 XBig12= 1.24D-01 6.48D-02.
 AX will form    87 AO Fock derivatives at one time.
     87 vectors produced by pass  1 Test12= 1.15D-14 1.08D-09 XBig12= 1.31D-02 1.38D-02.
     87 vectors produced by pass  2 Test12= 1.15D-14 1.08D-09 XBig12= 9.04D-05 1.32D-03.
     87 vectors produced by pass  3 Test12= 1.15D-14 1.08D-09 XBig12= 2.25D-07 5.68D-05.
     87 vectors produced by pass  4 Test12= 1.15D-14 1.08D-09 XBig12= 3.10D-10 1.80D-06.
     72 vectors produced by pass  5 Test12= 1.15D-14 1.08D-09 XBig12= 2.52D-13 6.36D-08.
      3 vectors produced by pass  6 Test12= 1.15D-14 1.08D-09 XBig12= 2.26D-16 1.98D-09.
 InvSVY:  IOpt=1 It=  1 EMax= 8.88D-16
 Solved reduced A of dimension   510 with    93 vectors.
 End of Minotr F.D. properties file   721 does not exist.
 End of Minotr F.D. properties file   722 does not exist.
 End of Minotr F.D. properties file   788 does not exist.

 **********************************************************************

            Population analysis using the SCF density.

 **********************************************************************

 Alpha  occ. eigenvalues --  -19.19677 -19.19675 -19.18160 -19.16998 -19.16985
 Alpha  occ. eigenvalues --  -19.14975 -19.10656 -19.09354 -10.28745 -10.26659
 Alpha  occ. eigenvalues --  -10.26515 -10.25548 -10.25176 -10.23942  -1.08349
 Alpha  occ. eigenvalues --   -1.05985  -1.04569  -1.04242  -1.03019  -1.02018
 Alpha  occ. eigenvalues --   -0.98156  -0.95353  -0.79814  -0.75782  -0.70645
 Alpha  occ. eigenvalues --   -0.64926  -0.63569  -0.58963  -0.56750  -0.55224
 Alpha  occ. eigenvalues --   -0.54789  -0.53915  -0.51391  -0.50644  -0.49537
 Alpha  occ. eigenvalues --   -0.48086  -0.46614  -0.46413  -0.45432  -0.44366
 Alpha  occ. eigenvalues --   -0.43774  -0.41323  -0.41086  -0.39494  -0.38160
 Alpha  occ. eigenvalues --   -0.37763  -0.36992  -0.35642  -0.33991  -0.32809
 Alpha  occ. eigenvalues --   -0.32525  -0.31926  -0.29402  -0.28517  -0.27960
 Alpha  occ. eigenvalues --   -0.27138  -0.25188  -0.23669
 Alpha virt. eigenvalues --    0.02829   0.03396   0.04863   0.05436   0.08270
 Alpha virt. eigenvalues --    0.09710   0.10188   0.11586   0.12285   0.12644
 Alpha virt. eigenvalues --    0.14609   0.15442   0.16919   0.18089   0.18354
 Alpha virt. eigenvalues --    0.19706   0.20860   0.21687   0.22478   0.22955
 Alpha virt. eigenvalues --    0.23851   0.25328   0.25686   0.27292   0.28993
 Alpha virt. eigenvalues --    0.30063   0.33542   0.36025   0.50609   0.51927
 Alpha virt. eigenvalues --    0.52572   0.54121   0.54999   0.58329   0.59428
 Alpha virt. eigenvalues --    0.60427   0.61315   0.62841   0.64108   0.65135
 Alpha virt. eigenvalues --    0.66377   0.68088   0.69372   0.69395   0.71048
 Alpha virt. eigenvalues --    0.74152   0.76288   0.79163   0.80136   0.80528
 Alpha virt. eigenvalues --    0.81058   0.82111   0.83178   0.83906   0.84350
 Alpha virt. eigenvalues --    0.85828   0.86431   0.87539   0.87771   0.89469
 Alpha virt. eigenvalues --    0.90692   0.92399   0.93524   0.95016   0.95588
 Alpha virt. eigenvalues --    0.96255   0.97758   0.98497   1.01403   1.01973
 Alpha virt. eigenvalues --    1.03009   1.03798   1.04236   1.05215   1.08324
 Alpha virt. eigenvalues --    1.09323   1.12631   1.13969   1.15387   1.17161
 Alpha virt. eigenvalues --    1.18609   1.19790   1.22204   1.22711   1.25293
 Alpha virt. eigenvalues --    1.26165   1.30634   1.31926   1.33941   1.34552
 Alpha virt. eigenvalues --    1.38144   1.41611   1.43523   1.46649   1.47704
 Alpha virt. eigenvalues --    1.49308   1.50544   1.54579   1.57657   1.60289
 Alpha virt. eigenvalues --    1.61978   1.63419   1.64555   1.67199   1.67841
 Alpha virt. eigenvalues --    1.68899   1.70207   1.72287   1.72846   1.74375
 Alpha virt. eigenvalues --    1.75256   1.76604   1.77897   1.78659   1.78963
 Alpha virt. eigenvalues --    1.79944   1.80686   1.81807   1.84856   1.85698
 Alpha virt. eigenvalues --    1.87477   1.89226   1.90159   1.91890   1.92504
 Alpha virt. eigenvalues --    1.92819   1.97727   1.99581   2.00502   2.03697
 Alpha virt. eigenvalues --    2.04153   2.07955   2.09927   2.12032   2.13987
 Alpha virt. eigenvalues --    2.18158   2.18803   2.23541   2.25716   2.27363
 Alpha virt. eigenvalues --    2.29724   2.30973   2.34886   2.36997   2.38846
 Alpha virt. eigenvalues --    2.40668   2.42704   2.44514   2.46293   2.48129
 Alpha virt. eigenvalues --    2.51698   2.52590   2.53370   2.55422   2.57868
 Alpha virt. eigenvalues --    2.62277   2.63458   2.64501   2.67375   2.69359
 Alpha virt. eigenvalues --    2.71812   2.78155   2.80600   2.83741   2.87030
 Alpha virt. eigenvalues --    2.92143   2.93561   2.97355   3.00324   3.05180
 Alpha virt. eigenvalues --    3.69846   3.72123   3.79739   3.83444   3.87922
 Alpha virt. eigenvalues --    3.88870   3.96924   4.07941   4.30328   4.32769
 Alpha virt. eigenvalues --    4.46813   4.54845   4.66219   4.76641
          Condensed to atoms (all electrons):
               1          2          3          4          5          6
     1  O    8.585149  -0.038339  -0.017847  -0.006506   0.075549   0.141751
     2  C   -0.038339   5.166886  -0.036952   0.257442  -0.003187   0.278141
     3  C   -0.017847  -0.036952   5.169535   0.268089   0.242792  -0.001375
     4  C   -0.006506   0.257442   0.268089   5.032264  -0.020148  -0.031366
     5  C    0.075549  -0.003187   0.242792  -0.020148   4.772276  -0.009235
     6  C    0.141751   0.278141  -0.001375  -0.031366  -0.009235   5.067169
     7  H    0.000321  -0.051570  -0.037929   0.340890  -0.007562   0.002631
     8  H   -0.034341  -0.051477   0.000077   0.004062   0.002509   0.350514
     9  H    0.003330   0.346816   0.001031  -0.034882   0.000191  -0.044711
    10  H    0.000783  -0.001937   0.333468  -0.052305  -0.024211  -0.001029
    11  C   -0.031056  -0.040621  -0.004311  -0.002152  -0.001735   0.300935
    12  H    0.006626   0.005522   0.000033  -0.000082   0.000124  -0.041011
    13  H    0.002014  -0.008306  -0.000605   0.001705   0.000684  -0.045142
    14  O    0.001443  -0.002480   0.000051   0.000229   0.000019  -0.045513
    15  H   -0.000018  -0.000494   0.000000  -0.000011  -0.000001  -0.003582
    16  O    0.000708   0.003917   0.238132  -0.042653  -0.026056  -0.000085
    17  H    0.000542  -0.000064  -0.040995  -0.003064  -0.012791  -0.000054
    18  O    0.000009  -0.046636  -0.046366   0.226365   0.001983   0.003051
    19  H    0.000002   0.000342   0.006335  -0.022264  -0.000116   0.000011
    20  O    0.000283   0.167724   0.001534  -0.032966   0.000478  -0.033677
    21  H   -0.000111  -0.017268  -0.000227   0.005652   0.000010  -0.002257
    22  H   -0.037404  -0.000525  -0.083218   0.006807   0.370498   0.003062
    23  O   -0.043129   0.000669  -0.065504  -0.003840   0.323789   0.001299
    24  H    0.003009   0.000228   0.001923   0.000393  -0.018996  -0.000138
    25  O   -0.094723   0.001141  -0.001770  -0.000148   0.015746   0.008068
    26  H    0.006105  -0.005954  -0.000255  -0.000487   0.000389  -0.000078
    27  H    0.112162   0.000964   0.002461  -0.000139  -0.010173  -0.005146
    28  O    0.000000  -0.000056  -0.000994  -0.001773   0.000268   0.000018
    29  H    0.000001   0.000292   0.000746  -0.002873   0.000056  -0.000031
    30  H   -0.000001  -0.000004  -0.001239   0.000408   0.000286   0.000000
               7          8          9         10         11         12
     1  O    0.000321  -0.034341   0.003330   0.000783  -0.031056   0.006626
     2  C   -0.051570  -0.051477   0.346816  -0.001937  -0.040621   0.005522
     3  C   -0.037929   0.000077   0.001031   0.333468  -0.004311   0.000033
     4  C    0.340890   0.004062  -0.034882  -0.052305  -0.002152  -0.000082
     5  C   -0.007562   0.002509   0.000191  -0.024211  -0.001735   0.000124
     6  C    0.002631   0.350514  -0.044711  -0.001029   0.300935  -0.041011
     7  H    0.610613  -0.000340   0.004652   0.006367   0.000060   0.000006
     8  H   -0.000340   0.652704   0.000755  -0.000030  -0.045663  -0.005076
     9  H    0.004652   0.000755   0.564371   0.000199  -0.001825   0.000500
    10  H    0.006367  -0.000030   0.000199   0.585751  -0.000906   0.000250
    11  C    0.000060  -0.045663  -0.001825  -0.000906   4.971488   0.350585
    12  H    0.000006  -0.005076   0.000500   0.000250   0.350585   0.597432
    13  H   -0.000011   0.005751   0.000097   0.007361   0.380882  -0.034766
    14  O   -0.000003   0.003156   0.014051  -0.000001   0.228165  -0.024468
    15  H    0.000000   0.005716  -0.000346   0.000002  -0.026920  -0.009061
    16  O   -0.001896   0.000002  -0.000055  -0.043106   0.000051  -0.000003
    17  H    0.005232   0.000001   0.000003   0.007493   0.000000   0.000000
    18  O   -0.030659  -0.000081   0.004750  -0.001107   0.000231   0.000003
    19  H   -0.007518   0.000005   0.000624  -0.000059  -0.000011   0.000000
    20  O    0.000752  -0.001523  -0.029541  -0.000050   0.003081  -0.000076
    21  H    0.000111   0.005619  -0.005854   0.000007  -0.000200   0.000000
    22  H    0.000442  -0.000224   0.000004   0.000522   0.000575   0.000101
    23  O    0.014103  -0.000161  -0.000017   0.003349  -0.000004   0.000010
    24  H    0.000398  -0.000190  -0.000003  -0.000052  -0.000002   0.000000
    25  O    0.000360   0.002008  -0.000026  -0.000002  -0.000005   0.000001
    26  H    0.001101  -0.000493   0.000497   0.000001   0.000118   0.000000
    27  H   -0.000189  -0.006805  -0.000148  -0.000022   0.001404   0.000068
    28  O   -0.000050   0.000000  -0.000004   0.023230  -0.000054   0.000000
    29  H    0.000296   0.000000   0.000046  -0.001736   0.000003  -0.000001
    30  H   -0.000029   0.000000   0.000000  -0.005111   0.000005   0.000000
              13         14         15         16         17         18
     1  O    0.002014   0.001443  -0.000018   0.000708   0.000542   0.000009
     2  C   -0.008306  -0.002480  -0.000494   0.003917  -0.000064  -0.046636
     3  C   -0.000605   0.000051   0.000000   0.238132  -0.040995  -0.046366
     4  C    0.001705   0.000229  -0.000011  -0.042653  -0.003064   0.226365
     5  C    0.000684   0.000019  -0.000001  -0.026056  -0.012791   0.001983
     6  C   -0.045142  -0.045513  -0.003582  -0.000085  -0.000054   0.003051
     7  H   -0.000011  -0.000003   0.000000  -0.001896   0.005232  -0.030659
     8  H    0.005751   0.003156   0.005716   0.000002   0.000001  -0.000081
     9  H    0.000097   0.014051  -0.000346  -0.000055   0.000003   0.004750
    10  H    0.007361  -0.000001   0.000002  -0.043106   0.007493  -0.001107
    11  C    0.380882   0.228165  -0.026920   0.000051   0.000000   0.000231
    12  H   -0.034766  -0.024468  -0.009061  -0.000003   0.000000   0.000003
    13  H    0.529151  -0.034142   0.006780   0.000010   0.000004   0.000179
    14  O   -0.034142   8.233678   0.233840   0.000000   0.000000  -0.000011
    15  H    0.006780   0.233840   0.399172   0.000000   0.000000   0.000000
    16  O    0.000010   0.000000   0.000000   8.286520   0.226091   0.002427
    17  H    0.000004   0.000000   0.000000   0.226091   0.369415  -0.000058
    18  O    0.000179  -0.000011   0.000000   0.002427  -0.000058   8.258482
    19  H   -0.000001  -0.000001   0.000000  -0.000393   0.000060   0.235575
    20  O    0.000016  -0.000051  -0.000010  -0.000013  -0.000003   0.001227
    21  H    0.000018   0.000068   0.000000   0.000001   0.000000  -0.000216
    22  H   -0.000151  -0.000001   0.000000   0.001744   0.001859  -0.000036
    23  O    0.000006   0.000000   0.000000  -0.014639   0.038487   0.000052
    24  H   -0.000001   0.000000   0.000000   0.000065  -0.000152   0.000005
    25  O    0.000003   0.000000   0.000000   0.000000   0.000058   0.000000
    26  H   -0.000001  -0.000001   0.000000  -0.000001  -0.000013   0.000003
    27  H   -0.000079  -0.000021  -0.000006  -0.000026  -0.000055   0.000001
    28  O    0.000065   0.000000   0.000000  -0.007237   0.000204  -0.007469
    29  H    0.000127   0.000000   0.000000   0.001220   0.000018   0.032224
    30  H   -0.000017   0.000000   0.000000   0.024027  -0.000351   0.000646
              19         20         21         22         23         24
     1  O    0.000002   0.000283  -0.000111  -0.037404  -0.043129   0.003009
     2  C    0.000342   0.167724  -0.017268  -0.000525   0.000669   0.000228
     3  C    0.006335   0.001534  -0.000227  -0.083218  -0.065504   0.001923
     4  C   -0.022264  -0.032966   0.005652   0.006807  -0.003840   0.000393
     5  C   -0.000116   0.000478   0.000010   0.370498   0.323789  -0.018996
     6  C    0.000011  -0.033677  -0.002257   0.003062   0.001299  -0.000138
     7  H   -0.007518   0.000752   0.000111   0.000442   0.014103   0.000398
     8  H    0.000005  -0.001523   0.005619  -0.000224  -0.000161  -0.000190
     9  H    0.000624  -0.029541  -0.005854   0.000004  -0.000017  -0.000003
    10  H   -0.000059  -0.000050   0.000007   0.000522   0.003349  -0.000052
    11  C   -0.000011   0.003081  -0.000200   0.000575  -0.000004  -0.000002
    12  H    0.000000  -0.000076   0.000000   0.000101   0.000010   0.000000
    13  H   -0.000001   0.000016   0.000018  -0.000151   0.000006  -0.000001
    14  O   -0.000001  -0.000051   0.000068  -0.000001   0.000000   0.000000
    15  H    0.000000  -0.000010   0.000000   0.000000   0.000000   0.000000
    16  O   -0.000393  -0.000013   0.000001   0.001744  -0.014639   0.000065
    17  H    0.000060  -0.000003   0.000000   0.001859   0.038487  -0.000152
    18  O    0.235575   0.001227  -0.000216  -0.000036   0.000052   0.000005
    19  H    0.381555   0.000482  -0.000065   0.000006   0.000015  -0.000002
    20  O    0.000482   8.313226   0.227905   0.000003  -0.000239   0.000184
    21  H   -0.000065   0.227905   0.382380  -0.000001   0.000000  -0.000030
    22  H    0.000006   0.000003  -0.000001   0.645551  -0.049530   0.002012
    23  O    0.000015  -0.000239   0.000000  -0.049530   8.406928   0.117134
    24  H   -0.000002   0.000184  -0.000030   0.002012   0.117134   0.290048
    25  O    0.000000  -0.016827   0.000988  -0.000361  -0.079046   0.158559
    26  H    0.000002   0.054316  -0.002883   0.000060   0.003869  -0.003622
    27  H   -0.000001   0.001687  -0.000117   0.000433   0.010938  -0.016383
    28  O    0.000407   0.000000   0.000000  -0.000004  -0.000001   0.000000
    29  H   -0.001318  -0.000001   0.000000  -0.000004   0.000000   0.000000
    30  H   -0.000004   0.000000   0.000000  -0.000012   0.000004   0.000000
              25         26         27         28         29         30
     1  O   -0.094723   0.006105   0.112162   0.000000   0.000001  -0.000001
     2  C    0.001141  -0.005954   0.000964  -0.000056   0.000292  -0.000004
     3  C   -0.001770  -0.000255   0.002461  -0.000994   0.000746  -0.001239
     4  C   -0.000148  -0.000487  -0.000139  -0.001773  -0.002873   0.000408
     5  C    0.015746   0.000389  -0.010173   0.000268   0.000056   0.000286
     6  C    0.008068  -0.000078  -0.005146   0.000018  -0.000031   0.000000
     7  H    0.000360   0.001101  -0.000189  -0.000050   0.000296  -0.000029
     8  H    0.002008  -0.000493  -0.006805   0.000000   0.000000   0.000000
     9  H   -0.000026   0.000497  -0.000148  -0.000004   0.000046   0.000000
    10  H   -0.000002   0.000001  -0.000022   0.023230  -0.001736  -0.005111
    11  C   -0.000005   0.000118   0.001404  -0.000054   0.000003   0.000005
    12  H    0.000001   0.000000   0.000068   0.000000  -0.000001   0.000000
    13  H    0.000003  -0.000001  -0.000079   0.000065   0.000127  -0.000017
    14  O    0.000000  -0.000001  -0.000021   0.000000   0.000000   0.000000
    15  H    0.000000   0.000000  -0.000006   0.000000   0.000000   0.000000
    16  O    0.000000  -0.000001  -0.000026  -0.007237   0.001220   0.024027
    17  H    0.000058  -0.000013  -0.000055   0.000204   0.000018  -0.000351
    18  O    0.000000   0.000003   0.000001  -0.007469   0.032224   0.000646
    19  H    0.000000   0.000002  -0.000001   0.000407  -0.001318  -0.000004
    20  O   -0.016827   0.054316   0.001687   0.000000  -0.000001   0.000000
    21  H    0.000988  -0.002883  -0.000117   0.000000   0.000000   0.000000
    22  H   -0.000361   0.000060   0.000433  -0.000004  -0.000004  -0.000012
    23  O   -0.079046   0.003869   0.010938  -0.000001   0.000000   0.000004
    24  H    0.158559  -0.003622  -0.016383   0.000000   0.000000   0.000000
    25  O    8.458329   0.212443   0.143897   0.000000   0.000000   0.000000
    26  H    0.212443   0.313732  -0.012523   0.000000   0.000000   0.000000
    27  H    0.143897  -0.012523   0.305987   0.000000   0.000000   0.000000
    28  O    0.000000   0.000000   0.000000   8.343481   0.240344   0.244415
    29  H    0.000000   0.000000   0.000000   0.240344   0.354548  -0.028923
    30  H    0.000000   0.000000   0.000000   0.244415  -0.028923   0.359788
 Mulliken charges:
               1
     1  O   -0.636310
     2  C    0.075787
     3  C    0.073378
     4  C    0.113353
     5  C    0.326565
     6  C    0.107779
     7  H    0.149421
     8  H    0.113526
     9  H    0.175495
    10  H    0.162880
    11  C   -0.082117
    12  H    0.153282
    13  H    0.188372
    14  O   -0.608007
    15  H    0.394940
    16  O   -0.648752
    17  H    0.408134
    18  O   -0.634573
    19  H    0.406333
    20  O   -0.657918
    21  H    0.406472
    22  H    0.137792
    23  O   -0.664543
    24  H    0.465612
    25  O   -0.808693
    26  H    0.433677
    27  H    0.471830
    28  O   -0.834792
    29  H    0.404966
    30  H    0.406112
 Sum of Mulliken charges =   0.00000
 Mulliken charges with hydrogens summed into heavy atoms:
               1
     1  O   -0.636310
     2  C    0.251281
     3  C    0.236258
     4  C    0.262774
     5  C    0.464356
     6  C    0.221305
    11  C    0.259537
    14  O   -0.213067
    16  O   -0.240618
    18  O   -0.228240
    20  O   -0.251447
    23  O   -0.664543
    25  O    0.562426
    28  O   -0.023713
 APT charges:
               1
     1  O   -0.427065
     2  C   -0.191359
     3  C   -0.122036
     4  C   -0.219936
     5  C   -0.354593
     6  C   -0.353363
     7  H    0.354647
     8  H    0.449766
     9  H    0.421357
    10  H    0.306169
    11  C   -0.568454
    12  H    0.492015
    13  H    0.264925
    14  O   -0.930929
    15  H    0.825818
    16  O   -0.771590
    17  H    0.584160
    18  O   -0.947130
    19  H    0.771530
    20  O   -0.990075
    21  H    0.789669
    22  H    0.486219
    23  O   -0.462431
    24  H    0.361082
    25  O   -0.562304
    26  H    0.398220
    27  H    0.340422
    28  O   -0.556352
    29  H    0.234105
    30  H    0.377514
 Sum of APT charges =   0.00000
 APT charges with hydrogens summed into heavy atoms:
               1
     1  O   -0.427065
     2  C    0.229999
     3  C    0.184133
     4  C    0.134711
     5  C    0.131626
     6  C    0.096402
    11  C    0.188485
    14  O   -0.105111
    16  O   -0.187431
    18  O   -0.175600
    20  O   -0.200406
    23  O   -0.462431
    25  O    0.537420
    28  O    0.055267
 Electronic spatial extent (au):  <R**2>=           2979.5774
 Charge=              0.0000 electrons
 Dipole moment (field-independent basis, Debye):
    X=             -5.9678    Y=              1.8638    Z=              3.2728  Tot=              7.0569
 Quadrupole moment (field-independent basis, Debye-Ang):
   XX=            -96.2224   YY=            -89.5268   ZZ=            -74.6689
   XY=            -16.5168   XZ=              2.1458   YZ=             -1.8056
 Traceless Quadrupole moment (field-independent basis, Debye-Ang):
   XX=             -9.4164   YY=             -2.7207   ZZ=             12.1371
   XY=            -16.5168   XZ=              2.1458   YZ=             -1.8056
 Octapole moment (field-independent basis, Debye-Ang**2):
  XXX=            -89.1258  YYY=              2.3067  ZZZ=             26.6270  XYY=            -16.2808
  XXY=              4.6167  XXZ=             30.1421  XZZ=              2.3085  YZZ=              7.3207
  YYZ=              6.4880  XYZ=              8.3606
 Hexadecapole moment (field-independent basis, Debye-Ang**3):
 XXXX=          -1912.4553 YYYY=          -1313.1777 ZZZZ=           -536.8391 XXXY=           -180.1788
 XXXZ=             25.7175 YYYX=           -105.1788 YYYZ=            -39.1902 ZZZX=             17.2210
 ZZZY=             15.7956 XXYY=           -440.1339 XXZZ=           -320.6014 YYZZ=           -293.4185
 XXYZ=             16.3860 YYXZ=             16.6292 ZZXY=            -13.6975
 N-N= 1.124091074101D+03 E-N=-4.219950510954D+03  KE= 8.328069967397D+02
  Exact polarizability:   0.000   0.000   0.000   0.000   0.000   0.000
 Approx polarizability: 138.150  -2.347 145.155  -6.661  -1.360 122.805
 Calling FoFJK, ICntrl=    100147 FMM=F ISym2X=0 I1Cent= 0 IOpClX= 0 NMat=1 NMatS=1 NMatT=0.
 -------------------------------------------------------------------
 Center     Atomic                   Forces (Hartrees/Bohr)
 Number     Number              X              Y              Z
 -------------------------------------------------------------------
      1        8          -0.000003155    0.000001629    0.000004277
      2        6           0.000005160    0.000000578    0.000001275
      3        6          -0.000000909   -0.000001602   -0.000000695
      4        6           0.000004576   -0.000003863    0.000003546
      5        6          -0.000005883   -0.000000732    0.000000744
      6        6           0.000001124    0.000001238    0.000002538
      7        1           0.000004668    0.000005975   -0.000002228
      8        1           0.000000389    0.000001177    0.000002335
      9        1           0.000002988    0.000002344    0.000000222
     10        1          -0.000001252   -0.000000623   -0.000002113
     11        6          -0.000001092    0.000000746    0.000000439
     12        1          -0.000001676   -0.000000132    0.000000917
     13        1          -0.000000902   -0.000000241   -0.000001098
     14        8           0.000007540   -0.000002390    0.000000246
     15        1          -0.000003947    0.000001446    0.000000739
     16        8          -0.000003082   -0.000003337   -0.000006488
     17        1          -0.000001158   -0.000001078   -0.000001289
     18        8          -0.000002202   -0.000005304   -0.000000673
     19        1           0.000004164    0.000000907   -0.000014201
     20        8           0.000002179    0.000005944    0.000006880
     21        1           0.000005010   -0.000000773    0.000002052
     22        1          -0.000003378   -0.000000609    0.000001039
     23        8          -0.000004707    0.000000737    0.000002917
     24        1          -0.000000732    0.000000690    0.000002736
     25        8          -0.000003785    0.000002876    0.000009386
     26        1           0.000001168    0.000002670    0.000005018
     27        1          -0.000001528    0.000000843    0.000002936
     28        8           0.000000586   -0.000004923   -0.000018522
     29        1           0.000000916   -0.000004517   -0.000001945
     30        1          -0.000001080    0.000000325   -0.000000991
 -------------------------------------------------------------------
 Cartesian Forces:  Max     0.000018522 RMS     0.000003911
 IRC-IRC-IRC-IRC-IRC-IRC-IRC-IRC-IRC-IRC-IRC-IRC-IRC-IRC-IRC-IRC-IRC-IRC
          ******** Start new reaction path calculation ********
 Supplied step size of   0.1000 bohr.
    Integration on MW PES will use step size of   0.1152 sqrt(amu)*bohr.
 Point Number:   0          Path Number:   1
 Calculating another point on the path.
 IRC-IRC-IRC-IRC-IRC-IRC-IRC-IRC-IRC-IRC-IRC-IRC-IRC-IRC-IRC-IRC-IRC-IRC
                          Input orientation:                          
 ---------------------------------------------------------------------
 Center     Atomic      Atomic             Coordinates (Angstroms)
 Number     Number       Type             X           Y           Z
 ---------------------------------------------------------------------
      1          8           0       -1.397137   -0.240586   -1.123615
      2          6           0       -0.641431    0.740763    1.013863
      3          6           0        1.060925   -0.624642   -0.402458
      4          6           0        0.615330   -0.167003    0.996246
      5          6           0       -0.085775   -1.323928   -1.152558
      6          6           0       -1.292890    0.966632   -0.359616
      7          1           0        0.356748   -1.077150    1.550562
      8          1           0       -2.330189    1.294691   -0.179182
      9          1           0       -0.352060    1.718280    1.414275
     10          1           0        1.485785    0.211380   -0.960517
     11          6           0       -0.632366    2.096445   -1.171680
     12          1           0       -1.031014    2.060545   -2.194286
     13          1           0        0.451783    1.979479   -1.231694
     14          8           0       -0.851702    3.355920   -0.546460
     15          1           0       -1.753422    3.642739   -0.757815
     16          8           0        2.107542   -1.580988   -0.292937
     17          1           0        1.653760   -2.431818   -0.135832
     18          8           0        1.721775    0.494292    1.612687
     19          1           0        1.664182    0.365848    2.570900
     20          8           0       -1.583002    0.111954    1.927257
     21          1           0       -2.243998    0.777495    2.177908
     22          1           0        0.047648   -1.324255   -2.243855
     23          8           0       -0.438322   -2.455627   -0.606072
     24          1           0       -1.724114   -2.369624   -0.046483
     25          8           0       -2.644123   -1.825575    0.184681
     26          1           0       -2.462682   -1.402469    1.057652
     27          1           0       -2.280173   -1.015895   -0.504775
     28          8           0        3.901509    0.685844   -0.376791
     29          1           0        3.398973    0.826921    0.443619
     30          1           0        3.783198   -0.269862   -0.505649
 ---------------------------------------------------------------------
                    Distance matrix (angstroms):
                    1          2          3          4          5
     1  O    0.000000
     2  C    2.470416   0.000000
     3  C    2.590297   2.601599   0.000000
     4  C    2.923910   1.550419   1.537648   0.000000
     5  C    1.701217   3.043861   1.538367   2.539170   0.000000
     6  C    1.432459   1.536835   2.841555   2.600922   2.707868
     7  H    3.305628   2.142246   2.124834   1.096585   2.750198
     8  H    2.029683   2.140583   3.902992   3.492028   3.583576
     9  H    3.371977   1.095265   3.284255   2.159835   3.989308
    10  H    2.922689   2.950165   1.091269   2.174808   2.205414
    11  C    2.459451   2.571878   3.295945   3.373403   3.463824
    12  H    2.564290   3.490819   3.846698   4.225153   3.665151
    13  H    2.891172   2.787841   2.800024   3.098040   3.347795
    14  O    3.683132   3.052518   4.418569   4.116201   4.780688
    15  H    3.916754   3.577266   5.124195   4.816831   5.254013
    16  O    3.843108   3.828200   1.421970   2.426529   2.369740
    17  H    3.883966   4.081051   1.920528   2.736663   2.299378
    18  O    4.213670   2.450323   2.397821   1.428822   3.770908
    19  H    4.836205   2.807272   3.191527   1.965593   4.447677
    20  O    3.076793   1.454732   3.600069   2.403593   3.713315
    21  H    3.557206   1.981053   4.421176   3.234835   4.490647
    22  H    2.125248   3.918145   2.215159   3.487083   1.099422
    23  O    2.468519   3.589200   2.375228   2.985867   1.305251
    24  H    2.408305   3.459920   3.305772   3.378139   2.236300
    25  O    2.403915   3.359228   3.938827   3.746136   2.930018
    26  H    2.691335   2.812884   3.892653   3.317273   3.246673
    27  H    1.328089   2.842109   3.365484   3.370107   2.308655
    28  O    5.430623   4.751341   3.128409   3.662178   4.532045
    29  H    5.157370   4.081356   2.879123   3.006984   4.395157
    30  H    5.217146   4.786191   2.747232   3.507372   4.061835
                    6          7          8          9         10
     6  C    0.000000
     7  H    3.247635   0.000000
     8  H    1.102799   3.979607   0.000000
     9  H    2.144021   2.887112   2.575175   0.000000
    10  H    2.941518   3.039828   4.042982   3.359772   0.000000
    11  C    1.540201   4.296587   2.123786   2.628449   2.843347
    12  H    2.152031   5.078868   2.516949   3.687795   3.357957
    13  H    2.197786   4.134364   3.052225   2.777686   2.066125
    14  O    2.436853   5.050739   2.563100   2.603073   3.939977
    15  H    2.744486   5.662047   2.486123   3.222628   4.723111
    16  O    4.249442   2.591838   5.289227   4.455266   2.011176
    17  H    4.503587   2.522160   5.455327   4.863072   2.773953
    18  O    3.633359   2.082448   4.502205   2.416259   2.599445
    19  H    4.206321   2.198344   4.937681   2.689254   3.539293
    20  O    2.458542   2.306187   2.528683   2.087738   4.215042
    21  H    2.716506   3.255326   2.414703   2.246695   4.907289
    22  H    3.255083   3.814997   4.095834   4.774799   2.464420
    23  O    3.535942   2.680188   4.222118   4.637968   3.307680
    24  H    3.378552   2.924214   3.716469   4.552726   4.219063
    25  O    3.149367   3.380976   3.157057   4.395949   4.745188
    26  H    2.998283   2.880621   2.970182   3.784307   4.718888
    27  H    2.219507   3.343877   2.333949   3.856953   3.987022
    28  O    5.202011   4.403200   6.264487   4.729344   2.530133
    29  H    4.762173   3.755789   5.781867   3.975796   2.451689
    30  H    5.226559   4.076798   6.318853   4.973849   2.390942
                   11         12         13         14         15
    11  C    0.000000
    12  H    1.098149   0.000000
    13  H    1.092090   1.769701   0.000000
    14  O    1.423125   2.103682   2.015739   0.000000
    15  H    1.954246   2.255806   2.802485   0.969555   0.000000
    16  O    4.669347   5.169761   4.037293   5.761463   6.512333
    17  H    5.177308   5.623751   4.701618   6.320116   6.992568
    18  O    3.982659   4.952176   3.450966   4.412892   5.254427
    19  H    4.719746   5.730887   4.305047   4.998813   5.787778
    20  O    3.800701   4.592256   4.196066   4.144562   4.439043
    21  H    3.944202   4.715254   4.509698   4.001118   4.131435
    22  H    3.648721   3.552864   3.478858   5.059053   5.488461
    23  O    4.591180   4.823849   4.566602   5.826536   6.240400
    24  H    4.733261   4.971905   5.005392   5.813169   6.054368
    25  O    4.611846   4.833584   5.105799   5.531296   5.619974
    26  H    4.534576   4.961576   5.017248   5.273585   5.408613
    27  H    3.584228   3.725497   4.118769   4.599460   4.695143
    28  O    4.814318   5.433496   3.782190   5.454457   6.392703
    29  H    4.524663   5.301430   3.580642   5.044237   5.993284
    30  H    5.053732   5.608826   4.084728   5.884747   6.784261
                   16         17         18         19         20
    16  O    0.000000
    17  H    0.976991   0.000000
    18  O    2.843767   3.409409   0.000000
    19  H    3.491175   3.892742   0.968496   0.000000
    20  O    4.627681   4.604752   3.341659   3.320081   0.000000
    21  H    5.532036   5.553882   4.015848   3.949401   0.970920
    22  H    2.848711   2.872290   4.580691   5.352709   4.703179
    23  O    2.710068   2.144411   4.276790   4.740717   3.784247
    24  H    3.919729   3.379628   4.777972   5.080753   3.173924
    25  O    4.781868   4.352248   5.146072   5.390535   2.813640
    26  H    4.768953   4.407841   4.627683   4.737918   1.955384
    27  H    4.429023   4.197236   4.772829   5.189116   2.769995
    28  O    2.892037   3.851006   2.957356   3.714419   5.976441
    29  H    2.829900   3.741779   2.071318   2.783418   5.247136
    30  H    2.138252   3.057013   3.052989   3.789394   5.904313
                   21         22         23         24         25
    21  H    0.000000
    22  H    5.405643   0.000000
    23  O    4.632935   2.049025   0.000000
    24  H    3.888773   3.010046   1.404919   0.000000
    25  O    3.302882   3.659883   2.426482   1.093546   0.000000
    26  H    2.460699   4.148231   2.824032   1.643164   0.986923
    27  H    3.227126   2.922026   2.339980   1.533563   1.124007
    28  O    6.655985   4.730610   5.362419   6.410352   7.033333
    29  H    5.903671   4.804316   5.157694   6.058393   6.604680
    30  H    6.680234   4.252933   4.754880   5.911880   6.648854
                   26         27         28         29         30
    26  H    0.000000
    27  H    1.619854   0.000000
    28  O    6.849934   6.412915   0.000000
    29  H    6.301287   6.045504   0.972376   0.000000
    30  H    6.537410   6.109094   0.971584   1.500556   0.000000
 Symmetry turned off by external request.
 Stoichiometry    C6H16O8
 Framework group  C1[X(C6H16O8)]
 Deg. of freedom    84
 Full point group                 C1      NOp   1
 Rotational constants (GHZ):      0.6727779      0.5627196      0.4227329
 Standard basis: 6-31G(d) (6D, 7F)
   242 basis functions,   456 primitive gaussians,   242 cartesian basis functions
    58 alpha electrons       58 beta electrons
       nuclear repulsion energy      1124.1698443754 Hartrees.
 NAtoms=   30 NActive=   30 NUniq=   30 SFac= 1.00D+00 NAtFMM=   60 NAOKFM=F Big=F
 Integral buffers will be    131072 words long.
 Raffenetti 2 integral format.
 Two-electron integral symmetry is turned off.
 One-electron integrals computed using PRISM.
 NBasis=   242 RedAO= T EigKep=  1.51D-03  NBF=   242
 NBsUse=   242 1.00D-06 EigRej= -1.00D+00 NBFU=   242
 Initial guess from the checkpoint file:  "/home/iawad/Gau-4879.chk"
 B after Tr=    -0.010760    0.024074    0.003708
         Rot=    1.000000    0.000009   -0.000017   -0.000034 Ang=   0.00 deg.
 ExpMin= 1.61D-01 ExpMax= 5.48D+03 ExpMxC= 8.25D+02 IAcc=1 IRadAn=         1 AccDes= 0.00D+00
 Harris functional with IExCor=  402 and IRadAn=       1 diagonalized for initial guess.
 HarFok:  IExCor=  402 AccDes= 0.00D+00 IRadAn=         1 IDoV= 1 UseB2=F ITyADJ=14
 ICtDFT=  3500011 ScaDFX=  1.000000  1.000000  1.000000  1.000000
 FoFCou: FMM=F IPFlag=           0 FMFlag=      100000 FMFlg1=           0
         NFxFlg=           0 DoJE=T BraDBF=F KetDBF=T FulRan=T
         wScrn=  0.000000 ICntrl=     500 IOpCl=  0 I1Cent=   200000004 NGrid=           0
         NMat0=    1 NMatS0=      1 NMatT0=    0 NMatD0=    1 NMtDS0=    0 NMtDT0=    0
 Symmetry not used in FoFCou.
 Requested convergence on RMS density matrix=1.00D-08 within 128 cycles.
 Requested convergence on MAX density matrix=1.00D-06.
 Requested convergence on             energy=1.00D-06.
 No special actions if energy rises.
 Integral accuracy reduced to 1.0D-05 until final iterations.
 Initial convergence to 1.0D-05 achieved.  Increase integral accuracy.
 SCF Done:  E(RB3LYP) =  -839.940925456     A.U. after   12 cycles
            NFock= 12  Conv=0.35D-08     -V/T= 2.0086
 DoSCS=F DFT=T ScalE2(SS,OS)=  1.000000  1.000000
 Range of M.O.s used for correlation:     1   242
 NBasis=   242 NAE=    58 NBE=    58 NFC=     0 NFV=     0
 NROrb=    242 NOA=    58 NOB=    58 NVA=   184 NVB=   184
 Symmetrizing basis deriv contribution to polar:
 IMax=3 JMax=2 DiffMx= 0.00D+00
 Calling FoFJK, ICntrl=      2147 FMM=F ISym2X=0 I1Cent= 0 IOpClX= 0 NMat=1 NMatS=1 NMatT=0.
 -------------------------------------------------------------------
 Center     Atomic                   Forces (Hartrees/Bohr)
 Number     Number              X              Y              Z
 -------------------------------------------------------------------
      1        8           0.004263734   -0.000414431   -0.001370538
      2        6           0.000092163    0.000087628   -0.000127979
      3        6          -0.000159439   -0.000115234   -0.000057345
      4        6           0.000012515    0.000032637    0.000041989
      5        6          -0.002939818    0.004421310    0.000056828
      6        6           0.000818349   -0.000886685   -0.000632124
      7        1           0.000014403    0.000010242    0.000014103
      8        1           0.000022107   -0.000159099   -0.000085418
      9        1          -0.000009588   -0.000003293    0.000032669
     10        1          -0.000003784   -0.000007186    0.000007277
     11        6           0.000062825    0.000121556    0.000153379
     12        1          -0.000007856   -0.000004082    0.000017685
     13        1           0.000007334    0.000019519   -0.000013087
     14        8           0.000007525    0.000217303    0.000050111
     15        1          -0.000009549   -0.000003290    0.000005469
     16        8          -0.000277984   -0.000181527   -0.000093794
     17        1           0.000012623   -0.000013728    0.000001242
     18        8           0.000056180   -0.000021357   -0.000003189
     19        1          -0.000000112    0.000014606   -0.000013252
     20        8          -0.000213673   -0.000231999   -0.000061997
     21        1           0.000008925    0.000001173   -0.000002712
     22        1           0.000136736   -0.000161838    0.000111473
     23        8          -0.003195419   -0.000620094    0.001766111
     24        1           0.002619973   -0.000176514   -0.001040920
     25        8           0.000539165   -0.001021357    0.000674441
     26        1           0.000029214    0.000058473   -0.000071165
     27        1          -0.001888085   -0.000947901    0.000660413
     28        8           0.000012339   -0.000015784   -0.000009366
     29        1          -0.000007343   -0.000000765   -0.000006614
     30        1          -0.000003460    0.000001719   -0.000003691
 -------------------------------------------------------------------
 Cartesian Forces:  Max     0.004421310 RMS     0.000937846
 IRC-IRC-IRC-IRC-IRC-IRC-IRC-IRC-IRC-IRC-IRC-IRC-IRC-IRC-IRC-IRC-IRC-IRC
 Pt  1 Step number   1 out of a maximum of  20
 Modified Bulirsch-Stoer Extrapolation Cycles:
    EPS =    0.000010000000000
 Maximum DWI energy   std dev =  0.000001745 at pt     1
 Maximum DWI gradient std dev =  0.177674196 at pt     1
 CORRECTOR INTEGRATION CONVERGENCE:
   Recorrection delta-x convergence threshold:    0.010000
   Delta-x Convergence Met
 Point Number:   1          Path Number:   1
   CHANGE IN THE REACTION COORDINATE =    0.11486
   NET REACTION COORDINATE UP TO THIS POINT =    0.11486
  # OF POINTS ALONG THE PATH =   1
  # OF STEPS =   1

 Calculating another point on the path.
 IRC-IRC-IRC-IRC-IRC-IRC-IRC-IRC-IRC-IRC-IRC-IRC-IRC-IRC-IRC-IRC-IRC-IRC
                          Input orientation:                          
 ---------------------------------------------------------------------
 Center     Atomic      Atomic             Coordinates (Angstroms)
 Number     Number       Type             X           Y           Z
 ---------------------------------------------------------------------
      1          8           0       -1.393158   -0.241034   -1.125012
      2          6           0       -0.641372    0.740842    1.013773
      3          6           0        1.060727   -0.624773   -0.402500
      4          6           0        0.615335   -0.166958    0.996318
      5          6           0       -0.089448   -1.318436   -1.152440
      6          6           0       -1.291843    0.965667   -0.360305
      7          1           0        0.356896   -1.077042    1.550859
      8          1           0       -2.329970    1.292081   -0.180613
      9          1           0       -0.352149    1.718244    1.414575
     10          1           0        1.485800    0.211251   -0.960369
     11          6           0       -0.632283    2.096609   -1.171510
     12          1           0       -1.031117    2.060512   -2.194044
     13          1           0        0.451909    1.979788   -1.231889
     14          8           0       -0.851700    3.356099   -0.546415
     15          1           0       -1.753484    3.642705   -0.757716
     16          8           0        2.107255   -1.581159   -0.293060
     17          1           0        1.654017   -2.432145   -0.135551
     18          8           0        1.721827    0.494270    1.612660
     19          1           0        1.664166    0.366017    2.570867
     20          8           0       -1.583108    0.111826    1.927207
     21          1           0       -2.243932    0.777516    2.177871
     22          1           0        0.049813   -1.326709   -2.242552
     23          8           0       -0.441421   -2.456121   -0.604417
     24          1           0       -1.692482   -2.365640   -0.060227
     25          8           0       -2.643073   -1.826783    0.184846
     26          1           0       -2.462056   -1.401622    1.057334
     27          1           0       -2.308556   -1.035489   -0.489890
     28          8           0        3.901509    0.685827   -0.376802
     29          1           0        3.398917    0.826920    0.443569
     30          1           0        3.783266   -0.269871   -0.505699
 ---------------------------------------------------------------------
                    Distance matrix (angstroms):
                    1          2          3          4          5
     1  O    0.000000
     2  C    2.470559   0.000000
     3  C    2.586664   2.601514   0.000000
     4  C    2.922254   1.550393   1.537746   0.000000
     5  C    1.691510   3.039362   1.538337   2.537672   0.000000
     6  C    1.432190   1.536798   2.840047   2.600114   2.700066
     7  H    3.304827   2.142360   2.124979   1.096612   2.750512
     8  H    2.029766   2.140510   3.901332   3.491243   3.574798
     9  H    3.372235   1.095265   3.284465   2.159850   3.984972
    10  H    2.918915   2.950011   1.091257   2.174713   2.204141
    11  C    2.458794   2.571702   3.295995   3.373391   3.457971
    12  H    2.563399   3.490489   3.846582   4.225025   3.659094
    13  H    2.889247   2.788054   2.800408   3.098408   3.343301
    14  O    3.683384   3.052539   4.418759   4.116327   4.774889
    15  H    3.917674   3.577118   5.124191   4.816790   5.247642
    16  O    3.839397   3.828114   1.421925   2.426579   2.373407
    17  H    3.881401   4.081373   1.920897   2.736980   2.305229
    18  O    4.211728   2.450342   2.397954   1.428785   3.769934
    19  H    4.834797   2.807231   3.191664   1.965532   4.446972
    20  O    3.078414   1.454953   3.599997   2.403627   3.709567
    21  H    3.559537   1.981077   4.421030   3.234734   4.486177
    22  H    2.123617   3.918694   2.213697   3.486419   1.099003
    23  O    2.466461   3.588745   2.377195   2.986528   1.310931
    24  H    2.395269   3.450875   3.275352   3.358051   2.204378
    25  O    2.406785   3.359558   3.938013   3.745762   2.927072
    26  H    2.692980   2.811928   3.891607   3.316391   3.243345
    27  H    1.368390   2.862841   3.395349   3.392978   2.333124
    28  O    5.427005   4.751263   3.128638   3.662191   4.532816
    29  H    5.154120   4.081235   2.879302   3.006935   4.395280
    30  H    5.213420   4.786205   2.747512   3.507483   4.063949
                    6          7          8          9         10
     6  C    0.000000
     7  H    3.247083   0.000000
     8  H    1.102970   3.978692   0.000000
     9  H    2.144667   2.887030   2.576434   0.000000
    10  H    2.940156   3.039801   4.041820   3.359977   0.000000
    11  C    1.540163   4.296723   2.123978   2.628587   2.843490
    12  H    2.151571   5.078890   2.516229   3.687854   3.358063
    13  H    2.197446   4.134842   3.052371   2.778252   2.066489
    14  O    2.437730   5.050941   2.565007   2.603383   3.940220
    15  H    2.745466   5.662087   2.488135   3.222753   4.723231
    16  O    4.247906   2.591896   5.287449   4.455417   2.011030
    17  H    4.502635   2.522460   5.453809   4.863468   2.774196
    18  O    3.632769   2.082277   4.502153   2.416346   2.599286
    19  H    4.205870   2.198133   4.937748   2.689062   3.539124
    20  O    2.458982   2.306222   2.528578   2.087733   4.214994
    21  H    2.717391   3.255279   2.415497   2.246426   4.907149
    22  H    3.255438   3.814001   4.095488   4.775761   2.464016
    23  O    3.534322   2.680370   4.218441   4.637846   3.309948
    24  H    3.368704   2.907926   3.714809   4.544187   4.189523
    25  O    3.149729   3.380521   3.155774   4.396338   4.744755
    26  H    2.997191   2.880175   2.967490   3.783238   4.717844
    27  H    2.248360   3.357234   2.348126   3.877829   4.021548
    28  O    5.200912   4.403165   6.263973   4.729537   2.530103
    29  H    4.761165   3.755670   5.781533   3.975904   2.451552
    30  H    5.225364   4.076882   6.317992   4.974104   2.390932
                   11         12         13         14         15
    11  C    0.000000
    12  H    1.098156   0.000000
    13  H    1.092138   1.769640   0.000000
    14  O    1.423096   2.103667   2.015813   0.000000
    15  H    1.954157   2.255701   2.802479   0.969539   0.000000
    16  O    4.669338   5.169611   4.037563   5.761607   6.512293
    17  H    5.177836   5.624171   4.702358   6.320695   6.992993
    18  O    3.982578   4.952051   3.451219   4.413016   5.254437
    19  H    4.719536   5.730640   4.305204   4.998762   5.787614
    20  O    3.800721   4.592034   4.196482   4.144765   4.439025
    21  H    3.944081   4.714938   4.509931   4.001142   4.131285
    22  H    3.651232   3.555844   3.480811   5.061452   5.491056
    23  O    4.591881   4.824378   4.568265   5.826971   6.240247
    24  H    4.719178   4.957963   4.985374   5.803584   6.049002
    25  O    4.612590   4.834106   5.106470   5.532272   5.620951
    26  H    4.533590   4.960384   5.016539   5.272681   5.407561
    27  H    3.617256   3.757820   4.154832   4.627275   4.718616
    28  O    4.814264   5.433500   3.782228   5.454550   6.392744
    29  H    4.524507   5.301316   3.580659   5.044260   5.993244
    30  H    5.053772   5.608875   4.084882   5.884915   6.784347
                   16         17         18         19         20
    16  O    0.000000
    17  H    0.976939   0.000000
    18  O    2.843894   3.409508   0.000000
    19  H    3.491404   3.892880   0.968470   0.000000
    20  O    4.627587   4.604968   3.341825   3.320195   0.000000
    21  H    5.531878   5.554084   4.015835   3.949304   0.970910
    22  H    2.845757   2.869654   4.579766   5.351679   4.703478
    23  O    2.712610   2.147387   4.277836   4.741349   3.782448
    24  H    3.886852   3.348007   4.757640   5.064750   3.178001
    25  O    4.780622   4.351333   5.145707   5.390156   2.813815
    26  H    4.768060   4.407607   4.626842   4.737197   1.954419
    27  H    4.453749   4.216419   4.796339   5.207204   2.772177
    28  O    2.892332   3.851126   2.957308   3.714396   5.976534
    29  H    2.830169   3.741866   2.071247   2.783378   5.247201
    30  H    2.138622   3.057146   3.053013   3.789485   5.904464
                   21         22         23         24         25
    21  H    0.000000
    22  H    5.406401   0.000000
    23  O    4.631045   2.049480   0.000000
    24  H    3.897770   2.979515   1.367290   0.000000
    25  O    3.303611   3.659777   2.422039   1.119844   0.000000
    26  H    2.460046   4.147812   2.820699   1.664487   0.987302
    27  H    3.226161   2.952717   2.348936   1.527566   1.092390
    28  O    6.655915   4.729365   5.365136   6.380000   7.032796
    29  H    5.903558   4.803110   5.159925   6.030638   6.604145
    30  H    6.680246   4.251146   4.757880   5.880009   6.648208
                   26         27         28         29         30
    26  H    0.000000
    27  H    1.597347   0.000000
    28  O    6.849025   6.445202   0.000000
    29  H    6.300326   6.075785   0.972376   0.000000
    30  H    6.536664   6.139765   0.971573   1.500594   0.000000
 Symmetry turned off by external request.
 Stoichiometry    C6H16O8
 Framework group  C1[X(C6H16O8)]
 Deg. of freedom    84
 Full point group                 C1      NOp   1
 Rotational constants (GHZ):      0.6728191      0.5628666      0.4228295
 Standard basis: 6-31G(d) (6D, 7F)
   242 basis functions,   456 primitive gaussians,   242 cartesian basis functions
    58 alpha electrons       58 beta electrons
       nuclear repulsion energy      1124.2484804939 Hartrees.
 NAtoms=   30 NActive=   30 NUniq=   30 SFac= 1.00D+00 NAtFMM=   60 NAOKFM=F Big=F
 Integral buffers will be    131072 words long.
 Raffenetti 2 integral format.
 Two-electron integral symmetry is turned off.
 One-electron integrals computed using PRISM.
 NBasis=   242 RedAO= T EigKep=  1.51D-03  NBF=   242
 NBsUse=   242 1.00D-06 EigRej= -1.00D+00 NBFU=   242
 Initial guess from the checkpoint file:  "/home/iawad/Gau-4879.chk"
 B after Tr=     0.000055   -0.000165    0.000016
         Rot=    1.000000    0.000002   -0.000010   -0.000035 Ang=   0.00 deg.
 ExpMin= 1.61D-01 ExpMax= 5.48D+03 ExpMxC= 8.25D+02 IAcc=1 IRadAn=         1 AccDes= 0.00D+00
 Harris functional with IExCor=  402 and IRadAn=       1 diagonalized for initial guess.
 HarFok:  IExCor=  402 AccDes= 0.00D+00 IRadAn=         1 IDoV= 1 UseB2=F ITyADJ=14
 ICtDFT=  3500011 ScaDFX=  1.000000  1.000000  1.000000  1.000000
 FoFCou: FMM=F IPFlag=           0 FMFlag=      100000 FMFlg1=           0
         NFxFlg=           0 DoJE=T BraDBF=F KetDBF=T FulRan=T
         wScrn=  0.000000 ICntrl=     500 IOpCl=  0 I1Cent=   200000004 NGrid=           0
         NMat0=    1 NMatS0=      1 NMatT0=    0 NMatD0=    1 NMtDS0=    0 NMtDT0=    0
 Symmetry not used in FoFCou.
 Requested convergence on RMS density matrix=1.00D-08 within 128 cycles.
 Requested convergence on MAX density matrix=1.00D-06.
 Requested convergence on             energy=1.00D-06.
 No special actions if energy rises.
 Integral accuracy reduced to 1.0D-05 until final iterations.
 Initial convergence to 1.0D-05 achieved.  Increase integral accuracy.
 SCF Done:  E(RB3LYP) =  -839.941629556     A.U. after   11 cycles
            NFock= 11  Conv=0.90D-08     -V/T= 2.0086
 DoSCS=F DFT=T ScalE2(SS,OS)=  1.000000  1.000000
 Range of M.O.s used for correlation:     1   242
 NBasis=   242 NAE=    58 NBE=    58 NFC=     0 NFV=     0
 NROrb=    242 NOA=    58 NOB=    58 NVA=   184 NVB=   184
 Symmetrizing basis deriv contribution to polar:
 IMax=3 JMax=2 DiffMx= 0.00D+00
 Calling FoFJK, ICntrl=      2147 FMM=F ISym2X=0 I1Cent= 0 IOpClX= 0 NMat=1 NMatS=1 NMatT=0.
 -------------------------------------------------------------------
 Center     Atomic                   Forces (Hartrees/Bohr)
 Number     Number              X              Y              Z
 -------------------------------------------------------------------
      1        8           0.008384491   -0.000973582   -0.002872096
      2        6           0.000085621    0.000122804   -0.000147453
      3        6          -0.000318826   -0.000215352   -0.000064216
      4        6           0.000005574    0.000071239    0.000106965
      5        6          -0.005575134    0.008743427    0.000020342
      6        6           0.001605730   -0.001557479   -0.001070576
      7        1           0.000008901    0.000012490    0.000037351
      8        1           0.000036163   -0.000338655   -0.000185093
      9        1          -0.000013982   -0.000005305    0.000037474
     10        1          -0.000000562   -0.000016239    0.000018016
     11        6           0.000121768    0.000242872    0.000263105
     12        1          -0.000010182   -0.000002950    0.000027817
     13        1           0.000015747    0.000039889   -0.000022451
     14        8          -0.000006545    0.000368841    0.000093335
     15        1          -0.000010684   -0.000004671    0.000009491
     16        8          -0.000587774   -0.000371639   -0.000240655
     17        1           0.000060906   -0.000027182    0.000043541
     18        8           0.000114744   -0.000039536   -0.000044174
     19        1          -0.000007988    0.000022685    0.000002317
     20        8          -0.000224318   -0.000277986   -0.000101390
     21        1           0.000004372   -0.000000634   -0.000009640
     22        1           0.000268212   -0.000326340    0.000224807
     23        8          -0.006605975   -0.001053612    0.003521192
     24        1           0.005746790   -0.000526676   -0.002226914
     25        8           0.000223832   -0.002449250    0.001900628
     26        1           0.000003905    0.000033968   -0.000206586
     27        1          -0.003324623   -0.001451826    0.000902977
     28        8          -0.000000369   -0.000028984   -0.000016292
     29        1          -0.000010721    0.000005495    0.000000143
     30        1           0.000010926    0.000004189   -0.000001963
 -------------------------------------------------------------------
 Cartesian Forces:  Max     0.008743427 RMS     0.001867440
 IRC-IRC-IRC-IRC-IRC-IRC-IRC-IRC-IRC-IRC-IRC-IRC-IRC-IRC-IRC-IRC-IRC-IRC
 Pt  2 Step number   1 out of a maximum of  20
 Modified Bulirsch-Stoer Extrapolation Cycles:
    EPS =    0.000010000000000
 Maximum DWI energy   std dev =  0.000006569 at pt    53
 Maximum DWI gradient std dev =  0.134751036 at pt    55
 CORRECTOR INTEGRATION CONVERGENCE:
   Recorrection delta-x convergence threshold:    0.010000
   Delta-x Convergence NOT Met
 IRC-IRC-IRC-IRC-IRC-IRC-IRC-IRC-IRC-IRC-IRC-IRC-IRC-IRC-IRC-IRC-IRC-IRC
                          Input orientation:                          
 ---------------------------------------------------------------------
 Center     Atomic      Atomic             Coordinates (Angstroms)
 Number     Number       Type             X           Y           Z
 ---------------------------------------------------------------------
      1          8           0       -1.393135   -0.241037   -1.125042
      2          6           0       -0.641394    0.740827    1.013796
      3          6           0        1.060726   -0.624774   -0.402492
      4          6           0        0.615334   -0.166959    0.996322
      5          6           0       -0.089386   -1.318399   -1.152477
      6          6           0       -1.291850    0.965701   -0.360262
      7          1           0        0.356858   -1.077023    1.550870
      8          1           0       -2.329969    1.291962   -0.180662
      9          1           0       -0.352127    1.718261    1.414500
     10          1           0        1.485800    0.211236   -0.960384
     11          6           0       -0.632285    2.096605   -1.171518
     12          1           0       -1.031105    2.060529   -2.194060
     13          1           0        0.451908    1.979797   -1.231880
     14          8           0       -0.851703    3.356087   -0.546416
     15          1           0       -1.753489    3.642713   -0.757714
     16          8           0        2.107252   -1.581162   -0.293068
     17          1           0        1.654156   -2.432166   -0.135450
     18          8           0        1.721828    0.494268    1.612655
     19          1           0        1.664151    0.366014    2.570866
     20          8           0       -1.583079    0.111847    1.927210
     21          1           0       -2.243953    0.777489    2.177858
     22          1           0        0.049790   -1.326803   -2.242477
     23          8           0       -0.441477   -2.456132   -0.604396
     24          1           0       -1.689146   -2.366469   -0.061480
     25          8           0       -2.643358   -1.826929    0.185106
     26          1           0       -2.462192   -1.401813    1.057122
     27          1           0       -2.307463   -1.032766   -0.492527
     28          8           0        3.901504    0.685827   -0.376808
     29          1           0        3.398937    0.826932    0.443585
     30          1           0        3.783305   -0.269871   -0.505681
 ---------------------------------------------------------------------
                    Distance matrix (angstroms):
                    1          2          3          4          5
     1  O    0.000000
     2  C    2.470587   0.000000
     3  C    2.586652   2.601529   0.000000
     4  C    2.922263   1.550402   1.537742   0.000000
     5  C    1.691514   3.039385   1.538295   2.537672   0.000000
     6  C    1.432259   1.536782   2.840073   2.600114   2.700118
     7  H    3.304824   2.142321   2.124990   1.096609   2.750542
     8  H    2.029679   2.140505   3.901269   3.491210   3.574719
     9  H    3.372214   1.095270   3.284422   2.159840   3.984935
    10  H    2.918892   2.950052   1.091258   2.174728   2.204063
    11  C    2.458785   2.571733   3.295997   3.373397   3.457940
    12  H    2.563411   3.490534   3.846600   4.225045   3.659082
    13  H    2.889239   2.788084   2.800417   3.098411   3.343262
    14  O    3.683377   3.052552   4.418751   4.116320   4.774856
    15  H    3.917691   3.577142   5.124201   4.816800   5.247638
    16  O    3.839379   3.828130   1.421924   2.426586   2.373362
    17  H    3.881536   4.081446   1.920972   2.737010   2.305376
    18  O    4.211729   2.450356   2.397943   1.428782   3.769909
    19  H    4.834795   2.807221   3.191651   1.965519   4.446956
    20  O    3.078450   1.454893   3.599976   2.403602   3.709608
    21  H    3.559555   1.981055   4.421023   3.234737   4.486204
    22  H    2.123577   3.918691   2.213681   3.486387   1.098882
    23  O    2.466449   3.588741   2.377236   2.986547   1.311029
    24  H    2.395046   3.450984   3.272856   3.356697   2.201807
    25  O    2.407197   3.359756   3.938361   3.746017   2.927542
    26  H    2.692977   2.812133   3.891686   3.316584   3.243376
    27  H    1.364883   2.861892   3.394004   3.392497   2.331734
    28  O    5.426983   4.751287   3.128635   3.662192   4.532747
    29  H    5.154135   4.081278   2.879328   3.006957   4.395254
    30  H    5.213441   4.786260   2.747551   3.507513   4.063926
                    6          7          8          9         10
     6  C    0.000000
     7  H    3.247059   0.000000
     8  H    1.102902   3.978610   0.000000
     9  H    2.144577   2.887018   2.576457   0.000000
    10  H    2.940188   3.039822   4.041785   3.359937   0.000000
    11  C    1.540164   4.296711   2.123999   2.628521   2.843497
    12  H    2.151616   5.078896   2.516250   3.687800   3.358073
    13  H    2.197453   4.134838   3.052378   2.778165   2.066506
    14  O    2.437689   5.050911   2.565084   2.603314   3.940225
    15  H    2.745445   5.662070   2.488241   3.222708   4.723251
    16  O    4.247932   2.591938   5.287382   4.455394   2.011021
    17  H    4.502776   2.522513   5.453845   4.863493   2.774245
    18  O    3.632756   2.082286   4.502151   2.416344   2.599297
    19  H    4.205839   2.198126   4.937740   2.689076   3.539137
    20  O    2.458945   2.306166   2.528565   2.087745   4.214985
    21  H    2.717347   3.255234   2.415512   2.246501   4.907164
    22  H    3.255504   3.813943   4.095395   4.775713   2.464032
    23  O    3.534357   2.680383   4.218313   4.637832   3.309981
    24  H    3.369046   2.906627   3.716043   4.544354   4.187227
    25  O    3.150045   3.380676   3.155865   4.396535   4.745125
    26  H    2.997299   2.880334   2.967494   3.783511   4.717934
    27  H    2.245626   3.357982   2.345662   3.876628   4.019362
    28  O    5.200917   4.403192   6.263955   4.729491   2.530104
    29  H    4.761189   3.755712   5.781548   3.975881   2.451592
    30  H    5.225417   4.076939   6.317996   4.974090   2.390972
                   11         12         13         14         15
    11  C    0.000000
    12  H    1.098158   0.000000
    13  H    1.092137   1.769643   0.000000
    14  O    1.423093   2.103660   2.015797   0.000000
    15  H    1.954170   2.255711   2.802481   0.969546   0.000000
    16  O    4.669337   5.169620   4.037569   5.761600   6.512303
    17  H    5.177936   5.624306   4.702443   6.320767   6.993097
    18  O    3.982582   4.952060   3.451213   4.413010   5.254444
    19  H    4.719534   5.730646   4.305195   4.998750   5.787613
    20  O    3.800709   4.592048   4.196458   4.144735   4.439017
    21  H    3.944091   4.714961   4.509935   4.001149   4.131300
[...]
 Alpha  occ. eigenvalues --   -1.05844  -1.04698  -1.04338  -1.02621  -1.01517
 Alpha  occ. eigenvalues --   -0.99599  -0.95714  -0.80398  -0.77462  -0.71128
 Alpha  occ. eigenvalues --   -0.66340  -0.64934  -0.59055  -0.57366  -0.54851
 Alpha  occ. eigenvalues --   -0.54055  -0.52946  -0.52422  -0.50879  -0.49224
 Alpha  occ. eigenvalues --   -0.48393  -0.47104  -0.45821  -0.45707  -0.44196
 Alpha  occ. eigenvalues --   -0.43010  -0.41628  -0.40869  -0.38599  -0.37921
 Alpha  occ. eigenvalues --   -0.37463  -0.37062  -0.35531  -0.34287  -0.33018
 Alpha  occ. eigenvalues --   -0.32256  -0.31900  -0.30314  -0.29236  -0.29008
 Alpha  occ. eigenvalues --   -0.27594  -0.26060  -0.25451
 Alpha virt. eigenvalues --    0.03249   0.03958   0.05198   0.06539   0.09047
 Alpha virt. eigenvalues --    0.09586   0.10228   0.11994   0.13047   0.13859
 Alpha virt. eigenvalues --    0.14145   0.15444   0.16618   0.17644   0.18060
 Alpha virt. eigenvalues --    0.18886   0.19617   0.21285   0.22126   0.22971
 Alpha virt. eigenvalues --    0.23891   0.25165   0.25405   0.27111   0.29748
 Alpha virt. eigenvalues --    0.30127   0.32978   0.34543   0.49833   0.50642
 Alpha virt. eigenvalues --    0.52346   0.53700   0.55324   0.57221   0.58445
 Alpha virt. eigenvalues --    0.59215   0.62467   0.63544   0.65404   0.65461
 Alpha virt. eigenvalues --    0.65748   0.68874   0.70028   0.71690   0.73673
 Alpha virt. eigenvalues --    0.75000   0.78349   0.79408   0.79833   0.80526
 Alpha virt. eigenvalues --    0.82103   0.82141   0.83561   0.84233   0.84726
 Alpha virt. eigenvalues --    0.85561   0.86360   0.86931   0.87758   0.90114
 Alpha virt. eigenvalues --    0.91004   0.92062   0.94085   0.95582   0.96139
 Alpha virt. eigenvalues --    0.96970   0.97390   0.98904   1.01373   1.02087
 Alpha virt. eigenvalues --    1.02421   1.03956   1.04738   1.05601   1.06514
 Alpha virt. eigenvalues --    1.09034   1.10181   1.14005   1.15300   1.16843
 Alpha virt. eigenvalues --    1.19437   1.21584   1.21821   1.23344   1.24600
 Alpha virt. eigenvalues --    1.26094   1.29818   1.32016   1.33804   1.34866
 Alpha virt. eigenvalues --    1.37425   1.41189   1.43363   1.44738   1.48341
 Alpha virt. eigenvalues --    1.49665   1.52795   1.54500   1.56212   1.59631
 Alpha virt. eigenvalues --    1.60349   1.63336   1.63964   1.67623   1.68380
 Alpha virt. eigenvalues --    1.69938   1.72011   1.72736   1.73154   1.74264
 Alpha virt. eigenvalues --    1.74977   1.76347   1.77568   1.78555   1.79365
 Alpha virt. eigenvalues --    1.79777   1.81140   1.82556   1.83827   1.85462
 Alpha virt. eigenvalues --    1.87398   1.88680   1.88987   1.91486   1.92812
 Alpha virt. eigenvalues --    1.93792   1.94812   1.98599   2.00278   2.02989
 Alpha virt. eigenvalues --    2.04450   2.07198   2.09824   2.12078   2.15356
 Alpha virt. eigenvalues --    2.18010   2.19487   2.22899   2.25332   2.27742
 Alpha virt. eigenvalues --    2.31016   2.32212   2.35254   2.36693   2.38694
 Alpha virt. eigenvalues --    2.40682   2.42881   2.44265   2.45238   2.48326
 Alpha virt. eigenvalues --    2.48958   2.51963   2.53712   2.54688   2.56784
 Alpha virt. eigenvalues --    2.61494   2.62239   2.63359   2.67355   2.68733
 Alpha virt. eigenvalues --    2.72428   2.76742   2.81397   2.86206   2.88757
 Alpha virt. eigenvalues --    2.91882   2.95501   2.98049   3.02529   3.06248
 Alpha virt. eigenvalues --    3.70126   3.71370   3.80167   3.82102   3.88797
 Alpha virt. eigenvalues --    3.90413   3.93344   4.11278   4.31633   4.32411
 Alpha virt. eigenvalues --    4.48168   4.54122   4.62704   4.78374
          Condensed to atoms (all electrons):
               1          2          3          4          5          6
     1  O    8.402243  -0.031621  -0.019747  -0.006029   0.174115   0.166238
     2  C   -0.031621   5.146316  -0.035517   0.257298  -0.004338   0.274589
     3  C   -0.019747  -0.035517   5.130573   0.268885   0.261522  -0.005094
     4  C   -0.006029   0.257298   0.268885   5.031795  -0.025322  -0.030954
     5  C    0.174115  -0.004338   0.261522  -0.025322   4.712283  -0.022955
     6  C    0.166238   0.274589  -0.005094  -0.030954  -0.022955   5.073329
     7  H    0.000484  -0.051454  -0.036852   0.344798  -0.007243   0.002650
     8  H   -0.038217  -0.047275   0.000059   0.004087   0.004300   0.354192
     9  H    0.003074   0.349729   0.000775  -0.034108   0.000169  -0.047124
    10  H    0.001283  -0.002220   0.337715  -0.050829  -0.027616  -0.001063
    11  C   -0.031976  -0.038162  -0.003973  -0.002107  -0.003069   0.294143
    12  H    0.006393   0.005397   0.000116  -0.000111   0.000362  -0.041850
    13  H    0.001846  -0.008180  -0.000630   0.001710   0.001010  -0.045013
    14  O    0.001431  -0.003105   0.000049   0.000278   0.000041  -0.043086
    15  H    0.000002  -0.000439   0.000001  -0.000011   0.000000  -0.003433
    16  O    0.001021   0.003992   0.237900  -0.042429  -0.024891  -0.000052
    17  H    0.000437  -0.000057  -0.035371  -0.003035  -0.015228  -0.000025
    18  O    0.000025  -0.046399  -0.046359   0.227789   0.002105   0.003117
    19  H    0.000001   0.000193   0.006445  -0.021920  -0.000148   0.000037
    20  O    0.000609   0.172839   0.001490  -0.033472   0.000678  -0.033981
    21  H   -0.000111  -0.016871  -0.000233   0.005732   0.000013  -0.002439
    22  H   -0.044105  -0.000763  -0.070410   0.007177   0.391479   0.004355
    23  O   -0.038304   0.000657  -0.057335  -0.004765   0.257706   0.000089
    24  H    0.002152   0.000514   0.001476   0.000196  -0.022501  -0.000610
    25  O   -0.034669   0.000348  -0.001004   0.000004   0.006492   0.005679
    26  H    0.002560  -0.006767  -0.000369  -0.000414   0.000610   0.001038
    27  H    0.046847  -0.000051   0.001157  -0.000040  -0.003195  -0.001227
    28  O    0.000000  -0.000060  -0.001884  -0.001683   0.000295   0.000021
    29  H    0.000000   0.000296   0.000849  -0.002910   0.000059  -0.000036
    30  H   -0.000002  -0.000004  -0.000772   0.000375   0.000238  -0.000001
               7          8          9         10         11         12
     1  O    0.000484  -0.038217   0.003074   0.001283  -0.031976   0.006393
     2  C   -0.051454  -0.047275   0.349729  -0.002220  -0.038162   0.005397
     3  C   -0.036852   0.000059   0.000775   0.337715  -0.003973   0.000116
     4  C    0.344798   0.004087  -0.034108  -0.050829  -0.002107  -0.000111
     5  C   -0.007243   0.004300   0.000169  -0.027616  -0.003069   0.000362
     6  C    0.002650   0.354192  -0.047124  -0.001063   0.294143  -0.041850
     7  H    0.603718  -0.000347   0.004737   0.006096   0.000052   0.000006
     8  H   -0.000347   0.639108   0.000844  -0.000012  -0.047719  -0.005475
     9  H    0.004737   0.000844   0.563259   0.000258  -0.002645   0.000559
    10  H    0.006096  -0.000012   0.000258   0.578913  -0.000854   0.000204
    11  C    0.000052  -0.047719  -0.002645  -0.000854   4.985571   0.352479
    12  H    0.000006  -0.005475   0.000559   0.000204   0.352479   0.598413
    13  H   -0.000012   0.005628   0.000172   0.007223   0.379725  -0.034778
    14  O   -0.000004   0.003692   0.014394   0.000003   0.224705  -0.025028
    15  H    0.000000   0.004797  -0.000351   0.000002  -0.027222  -0.009074
    16  O   -0.002104   0.000002  -0.000057  -0.042345   0.000054  -0.000003
    17  H    0.004869   0.000000   0.000003   0.007156   0.000000   0.000000
    18  O   -0.030904  -0.000077   0.004571  -0.001171   0.000257   0.000003
    19  H   -0.007501   0.000004   0.000704  -0.000061  -0.000015   0.000000
    20  O    0.001123  -0.001522  -0.029723  -0.000050   0.003000  -0.000076
    21  H    0.000085   0.005095  -0.006061   0.000007  -0.000188  -0.000001
    22  H    0.000219  -0.000269   0.000016  -0.002333   0.000575  -0.000057
    23  O    0.011668  -0.000031  -0.000013   0.003295  -0.000026   0.000009
    24  H    0.000718  -0.000122   0.000009  -0.000095  -0.000010  -0.000001
    25  O    0.000475   0.001679  -0.000036   0.000000   0.000050   0.000000
    26  H    0.000901  -0.000042   0.000493   0.000000   0.000124   0.000000
    27  H   -0.000168  -0.002676  -0.000055  -0.000019   0.000532   0.000021
    28  O   -0.000050   0.000000  -0.000004   0.025205  -0.000055   0.000000
    29  H    0.000295   0.000000   0.000043  -0.001934   0.000006   0.000000
    30  H   -0.000023   0.000000   0.000000  -0.005263   0.000006   0.000000
              13         14         15         16         17         18
     1  O    0.001846   0.001431   0.000002   0.001021   0.000437   0.000025
     2  C   -0.008180  -0.003105  -0.000439   0.003992  -0.000057  -0.046399
     3  C   -0.000630   0.000049   0.000001   0.237900  -0.035371  -0.046359
     4  C    0.001710   0.000278  -0.000011  -0.042429  -0.003035   0.227789
     5  C    0.001010   0.000041   0.000000  -0.024891  -0.015228   0.002105
     6  C   -0.045013  -0.043086  -0.003433  -0.000052  -0.000025   0.003117
     7  H   -0.000012  -0.000004   0.000000  -0.002104   0.004869  -0.030904
     8  H    0.005628   0.003692   0.004797   0.000002   0.000000  -0.000077
     9  H    0.000172   0.014394  -0.000351  -0.000057   0.000003   0.004571
    10  H    0.007223   0.000003   0.000002  -0.042345   0.007156  -0.001171
    11  C    0.379725   0.224705  -0.027222   0.000054   0.000000   0.000257
    12  H   -0.034778  -0.025028  -0.009074  -0.000003   0.000000   0.000003
    13  H    0.530751  -0.034012   0.006808   0.000012   0.000002   0.000147
    14  O   -0.034012   8.233009   0.234413   0.000000   0.000000  -0.000012
    15  H    0.006808   0.234413   0.398490   0.000000   0.000000   0.000000
    16  O    0.000012   0.000000   0.000000   8.278909   0.230656   0.002426
    17  H    0.000002   0.000000   0.000000   0.230656   0.362016  -0.000007
    18  O    0.000147  -0.000012   0.000000   0.002426  -0.000007   8.257095
    19  H    0.000000  -0.000001   0.000000  -0.000387   0.000044   0.235826
    20  O    0.000008  -0.000054  -0.000009  -0.000014  -0.000004   0.001213
    21  H    0.000017   0.000084   0.000000   0.000001   0.000000  -0.000211
    22  H   -0.000180  -0.000002   0.000000   0.001661   0.001171  -0.000046
    23  O    0.000013   0.000000   0.000000  -0.012709   0.033513   0.000044
    24  H    0.000000   0.000000   0.000000   0.000158   0.000070   0.000000
    25  O    0.000001   0.000000   0.000000   0.000000   0.000035   0.000000
    26  H   -0.000001  -0.000001   0.000000  -0.000001  -0.000008   0.000002
    27  H   -0.000019  -0.000007  -0.000002  -0.000009  -0.000017   0.000000
    28  O    0.000058   0.000000   0.000000  -0.006814   0.000198  -0.007540
    29  H    0.000120   0.000000   0.000000   0.001117   0.000018   0.032351
    30  H   -0.000016   0.000000   0.000000   0.022780  -0.000367   0.000649
              19         20         21         22         23         24
     1  O    0.000001   0.000609  -0.000111  -0.044105  -0.038304   0.002152
     2  C    0.000193   0.172839  -0.016871  -0.000763   0.000657   0.000514
     3  C    0.006445   0.001490  -0.000233  -0.070410  -0.057335   0.001476
     4  C   -0.021920  -0.033472   0.005732   0.007177  -0.004765   0.000196
     5  C   -0.000148   0.000678   0.000013   0.391479   0.257706  -0.022501
     6  C    0.000037  -0.033981  -0.002439   0.004355   0.000089  -0.000610
     7  H   -0.007501   0.001123   0.000085   0.000219   0.011668   0.000718
     8  H    0.000004  -0.001522   0.005095  -0.000269  -0.000031  -0.000122
     9  H    0.000704  -0.029723  -0.006061   0.000016  -0.000013   0.000009
    10  H   -0.000061  -0.000050   0.000007  -0.002333   0.003295  -0.000095
    11  C   -0.000015   0.003000  -0.000188   0.000575  -0.000026  -0.000010
    12  H    0.000000  -0.000076  -0.000001  -0.000057   0.000009  -0.000001
    13  H    0.000000   0.000008   0.000017  -0.000180   0.000013   0.000000
    14  O   -0.000001  -0.000054   0.000084  -0.000002   0.000000   0.000000
    15  H    0.000000  -0.000009   0.000000   0.000000   0.000000   0.000000
    16  O   -0.000387  -0.000014   0.000001   0.001661  -0.012709   0.000158
    17  H    0.000044  -0.000004   0.000000   0.001171   0.033513   0.000070
    18  O    0.235826   0.001213  -0.000211  -0.000046   0.000044   0.000000
    19  H    0.380086   0.000512  -0.000066   0.000006   0.000012  -0.000002
    20  O    0.000512   8.302201   0.227632   0.000006  -0.000215   0.000271
    21  H   -0.000066   0.227632   0.383469  -0.000001   0.000003  -0.000024
    22  H    0.000006   0.000006  -0.000001   0.612099  -0.055367   0.003370
    23  O    0.000012  -0.000215   0.000003  -0.055367   8.404331   0.187867
    24  H   -0.000002   0.000271  -0.000024   0.003370   0.187867   0.296888
    25  O    0.000000  -0.015497   0.000972  -0.000201  -0.058307   0.106256
    26  H    0.000002   0.050883  -0.002638   0.000067   0.004168  -0.005669
    27  H   -0.000001   0.001139  -0.000033   0.000027   0.007549  -0.014141
    28  O    0.000404   0.000000   0.000000  -0.000002  -0.000001   0.000000
    29  H   -0.001316  -0.000001   0.000000  -0.000005   0.000000   0.000000
    30  H   -0.000004   0.000000   0.000000   0.000002   0.000002   0.000000
              25         26         27         28         29         30
     1  O   -0.034669   0.002560   0.046847   0.000000   0.000000  -0.000002
     2  C    0.000348  -0.006767  -0.000051  -0.000060   0.000296  -0.000004
     3  C   -0.001004  -0.000369   0.001157  -0.001884   0.000849  -0.000772
     4  C    0.000004  -0.000414  -0.000040  -0.001683  -0.002910   0.000375
     5  C    0.006492   0.000610  -0.003195   0.000295   0.000059   0.000238
     6  C    0.005679   0.001038  -0.001227   0.000021  -0.000036  -0.000001
     7  H    0.000475   0.000901  -0.000168  -0.000050   0.000295  -0.000023
     8  H    0.001679  -0.000042  -0.002676   0.000000   0.000000   0.000000
     9  H   -0.000036   0.000493  -0.000055  -0.000004   0.000043   0.000000
    10  H    0.000000   0.000000  -0.000019   0.025205  -0.001934  -0.005263
    11  C    0.000050   0.000124   0.000532  -0.000055   0.000006   0.000006
    12  H    0.000000   0.000000   0.000021   0.000000   0.000000   0.000000
    13  H    0.000001  -0.000001  -0.000019   0.000058   0.000120  -0.000016
    14  O    0.000000  -0.000001  -0.000007   0.000000   0.000000   0.000000
    15  H    0.000000   0.000000  -0.000002   0.000000   0.000000   0.000000
    16  O    0.000000  -0.000001  -0.000009  -0.006814   0.001117   0.022780
    17  H    0.000035  -0.000008  -0.000017   0.000198   0.000018  -0.000367
    18  O    0.000000   0.000002   0.000000  -0.007540   0.032351   0.000649
    19  H    0.000000   0.000002  -0.000001   0.000404  -0.001316  -0.000004
    20  O   -0.015497   0.050883   0.001139   0.000000  -0.000001   0.000000
    21  H    0.000972  -0.002638  -0.000033   0.000000   0.000000   0.000000
    22  H   -0.000201   0.000067   0.000027  -0.000002  -0.000005   0.000002
    23  O   -0.058307   0.004168   0.007549  -0.000001   0.000000   0.000002
    24  H    0.106256  -0.005669  -0.014141   0.000000   0.000000   0.000000
    25  O    8.370164   0.225404   0.221463   0.000000   0.000000   0.000000
    26  H    0.225404   0.332282  -0.020903   0.000000   0.000000   0.000000
    27  H    0.221463  -0.020903   0.336042   0.000000   0.000000   0.000000
    28  O    0.000000   0.000000   0.000000   8.339764   0.239933   0.244401
    29  H    0.000000   0.000000   0.000000   0.239933   0.353988  -0.028532
    30  H    0.000000   0.000000   0.000000   0.244401  -0.028532   0.360891
 Mulliken charges:
               1
     1  O   -0.565980
     2  C    0.081112
     3  C    0.066538
     4  C    0.110015
     5  C    0.343029
     6  C    0.099466
     7  H    0.153767
     8  H    0.120297
     9  H    0.176366
    10  H    0.168503
    11  C   -0.083259
    12  H    0.152493
    13  H    0.187588
    14  O   -0.606788
    15  H    0.396028
    16  O   -0.648874
    17  H    0.413929
    18  O   -0.634898
    19  H    0.407144
    20  O   -0.648989
    21  H    0.405764
    22  H    0.151509
    23  O   -0.683854
    24  H    0.443230
    25  O   -0.829310
    26  H    0.418277
    27  H    0.427786
    28  O   -0.832187
    29  H    0.405658
    30  H    0.405640
 Sum of Mulliken charges =   0.00000
 Mulliken charges with hydrogens summed into heavy atoms:
               1
     1  O   -0.565980
     2  C    0.257478
     3  C    0.235042
     4  C    0.263782
     5  C    0.494538
     6  C    0.219763
    11  C    0.256822
    14  O   -0.210760
    16  O   -0.234945
    18  O   -0.227754
    20  O   -0.243225
    23  O   -0.240625
    25  O    0.016753
    28  O   -0.020889
 APT charges:
               1
     1  O   -0.418487
     2  C   -0.206200
     3  C   -0.147714
     4  C   -0.223881
     5  C   -0.293727
     6  C   -0.334399
     7  H    0.361408
     8  H    0.461550
     9  H    0.423322
    10  H    0.312395
    11  C   -0.575141
    12  H    0.491881
    13  H    0.268477
    14  O   -0.929414
    15  H    0.830439
    16  O   -0.766564
    17  H    0.595654
    18  O   -0.949514
    19  H    0.773464
    20  O   -0.977949
    21  H    0.792148
    22  H    0.521162
    23  O   -0.576394
    24  H    0.480927
    25  O   -0.583774
    26  H    0.348971
    27  H    0.261781
    28  O   -0.558365
    29  H    0.235615
    30  H    0.382330
 Sum of APT charges =   0.00000
 APT charges with hydrogens summed into heavy atoms:
               1
     1  O   -0.418487
     2  C    0.217122
     3  C    0.164681
     4  C    0.137527
     5  C    0.227435
     6  C    0.127150
    11  C    0.185217
    14  O   -0.098975
    16  O   -0.170910
    18  O   -0.176050
    20  O   -0.185802
    23  O   -0.095467
    25  O    0.026979
    28  O    0.059580
 Electronic spatial extent (au):  <R**2>=           2984.7662
 Charge=              0.0000 electrons
 Dipole moment (field-independent basis, Debye):
    X=             -5.0976    Y=              2.3065    Z=              2.6279  Tot=              6.1815
 Quadrupole moment (field-independent basis, Debye-Ang):
   XX=            -97.8744   YY=            -89.7572   ZZ=            -74.1889
   XY=            -19.3301   XZ=              4.0684   YZ=             -0.5836
 Traceless Quadrupole moment (field-independent basis, Debye-Ang):
   XX=            -10.6009   YY=             -2.4837   ZZ=             13.0846
   XY=            -19.3301   XZ=              4.0684   YZ=             -0.5836
 Octapole moment (field-independent basis, Debye-Ang**2):
  XXX=            -79.1618  YYY=             -0.2442  ZZZ=             25.4228  XYY=             -9.8712
  XXY=             12.2845  XXZ=             24.6748  XZZ=              2.4218  YZZ=              6.3029
  YYZ=              3.7110  XYZ=              5.1539
 Hexadecapole moment (field-independent basis, Debye-Ang**3):
 XXXX=          -1921.2906 YYYY=          -1302.6959 ZZZZ=           -537.1831 XXXY=           -213.4090
 XXXZ=             43.5757 YYYX=           -128.5134 YYYZ=            -31.7149 ZZZX=             20.8116
 ZZZY=             19.7317 XXYY=           -460.1374 XXZZ=           -320.1090 YYZZ=           -292.4026
 XXYZ=             25.7113 YYXZ=             24.5387 ZZXY=            -16.0503
 N-N= 1.124295941081D+03 E-N=-4.220227287836D+03  KE= 8.328902024186D+02
  Exact polarizability:   0.000   0.000   0.000   0.000   0.000   0.000
 Approx polarizability: 131.497  -2.148 134.373  -4.829   1.795 119.419

 This type of calculation cannot be archived.


 LET US PLACE AT THE END OF EVERY CHAPTER.....THE
 TWO LETTERS USED BY THE ROMAN JUDGES WHEN THEY DID
 NOT UNDERSTAND A PLEADING.
 N. L. -NON LIQUET- IT IS NOT CLEAR.
                                              -- VOLTAIRE
 Job cpu time:       0 days  4 hours 45 minutes 31.1 seconds.
 File lengths (MBytes):  RWF=    329 Int=      0 D2E=      0 Chk=      9 Scr=      2
 Normal termination of Gaussian 09 at Sun Jan 22 19:16:49 2017.
