 Entering Gaussian System, Link 0=g09
 Initial command:
 /global/software/gaussian/g09.e01/l1.exe "/scratch/10461029.yak.local/Gau-6500.inp" -scrdir="/scratch/10461029.yak.local/"
 Entering Link 1 = /global/software/gaussian/g09.e01/l1.exe PID=      6501.
  
 Copyright (c) 1988,1990,1992,1993,1995,1998,2003,2009,2015,
            Gaussian, Inc.  All Rights Reserved.
  
 This is part of the Gaussian(R) 09 program.  It is based on
 the Gaussian(R) 03 system (copyright 2003, Gaussian, Inc.),
 the Gaussian(R) 98 system (copyright 1998, Gaussian, Inc.),
 the Gaussian(R) 94 system (copyright 1995, Gaussian, Inc.),
 the Gaussian 92(TM) system (copyright 1992, Gaussian, Inc.),
 the Gaussian 90(TM) system (copyright 1990, Gaussian, Inc.),
 the Gaussian 88(TM) system (copyright 1988, Gaussian, Inc.),
 the Gaussian 86(TM) system (copyright 1986, Carnegie Mellon
 University), and the Gaussian 82(TM) system (copyright 1983,
 Carnegie Mellon University). Gaussian is a federally registered
 trademark of Gaussian, Inc.
  
 This software contains proprietary and confidential information,
 including trade secrets, belonging to Gaussian, Inc.
  
 This software is provided under written license and may be
 used, copied, transmitted, or stored only in accord with that
 written license.
  
 The following legend is applicable only to US Government
 contracts under FAR:
  
                    RESTRICTED RIGHTS LEGEND
  
 Use, reproduction and disclosure by the US Government is
 subject to restrictions as set forth in subparagraphs (a)
 and (c) of the Commercial Computer Software - Restricted
 Rights clause in FAR 52.227-19.
  
 Gaussian, Inc.
 340 Quinnipiac St., Bldg. 40, Wallingford CT 06492
  
  
 ---------------------------------------------------------------
 Warning -- This program may not be used in any manner that
 competes with the business of Gaussian, Inc. or will provide
 assistance to any competitor of Gaussian, Inc.  The licensee
 of this program is prohibited from giving any competitor of
 Gaussian, Inc. access to this program.  By using this program,
 the user acknowledges that Gaussian, Inc. is engaged in the
 business of creating and licensing software in the field of
 computational chemistry and represents and warrants to the
 licensee that it is not a competitor of Gaussian, Inc. and that
 it will not use this program in any manner prohibited above.
 ---------------------------------------------------------------
  

 Cite this work as:
 Gaussian 09, Revision E.01,
 M. J. Frisch, G. W. Trucks, H. B. Schlegel, G. E. Scuseria, 
 M. A. Robb, J. R. Cheeseman, G. Scalmani, V. Barone, B. Mennucci, 
 G. A. Petersson, H. Nakatsuji, M. Caricato, X. Li, H. P. Hratchian, 
 A. F. Izmaylov, J. Bloino, G. Zheng, J. L. Sonnenberg, M. Hada, 
 M. Ehara, K. Toyota, R. Fukuda, J. Hasegawa, M. Ishida, T. Nakajima, 
 Y. Honda, O. Kitao, H. Nakai, T. Vreven, J. A. Montgomery, Jr., 
 J. E. Peralta, F. Ogliaro, M. Bearpark, J. J. Heyd, E. Brothers, 
 K. N. Kudin, V. N. Staroverov, T. Keith, R. Kobayashi, J. Normand, 
 K. Raghavachari, A. Rendell, J. C. Burant, S. S. Iyengar, J. Tomasi, 
 M. Cossi, N. Rega, J. M. Millam, M. Klene, J. E. Knox, J. B. Cross, 
 V. Bakken, C. Adamo, J. Jaramillo, R. Gomperts, R. E. Stratmann, 
 O. Yazyev, A. J. Austin, R. Cammi, C. Pomelli, J. W. Ochterski, 
 R. L. Martin, K. Morokuma, V. G. Zakrzewski, G. A. Voth, 
 P. Salvador, J. J. Dannenberg, S. Dapprich, A. D. Daniels, 
 O. Farkas, J. B. Foresman, J. V. Ortiz, J. Cioslowski, 
 and D. J. Fox, Gaussian, Inc., Wallingford CT, 2013.
 
 ******************************************
 Gaussian 09:  ES64L-G09RevE.01 30-Nov-2015
                13-Jan-2017 
 ******************************************
 -------------------------------------
 # b3lyp/6-31g(d) irc=(calcfc,reverse)
 -------------------------------------
 1/10=4,14=-1,18=10,22=2,26=3,38=1,44=3/1,23;
 2/12=2,17=6,18=5,29=1,40=1/2;
 3/5=1,6=6,7=1,11=2,16=1,25=1,30=1,71=2,74=-5,140=1/1,2,3;
 4//1;
 5/5=2,38=5/2;
 8/6=4,10=90,11=11/1;
 11/6=1,8=1,9=11,15=111,16=1/1,2,10;
 10/6=1,13=1/2;
 6/7=2,8=2,9=2,10=2,28=1/1;
 7/10=1,18=20,25=1/1,2,3,16;
 1/10=4,14=-1,18=10,22=2,26=3,44=3/23(2);
 2/29=1/2;
 99/5=20/99;
 2/29=1/2;
 3/5=1,6=6,7=1,11=2,16=1,25=1,30=1,71=2,74=-5,140=1/1,2,3;
 4/5=5,16=3,69=1/1;
 5/5=2,38=5/2;
 8/6=4,10=90,11=11/1;
 11/6=1,8=1,9=11,15=111,16=1/1,2,10;
 10/6=1,13=1/2;
 7/10=1,18=20,25=1/1,2,3,16;
 1/14=-1,18=10,22=2,26=3,44=3/23(-8);
 2/29=1/2;
 6/7=2,8=2,9=2,10=2,19=2,28=1/1;
 99/5=20,9=1/99;
 ---------------------------------
 glo_2w_alpha_ts_boat5_B3LYP_631Gd
 ---------------------------------
 Symbolic Z-matrix:
 Charge =  0 Multiplicity = 1
 8                     0.3238   -0.64554  -1.05928 
 6                    -0.83314  -0.08385   1.06655 
 6                    -0.32473   1.80001  -0.65121 
 6                    -1.2475    1.27463   0.48431 
 6                     0.91307   0.93974  -0.99006 
 6                    -0.56388  -1.12292  -0.02734 
 1                    -1.20827   2.00998   1.29759 
 1                    -0.05287  -1.97823   0.45194 
 1                    -1.66616  -0.47428   1.6732 
 1                    -0.95434   1.88332  -1.54259 
 6                    -1.83443  -1.64845  -0.72583 
 1                    -1.55032  -2.43999  -1.43668 
 1                    -2.29794  -0.83764  -1.28917 
 8                    -2.8162   -2.11167   0.19946 
 1                    -2.51657  -2.96066   0.56021 
 8                     0.17541   3.09417  -0.36285 
 1                     1.02876   2.92711   0.08371 
 8                    -2.56921   1.20769  -0.06001 
 1                    -3.14968   0.79208   0.60271 
 8                     0.29171   0.14967   1.90481 
 1                     0.69051  -0.70469   2.15643 
 1                     1.15769   0.99865  -2.06312 
 8                     1.91892   1.09185  -0.196 
 1                     2.7538   -1.52427   0.07871 
 8                     2.24998  -2.09887  -0.81241 
 1                     1.98564  -2.97966  -0.50986 
 1                     1.27509  -1.41042  -1.02931 
 8                     3.08282  -0.68461   0.96308 
 1                     4.02989  -0.49114   0.88976 
 1                     2.5605    0.21333   0.52354 
 
 IRC-IRC-IRC-IRC-IRC-IRC-IRC-IRC-IRC-IRC-IRC-IRC-IRC-IRC-IRC-IRC-IRC-IRC
 ------------------------------------------------------------------------
 INPUT DATA FOR L123
 ------------------------------------------------------------------------
 GENERAL PARAMETERS:
 Rxn path following direction = Reverse
 Maximum points per path      =  10
 Step size                    =   0.100 bohr
 Integration scheme           = HPC                                 
    Redo corrector integration= Yes                                 
    DWI Weight Power          =  2
    DWI will use Hessian update vectors when possible.
    Max correction cycles     =  20
 Initial Hessian              = CalcFC
 Hessian evaluation           = All updating
 Hessian updating method      = Bofill                              
 ------------------------------------------------------------------------
 IRC-IRC-IRC-IRC-IRC-IRC-IRC-IRC-IRC-IRC-IRC-IRC-IRC-IRC-IRC-IRC-IRC-IRC
                          Input orientation:                          
 ---------------------------------------------------------------------
 Center     Atomic      Atomic             Coordinates (Angstroms)
 Number     Number       Type             X           Y           Z
 ---------------------------------------------------------------------
      1          8           0        0.323804   -0.645536   -1.059280
      2          6           0       -0.833139   -0.083849    1.066548
      3          6           0       -0.324729    1.800012   -0.651207
      4          6           0       -1.247496    1.274631    0.484305
      5          6           0        0.913072    0.939741   -0.990061
      6          6           0       -0.563875   -1.122925   -0.027344
      7          1           0       -1.208272    2.009978    1.297594
      8          1           0       -0.052867   -1.978227    0.451940
      9          1           0       -1.666155   -0.474284    1.673203
     10          1           0       -0.954339    1.883321   -1.542592
     11          6           0       -1.834425   -1.648453   -0.725831
     12          1           0       -1.550321   -2.439993   -1.436677
     13          1           0       -2.297939   -0.837641   -1.289166
     14          8           0       -2.816197   -2.111675    0.199461
     15          1           0       -2.516573   -2.960659    0.560209
     16          8           0        0.175406    3.094173   -0.362846
     17          1           0        1.028764    2.927110    0.083711
     18          8           0       -2.569209    1.207690   -0.060005
     19          1           0       -3.149681    0.792076    0.602710
     20          8           0        0.291711    0.149670    1.904813
     21          1           0        0.690509   -0.704692    2.156426
     22          1           0        1.157692    0.998653   -2.063120
     23          8           0        1.918916    1.091847   -0.195998
     24          1           0        2.753800   -1.524267    0.078707
     25          8           0        2.249981   -2.098867   -0.812413
     26          1           0        1.985641   -2.979663   -0.509855
     27          1           0        1.275093   -1.410424   -1.029307
     28          8           0        3.082815   -0.684605    0.963075
     29          1           0        4.029886   -0.491142    0.889758
     30          1           0        2.560502    0.213325    0.523543
 ---------------------------------------------------------------------
                    Distance matrix (angstroms):
                    1          2          3          4          5
     1  O    0.000000
     2  C    2.484583   0.000000
     3  C    2.562777   2.599634   0.000000
     4  C    2.922102   1.534981   1.554642   0.000000
     5  C    1.692670   2.885590   1.545005   2.637036   0.000000
     6  C    1.442486   1.532574   2.998326   2.545073   2.713446
     7  H    3.867023   2.139677   2.150014   1.097138   3.298314
     8  H    2.049813   2.138980   3.945368   3.465440   3.395135
     9  H    3.384631   1.101992   3.517773   2.155796   3.967979
    10  H    2.874432   3.269871   1.094494   2.136529   2.163991
    11  C    2.403119   2.581314   3.765191   3.217660   3.783822
    12  H    2.621993   3.511681   4.482932   4.192888   4.205992
    13  H    2.638804   2.874583   3.355259   2.951326   3.682274
    14  O    3.686950   2.965879   4.715119   3.742864   4.963220
    15  H    4.006280   3.371404   5.379191   4.421990   5.420233
    16  O    3.806897   3.627693   1.417088   2.460294   2.362018
    17  H    3.816700   3.674034   1.908507   2.841218   2.261859
    18  O    3.578061   2.439495   2.395424   1.430972   3.614289
    19  H    4.110236   2.519674   3.250938   1.966008   4.366313
    20  O    3.069076   1.422149   3.104330   2.377507   3.064408
    21  H    3.237088   1.973521   3.897057   3.235672   3.557257
    22  H    2.099148   3.863941   2.198465   3.514323   1.102164
    23  O    2.511601   3.248090   2.396384   3.243823   1.290502
    24  H    2.823484   3.989582   4.589221   4.899868   3.256053
    25  O    2.425546   4.134782   4.675080   5.029345   3.324458
    26  H    2.917485   4.337777   5.310657   5.435122   4.091788
    27  H    1.221025   3.255311   3.606839   3.982963   2.378208
    28  O    3.421051   3.963119   4.515593   4.776968   3.340812
    29  H    4.190183   4.883252   5.156223   5.579705   3.910969
    30  H    2.871548   3.449633   3.496022   3.953323   2.352170
                    6          7          8          9         10
     6  C    0.000000
     7  H    3.462050   0.000000
     8  H    1.105615   4.237437   0.000000
     9  H    2.127820   2.553879   2.521116   0.000000
    10  H    3.389093   2.854327   4.438734   4.050472   0.000000
    11  C    1.542194   4.227344   2.160982   2.676257   3.730292
    12  H    2.166556   5.234069   2.454072   3.680867   4.365485
    13  H    2.163460   3.998454   3.061492   3.050706   3.045180
    14  O    2.470227   4.558436   2.778047   2.485068   4.739331
    15  H    2.745089   5.192554   2.654570   2.853774   5.506949
    16  O    4.294533   2.418079   5.142492   4.502303   2.033295
    17  H    4.353345   2.705360   5.036651   4.621532   2.768945
    18  O    3.074768   2.083000   4.091959   2.578479   2.293981
    19  H    3.278809   2.394832   4.157832   2.224966   3.257708
    20  O    2.466730   2.465646   2.599523   2.067898   4.054971
    21  H    2.552890   3.422338   2.253835   2.416704   4.804797
    22  H    3.407238   4.232607   4.080784   4.909559   2.348247
    23  O    3.331353   3.585120   3.705821   4.335829   3.270373
    24  H    3.343544   5.447439   2.867536   4.814653   5.290611
    25  O    3.080029   5.770117   2.629877   4.914639   5.163201
    26  H    3.190662   6.193906   2.466463   4.937437   5.775694
    27  H    2.113856   4.825010   2.068809   4.102543   4.010310
    28  O    3.804130   5.078002   3.430338   4.806374   5.401039
    29  H    4.726824   5.818954   4.367148   5.749692   6.032984
    30  H    3.442495   4.246266   3.411411   4.433864   4.405895
                   11         12         13         14         15
    11  C    0.000000
    12  H    1.101160   0.000000
    13  H    1.090691   1.774324   0.000000
    14  O    1.426400   2.094560   2.026762   0.000000
    15  H    1.959875   2.278660   2.824039   0.969890   0.000000
    16  O    5.163689   5.895612   4.736525   6.030483   6.690274
    17  H    5.457929   6.145653   5.208176   6.339281   6.889288
    18  O    3.023373   4.029758   2.401625   3.338639   4.214566
    19  H    3.074264   4.142864   2.638302   2.950524   3.806002
    20  O    3.830664   4.611398   4.228779   4.204878   4.400973
    21  H    3.946312   4.576350   4.562960   4.255150   4.233518
    22  H    4.212870   4.421544   3.989031   5.530389   6.004851
    23  O    4.677343   5.103801   4.764431   5.730640   6.055429
    24  H    4.659883   4.654074   5.278503   5.602187   5.483785
    25  O    4.110078   3.866312   4.743581   5.166257   5.034562
    26  H    4.051132   3.695033   4.852282   4.930941   4.627670
    27  H    3.133346   3.034621   3.627970   4.329004   4.393919
    28  O    5.287784   5.505102   5.835111   6.117024   6.057712
    29  H    6.191901   6.352089   6.701428   7.069052   7.004516
    30  H    4.933816   5.270809   5.291020   5.866817   5.987671
                   16         17         18         19         20
    16  O    0.000000
    17  H    0.977519   0.000000
    18  O    3.344165   3.990297   0.000000
    19  H    4.157902   4.720925   0.974102   0.000000
    20  O    3.718320   3.402034   3.628330   3.735149   0.000000
    21  H    4.587313   4.195301   4.381271   4.404703   0.975850
    22  H    2.871763   2.888677   4.236267   5.069791   4.149119
    23  O    2.660258   2.058834   4.491679   5.139890   2.819379
    24  H    5.307831   4.773943   5.984752   6.363263   3.492651
    25  O    5.610137   5.249272   5.892710   6.286213   4.034112
    26  H    6.339562   6.013144   6.203463   6.468025   4.300319
    27  H    4.684536   4.484829   4.751076   5.205104   3.465544
    28  O    4.948763   4.246986   6.047549   6.415174   3.061560
    29  H    5.411147   4.619620   6.880126   7.298988   3.926185
    30  H    3.843651   3.147110   5.257682   5.739983   2.656948
                   21         22         23         24         25
    21  H    0.000000
    22  H    4.574299   0.000000
    23  O    3.204752   2.018487   0.000000
    24  H    3.040689   3.674249   2.759809   0.000000
    25  O    3.631760   3.514540   3.266531   1.173922   0.000000
    26  H    3.736565   4.350302   4.084134   1.747756   0.968100
    27  H    3.314919   2.624158   2.714825   1.851278   1.213014
    28  O    2.673503   3.961983   2.419482   1.263087   2.417872
    29  H    3.577917   4.380465   2.853229   1.831269   2.941127
    30  H    2.646873   3.045561   1.304290   1.804015   2.688389
                   26         27         28         29         30
    26  H    0.000000
    27  H    1.799228   0.000000
    28  O    2.939491   2.786442   0.000000
    29  H    3.511494   3.480916   0.969405   0.000000
    30  H    3.404930   2.588471   1.127953   1.670173   0.000000
 Symmetry turned off by external request.
 Stoichiometry    C6H16O8
 Framework group  C1[X(C6H16O8)]
 Deg. of freedom    84
 Full point group                 C1      NOp   1
 Rotational constants (GHZ):      0.7351195      0.5972592      0.4215459
 Standard basis: 6-31G(d) (6D, 7F)
   242 basis functions,   456 primitive gaussians,   242 cartesian basis functions
    58 alpha electrons       58 beta electrons
       nuclear repulsion energy      1136.9102353954 Hartrees.
 NAtoms=   30 NActive=   30 NUniq=   30 SFac= 1.00D+00 NAtFMM=   60 NAOKFM=F Big=F
 Integral buffers will be    131072 words long.
 Raffenetti 2 integral format.
 Two-electron integral symmetry is turned off.
 One-electron integrals computed using PRISM.
 NBasis=   242 RedAO= T EigKep=  1.36D-03  NBF=   242
 NBsUse=   242 1.00D-06 EigRej= -1.00D+00 NBFU=   242
 ExpMin= 1.61D-01 ExpMax= 5.48D+03 ExpMxC= 8.25D+02 IAcc=1 IRadAn=         1 AccDes= 0.00D+00
 Harris functional with IExCor=  402 and IRadAn=       1 diagonalized for initial guess.
 HarFok:  IExCor=  402 AccDes= 0.00D+00 IRadAn=         1 IDoV= 1 UseB2=F ITyADJ=14
 ICtDFT=  3500011 ScaDFX=  1.000000  1.000000  1.000000  1.000000
 FoFCou: FMM=F IPFlag=           0 FMFlag=      100000 FMFlg1=           0
         NFxFlg=           0 DoJE=T BraDBF=F KetDBF=T FulRan=T
         wScrn=  0.000000 ICntrl=     500 IOpCl=  0 I1Cent=   200000004 NGrid=           0
         NMat0=    1 NMatS0=      1 NMatT0=    0 NMatD0=    1 NMtDS0=    0 NMtDT0=    0
 Symmetry not used in FoFCou.
 Requested convergence on RMS density matrix=1.00D-08 within 128 cycles.
 Requested convergence on MAX density matrix=1.00D-06.
 Requested convergence on             energy=1.00D-06.
 No special actions if energy rises.
 Integral accuracy reduced to 1.0D-05 until final iterations.
 Initial convergence to 1.0D-05 achieved.  Increase integral accuracy.
 SCF Done:  E(RB3LYP) =  -839.937585491     A.U. after   14 cycles
            NFock= 14  Conv=0.42D-08     -V/T= 2.0086
 DoSCS=F DFT=T ScalE2(SS,OS)=  1.000000  1.000000
 Range of M.O.s used for correlation:     1   242
 NBasis=   242 NAE=    58 NBE=    58 NFC=     0 NFV=     0
 NROrb=    242 NOA=    58 NOB=    58 NVA=   184 NVB=   184
 Symmetrizing basis deriv contribution to polar:
 IMax=3 JMax=2 DiffMx= 0.00D+00
 G2DrvN: will do    31 centers at a time, making    1 passes.
 Calling FoFCou, ICntrl=  3107 FMM=F I1Cent=   0 AccDes= 0.00D+00.
 End of G2Drv F.D. properties file   721 does not exist.
 End of G2Drv F.D. properties file   722 does not exist.
 End of G2Drv F.D. properties file   788 does not exist.
          IDoAtm=111111111111111111111111111111
          Differentiating once with respect to nuclear coordinates.
          There are    93 degrees of freedom in the 1st order CPHF.  IDoFFX=6 NUNeed=     0.
     87 vectors produced by pass  0 Test12= 1.15D-14 1.08D-09 XBig12= 1.12D-01 6.95D-02.
 AX will form    87 AO Fock derivatives at one time.
     87 vectors produced by pass  1 Test12= 1.15D-14 1.08D-09 XBig12= 1.06D-02 1.22D-02.
     87 vectors produced by pass  2 Test12= 1.15D-14 1.08D-09 XBig12= 1.35D-04 1.82D-03.
     87 vectors produced by pass  3 Test12= 1.15D-14 1.08D-09 XBig12= 3.38D-07 6.13D-05.
     87 vectors produced by pass  4 Test12= 1.15D-14 1.08D-09 XBig12= 4.26D-10 1.75D-06.
     70 vectors produced by pass  5 Test12= 1.15D-14 1.08D-09 XBig12= 2.90D-13 4.88D-08.
      4 vectors produced by pass  6 Test12= 1.15D-14 1.08D-09 XBig12= 3.14D-16 1.30D-09.
 InvSVY:  IOpt=1 It=  1 EMax= 3.89D-16
 Solved reduced A of dimension   509 with    93 vectors.
 End of Minotr F.D. properties file   721 does not exist.
 End of Minotr F.D. properties file   722 does not exist.
 End of Minotr F.D. properties file   788 does not exist.

 **********************************************************************

            Population analysis using the SCF density.

 **********************************************************************

 Alpha  occ. eigenvalues --  -19.18021 -19.17634 -19.16445 -19.16428 -19.14936
 Alpha  occ. eigenvalues --  -19.14595 -19.12148 -19.09833 -10.28041 -10.25744
 Alpha  occ. eigenvalues --  -10.24277 -10.24085 -10.22989 -10.22149  -1.06091
 Alpha  occ. eigenvalues --   -1.03655  -1.03021  -1.02029  -1.01651  -1.01298
 Alpha  occ. eigenvalues --   -0.99778  -0.97003  -0.77614  -0.74492  -0.68686
 Alpha  occ. eigenvalues --   -0.64072  -0.62562  -0.57101  -0.55709  -0.55112
 Alpha  occ. eigenvalues --   -0.54063  -0.52417  -0.50694  -0.49779  -0.49567
 Alpha  occ. eigenvalues --   -0.47373  -0.46541  -0.45310  -0.44234  -0.42890
 Alpha  occ. eigenvalues --   -0.42168  -0.40310  -0.39666  -0.38454  -0.36862
 Alpha  occ. eigenvalues --   -0.35883  -0.34868  -0.34485  -0.33747  -0.32398
 Alpha  occ. eigenvalues --   -0.32201  -0.30917  -0.28971  -0.28621  -0.26887
 Alpha  occ. eigenvalues --   -0.25637  -0.24891  -0.22506
 Alpha virt. eigenvalues --    0.02831   0.04145   0.05325   0.07694   0.08192
 Alpha virt. eigenvalues --    0.08983   0.11742   0.13073   0.13725   0.14525
 Alpha virt. eigenvalues --    0.15549   0.16800   0.17214   0.17934   0.20000
 Alpha virt. eigenvalues --    0.20606   0.21685   0.23361   0.24123   0.24536
 Alpha virt. eigenvalues --    0.25162   0.27037   0.27587   0.29579   0.30211
 Alpha virt. eigenvalues --    0.32417   0.35752   0.38042   0.52051   0.53058
 Alpha virt. eigenvalues --    0.53736   0.55007   0.57219   0.57974   0.59006
 Alpha virt. eigenvalues --    0.60605   0.62156   0.63310   0.63809   0.66354
 Alpha virt. eigenvalues --    0.66677   0.67613   0.69317   0.71194   0.72488
 Alpha virt. eigenvalues --    0.74610   0.75460   0.77784   0.79619   0.80200
 Alpha virt. eigenvalues --    0.81818   0.82299   0.83803   0.84664   0.84926
 Alpha virt. eigenvalues --    0.85851   0.87094   0.88409   0.89375   0.90069
 Alpha virt. eigenvalues --    0.90487   0.92107   0.92578   0.95005   0.96477
 Alpha virt. eigenvalues --    0.96689   0.97890   0.99683   1.01693   1.02803
 Alpha virt. eigenvalues --    1.03792   1.04313   1.05644   1.07966   1.08778
 Alpha virt. eigenvalues --    1.10166   1.11699   1.13081   1.15640   1.17117
 Alpha virt. eigenvalues --    1.19433   1.20456   1.23859   1.25119   1.27840
 Alpha virt. eigenvalues --    1.29125   1.33770   1.36002   1.37075   1.39396
 Alpha virt. eigenvalues --    1.39865   1.42406   1.44669   1.47679   1.51212
 Alpha virt. eigenvalues --    1.52253   1.54185   1.56343   1.58398   1.59665
 Alpha virt. eigenvalues --    1.61239   1.63406   1.67312   1.68462   1.68880
 Alpha virt. eigenvalues --    1.69935   1.70553   1.71964   1.72826   1.73193
 Alpha virt. eigenvalues --    1.74682   1.77806   1.77956   1.78349   1.79634
 Alpha virt. eigenvalues --    1.80870   1.82813   1.83613   1.86383   1.86915
 Alpha virt. eigenvalues --    1.87877   1.89963   1.91108   1.92718   1.95472
 Alpha virt. eigenvalues --    1.97613   2.00817   2.01495   2.04080   2.05478
 Alpha virt. eigenvalues --    2.07050   2.08707   2.11585   2.13148   2.16216
 Alpha virt. eigenvalues --    2.21390   2.23924   2.24814   2.27941   2.31214
 Alpha virt. eigenvalues --    2.33097   2.36125   2.38509   2.40153   2.40726
 Alpha virt. eigenvalues --    2.44602   2.44936   2.46473   2.48979   2.49334
 Alpha virt. eigenvalues --    2.52588   2.53971   2.55447   2.57707   2.61378
 Alpha virt. eigenvalues --    2.62741   2.64698   2.72181   2.72988   2.73793
 Alpha virt. eigenvalues --    2.79535   2.80838   2.84436   2.86026   2.90563
 Alpha virt. eigenvalues --    2.94262   2.97205   3.00049   3.02355   3.10311
 Alpha virt. eigenvalues --    3.70714   3.74785   3.78968   3.84184   3.89595
 Alpha virt. eigenvalues --    3.96214   4.08475   4.10892   4.26766   4.31272
 Alpha virt. eigenvalues --    4.52643   4.58870   4.71521   4.86489
          Condensed to atoms (all electrons):
               1          2          3          4          5          6
     1  O    8.593488  -0.028070  -0.011505  -0.007356   0.069514   0.126897
     2  C   -0.028070   5.014856  -0.016319   0.280766  -0.000848   0.301054
     3  C   -0.011505  -0.016319   4.991275   0.275156   0.303322  -0.025121
     4  C   -0.007356   0.280766   0.275156   5.020366  -0.024711  -0.016936
     5  C    0.069514  -0.000848   0.303322  -0.024711   4.706857  -0.008563
     6  C    0.126897   0.301054  -0.025121  -0.016936  -0.008563   5.131035
     7  H   -0.000039  -0.053283  -0.048419   0.360093   0.002412   0.006106
     8  H   -0.044372  -0.051458   0.000288   0.005167   0.001000   0.333062
     9  H    0.003209   0.356263   0.004812  -0.045886   0.000267  -0.064874
    10  H    0.001649   0.003480   0.350157  -0.062147  -0.030965   0.001123
    11  C   -0.033873  -0.033163   0.000134  -0.005788   0.000801   0.295172
    12  H    0.004671   0.005281  -0.000024  -0.000252  -0.000096  -0.045929
    13  H    0.003585  -0.009089  -0.000847   0.000822   0.000210  -0.038593
    14  O    0.001483  -0.006238   0.000009  -0.000523  -0.000003  -0.041710
    15  H   -0.000004  -0.001041   0.000002   0.000083  -0.000001  -0.002733
    16  O    0.000659   0.002338   0.270256  -0.049247  -0.027045   0.000092
    17  H    0.000530  -0.000356  -0.042365  -0.000009  -0.019183   0.000085
    18  O   -0.000240  -0.031577  -0.035870   0.202464   0.001347  -0.002449
    19  H    0.000035  -0.004751   0.006619  -0.024683  -0.000244  -0.001560
    20  O    0.000713   0.193633   0.002468  -0.044166   0.003208  -0.028704
    21  H   -0.000335  -0.020051  -0.000379   0.006025  -0.000079  -0.005977
    22  H   -0.039455  -0.000182  -0.074638   0.005824   0.366855   0.004195
    23  O   -0.042625   0.003687  -0.058514  -0.002289   0.333138   0.001153
    24  H    0.004906   0.000011   0.000083  -0.000008  -0.000155   0.000095
    25  O   -0.096951  -0.000637  -0.000041   0.000008   0.003078   0.006153
    26  H    0.004300   0.000074  -0.000001  -0.000000  -0.000065  -0.000071
    27  H    0.125972   0.003793   0.001507  -0.000030  -0.004531  -0.012770
    28  O   -0.000404  -0.000526  -0.000245   0.000021   0.005614   0.000318
    29  H   -0.000015   0.000009   0.000015  -0.000000  -0.000069  -0.000004
    30  H    0.001008  -0.000936   0.001206  -0.000138  -0.015512   0.000513
               7          8          9         10         11         12
     1  O   -0.000039  -0.044372   0.003209   0.001649  -0.033873   0.004671
     2  C   -0.053283  -0.051458   0.356263   0.003480  -0.033163   0.005281
     3  C   -0.048419   0.000288   0.004812   0.350157   0.000134  -0.000024
     4  C    0.360093   0.005167  -0.045886  -0.062147  -0.005788  -0.000252
     5  C    0.002412   0.001000   0.000267  -0.030965   0.000801  -0.000096
     6  C    0.006106   0.333062  -0.064874   0.001123   0.295172  -0.045929
     7  H    0.603248  -0.000227  -0.005826   0.004406   0.000040   0.000011
     8  H   -0.000227   0.719953  -0.000771   0.000034  -0.053366  -0.008037
     9  H   -0.005826  -0.000771   0.646686  -0.000316  -0.002117   0.000333
    10  H    0.004406   0.000034  -0.000316   0.603547  -0.000083   0.000001
    11  C    0.000040  -0.053366  -0.002117  -0.000083   4.973043   0.347095
    12  H    0.000011  -0.008037   0.000333   0.000001   0.347095   0.639693
    13  H    0.000192   0.005820  -0.000144   0.001232   0.369847  -0.032732
    14  O   -0.000012   0.003621   0.016800   0.000002   0.228240  -0.030246
    15  H   -0.000001   0.004168   0.000308   0.000000  -0.028894  -0.008520
    16  O    0.007519   0.000004  -0.000076  -0.041000   0.000001   0.000000
    17  H    0.000188   0.000002   0.000004   0.007434   0.000001  -0.000000
    18  O   -0.031577  -0.000102  -0.001830   0.005157  -0.002805   0.000469
    19  H   -0.004090  -0.000031   0.009396  -0.000194   0.000547   0.000025
    20  O    0.005334  -0.004155  -0.035733   0.000008   0.003335  -0.000049
    21  H   -0.000298   0.008876  -0.003123   0.000015  -0.000013  -0.000011
    22  H   -0.000196  -0.000178   0.000006  -0.001341  -0.000081   0.000010
    23  O   -0.000004  -0.000231  -0.000032   0.003890  -0.000002   0.000003
    24  H   -0.000000  -0.001064   0.000001  -0.000001   0.000036  -0.000006
    25  O   -0.000000   0.013856   0.000000   0.000001  -0.000124   0.000082
    26  H   -0.000000   0.001258  -0.000002  -0.000000  -0.000010   0.000074
    27  H    0.000007  -0.008227  -0.000105  -0.000050  -0.000759   0.000874
    28  O   -0.000001   0.000188  -0.000005   0.000001   0.000003   0.000000
    29  H   -0.000000   0.000003   0.000000  -0.000000  -0.000000  -0.000000
    30  H    0.000005  -0.000290   0.000056  -0.000030   0.000015  -0.000000
              13         14         15         16         17         18
     1  O    0.003585   0.001483  -0.000004   0.000659   0.000530  -0.000240
     2  C   -0.009089  -0.006238  -0.001041   0.002338  -0.000356  -0.031577
     3  C   -0.000847   0.000009   0.000002   0.270256  -0.042365  -0.035870
     4  C    0.000822  -0.000523   0.000083  -0.049247  -0.000009   0.202464
     5  C    0.000210  -0.000003  -0.000001  -0.027045  -0.019183   0.001347
     6  C   -0.038593  -0.041710  -0.002733   0.000092   0.000085  -0.002449
     7  H    0.000192  -0.000012  -0.000001   0.007519   0.000188  -0.031577
     8  H    0.005820   0.003621   0.004168   0.000004   0.000002  -0.000102
     9  H   -0.000144   0.016800   0.000308  -0.000076   0.000004  -0.001830
    10  H    0.001232   0.000002   0.000000  -0.041000   0.007434   0.005157
    11  C    0.369847   0.228240  -0.028894   0.000001   0.000001  -0.002805
    12  H   -0.032732  -0.030246  -0.008520   0.000000  -0.000000   0.000469
    13  H    0.514104  -0.032334   0.006643   0.000005   0.000000   0.018118
    14  O   -0.032334   8.238845   0.232905   0.000000  -0.000000  -0.000606
    15  H    0.006643   0.232905   0.406654  -0.000000   0.000000  -0.000010
    16  O    0.000005   0.000000  -0.000000   8.266869   0.227656   0.001324
    17  H    0.000000  -0.000000   0.000000   0.227656   0.373097  -0.000078
    18  O    0.018118  -0.000606  -0.000010   0.001324  -0.000078   8.285135
    19  H   -0.002291   0.002558  -0.000057  -0.000165   0.000019   0.229577
    20  O   -0.000007   0.000028  -0.000024  -0.000065   0.000607   0.001471
    21  H    0.000017   0.000024  -0.000008   0.000015  -0.000011  -0.000111
    22  H   -0.000079   0.000001  -0.000000   0.001808   0.002485  -0.000082
    23  O    0.000005   0.000000  -0.000000  -0.019009   0.043500   0.000005
    24  H   -0.000000  -0.000000  -0.000000   0.000000  -0.000005  -0.000000
    25  O    0.000003   0.000001  -0.000002   0.000000   0.000001   0.000000
    26  H   -0.000002  -0.000002  -0.000002  -0.000000  -0.000000  -0.000000
    27  H   -0.000050   0.000020   0.000002  -0.000010  -0.000031  -0.000010
    28  O    0.000000  -0.000000  -0.000000  -0.000001   0.000028  -0.000000
    29  H    0.000000   0.000000   0.000000   0.000000  -0.000010   0.000000
    30  H   -0.000001  -0.000000   0.000000   0.000018   0.000264   0.000001
              19         20         21         22         23         24
     1  O    0.000035   0.000713  -0.000335  -0.039455  -0.042625   0.004906
     2  C   -0.004751   0.193633  -0.020051  -0.000182   0.003687   0.000011
     3  C    0.006619   0.002468  -0.000379  -0.074638  -0.058514   0.000083
     4  C   -0.024683  -0.044166   0.006025   0.005824  -0.002289  -0.000008
     5  C   -0.000244   0.003208  -0.000079   0.366855   0.333138  -0.000155
     6  C   -0.001560  -0.028704  -0.005977   0.004195   0.001153   0.000095
     7  H   -0.004090   0.005334  -0.000298  -0.000196  -0.000004  -0.000000
     8  H   -0.000031  -0.004155   0.008876  -0.000178  -0.000231  -0.001064
     9  H    0.009396  -0.035733  -0.003123   0.000006  -0.000032   0.000001
    10  H   -0.000194   0.000008   0.000015  -0.001341   0.003890  -0.000001
    11  C    0.000547   0.003335  -0.000013  -0.000081  -0.000002   0.000036
    12  H    0.000025  -0.000049  -0.000011   0.000010   0.000003  -0.000006
    13  H   -0.002291  -0.000007   0.000017  -0.000079   0.000005  -0.000000
    14  O    0.002558   0.000028   0.000024   0.000001   0.000000  -0.000000
    15  H   -0.000057  -0.000024  -0.000008  -0.000000  -0.000000  -0.000000
    16  O   -0.000165  -0.000065   0.000015   0.001808  -0.019009   0.000000
    17  H    0.000019   0.000607  -0.000011   0.002485   0.043500  -0.000005
    18  O    0.229577   0.001471  -0.000111  -0.000082   0.000005  -0.000000
    19  H    0.390550  -0.000008  -0.000013   0.000011   0.000002  -0.000000
    20  O   -0.000008   8.302826   0.223249   0.000037  -0.006109   0.000362
    21  H   -0.000013   0.223249   0.393723   0.000007   0.000994   0.000175
    22  H    0.000011   0.000037   0.000007   0.664809  -0.055470  -0.000004
    23  O    0.000002  -0.006109   0.000994  -0.055470   8.416324   0.005953
    24  H   -0.000000   0.000362   0.000175  -0.000004   0.005953   0.301808
    25  O    0.000000  -0.000008   0.000162   0.000024  -0.001842   0.129504
    26  H   -0.000000  -0.000003  -0.000040  -0.000001   0.000069  -0.004476
    27  H   -0.000001  -0.000491  -0.000166  -0.001373   0.006052  -0.008153
    28  O    0.000000  -0.000919   0.006183  -0.000177  -0.086595   0.131936
    29  H   -0.000000   0.000137  -0.000117   0.000001   0.004366  -0.005118
    30  H   -0.000000   0.006495  -0.001627   0.001591   0.109432  -0.011590
              25         26         27         28         29         30
     1  O   -0.096951   0.004300   0.125972  -0.000404  -0.000015   0.001008
     2  C   -0.000637   0.000074   0.003793  -0.000526   0.000009  -0.000936
     3  C   -0.000041  -0.000001   0.001507  -0.000245   0.000015   0.001206
     4  C    0.000008  -0.000000  -0.000030   0.000021  -0.000000  -0.000138
     5  C    0.003078  -0.000065  -0.004531   0.005614  -0.000069  -0.015512
     6  C    0.006153  -0.000071  -0.012770   0.000318  -0.000004   0.000513
     7  H   -0.000000  -0.000000   0.000007  -0.000001  -0.000000   0.000005
     8  H    0.013856   0.001258  -0.008227   0.000188   0.000003  -0.000290
     9  H    0.000000  -0.000002  -0.000105  -0.000005   0.000000   0.000056
    10  H    0.000001  -0.000000  -0.000050   0.000001  -0.000000  -0.000030
    11  C   -0.000124  -0.000010  -0.000759   0.000003  -0.000000   0.000015
    12  H    0.000082   0.000074   0.000874   0.000000  -0.000000  -0.000000
    13  H    0.000003  -0.000002  -0.000050   0.000000   0.000000  -0.000001
    14  O    0.000001  -0.000002   0.000020  -0.000000   0.000000  -0.000000
    15  H   -0.000002  -0.000002   0.000002  -0.000000   0.000000   0.000000
    16  O    0.000000  -0.000000  -0.000010  -0.000001   0.000000   0.000018
    17  H    0.000001  -0.000000  -0.000031   0.000028  -0.000010   0.000264
    18  O    0.000000  -0.000000  -0.000010  -0.000000   0.000000   0.000001
    19  H    0.000000  -0.000000  -0.000001   0.000000  -0.000000  -0.000000
    20  O   -0.000008  -0.000003  -0.000491  -0.000919   0.000137   0.006495
    21  H    0.000162  -0.000040  -0.000166   0.006183  -0.000117  -0.001627
    22  H    0.000024  -0.000001  -0.001373  -0.000177   0.000001   0.001591
    23  O   -0.001842   0.000069   0.006052  -0.086595   0.004366   0.109432
    24  H    0.129504  -0.004476  -0.008153   0.131936  -0.005118  -0.011590
    25  O    8.512324   0.231360   0.129638  -0.100897   0.004025   0.006225
    26  H    0.231360   0.367087  -0.008673   0.004324  -0.000161  -0.000166
    27  H    0.129638  -0.008673   0.283329   0.004700  -0.000108  -0.000786
    28  O   -0.100897   0.004324   0.004700   8.493096   0.230658   0.148531
    29  H    0.004025  -0.000161  -0.000108   0.230658   0.363281  -0.005602
    30  H    0.006225  -0.000166  -0.000786   0.148531  -0.005602   0.277144
 Mulliken charges:
               1
     1  O   -0.637376
     2  C    0.093282
     3  C    0.106980
     4  C    0.127375
     5  C    0.334445
     6  C    0.088938
     7  H    0.154411
     8  H    0.075209
     9  H    0.122697
    10  H    0.153989
    11  C   -0.057233
    12  H    0.127282
    13  H    0.195566
    14  O   -0.612862
    15  H    0.390531
    16  O   -0.641947
    17  H    0.406149
    18  O   -0.637721
    19  H    0.398748
    20  O   -0.623472
    21  H    0.392894
    22  H    0.125593
    23  O   -0.655849
    24  H    0.455709
    25  O   -0.835945
    26  H    0.405130
    27  H    0.490427
    28  O   -0.835832
    29  H    0.408706
    30  H    0.484175
 Sum of Mulliken charges =  -0.00000
 Mulliken charges with hydrogens summed into heavy atoms:
               1
     1  O   -0.637376
     2  C    0.215979
     3  C    0.260968
     4  C    0.281787
     5  C    0.460038
     6  C    0.164147
    11  C    0.265616
    14  O   -0.222331
    16  O   -0.235799
    18  O   -0.238973
    20  O   -0.230577
    23  O   -0.655849
    25  O    0.515321
    28  O    0.057049
 APT charges:
               1
     1  O   -0.423226
     2  C   -0.362525
     3  C   -0.254087
     4  C   -0.294662
     5  C   -0.403112
     6  C   -0.186162
     7  H    0.469393
     8  H    0.298525
     9  H    0.424451
    10  H    0.435777
    11  C   -0.648241
    12  H    0.460453
    13  H    0.355173
    14  O   -0.805886
    15  H    0.710567
    16  O   -0.576550
    17  H    0.469206
    18  O   -0.797798
    19  H    0.684763
    20  O   -0.720172
    21  H    0.599741
    22  H    0.480834
    23  O   -0.424082
    24  H    0.388434
    25  O   -1.034449
    26  H    0.708697
    27  H    0.397482
    28  O   -1.283855
    29  H    0.952531
    30  H    0.378777
 Sum of APT charges =  -0.00000
 APT charges with hydrogens summed into heavy atoms:
               1
     1  O   -0.423226
     2  C    0.061926
     3  C    0.181690
     4  C    0.174731
     5  C    0.077722
     6  C    0.112363
    11  C    0.167385
    14  O   -0.095320
    16  O   -0.107344
    18  O   -0.113035
    20  O   -0.120431
    23  O   -0.424082
    25  O    0.460165
    28  O    0.047453
 Electronic spatial extent (au):  <R**2>=           2874.2511
 Charge=              0.0000 electrons
 Dipole moment (field-independent basis, Debye):
    X=              1.5339    Y=             -6.6634    Z=              1.6851  Tot=              7.0423
 Quadrupole moment (field-independent basis, Debye-Ang):
   XX=            -79.6302   YY=            -80.3166   ZZ=            -85.1231
   XY=             -0.3868   XZ=             -1.0097   YZ=             -1.9080
 Traceless Quadrupole moment (field-independent basis, Debye-Ang):
   XX=              2.0597   YY=              1.3734   ZZ=             -3.4331
   XY=             -0.3868   XZ=             -1.0097   YZ=             -1.9080
 Octapole moment (field-independent basis, Debye-Ang**2):
  XXX=             76.7810  YYY=            -92.0452  ZZZ=              1.0852  XYY=             12.6017
  XXY=             -2.0014  XXZ=             25.3642  XZZ=             -5.7323  YZZ=             -2.4811
  YYZ=             17.9728  XYZ=             -4.3623
 Hexadecapole moment (field-independent basis, Debye-Ang**3):
 XXXX=          -1376.0059 YYYY=          -1212.9655 ZZZZ=           -482.2077 XXXY=            -53.7790
 XXXZ=             26.5783 YYYX=             30.2093 YYYZ=             15.8039 ZZZX=              1.5420
 ZZZY=            -21.6886 XXYY=           -471.8130 XXZZ=           -344.9280 YYZZ=           -287.6124
 XXYZ=             -2.3874 YYXZ=             -1.7789 ZZXY=              8.0382
 N-N= 1.136910235395D+03 E-N=-4.246724957055D+03  KE= 8.327581367546D+02
  Exact polarizability:   0.000   0.000   0.000   0.000   0.000   0.000
 Approx polarizability: 143.344   4.774 141.277   9.386  -1.822 123.430
 Calling FoFJK, ICntrl=    100147 FMM=F ISym2X=0 I1Cent= 0 IOpClX= 0 NMat=1 NMatS=1 NMatT=0.
 -------------------------------------------------------------------
 Center     Atomic                   Forces (Hartrees/Bohr)
 Number     Number              X              Y              Z
 -------------------------------------------------------------------
      1        8           0.001619114    0.000205624    0.002769981
      2        6          -0.001254459   -0.001417347    0.001183058
      3        6          -0.000784365    0.001223745    0.000350647
      4        6           0.000752104    0.001102634    0.001257099
      5        6          -0.001039346   -0.000810100   -0.003891379
      6        6          -0.000294803   -0.001244500   -0.000388439
      7        1           0.001239409    0.000222924    0.000237357
      8        1          -0.001212422   -0.000123794    0.001430410
      9        1          -0.000845662   -0.000259608   -0.001284072
     10        1          -0.000253933   -0.000306524   -0.000006205
     11        6          -0.000052046   -0.000843736   -0.000375351
     12        1           0.000508719    0.000967939    0.000489128
     13        1           0.000362641   -0.000049884    0.001315698
     14        8           0.000403759    0.000164069   -0.000695835
     15        1          -0.000111944    0.000296535    0.000006196
     16        8           0.000209857    0.000563574   -0.000465982
     17        1          -0.000990741   -0.000202394    0.000892663
     18        8          -0.000489063   -0.001934602    0.001114344
     19        1           0.001448276    0.001755454   -0.001884263
     20        8          -0.000068992   -0.005004928    0.001738003
     21        1          -0.001541237    0.005708357   -0.001629760
     22        1          -0.002306274   -0.003589779   -0.000836128
     23        8           0.004797426    0.005101952    0.002026261
     24        1          -0.001589713    0.000958874   -0.003507642
     25        8           0.000894424    0.002105384    0.001811082
     26        1          -0.000196592   -0.001527024   -0.000633935
     27        1           0.002634126    0.002207875   -0.001140439
     28        8          -0.002266447    0.003714297   -0.000298481
     29        1           0.001763585   -0.000586860    0.000286552
     30        1          -0.001335401   -0.008398157    0.000129428
 -------------------------------------------------------------------
 Cartesian Forces:  Max     0.008398157 RMS     0.001947679
 IRC-IRC-IRC-IRC-IRC-IRC-IRC-IRC-IRC-IRC-IRC-IRC-IRC-IRC-IRC-IRC-IRC-IRC
          ******** Start new reaction path calculation ********
 WARNING: TS HAS MORE THAN 1 IMAGINARY FREQUENCY!
 Supplied step size of   0.1000 bohr.
    Integration on MW PES will use step size of   0.1058 sqrt(amu)*bohr.
 Point Number:   0          Path Number:   1
 Calculating another point on the path.
 IRC-IRC-IRC-IRC-IRC-IRC-IRC-IRC-IRC-IRC-IRC-IRC-IRC-IRC-IRC-IRC-IRC-IRC
                          Input orientation:                          
 ---------------------------------------------------------------------
 Center     Atomic      Atomic             Coordinates (Angstroms)
 Number     Number       Type             X           Y           Z
 ---------------------------------------------------------------------
      1          8           0        0.333307   -0.675659   -1.057111
      2          6           0       -0.823675   -0.115946    1.068639
      3          6           0       -0.314861    1.767982   -0.649097
      4          6           0       -1.237849    1.242566    0.486382
      5          6           0        0.920665    0.904640   -0.988218
      6          6           0       -0.553827   -1.154296   -0.025678
      7          1           0       -1.198660    1.978036    1.299601
      8          1           0       -0.043149   -2.010140    0.454138
      9          1           0       -1.656561   -0.506036    1.675671
     10          1           0       -0.944393    1.851122   -1.540520
     11          6           0       -1.824687   -1.680417   -0.723758
     12          1           0       -1.540647   -2.471994   -1.434597
     13          1           0       -2.288258   -0.869696   -1.287116
     14          8           0       -2.806571   -2.143743    0.201547
     15          1           0       -2.506812   -2.992645    0.562340
     16          8           0        0.185124    3.062155   -0.360787
     17          1           0        1.038374    2.895517    0.085961
     18          8           0       -2.559560    1.175689   -0.057937
     19          1           0       -3.139923    0.759831    0.604709
     20          8           0        0.301421    0.117656    1.906884
     21          1           0        0.699548   -0.736976    2.158604
     22          1           0        1.168002    0.968016   -2.060001
     23          8           0        1.929775    1.059400   -0.192759
     24          1           0        2.774567   -1.536602    0.103981
     25          8           0        2.258860   -2.130549   -0.810791
     26          1           0        1.992145   -3.011067   -0.509483
     27          1           0        1.309512   -1.464158   -1.023993
     28          8           0        3.091904   -0.717562    0.964010
     29          1           0        4.039191   -0.524307    0.890228
     30          1           0        2.555959    0.195749    0.511540
 ---------------------------------------------------------------------
                    Distance matrix (angstroms):
                    1          2          3          4          5
     1  O    0.000000
     2  C    2.484090   0.000000
     3  C    2.560856   2.599749   0.000000
     4  C    2.920700   1.534965   1.554760   0.000000
     5  C    1.687330   2.883571   1.544956   2.635872   0.000000
     6  C    1.442204   1.532488   2.997577   2.544610   2.709211
     7  H    3.865632   2.139794   2.150034   1.097168   3.298156
     8  H    2.050958   2.138879   3.945271   3.465320   3.391941
     9  H    3.384737   1.101979   3.517935   2.155769   3.965905
    10  H    2.872424   3.269807   1.094466   2.136536   2.163171
    11  C    2.403664   2.581140   3.765183   3.217553   3.780134
    12  H    2.623170   3.511582   4.482964   4.192828   4.202258
    13  H    2.638779   2.874496   3.355400   2.951323   3.678966
    14  O    3.687590   2.965752   4.715273   3.742874   4.959885
    15  H    4.007159   3.371155   5.379201   4.421883   5.416702
    16  O    3.805008   3.627845   1.417037   2.460376   2.364226
    17  H    3.815368   3.674479   1.908636   2.841439   2.265239
    18  O    3.576943   2.439424   2.395611   1.430970   3.612597
    19  H    4.109209   2.519369   3.251057   1.965939   4.364259
    20  O    3.068490   1.422345   3.104258   2.377520   3.063400
    21  H    3.237085   1.973300   3.897054   3.235495   3.556162
    22  H    2.098612   3.863954   2.197608   3.513910   1.101776
    23  O    2.511224   3.248700   2.397650   3.244784   1.294221
    24  H    2.837094   3.987000   4.586062   4.895864   3.254152
    25  O    2.425929   4.134357   4.674262   5.028671   3.321839
    26  H    2.916465   4.336017   5.308586   5.433048   4.087789
    27  H    1.255310   3.278303   3.636738   4.012061   2.400767
    28  O    3.420021   3.962909   4.515096   4.776713   3.340210
    29  H    4.189107   4.883243   5.155763   5.579614   3.910966
    30  H    2.856607   3.439396   3.472839   3.935663   2.329375
                    6          7          8          9         10
     6  C    0.000000
     7  H    3.461746   0.000000
     8  H    1.106112   4.237400   0.000000
     9  H    2.128580   2.553765   2.521422   0.000000
    10  H    3.388189   2.854302   4.438495   4.050587   0.000000
    11  C    1.542467   4.227313   2.161027   2.676695   3.730118
    12  H    2.166840   5.234078   2.454207   3.681331   4.365326
    13  H    2.163440   3.998488   3.061551   3.051131   3.045166
    14  O    2.470929   4.558526   2.778157   2.485488   4.739350
    15  H    2.745805   5.192542   2.654555   2.854060   5.506836
    16  O    4.293811   2.418069   5.142411   4.502328   2.033269
    17  H    4.352994   2.705368   5.036935   4.621733   2.769037
    18  O    3.074547   2.082959   4.091950   2.578566   2.294129
    19  H    3.278591   2.394870   4.157573   2.224801   3.257802
    20  O    2.466599   2.465776   2.599368   2.067885   4.054818
    21  H    2.552684   3.422335   2.253386   2.416156   4.804614
    22  H    3.406960   4.231803   4.081323   4.909810   2.347754
    23  O    3.331162   3.585824   3.705803   4.336292   3.271715
    24  H    3.352786   5.437713   2.878605   4.813229   5.292609
    25  O    3.079071   5.769633   2.629408   4.914474   5.162076
    26  H    3.188046   6.192348   2.464313   4.935903   5.772969
    27  H    2.136511   4.851671   2.076694   4.123563   4.042025
    28  O    3.802837   5.078170   3.429180   4.806154   5.400230
    29  H    4.725631   5.819312   4.366162   5.749683   6.032190
    30  H    3.432491   4.230219   3.409487   4.426401   4.382200
                   11         12         13         14         15
    11  C    0.000000
    12  H    1.101166   0.000000
    13  H    1.090660   1.774269   0.000000
    14  O    1.426518   2.094583   2.026810   0.000000
    15  H    1.959920   2.278664   2.824034   0.969878   0.000000
    16  O    5.163631   5.895606   4.736577   6.030575   6.690239
    17  H    5.458199   6.146025   5.208518   6.339645   6.889538
    18  O    3.023359   4.029761   2.401684   3.338708   4.214562
    19  H    3.074000   4.142601   2.638123   2.950322   3.805745
    20  O    3.830624   4.611399   4.228823   4.204963   4.400903
    21  H    3.945866   4.576009   4.562630   4.254637   4.232830
    22  H    4.213779   4.422848   3.990022   5.531263   6.005645
    23  O    4.678091   5.104580   4.765588   5.731367   6.055786
    24  H    4.675358   4.675816   5.292646   5.614912   5.497556
    25  O    4.109203   3.865485   4.742669   5.165616   5.033918
    26  H    4.047808   3.691484   4.848921   4.928031   4.624906
    27  H    3.155965   3.050859   3.656032   4.348094   4.406479
    28  O    5.286635   5.503806   5.834111   6.116154   6.056646
    29  H    6.190849   6.350819   6.700503   7.068332   7.003597
    30  H    4.923010   5.261795   5.276057   5.858844   5.983318
                   16         17         18         19         20
    16  O    0.000000
    17  H    0.977439   0.000000
    18  O    3.344214   3.990445   0.000000
    19  H    4.157982   4.721062   0.974094   0.000000
    20  O    3.718323   3.402260   3.628384   3.735090   0.000000
    21  H    4.587523   4.195910   4.380997   4.404153   0.975841
    22  H    2.870331   2.887424   4.236285   5.069737   4.148524
    23  O    2.661403   2.060002   4.492864   5.140771   2.819028
    24  H    5.298093   4.760080   5.986288   6.364394   3.479005
    25  O    5.609551   5.249294   5.891958   6.285283   4.033825
    26  H    6.338096   6.012651   6.200874   6.465231   4.299568
    27  H    4.710796   4.506915   4.782445   5.234144   3.479715
    28  O    4.948809   4.247622   6.047133   6.414627   3.061599
    29  H    5.411246   4.620276   6.879864   7.298644   3.926402
    30  H    3.820746   3.126169   5.239573   5.724503   2.652550
                   21         22         23         24         25
    21  H    0.000000
    22  H    4.574175   0.000000
    23  O    3.204580   2.018722   0.000000
    24  H    3.027636   3.679263   2.746079   0.000000
    25  O    3.631914   3.514484   3.265889   1.206455   0.000000
    26  H    3.736440   4.349301   4.083247   1.778362   0.968110
    27  H    3.321110   2.647415   2.728373   1.850394   1.179319
    28  O    2.674097   3.960708   2.417902   1.229300   2.416694
    29  H    3.578718   4.378882   2.851426   1.800611   2.939908
    30  H    2.651237   3.022523   1.278295   1.793023   2.692302
                   26         27         28         29         30
    26  H    0.000000
    27  H    1.767381   0.000000
    28  O    2.939527   2.772450   0.000000
    29  H    3.511918   3.463916   0.969611   0.000000
    30  H    3.412337   2.582011   1.151564   1.691704   0.000000
 Symmetry turned off by external request.
 Stoichiometry    C6H16O8
 Framework group  C1[X(C6H16O8)]
 Deg. of freedom    84
 Full point group                 C1      NOp   1
 Rotational constants (GHZ):      0.7353129      0.5973299      0.4216103
 Standard basis: 6-31G(d) (6D, 7F)
   242 basis functions,   456 primitive gaussians,   242 cartesian basis functions
    58 alpha electrons       58 beta electrons
       nuclear repulsion energy      1136.9403805305 Hartrees.
 NAtoms=   30 NActive=   30 NUniq=   30 SFac= 1.00D+00 NAtFMM=   60 NAOKFM=F Big=F
 Integral buffers will be    131072 words long.
 Raffenetti 2 integral format.
 Two-electron integral symmetry is turned off.
 One-electron integrals computed using PRISM.
 NBasis=   242 RedAO= T EigKep=  1.36D-03  NBF=   242
 NBsUse=   242 1.00D-06 EigRej= -1.00D+00 NBFU=   242
 Initial guess from the checkpoint file:  "/scratch/10461029.yak.local/Gau-6501.chk"
 B after Tr=     0.018369   -0.060423    0.003993
         Rot=    1.000000    0.000042    0.000030   -0.000040 Ang=   0.01 deg.
 ExpMin= 1.61D-01 ExpMax= 5.48D+03 ExpMxC= 8.25D+02 IAcc=1 IRadAn=         1 AccDes= 0.00D+00
 Harris functional with IExCor=  402 and IRadAn=       1 diagonalized for initial guess.
 HarFok:  IExCor=  402 AccDes= 0.00D+00 IRadAn=         1 IDoV= 1 UseB2=F ITyADJ=14
 ICtDFT=  3500011 ScaDFX=  1.000000  1.000000  1.000000  1.000000
 FoFCou: FMM=F IPFlag=           0 FMFlag=      100000 FMFlg1=           0
         NFxFlg=           0 DoJE=T BraDBF=F KetDBF=T FulRan=T
         wScrn=  0.000000 ICntrl=     500 IOpCl=  0 I1Cent=   200000004 NGrid=           0
         NMat0=    1 NMatS0=      1 NMatT0=    0 NMatD0=    1 NMtDS0=    0 NMtDT0=    0
 Symmetry not used in FoFCou.
 Requested convergence on RMS density matrix=1.00D-08 within 128 cycles.
 Requested convergence on MAX density matrix=1.00D-06.
 Requested convergence on             energy=1.00D-06.
 No special actions if energy rises.
 Integral accuracy reduced to 1.0D-05 until final iterations.
 Initial convergence to 1.0D-05 achieved.  Increase integral accuracy.
 SCF Done:  E(RB3LYP) =  -839.937664881     A.U. after   11 cycles
            NFock= 11  Conv=0.54D-08     -V/T= 2.0086
 DoSCS=F DFT=T ScalE2(SS,OS)=  1.000000  1.000000
 Range of M.O.s used for correlation:     1   242
 NBasis=   242 NAE=    58 NBE=    58 NFC=     0 NFV=     0
 NROrb=    242 NOA=    58 NOB=    58 NVA=   184 NVB=   184
 Symmetrizing basis deriv contribution to polar:
 IMax=3 JMax=2 DiffMx= 0.00D+00
 Calling FoFJK, ICntrl=      2147 FMM=F ISym2X=0 I1Cent= 0 IOpClX= 0 NMat=1 NMatS=1 NMatT=0.
 -------------------------------------------------------------------
 Center     Atomic                   Forces (Hartrees/Bohr)
 Number     Number              X              Y              Z
 -------------------------------------------------------------------
      1        8           0.000978041    0.004468372    0.002962877
      2        6          -0.001526645   -0.001515814    0.001221674
      3        6          -0.000414193    0.001230767    0.000428729
      4        6           0.000764205    0.001056029    0.001275186
      5        6          -0.004283441   -0.005582343   -0.004278812
      6        6           0.000342245   -0.000217390   -0.001006720
      7        1           0.001236148    0.000234807    0.000230011
      8        1          -0.001200914   -0.000107226    0.001443074
      9        1          -0.000851803   -0.000223282   -0.001232760
     10        1          -0.000211092   -0.000329367   -0.000006204
     11        6           0.000094987   -0.000730023   -0.000374889
     12        1           0.000512810    0.000973135    0.000490597
     13        1           0.000367520   -0.000051841    0.001313048
     14        8           0.000371642    0.000104115   -0.000667830
     15        1          -0.000096916    0.000302686    0.000013713
     16        8           0.000390590    0.000601723   -0.000466095
     17        1          -0.001001480   -0.000135906    0.000919158
     18        8          -0.000464625   -0.001857729    0.001117943
     19        1           0.001463764    0.001728478   -0.001893274
     20        8           0.000075596   -0.004969960    0.001744684
     21        1          -0.001616386    0.005675285   -0.001618080
     22        1          -0.002212572   -0.003407466   -0.000684427
     23        8           0.007369943    0.004264769    0.004478661
     24        1           0.000100920    0.003696488   -0.000143782
     25        8          -0.000547278    0.002079813    0.000501520
     26        1          -0.000583393   -0.001421885   -0.000887539
     27        1           0.005752512   -0.000589554   -0.000820836
     28        8          -0.002992315    0.001484884   -0.002196492
     29        1           0.001702039   -0.000755667    0.000092920
     30        1          -0.003519908   -0.006005896   -0.001956057
 -------------------------------------------------------------------
 Cartesian Forces:  Max     0.007369943 RMS     0.002213253
 IRC-IRC-IRC-IRC-IRC-IRC-IRC-IRC-IRC-IRC-IRC-IRC-IRC-IRC-IRC-IRC-IRC-IRC
 Pt  1 Step number   1 out of a maximum of  20
 Modified Bulirsch-Stoer Extrapolation Cycles:
    EPS =    0.000010000000000
 Maximum DWI energy   std dev =  0.000335595 at pt    -1
 Maximum DWI gradient std dev =  1.834387492 at pt     1
 CORRECTOR INTEGRATION CONVERGENCE:
   Recorrection delta-x convergence threshold:    0.010000
   Delta-x Convergence NOT Met
 IRC-IRC-IRC-IRC-IRC-IRC-IRC-IRC-IRC-IRC-IRC-IRC-IRC-IRC-IRC-IRC-IRC-IRC
                          Input orientation:                          
 ---------------------------------------------------------------------
 Center     Atomic      Atomic             Coordinates (Angstroms)
 Number     Number       Type             X           Y           Z
 ---------------------------------------------------------------------
      1          8           0        0.333198   -0.677525   -1.057625
      2          6           0       -0.823275   -0.115668    1.068476
      3          6           0       -0.314966    1.767782   -0.649147
      4          6           0       -1.238022    1.242413    0.486151
      5          6           0        0.922772    0.907784   -0.987490
      6          6           0       -0.554215   -1.154738   -0.025263
      7          1           0       -1.200734    1.977664    1.299356
      8          1           0       -0.041094   -2.009994    0.451555
      9          1           0       -1.654955   -0.505763    1.677361
     10          1           0       -0.944187    1.851680   -1.540652
     11          6           0       -1.824818   -1.680392   -0.723807
     12          1           0       -1.541685   -2.473192   -1.434806
     13          1           0       -2.288617   -0.870193   -1.289036
     14          8           0       -2.806602   -2.143731    0.201631
     15          1           0       -2.506816   -2.992957    0.562100
     16          8           0        0.185059    3.062059   -0.360705
     17          1           0        1.039878    2.895695    0.083721
     18          8           0       -2.559686    1.175783   -0.057925
     19          1           0       -3.140546    0.758125    0.605786
     20          8           0        0.301629    0.117814    1.906779
     21          1           0        0.699907   -0.740754    2.159671
     22          1           0        1.171319    0.973175   -2.059389
     23          8           0        1.928141    1.059195   -0.193964
     24          1           0        2.766254   -1.555731    0.087531
     25          8           0        2.259456   -2.131138   -0.810544
     26          1           0        1.995372   -3.010656   -0.506289
     27          1           0        1.281825   -1.446399   -1.025284
     28          8           0        3.092620   -0.716908    0.965148
     29          1           0        4.038615   -0.522700    0.891368
     30          1           0        2.571047    0.194294    0.524462
 ---------------------------------------------------------------------
                    Distance matrix (angstroms):
                    1          2          3          4          5
     1  O    0.000000
     2  C    2.484636   0.000000
     3  C    2.562517   2.599228   0.000000
     4  C    2.922009   1.534764   1.554653   0.000000
     5  C    1.692844   2.884983   1.544690   2.636783   0.000000
     6  C    1.442568   1.532425   2.997931   2.544694   2.713183
     7  H    3.867601   2.139584   2.150651   1.096944   3.299028
     8  H    2.047728   2.140297   3.944381   3.465831   3.393127
     9  H    3.385617   1.102092   3.518127   2.156139   3.967899
    10  H    2.874353   3.269958   1.094413   2.136698   2.163900
    11  C    2.402958   2.581420   3.764987   3.217316   3.783838
    12  H    2.623331   3.512898   4.484189   4.193806   4.207687
    13  H    2.639050   2.876525   3.356139   2.952651   3.683089
    14  O    3.686981   2.966150   4.715083   3.742642   4.963263
    15  H    4.006296   3.371872   5.379215   4.421987   5.420247
    16  O    3.806853   3.627292   1.417173   2.460373   2.361775
    17  H    3.817063   3.675512   1.909158   2.843258   2.261194
    18  O    3.578117   2.439620   2.395573   1.430823   3.614336
    19  H    4.110343   2.519394   3.252409   1.966837   4.367090
    20  O    3.069406   1.422208   3.104085   2.377695   3.063766
    21  H    3.238744   1.975227   3.900279   3.238701   3.559770
    22  H    2.104944   3.866203   2.197551   3.515279   1.102280
    23  O    2.511165   3.247206   2.396000   3.243564   1.289719
    24  H    2.828849   3.990082   4.591552   4.901299   3.259294
    25  O    2.425801   4.134739   4.674963   5.029376   3.324617
    26  H    2.917241   4.336544   5.309570   5.434001   4.090990
    27  H    1.221518   3.253632   3.608626   3.982935   2.381706
    28  O    3.421633   3.963130   4.515669   4.777325   3.340757
    29  H    4.189589   4.882111   5.154916   5.578774   3.909586
    30  H    2.875941   3.451586   3.490314   3.950826   2.347739
                    6          7          8          9         10
     6  C    0.000000
     7  H    3.461870   0.000000
     8  H    1.105492   4.238508   0.000000
     9  H    2.128785   2.552766   2.523858   0.000000
    10  H    3.389252   2.854354   4.438129   4.051955   0.000000
    11  C    1.542306   4.226588   2.161431   2.678473   3.730721
    12  H    2.168001   5.234692   2.454523   3.683638   4.367233
    13  H    2.164771   3.999194   3.062705   3.055135   3.046210
    14  O    2.470392   4.557379   2.779997   2.487370   4.739984
    15  H    2.745304   5.191962   2.656731   2.855803   5.507620
    16  O    4.294232   2.419120   5.141657   4.502080   2.032852
    17  H    4.354195   2.709409   5.036823   4.622957   2.768586
    18  O    3.074785   2.081340   4.092927   2.580185   2.294592
    19  H    3.278167   2.393990   4.158470   2.225459   3.259916
    20  O    2.466708   2.466800   2.600520   2.066326   4.055013
    21  H    2.553065   3.426715   2.253378   2.415205   4.807925
    22  H    3.412206   4.232825   4.083391   4.913083   2.348665
    23  O    3.330473   3.586566   3.703309   4.334689   3.269842
    24  H    3.346496   5.448890   2.867067   4.814258   5.294223
    25  O    3.080060   5.771209   2.626804   4.914685   5.163258
    26  H    3.190018   6.193447   2.462922   4.936366   5.775225
    27  H    2.110960   4.826102   2.061263   4.100459   4.012239
    28  O    3.804210   5.079892   3.428704   4.805340   5.401156
    29  H    4.725862   5.819712   4.364574   5.747591   6.031643
    30  H    3.448093   4.243490   3.418696   4.436028   4.400965
                   11         12         13         14         15
    11  C    0.000000
    12  H    1.101914   0.000000
    13  H    1.091336   1.774475   0.000000
    14  O    1.426541   2.094394   2.027879   0.000000
    15  H    1.959975   2.277996   2.824967   0.970049   0.000000
    16  O    5.163554   5.896977   4.737455   6.030465   6.690365
    17  H    5.458860   6.147791   5.210110   6.340751   6.890871
    18  O    3.023436   4.030774   2.403150   3.338789   4.214928
    19  H    3.073324   4.142678   2.639612   2.948835   3.804489
    20  O    3.830836   4.612733   4.230693   4.205142   4.401412
    21  H    3.946087   4.576716   4.565261   4.254159   4.231752
    22  H    4.219246   4.430342   3.995323   5.536350   6.010913
    23  O    4.676620   5.104618   4.764742   5.730011   6.054784
    24  H    4.663878   4.660212   5.283618   5.604952   5.485991
    25  O    4.109987   3.867218   4.743828   5.166198   5.034305
    26  H    4.051021   3.696184   4.852508   4.930686   4.627252
    27  H    3.129996   3.032197   3.626242   4.325139   4.389240
    28  O    5.287917   5.506459   5.836313   6.117157   6.057766
    29  H    6.191033   6.352578   6.701401   7.068272   7.003803
    30  H    4.939256   5.279088   5.295115   5.872792   5.995388
                   16         17         18         19         20
    16  O    0.000000
    17  H    0.977705   0.000000
    18  O    3.344150   3.991869   0.000000
    19  H    4.159552   4.724162   0.975884   0.000000
    20  O    3.718018   3.403700   3.628565   3.735125   0.000000
    21  H    4.591160   4.201061   4.383582   4.405710   0.979652
    22  H    2.867346   2.882062   4.238786   5.073617   4.149517
    23  O    2.660376   2.058847   4.491401   5.140217   2.818663
    24  H    5.309187   4.774471   5.987316   6.364967   3.490672
    25  O    5.610239   5.249393   5.892902   6.286005   4.034193
    26  H    6.338478   6.012160   6.202891   6.466690   4.298719
    27  H    4.687297   4.488007   4.750666   5.203622   3.464757
    28  O    4.948978   4.247536   6.047935   6.415390   3.061545
    29  H    5.409998   4.618456   6.879213   7.298111   3.925096
    30  H    3.834128   3.136287   5.256131   5.739932   2.658365
                   21         22         23         24         25
    21  H    0.000000
    22  H    4.578236   0.000000
    23  O    3.207487   2.014941   0.000000
    24  H    3.037720   3.680821   2.760346   0.000000
    25  O    3.631465   3.518581   3.266216   1.180879   0.000000
    26  H    3.733367   4.354548   4.082371   1.750340   0.967400
    27  H    3.313683   2.633614   2.717870   1.858451   1.212742
    28  O    2.674421   3.961767   2.419524   1.257120   2.418118
    29  H    3.578143   4.377898   2.852093   1.825434   2.940916
    30  H    2.655068   3.040095   1.295191   1.814277   2.699438
                   26         27         28         29         30
    26  H    0.000000
    27  H    1.795941   0.000000
    28  O    2.937748   2.788002   0.000000
    29  H    3.509732   3.482336   0.968538   0.000000
    30  H    3.415488   2.599169   1.138653   1.674053   0.000000
 Symmetry turned off by external request.
 Stoichiometry    C6H16O8
 Framework group  C1[X(C6H16O8)]
 Deg. of freedom    84
 Full point group                 C1      NOp   1
 Rotational constants (GHZ):      0.7351095      0.5972473      0.4215355
 Standard basis: 6-31G(d) (6D, 7F)
   242 basis functions,   456 primitive gaussians,   242 cartesian basis functions
    58 alpha electrons       58 beta electrons
       nuclear repulsion energy      1136.8560217628 Hartrees.
 NAtoms=   30 NActive=   30 NUniq=   30 SFac= 1.00D+00 NAtFMM=   60 NAOKFM=F Big=F
 Integral buffers will be    131072 words long.
 Raffenetti 2 integral format.
 Two-electron integral symmetry is turned off.
 One-electron integrals computed using PRISM.
 NBasis=   242 RedAO= T EigKep=  1.35D-03  NBF=   242
 NBsUse=   242 1.00D-06 EigRej= -1.00D+00 NBFU=   242
 Initial guess from the checkpoint file:  "/scratch/10461029.yak.local/Gau-6501.chk"
 B after Tr=    -0.000105   -0.000018   -0.000024
         Rot=    1.000000   -0.000038   -0.000018    0.000023 Ang=  -0.01 deg.
 ExpMin= 1.61D-01 ExpMax= 5.48D+03 ExpMxC= 8.25D+02 IAcc=1 IRadAn=         1 AccDes= 0.00D+00
 Harris functional with IExCor=  402 and IRadAn=       1 diagonalized for initial guess.
 HarFok:  IExCor=  402 AccDes= 0.00D+00 IRadAn=         1 IDoV= 1 UseB2=F ITyADJ=14
 ICtDFT=  3500011 ScaDFX=  1.000000  1.000000  1.000000  1.000000
 FoFCou: FMM=F IPFlag=           0 FMFlag=      100000 FMFlg1=           0
         NFxFlg=           0 DoJE=T BraDBF=F KetDBF=T FulRan=T
         wScrn=  0.000000 ICntrl=     500 IOpCl=  0 I1Cent=   200000004 NGrid=           0
         NMat0=    1 NMatS0=      1 NMatT0=    0 NMatD0=    1 NMtDS0=    0 NMtDT0=    0
 Symmetry not used in FoFCou.
 Requested convergence on RMS density matrix=1.00D-08 within 128 cycles.
 Requested convergence on MAX density matrix=1.00D-06.
 Requested convergence on             energy=1.00D-06.
 No special actions if energy rises.
 Integral accuracy reduced to 1.0D-05 until final iterations.
 Initial convergence to 1.0D-05 achieved.  Increase integral accuracy.
 SCF Done:  E(RB3LYP) =  -839.937032210     A.U. after   11 cycles
            NFock= 11  Conv=0.80D-08     -V/T= 2.0086
 DoSCS=F DFT=T ScalE2(SS,OS)=  1.000000  1.000000
 Range of M.O.s used for correlation:     1   242
 NBasis=   242 NAE=    58 NBE=    58 NFC=     0 NFV=     0
 NROrb=    242 NOA=    58 NOB=    58 NVA=   184 NVB=   184
 Symmetrizing basis deriv contribution to polar:
 IMax=3 JMax=2 DiffMx= 0.00D+00
 Calling FoFJK, ICntrl=      2147 FMM=F ISym2X=0 I1Cent= 0 IOpClX= 0 NMat=1 NMatS=1 NMatT=0.
 -------------------------------------------------------------------
 Center     Atomic                   Forces (Hartrees/Bohr)
 Number     Number              X              Y              Z
 -------------------------------------------------------------------
      1        8           0.001487299    0.001046193    0.002602467
      2        6          -0.001309437   -0.001648575    0.001572989
      3        6          -0.000858028    0.001367913    0.000640716
      4        6           0.000629421    0.001202674    0.001328071
      5        6          -0.001967881   -0.001609523   -0.004956494
      6        6          -0.000388372   -0.001196939   -0.000736148
      7        1           0.001496409    0.000301737    0.000320320
      8        1          -0.001437198   -0.000125051    0.001715323
      9        1          -0.000974937   -0.000268076   -0.001576801
     10        1          -0.000266143   -0.000421030   -0.000055294
     11        6          -0.000234201   -0.001134893   -0.000866171
     12        1           0.000569867    0.001331870    0.000814753
     13        1           0.000541027   -0.000270543    0.001684572
     14        8           0.000467527    0.000176356   -0.000653306
     15        1          -0.000159476    0.000437879   -0.000056517
     16        8           0.000474150    0.000558498   -0.000416405
     17        1          -0.001252445   -0.000134888    0.000875698
     18        8          -0.001542975   -0.002763313    0.002051635
     19        1           0.002406181    0.002453514   -0.003014733
     20        8           0.001478140   -0.007931586    0.002513726
     21        1          -0.002820790    0.008757238   -0.002481192
     22        1          -0.002748163   -0.004128483   -0.000896593
     23        8           0.006655243    0.005592595    0.003867635
     24        1          -0.001726003    0.002255024   -0.003617433
     25        8           0.000423603    0.002497419    0.002105653
     26        1          -0.000348754   -0.002363485   -0.000637573
     27        1           0.004116218    0.002293846   -0.001326828
     28        8          -0.003189435    0.005031586   -0.000721328
     29        1           0.002833042   -0.000942813    0.000336234
     30        1          -0.002353890   -0.010365144   -0.000416975
 -------------------------------------------------------------------
 Cartesian Forces:  Max     0.010365144 RMS     0.002610958
 IRC-IRC-IRC-IRC-IRC-IRC-IRC-IRC-IRC-IRC-IRC-IRC-IRC-IRC-IRC-IRC-IRC-IRC
 Error in corrector energy =          -0.0008580763
 Magnitude of corrector gradient =     0.0028329931
 Magnitude of analytic gradient =      0.0247697237
 Magnitude of difference =             0.0261270707
 Angle between gradients (degrees)=  115.7892
 Pt  1 Step number   2 out of a maximum of  20
 Modified Bulirsch-Stoer Extrapolation Cycles:
    EPS =    0.000010000000000
 Maximum DWI energy   std dev =  0.000208200 at pt    -1
 Maximum DWI gradient std dev =  1.384106844 at pt     1
 CORRECTOR INTEGRATION CONVERGENCE:
   Recorrection delta-x convergence threshold:    0.010000
   Delta-x Convergence NOT Met
 IRC-IRC-IRC-IRC-IRC-IRC-IRC-IRC-IRC-IRC-IRC-IRC-IRC-IRC-IRC-IRC-IRC-IRC
                          Input orientation:                          
 ---------------------------------------------------------------------
 Center     Atomic      Atomic             Coordinates (Angstroms)
 Number     Number       Type             X           Y           Z
 ---------------------------------------------------------------------
      1          8           0        0.333402   -0.675623   -1.056932
      2          6           0       -0.823771   -0.116022    1.068672
      3          6           0       -0.314891    1.768051   -0.649109
      4          6           0       -1.237776    1.242628    0.486462
      5          6           0        0.920594    0.904500   -0.988367
      6          6           0       -0.553812   -1.154352   -0.025679
      7          1           0       -1.198052    1.978116    1.299678
      8          1           0       -0.043780   -2.010230    0.454872
      9          1           0       -1.657045   -0.506211    1.675093
     10          1           0       -0.944567    1.851045   -1.540456
     11          6           0       -1.824661   -1.680430   -0.723728
     12          1           0       -1.540354   -2.471702   -1.434655
     13          1           0       -2.288201   -0.869452   -1.286574
     14          8           0       -2.806557   -2.143739    0.201504
     15          1           0       -2.506833   -2.992578    0.562438
     16          8           0        0.185120    3.062186   -0.360813
     17          1           0        1.037903    2.895285    0.086713
     18          8           0       -2.559491    1.175664   -0.057955
     19          1           0       -3.139981    0.760365    0.604663
     20          8           0        0.301280    0.117642    1.906915
     21          1           0        0.699955   -0.736378    2.158372
     22          1           0        1.166853    0.966012   -2.060476
     23          8           0        1.929917    1.059605   -0.192775
     24          1           0        2.774173   -1.536635    0.102703
     25          8           0        2.258908   -2.130445   -0.810766
     26          1           0        1.991987   -3.011165   -0.510030
     27          1           0        1.310806   -1.463732   -1.024430
     28          8           0        3.091836   -0.717584    0.963982
     29          1           0        4.039184   -0.524219    0.890261
     30          1           0        2.555422    0.193017    0.511522
 ---------------------------------------------------------------------
                    Distance matrix (angstroms):
                    1          2          3          4          5
     1  O    0.000000
     2  C    2.484028   0.000000
     3  C    2.560888   2.599896   0.000000
     4  C    2.920677   1.535024   1.554769   0.000000
     5  C    1.687094   2.883693   1.545069   2.635908   0.000000
     6  C    1.442156   1.532518   2.997697   2.544721   2.709154
     7  H    3.865397   2.139828   2.149854   1.097197   3.297948
     8  H    2.051584   2.138494   3.945590   3.465214   3.392434
     9  H    3.384456   1.101970   3.517891   2.155706   3.965898
    10  H    2.872465   3.269785   1.094477   2.136478   2.163233
    11  C    2.403726   2.581056   3.765235   3.217648   3.779990
    12  H    2.622887   3.511319   4.482671   4.192671   4.201688
    13  H    2.638770   2.873916   3.355106   2.950920   3.678614
    14  O    3.687597   2.965646   4.715298   3.742960   4.959759
    15  H    4.007190   3.370985   5.379223   4.421905   5.416592
    16  O    3.804969   3.627988   1.417008   2.460346   2.364394
    17  H    3.815184   3.673968   1.908440   2.840737   2.265564
    18  O    3.576877   2.439357   2.395540   1.431015   3.612505
    19  H    4.109423   2.519561   3.250924   1.965943   4.364263
    20  O    3.068337   1.422319   3.104316   2.377388   3.063553
    21  H    3.236701   1.973329   3.896669   3.235205   3.555718
    22  H    2.096833   3.863282   2.197906   3.513638   1.101747
    23  O    2.511304   3.249023   2.397770   3.244864   1.294511
    24  H    2.836099   3.987033   4.585682   4.895641   3.253510
    25  O    2.425836   4.134380   4.674275   5.028640   3.321674
    26  H    2.916292   4.336202   5.308666   5.433150   4.087679
    27  H    1.255982   3.279301   3.637056   4.012786   2.400435
    28  O    3.419768   3.962930   4.515111   4.776609   3.340226
    29  H    4.188950   4.883317   5.155786   5.579525   3.911020
    30  H    2.855163   3.438731   3.473686   3.935818   2.329922
                    6          7          8          9         10
     6  C    0.000000
     7  H    3.461787   0.000000
     8  H    1.106160   4.237091   0.000000
     9  H    2.128341   2.554112   2.520642   0.000000
    10  H    3.388163   2.854253   4.438716   4.050190   0.000000
    11  C    1.542429   4.227501   2.160880   2.676047   3.730003
    12  H    2.166538   5.233987   2.454181   3.680666   4.364893
    13  H    2.163129   3.998220   3.061279   3.049881   3.044817
    14  O    2.470902   4.558833   2.777581   2.484823   4.739169
    15  H    2.745768   5.192709   2.653904   2.853448   5.506679
    16  O    4.293895   2.417768   5.142679   4.502437   2.033375
    17  H    4.352671   2.704067   5.036830   4.621240   2.769170
    18  O    3.074535   2.083414   4.091664   2.578094   2.293889
    19  H    3.278985   2.395214   4.157535   2.224666   3.257447
    20  O    2.466591   2.465379   2.599103   2.068325   4.054774
    21  H    2.552785   3.421734   2.253387   2.417019   4.804221
    22  H    3.405442   4.231757   4.080518   4.908800   2.347722
    23  O    3.331432   3.585425   3.706591   4.336705   3.271893
    24  H    3.352328   5.437351   2.879093   4.813509   5.292010
    25  O    3.079045   5.769300   2.630336   4.914501   5.162070
    26  H    3.188016   6.192279   2.465209   4.936091   5.772886
    27  H    2.137761   4.852027   2.078918   4.124610   4.042368
    28  O    3.802755   5.077660   3.429609   4.806477   5.400242
    29  H    4.725635   5.818758   4.366736   5.750070   6.032250
    30  H    3.430937   4.230407   3.407838   4.425799   4.382876
                   11         12         13         14         15
    11  C    0.000000
    12  H    1.101072   0.000000
    13  H    1.090573   1.774375   0.000000
    14  O    1.426474   2.094718   2.026542   0.000000
    15  H    1.959927   2.278985   2.823881   0.969864   0.000000
    16  O    5.163655   5.895279   4.736257   6.030588   6.690229
    17  H    5.457861   6.145446   5.207891   6.339149   6.889005
    18  O    3.023326   4.029543   2.401167   3.338681   4.214487
    19  H    3.074438   4.142931   2.637918   2.950852   3.806211
    20  O    3.830531   4.611118   4.228255   4.204869   4.400748
    21  H    3.946064   4.576043   4.562284   4.255070   4.233312
    22  H    4.211853   4.420237   3.988139   5.529475   6.003839
    23  O    4.678308   5.104428   4.765520   5.731584   6.056012
[...]
 Harris functional with IExCor=  402 and IRadAn=       1 diagonalized for initial guess.
 HarFok:  IExCor=  402 AccDes= 0.00D+00 IRadAn=         1 IDoV= 1 UseB2=F ITyADJ=14
 ICtDFT=  3500011 ScaDFX=  1.000000  1.000000  1.000000  1.000000
 FoFCou: FMM=F IPFlag=           0 FMFlag=      100000 FMFlg1=           0
         NFxFlg=           0 DoJE=T BraDBF=F KetDBF=T FulRan=T
         wScrn=  0.000000 ICntrl=     500 IOpCl=  0 I1Cent=   200000004 NGrid=           0
         NMat0=    1 NMatS0=      1 NMatT0=    0 NMatD0=    1 NMtDS0=    0 NMtDT0=    0
 Symmetry not used in FoFCou.
 Requested convergence on RMS density matrix=1.00D-08 within 128 cycles.
 Requested convergence on MAX density matrix=1.00D-06.
 Requested convergence on             energy=1.00D-06.
 No special actions if energy rises.
 Integral accuracy reduced to 1.0D-05 until final iterations.
 Initial convergence to 1.0D-05 achieved.  Increase integral accuracy.
 SCF Done:  E(RB3LYP) =  -839.937762364     A.U. after   11 cycles
            NFock= 11  Conv=0.66D-08     -V/T= 2.0086
 DoSCS=F DFT=T ScalE2(SS,OS)=  1.000000  1.000000
 Range of M.O.s used for correlation:     1   242
 NBasis=   242 NAE=    58 NBE=    58 NFC=     0 NFV=     0
 NROrb=    242 NOA=    58 NOB=    58 NVA=   184 NVB=   184
 Symmetrizing basis deriv contribution to polar:
 IMax=3 JMax=2 DiffMx= 0.00D+00
 Calling FoFJK, ICntrl=      2147 FMM=F ISym2X=0 I1Cent= 0 IOpClX= 0 NMat=1 NMatS=1 NMatT=0.
 -------------------------------------------------------------------
 Center     Atomic                   Forces (Hartrees/Bohr)
 Number     Number              X              Y              Z
 -------------------------------------------------------------------
      1        8           0.000973811    0.004312866    0.003021526
      2        6          -0.001514939   -0.001463691    0.001129972
      3        6          -0.000381538    0.001180666    0.000359911
      4        6           0.000782718    0.001005360    0.001235015
      5        6          -0.004131374   -0.005485666   -0.004024715
      6        6           0.000358926   -0.000197987   -0.000912552
      7        1           0.001164332    0.000222024    0.000219026
      8        1          -0.001131752   -0.000105335    0.001363050
      9        1          -0.000809085   -0.000214005   -0.001157865
     10        1          -0.000205494   -0.000299670   -0.000000519
     11        6           0.000132175   -0.000650728   -0.000321514
     12        1           0.000478630    0.000920657    0.000445669
     13        1           0.000345535   -0.000037150    0.001239781
     14        8           0.000362485    0.000073762   -0.000667288
     15        1          -0.000089546    0.000288211    0.000018982
     16        8           0.000362195    0.000587338   -0.000459053
     17        1          -0.000960816   -0.000138491    0.000902236
     18        8          -0.000348649   -0.001735228    0.001045768
     19        1           0.001373102    0.001653882   -0.001770675
     20        8          -0.000088483   -0.004665670    0.001697715
     21        1          -0.001511669    0.005349076   -0.001542778
     22        1          -0.002079293   -0.003232986   -0.000653073
     23        8           0.006961892    0.004107132    0.004070199
     24        1           0.000144727    0.003470442   -0.000067785
     25        8          -0.000389076    0.002049378    0.000400693
     26        1          -0.000581384   -0.001322122   -0.000862760
     27        1           0.005445843   -0.000633832   -0.000766758
     28        8          -0.002959117    0.001208655   -0.002183480
     29        1           0.001587053   -0.000665699    0.000075795
     30        1          -0.003291209   -0.005581187   -0.001834524
 -------------------------------------------------------------------
 Cartesian Forces:  Max     0.006961892 RMS     0.002101118
 IRC-IRC-IRC-IRC-IRC-IRC-IRC-IRC-IRC-IRC-IRC-IRC-IRC-IRC-IRC-IRC-IRC-IRC
 Error in corrector energy =          -0.0001869642
 Magnitude of corrector gradient =     0.0110448571
 Magnitude of analytic gradient =      0.0199329599
 Magnitude of difference =             0.0163222451
 Angle between gradients (degrees)=   54.9455
 Pt  1 Step number  19 out of a maximum of  20
 Modified Bulirsch-Stoer Extrapolation Cycles:
    EPS =    0.000010000000000
 Maximum DWI energy   std dev =  0.000350000 at pt    -1
 Maximum DWI gradient std dev =  1.823428533 at pt     1
 CORRECTOR INTEGRATION CONVERGENCE:
   Recorrection delta-x convergence threshold:    0.010000
   Delta-x Convergence NOT Met
 IRC-IRC-IRC-IRC-IRC-IRC-IRC-IRC-IRC-IRC-IRC-IRC-IRC-IRC-IRC-IRC-IRC-IRC
                          Input orientation:                          
 ---------------------------------------------------------------------
 Center     Atomic      Atomic             Coordinates (Angstroms)
 Number     Number       Type             X           Y           Z
 ---------------------------------------------------------------------
      1          8           0        0.333176   -0.677517   -1.057666
      2          6           0       -0.823256   -0.115654    1.068473
      3          6           0       -0.314960    1.767769   -0.649141
      4          6           0       -1.238038    1.242403    0.486137
      5          6           0        0.922770    0.907794   -0.987469
      6          6           0       -0.554216   -1.154723   -0.025271
      7          1           0       -1.200824    1.977653    1.299343
      8          1           0       -0.040999   -2.009976    0.451444
      9          1           0       -1.654878   -0.505732    1.677447
     10          1           0       -0.944152    1.851680   -1.540665
     11          6           0       -1.824824   -1.680393   -0.723814
     12          1           0       -1.541724   -2.473236   -1.434780
     13          1           0       -2.288623   -0.870242   -1.289118
     14          8           0       -2.806605   -2.143731    0.201640
     15          1           0       -2.506815   -2.992968    0.562079
     16          8           0        0.185061    3.062053   -0.360700
     17          1           0        1.039963    2.895743    0.083576
     18          8           0       -2.559703    1.175785   -0.057921
     19          1           0       -3.140518    0.758025    0.605765
     20          8           0        0.301663    0.117812    1.906772
     21          1           0        0.699806   -0.740804    2.159712
     22          1           0        1.171492    0.973505   -2.059310
     23          8           0        1.928129    1.059152   -0.193941
     24          1           0        2.766367   -1.555532    0.087866
     25          8           0        2.259439   -2.131157   -0.810544
     26          1           0        1.995387   -3.010658   -0.506203
     27          1           0        1.281834   -1.446592   -1.025212
     28          8           0        3.092630   -0.716896    0.965145
     29          1           0        4.038646   -0.522769    0.891359
     30          1           0        2.571011    0.194711    0.524358
 ---------------------------------------------------------------------
                    Distance matrix (angstroms):
                    1          2          3          4          5
     1  O    0.000000
     2  C    2.484650   0.000000
     3  C    2.562498   2.599201   0.000000
     4  C    2.922008   1.534757   1.554650   0.000000
     5  C    1.692855   2.884952   1.544668   2.636772   0.000000
     6  C    1.442578   1.532423   2.997903   2.544673   2.713170
     7  H    3.867632   2.139578   2.150673   1.096943   3.299055
     8  H    2.047649   2.140351   3.944325   3.465843   3.393038
     9  H    3.385662   1.102091   3.518124   2.156142   3.967884
    10  H    2.874316   3.269957   1.094413   2.136706   2.163873
    11  C    2.402953   2.581441   3.764982   3.217302   3.783847
    12  H    2.623370   3.512928   4.484229   4.193819   4.207753
    13  H    2.639042   2.876620   3.356192   2.952716   3.683131
    14  O    3.686985   2.966170   4.715077   3.742625   4.963267
    15  H    4.006299   3.371904   5.379210   4.421982   5.420248
    16  O    3.806847   3.627267   1.417177   2.460380   2.361755
    17  H    3.817089   3.675612   1.909193   2.843392   2.261153
    18  O    3.578123   2.439637   2.395591   1.430816   3.614346
    19  H    4.110272   2.519349   3.252407   1.966816   4.367051
    20  O    3.069435   1.422215   3.104073   2.377727   3.063736
    21  H    3.238818   1.975179   3.900301   3.238704   3.559823
    22  H    2.105217   3.866304   2.197492   3.515314   1.102280
    23  O    2.511159   3.247149   2.395996   3.243563   1.289707
    24  H    2.829058   3.990016   4.591524   4.901256   3.259321
    25  O    2.425825   4.134727   4.674956   5.029377   3.324637
    26  H    2.917294   4.336519   5.309567   5.433995   4.091014
    27  H    1.221671   3.253661   3.608781   3.983041   2.381908
    28  O    3.421681   3.963121   4.515656   4.777340   3.340750
    29  H    4.189648   4.882130   5.154958   5.578837   3.909628
    30  H    2.876019   3.451584   3.490050   3.950693   2.347511
                    6          7          8          9         10
     6  C    0.000000
     7  H    3.461861   0.000000
     8  H    1.105489   4.238551   0.000000
     9  H    2.128824   2.552710   2.523972   0.000000
    10  H    3.389237   2.854365   4.438082   4.052008   0.000000
    11  C    1.542315   4.226564   2.161455   2.678575   3.730733
    12  H    2.168033   5.234698   2.454512   3.683726   4.367288
    13  H    2.164811   3.999244   3.062738   3.055325   3.046267
    14  O    2.470401   4.557334   2.780084   2.487473   4.740007
    15  H    2.745316   5.191940   2.656832   2.855904   5.507636
    16  O    4.294211   2.419162   5.141611   4.502056   2.032841
    17  H    4.354255   2.709632   5.036853   4.623054   2.768563
    18  O    3.074786   2.081276   4.092969   2.580254   2.294639
    19  H    3.278074   2.393942   4.158445   2.225469   3.259949
    20  O    2.466711   2.466870   2.600554   2.066265   4.055018
    21  H    2.553048   3.426753   2.253391   2.415031   4.807948
    22  H    3.412439   4.232818   4.083525   4.913233   2.348645
    23  O    3.330426   3.586627   3.703179   4.334616   3.269827
    24  H    3.346598   5.448824   2.867056   4.814172   5.294257
    25  O    3.080054   5.771254   2.626655   4.914670   5.163242
    26  H    3.190026   6.193465   2.462788   4.936336   5.775235
    27  H    2.110960   4.826241   2.061020   4.100471   4.012393
    28  O    3.804222   5.079963   3.428641   4.805288   5.401137
    29  H    4.725882   5.819846   4.364494   5.747559   6.031669
    30  H    3.448204   4.243374   3.418853   4.436031   4.400709
                   11         12         13         14         15
    11  C    0.000000
    12  H    1.101916   0.000000
    13  H    1.091340   1.774448   0.000000
    14  O    1.426549   2.094367   2.027915   0.000000
    15  H    1.959970   2.277930   2.824978   0.970048   0.000000
    16  O    5.163554   5.897022   4.737512   6.030462   6.690366
    17  H    5.458930   6.147882   5.210224   6.340846   6.890974
    18  O    3.023444   4.030804   2.403239   3.338790   4.214937
    19  H    3.073225   4.142586   2.639614   2.948729   3.804397
    20  O    3.830858   4.612763   4.230786   4.205161   4.401443
    21  H    3.946050   4.576697   4.565293   4.254077   4.231677
    22  H    4.219554   4.430756   3.995622   5.536633   6.011200
    23  O    4.676595   5.104638   4.764765   5.729979   6.054748
    24  H    4.664059   4.660502   5.283808   5.605081   5.486122
    25  O    4.109978   3.867237   4.743818   5.166186   5.034281
    26  H    4.051046   3.696245   4.852533   4.930693   4.627241
    27  H    3.129989   3.032197   3.626291   4.325101   4.389149
    28  O    5.287936   5.506506   5.836361   6.117170   6.057784
    29  H    6.191055   6.352619   6.701459   7.068287   7.003810
    30  H    4.939364   5.279276   5.295174   5.872922   5.995584
                   16         17         18         19         20
    16  O    0.000000
    17  H    0.977701   0.000000
    18  O    3.344160   3.991976   0.000000
    19  H    4.159576   4.724293   0.975884   0.000000
    20  O    3.718007   3.403825   3.628600   3.735118   0.000000
    21  H    4.591205   4.201252   4.383561   4.405603   0.979652
    22  H    2.867116   2.881711   4.238901   5.073705   4.149532
    23  O    2.660397   2.058864   4.491407   5.140175   2.818600
    24  H    5.309091   4.774342   5.987350   6.364908   3.490453
    25  O    5.610244   5.249410   5.892914   6.285924   4.034174
    26  H    6.338476   6.012175   6.202911   6.466604   4.298660
    27  H    4.687469   4.488183   4.750780   5.203616   3.464769
    28  O    4.948968   4.247560   6.047956   6.415348   3.061518
    29  H    5.410058   4.618532   6.879275   7.298109   3.925104
    30  H    3.833764   3.135917   5.256023   5.739819   2.658368
                   21         22         23         24         25
    21  H    0.000000
    22  H    4.578372   0.000000
    23  O    3.207538   2.014805   0.000000
    24  H    3.037598   3.681035   2.760187   0.000000
    25  O    3.631523   3.518803   3.266197   1.181296   0.000000
    26  H    3.733346   4.354825   4.082326   1.750634   0.967403
    27  H    3.313704   2.634085   2.717989   1.858669   1.212611
    28  O    2.674541   3.961762   2.419481   1.256733   2.418143
    29  H    3.578283   4.377883   2.852127   1.825074   2.940912
    30  H    2.655368   3.039822   1.294801   1.814398   2.699760
                   26         27         28         29         30
    26  H    0.000000
    27  H    1.795782   0.000000
    28  O    2.937712   2.788003   0.000000
    29  H    3.509655   3.482342   0.968543   0.000000
    30  H    3.415815   2.599427   1.139037   1.674341   0.000000
 Symmetry turned off by external request.
 Stoichiometry    C6H16O8
 Framework group  C1[X(C6H16O8)]
 Deg. of freedom    84
 Full point group                 C1      NOp   1
 Rotational constants (GHZ):      0.7351106      0.5972459      0.4215350
 Standard basis: 6-31G(d) (6D, 7F)
   242 basis functions,   456 primitive gaussians,   242 cartesian basis functions
    58 alpha electrons       58 beta electrons
       nuclear repulsion energy      1136.8546432005 Hartrees.
 NAtoms=   30 NActive=   30 NUniq=   30 SFac= 1.00D+00 NAtFMM=   60 NAOKFM=F Big=F
 Integral buffers will be    131072 words long.
 Raffenetti 2 integral format.
 Two-electron integral symmetry is turned off.
 One-electron integrals computed using PRISM.
 NBasis=   242 RedAO= T EigKep=  1.35D-03  NBF=   242
 NBsUse=   242 1.00D-06 EigRej= -1.00D+00 NBFU=   242
 Initial guess from the checkpoint file:  "/scratch/10461029.yak.local/Gau-6501.chk"
 B after Tr=    -0.000091    0.000010   -0.000012
         Rot=    1.000000   -0.000036   -0.000014    0.000019 Ang=  -0.00 deg.
 ExpMin= 1.61D-01 ExpMax= 5.48D+03 ExpMxC= 8.25D+02 IAcc=1 IRadAn=         1 AccDes= 0.00D+00
 Harris functional with IExCor=  402 and IRadAn=       1 diagonalized for initial guess.
 HarFok:  IExCor=  402 AccDes= 0.00D+00 IRadAn=         1 IDoV= 1 UseB2=F ITyADJ=14
 ICtDFT=  3500011 ScaDFX=  1.000000  1.000000  1.000000  1.000000
 FoFCou: FMM=F IPFlag=           0 FMFlag=      100000 FMFlg1=           0
         NFxFlg=           0 DoJE=T BraDBF=F KetDBF=T FulRan=T
         wScrn=  0.000000 ICntrl=     500 IOpCl=  0 I1Cent=   200000004 NGrid=           0
         NMat0=    1 NMatS0=      1 NMatT0=    0 NMatD0=    1 NMtDS0=    0 NMtDT0=    0
 Symmetry not used in FoFCou.
 Requested convergence on RMS density matrix=1.00D-08 within 128 cycles.
 Requested convergence on MAX density matrix=1.00D-06.
 Requested convergence on             energy=1.00D-06.
 No special actions if energy rises.
 Integral accuracy reduced to 1.0D-05 until final iterations.
 Initial convergence to 1.0D-05 achieved.  Increase integral accuracy.
 SCF Done:  E(RB3LYP) =  -839.937014222     A.U. after   11 cycles
            NFock= 11  Conv=0.80D-08     -V/T= 2.0086
 DoSCS=F DFT=T ScalE2(SS,OS)=  1.000000  1.000000
 Range of M.O.s used for correlation:     1   242
 NBasis=   242 NAE=    58 NBE=    58 NFC=     0 NFV=     0
 NROrb=    242 NOA=    58 NOB=    58 NVA=   184 NVB=   184
 Symmetrizing basis deriv contribution to polar:
 IMax=3 JMax=2 DiffMx= 0.00D+00
 Calling FoFJK, ICntrl=      2147 FMM=F ISym2X=0 I1Cent= 0 IOpClX= 0 NMat=1 NMatS=1 NMatT=0.
 -------------------------------------------------------------------
 Center     Atomic                   Forces (Hartrees/Bohr)
 Number     Number              X              Y              Z
 -------------------------------------------------------------------
      1        8           0.001486045    0.001097267    0.002596947
      2        6          -0.001314248   -0.001656308    0.001582741
      3        6          -0.000860383    0.001376150    0.000648334
      4        6           0.000630050    0.001211514    0.001336783
      5        6          -0.002007495   -0.001655172   -0.004988882
      6        6          -0.000383746   -0.001192564   -0.000754491
      7        1           0.001505875    0.000302965    0.000320797
      8        1          -0.001447066   -0.000125356    0.001726167
      9        1          -0.000981305   -0.000269803   -0.001585612
     10        1          -0.000266913   -0.000424646   -0.000054978
     11        6          -0.000235814   -0.001144313   -0.000865060
     12        1           0.000575694    0.001334788    0.000816302
     13        1           0.000541533   -0.000268380    0.001691664
     14        8           0.000467673    0.000181761   -0.000654119
     15        1          -0.000160106    0.000438106   -0.000056054
     16        8           0.000475461    0.000563036   -0.000419461
     17        1          -0.001255737   -0.000135731    0.000880612
     18        8          -0.001543390   -0.002771361    0.002046066
     19        1           0.002404190    0.002454061   -0.003015782
     20        8           0.001479078   -0.007932221    0.002506782
     21        1          -0.002815255    0.008760004   -0.002478824
     22        1          -0.002765772   -0.004152725   -0.000901317
     23        8           0.006721191    0.005605563    0.003933496
     24        1          -0.001719524    0.002291948   -0.003605980
     25        8           0.000396375    0.002504384    0.002119150
     26        1          -0.000350905   -0.002364167   -0.000645069
     27        1           0.004173499    0.002275371   -0.001332391
     28        8          -0.003192740    0.005043711   -0.000741270
     29        1           0.002833244   -0.000952912    0.000335918
     30        1          -0.002389507   -0.010394970   -0.000442472
 -------------------------------------------------------------------
 Cartesian Forces:  Max     0.010394970 RMS     0.002620532
 IRC-IRC-IRC-IRC-IRC-IRC-IRC-IRC-IRC-IRC-IRC-IRC-IRC-IRC-IRC-IRC-IRC-IRC
 Error in corrector energy =          -0.0008828350
 Magnitude of corrector gradient =     0.0028755692
 Magnitude of analytic gradient =      0.0248605514
 Magnitude of difference =             0.0262677625
 Angle between gradients (degrees)=  116.4479
 Pt  1 Step number  20 out of a maximum of  20
 Modified Bulirsch-Stoer Extrapolation Cycles:
    EPS =    0.000010000000000
 Maximum DWI energy   std dev =  0.000205622 at pt    -1
 Maximum DWI gradient std dev =  1.388084839 at pt     1
 CORRECTOR INTEGRATION CONVERGENCE:
   Recorrection delta-x convergence threshold:    0.010000
   Delta-x Convergence NOT Met
 Maximum number of corrector steps exceded.
 Error termination via Lnk1e in /global/software/gaussian/g09.e01/l123.exe at Sat Jan 14 01:24:44 2017.
 Job cpu time:       0 days  1 hours 37 minutes 51.3 seconds.
 File lengths (MBytes):  RWF=    220 Int=      0 D2E=      0 Chk=      8 Scr=      1
