 Entering Gaussian System, Link 0=g09
 Initial command:
 /global/software/gaussian/g09.e01/l1.exe "/scratch/10457014.yak.local/Gau-11713.inp" -scrdir="/scratch/10457014.yak.local/"
 Entering Link 1 = /global/software/gaussian/g09.e01/l1.exe PID=     11714.
  
 Copyright (c) 1988,1990,1992,1993,1995,1998,2003,2009,2015,
            Gaussian, Inc.  All Rights Reserved.
  
 This is part of the Gaussian(R) 09 program.  It is based on
 the Gaussian(R) 03 system (copyright 2003, Gaussian, Inc.),
 the Gaussian(R) 98 system (copyright 1998, Gaussian, Inc.),
 the Gaussian(R) 94 system (copyright 1995, Gaussian, Inc.),
 the Gaussian 92(TM) system (copyright 1992, Gaussian, Inc.),
 the Gaussian 90(TM) system (copyright 1990, Gaussian, Inc.),
 the Gaussian 88(TM) system (copyright 1988, Gaussian, Inc.),
 the Gaussian 86(TM) system (copyright 1986, Carnegie Mellon
 University), and the Gaussian 82(TM) system (copyright 1983,
 Carnegie Mellon University). Gaussian is a federally registered
 trademark of Gaussian, Inc.
  
 This software contains proprietary and confidential information,
 including trade secrets, belonging to Gaussian, Inc.
  
 This software is provided under written license and may be
 used, copied, transmitted, or stored only in accord with that
 written license.
  
 The following legend is applicable only to US Government
 contracts under FAR:
  
                    RESTRICTED RIGHTS LEGEND
  
 Use, reproduction and disclosure by the US Government is
 subject to restrictions as set forth in subparagraphs (a)
 and (c) of the Commercial Computer Software - Restricted
 Rights clause in FAR 52.227-19.
  
 Gaussian, Inc.
 340 Quinnipiac St., Bldg. 40, Wallingford CT 06492
  
  
 ---------------------------------------------------------------
 Warning -- This program may not be used in any manner that
 competes with the business of Gaussian, Inc. or will provide
 assistance to any competitor of Gaussian, Inc.  The licensee
 of this program is prohibited from giving any competitor of
 Gaussian, Inc. access to this program.  By using this program,
 the user acknowledges that Gaussian, Inc. is engaged in the
 business of creating and licensing software in the field of
 computational chemistry and represents and warrants to the
 licensee that it is not a competitor of Gaussian, Inc. and that
 it will not use this program in any manner prohibited above.
 ---------------------------------------------------------------
  

 Cite this work as:
 Gaussian 09, Revision E.01,
 M. J. Frisch, G. W. Trucks, H. B. Schlegel, G. E. Scuseria, 
 M. A. Robb, J. R. Cheeseman, G. Scalmani, V. Barone, B. Mennucci, 
 G. A. Petersson, H. Nakatsuji, M. Caricato, X. Li, H. P. Hratchian, 
 A. F. Izmaylov, J. Bloino, G. Zheng, J. L. Sonnenberg, M. Hada, 
 M. Ehara, K. Toyota, R. Fukuda, J. Hasegawa, M. Ishida, T. Nakajima, 
 Y. Honda, O. Kitao, H. Nakai, T. Vreven, J. A. Montgomery, Jr., 
 J. E. Peralta, F. Ogliaro, M. Bearpark, J. J. Heyd, E. Brothers, 
 K. N. Kudin, V. N. Staroverov, T. Keith, R. Kobayashi, J. Normand, 
 K. Raghavachari, A. Rendell, J. C. Burant, S. S. Iyengar, J. Tomasi, 
 M. Cossi, N. Rega, J. M. Millam, M. Klene, J. E. Knox, J. B. Cross, 
 V. Bakken, C. Adamo, J. Jaramillo, R. Gomperts, R. E. Stratmann, 
 O. Yazyev, A. J. Austin, R. Cammi, C. Pomelli, J. W. Ochterski, 
 R. L. Martin, K. Morokuma, V. G. Zakrzewski, G. A. Voth, 
 P. Salvador, J. J. Dannenberg, S. Dapprich, A. D. Daniels, 
 O. Farkas, J. B. Foresman, J. V. Ortiz, J. Cioslowski, 
 and D. J. Fox, Gaussian, Inc., Wallingford CT, 2013.
 
 ******************************************
 Gaussian 09:  ES64L-G09RevE.01 30-Nov-2015
                12-Jan-2017 
 ******************************************
 %NPROCS=4
 Will use up to    4 processors via shared memory.
 ----------------------------------------------------------------------
 # opt=(calcfc,ts,noeigentest,maxcycle=1000,cartesian) freq b3lyp/6-31g
 (d)
 ----------------------------------------------------------------------
 1/5=1,6=1000,10=4,11=1,14=-1,18=10,26=3,38=1/1,3;
 2/12=2,17=6,18=5,29=2,40=1/2;
 3/5=1,6=6,7=1,11=2,16=1,25=1,30=1,71=2,74=-5,140=1/1,2,3;
 4//1;
 5/5=2,38=5/2;
 8/6=4,10=90,11=11/1;
 11/6=1,8=1,9=11,15=111,16=1/1,2,10;
 10/6=1,13=1/2;
 6/7=2,8=2,9=2,10=2,28=1/1;
 7/7=1,10=1,18=20,25=1/1,2,3,16;
 1/5=1,6=1000,10=4,11=1,14=-1,18=10,26=3/3(2);
 2/29=1/2;
 99/12=1/99;
 2/29=1/2;
 3/5=1,6=6,7=1,11=2,16=1,25=1,30=1,71=1,74=-5/1,2,3;
 4/5=5,16=3,69=1/1;
 5/5=2,38=5/2;
 7/7=1/1,2,3,16;
 1/5=1,6=1000,11=1,14=-1,18=10,26=3/3(-5);
 2/29=1/2;
 6/7=2,8=2,9=2,10=2,19=2,28=1/1;
 99/9=1,12=1/99;
 -------------------------
 boat6_Alpha_B3LYP_6-31G_d
 -------------------------
 Symbolic Z-matrix:
 Charge =  0 Multiplicity = 1
 6                    0    -0.08073   0.95736   0.33995 
 6                    0     2.20301   0.23684  -0.52671 
 6                    0     1.46387   1.12568   0.49665 
 6                    0     1.72296  -1.22111  -0.42488 
 1                    0     2.25888  -1.82307  -1.1721 
 1                    0     3.27602   0.27491  -0.29576 
 1                    0    -0.44461   0.44198   1.23662 
 1                    0     1.74525   2.16749   0.27762 
 6                    0     0.18513  -1.37506  -0.68742 
 8                    0    -0.3872    0.16229  -0.82268 
 6                    0    -0.76659   2.31046   0.22314 
 1                    0    -0.35101   2.98159   0.9834 
 1                    0    -0.56613   2.73554  -0.77164 
 8                    0    -2.18923   2.17862   0.4382 
 1                    0    -2.58889   3.05991   0.38677 
 8                    0     1.9923   -1.70764   0.88522 
 1                    0     1.12412  -2.11741   1.13212 
 8                    0     2.06452   0.74321  -1.84572 
 1                    0     1.10207   0.72656  -2.00732 
 8                    0     1.84535   0.85907   1.83593 
 1                    0     2.12139  -0.08257   1.83654 
 8                    0    -2.93953  -2.03948   0.54301 
 1                    0    -1.92352  -2.1961    0.38947 
 1                    0    -3.04386  -0.8744   -0.2332 
 1                    0    -3.00589  -1.82658   1.49311 
 8                    0    -0.41504  -2.03769   0.25668 
 1                    0    -0.03877  -1.64909  -1.73488 
 8                    0    -2.87538  -0.01535  -0.8793 
 1                    0    -2.99022   0.82033  -0.3561 
 1                    0    -1.80708   0.0118   -0.9797 
 

 GradGradGradGradGradGradGradGradGradGradGradGradGradGradGradGradGradGrad
 Berny optimization.
 Initialization pass.
 No Z-matrix variables, so optimization will use Cartesian coordinates.
 Trust Radius=3.00D-01 FncErr=1.00D-07 GrdErr=1.00D-06
 Number of steps in this run=    180 maximum allowed number of steps=    180.
 Search for a saddle point of order  1.
 GradGradGradGradGradGradGradGradGradGradGradGradGradGradGradGradGradGrad

 ---------------------------------------------------------------------------------------------------
                            Z-MATRIX (ANGSTROMS AND DEGREES)
   CD    Cent   Atom    N1       Length/X        N2       Alpha/Y        N3        Beta/Z          J
 ---------------------------------------------------------------------------------------------------
      1      1  C        0  -0.080726          0.957357          0.339952
      2      2  C        0   2.203009          0.236835         -0.526705
      3      3  C        0   1.463871          1.125679          0.496645
      4      4  C        0   1.722964         -1.221112         -0.424880
      5      5  H        0   2.258882         -1.823071         -1.172101
      6      6  H        0   3.276020          0.274906         -0.295761
      7      7  H        0  -0.444609          0.441983          1.236619
      8      8  H        0   1.745252          2.167489          0.277622
      9      9  C        0   0.185127         -1.375062         -0.687424
     10     10  O        0  -0.387203          0.162294         -0.822679
     11     11  C        0  -0.766593          2.310460          0.223138
     12     12  H        0  -0.351012          2.981594          0.983404
     13     13  H        0  -0.566127          2.735540         -0.771643
     14     14  O        0  -2.189229          2.178616          0.438200
     15     15  H        0  -2.588894          3.059911          0.386773
     16     16  O        0   1.992299         -1.707644          0.885220
     17     17  H        0   1.124117         -2.117405          1.132122
     18     18  O        0   2.064524          0.743205         -1.845722
     19     19  H        0   1.102065          0.726555         -2.007320
     20     20  O        0   1.845348          0.859067          1.835929
     21     21  H        0   2.121387         -0.082565          1.836538
     22     22  O        0  -2.939526         -2.039483          0.543006
     23     23  H        0  -1.923524         -2.196100          0.389468
     24     24  H        0  -3.043865         -0.874403         -0.233198
     25     25  H        0  -3.005885         -1.826579          1.493110
     26     26  O        0  -0.415042         -2.037688          0.256683
     27     27  H        0  -0.038767         -1.649091         -1.734884
     28     28  O        0  -2.875378         -0.015346         -0.879300
     29     29  H        0  -2.990218          0.820325         -0.356099
     30     30  H        0  -1.807079          0.011796         -0.979701
 ---------------------------------------------------------------------------------------------------
                         Z-Matrix orientation:                         
 ---------------------------------------------------------------------
 Center     Atomic      Atomic             Coordinates (Angstroms)
 Number     Number       Type             X           Y           Z
 ---------------------------------------------------------------------
      1          6           0       -0.080726    0.957357    0.339952
      2          6           0        2.203009    0.236835   -0.526705
      3          6           0        1.463871    1.125679    0.496645
      4          6           0        1.722964   -1.221112   -0.424880
      5          1           0        2.258882   -1.823071   -1.172101
      6          1           0        3.276020    0.274906   -0.295761
      7          1           0       -0.444609    0.441983    1.236619
      8          1           0        1.745252    2.167489    0.277622
      9          6           0        0.185127   -1.375062   -0.687424
     10          8           0       -0.387203    0.162294   -0.822679
     11          6           0       -0.766593    2.310460    0.223138
     12          1           0       -0.351012    2.981594    0.983404
     13          1           0       -0.566127    2.735540   -0.771643
     14          8           0       -2.189229    2.178616    0.438200
     15          1           0       -2.588894    3.059911    0.386773
     16          8           0        1.992299   -1.707644    0.885220
     17          1           0        1.124117   -2.117405    1.132122
     18          8           0        2.064524    0.743205   -1.845722
     19          1           0        1.102065    0.726555   -2.007320
     20          8           0        1.845348    0.859067    1.835929
     21          1           0        2.121387   -0.082565    1.836538
     22          8           0       -2.939526   -2.039483    0.543006
     23          1           0       -1.923524   -2.196100    0.389468
     24          1           0       -3.043865   -0.874403   -0.233198
     25          1           0       -3.005885   -1.826579    1.493110
     26          8           0       -0.415042   -2.037688    0.256683
     27          1           0       -0.038767   -1.649091   -1.734884
     28          8           0       -2.875378   -0.015346   -0.879300
     29          1           0       -2.990218    0.820325   -0.356099
     30          1           0       -1.807079    0.011796   -0.979701
 ---------------------------------------------------------------------
                    Distance matrix (angstroms):
                    1          2          3          4          5
     1  C    0.000000
     2  C    2.546702   0.000000
     3  C    1.561623   1.543896   0.000000
     4  C    2.929845   1.538318   2.534515   0.000000
     5  H    3.935842   2.159368   3.480213   1.099046   0.000000
     6  H    3.483908   1.098243   2.153046   2.160260   2.490793
     7  H    1.096373   3.187676   2.158077   3.197630   4.270979
     8  H    2.191461   2.141006   1.101142   3.460726   4.276691
     9  C    2.562491   2.587642   3.048100   1.567665   2.176255
    10  O    1.441445   2.608133   2.468846   2.554381   3.326490
    11  C    1.521495   3.698746   2.540370   4.369190   5.309074
    12  H    2.141173   4.041925   2.641052   4.893606   5.877291
    13  H    2.152485   3.737865   2.884631   4.584242   5.377916
    14  O    2.438629   4.898297   3.802267   5.254361   6.196149
    15  H    3.273199   5.636181   4.492018   6.130094   7.055107
    16  O    3.420085   2.412246   2.908255   1.423242   2.077729
    17  H    3.396077   3.075412   3.322177   1.893730   2.585298
    18  O    3.070037   1.419646   2.448214   2.448264   2.660322
    19  H    2.638551   1.908959   2.561258   2.585157   2.921713
    20  O    2.440772   2.469237   1.417846   3.074635   4.051311
    21  H    2.858410   2.386126   1.920285   2.563014   3.478531
    22  O    4.146688   5.724646   5.423127   4.831702   5.478309
    23  H    3.652759   4.877173   4.745540   3.861430   4.479974
    24  H    3.530444   5.371283   4.985246   4.783263   5.468147
    25  H    4.199599   5.955662   5.448623   5.138802   5.900943
    26  O    3.014796   3.555467   3.687111   2.387969   3.039302
    27  H    3.331708   3.168907   3.864840   2.236733   2.371958
    28  O    3.200438   5.096855   4.693000   4.775470   5.451076
    29  H    2.994730   5.228688   4.545253   5.136758   5.933503
    30  H    2.369781   4.041863   3.757585   3.780092   4.464952
                    6          7          8          9         10
     6  H    0.000000
     7  H    4.027305   0.000000
     8  H    2.500778   2.948311   0.000000
     9  C    3.525537   2.720324   3.989357   0.000000
    10  O    3.702638   2.078997   3.127113   1.646001   0.000000
    11  C    4.555816   2.149889   2.516500   3.913817   2.419150
    12  H    4.702955   2.553919   2.356951   4.696761   3.348387
    13  H    4.587295   3.050948   2.601175   4.179536   2.579964
    14  O    5.833674   2.587869   3.937772   4.419641   2.983734
    15  H    6.528348   3.489089   4.426415   5.340232   3.834893
    16  O    2.640674   3.268470   3.930250   2.418613   3.474999
    17  H    3.520325   3.003712   4.413196   2.177963   3.361899
    18  O    2.022228   3.985889   2.576647   3.059549   2.719382
    19  H    2.803480   3.605041   2.776858   2.645694   1.984864
    20  O    2.632901   2.403546   2.037230   3.756990   3.540900
    21  H    2.451053   2.686892   2.763049   3.433662   3.663934
    22  O    6.685278   3.586556   6.302078   3.423283   3.636931
    23  H    5.797471   3.140754   5.702047   2.506034   3.064573
    24  H    6.423844   3.263337   5.696463   3.298995   2.912058
    25  H    6.861387   3.431078   6.324816   3.891164   4.021939
    26  O    4.390584   2.666443   4.727666   1.300236   2.450657
    27  H    4.093978   3.656108   4.668960   1.105619   2.057824
    28  O    6.185827   3.254981   5.239605   3.354450   2.495151
    29  H    6.290219   3.026552   4.963983   3.874573   2.725140
    30  H    5.135650   2.636941   4.341305   2.444931   1.436438
                   11         12         13         14         15
    11  C    0.000000
    12  H    1.095962   0.000000
    13  H    1.100213   1.785219   0.000000
    14  O    1.444828   2.078717   2.099606   0.000000
    15  H    1.977178   2.317373   2.353451   0.969050   0.000000
    16  O    4.918841   5.243062   5.388193   5.726082   6.630638
    17  H    4.899696   5.310171   5.480175   5.469514   6.414561
    18  O    3.840793   4.341561   3.470356   5.036975   5.657337
    19  H    3.312941   4.017594   2.888907   4.349904   4.979901
    20  O    3.395567   3.171107   4.016938   4.469079   5.158127
    21  H    4.082898   4.028606   4.686903   5.064553   5.844974
    22  O    4.872982   5.666178   5.492010   4.285591   5.113822
    23  H    4.655667   5.443718   5.245167   4.383048   5.297960
    24  H    3.941772   4.858013   4.411439   3.240695   4.008764
    25  H    4.872612   5.516038   5.647518   4.221534   5.027489
    26  O    4.362465   5.072023   4.885078   4.577981   5.543291
    27  H    4.476787   5.378646   4.520059   4.898788   5.760145
    28  O    3.327419   4.338633   3.593272   2.649543   3.337996
    29  H    2.738709   3.664800   3.117201   1.765630   2.393463
    30  H    2.795226   3.846247   3.000339   2.617554   3.430669
                   16         17         18         19         20
    16  O    0.000000
    17  H    0.991264   0.000000
    18  O    3.670139   4.234975   0.000000
    19  H    3.883894   4.236117   0.976073   0.000000
    20  O    2.741067   3.142436   3.689989   3.916707   0.000000
    21  H    1.887472   2.373041   3.774145   4.058194   0.981259
    22  O    4.954808   4.106863   6.204022   5.521738   5.741799
    23  H    3.977189   3.137809   5.435082   4.841559   5.062676
    24  H    5.225715   4.558643   5.595760   4.785322   5.584855
    25  H    5.036419   4.155937   6.592468   5.970490   5.555599
    26  O    2.509836   1.772501   4.278051   3.881799   3.999321
    27  H    3.315660   3.129112   3.187350   2.649417   4.753047
    28  O    5.447172   4.945749   5.090383   4.200345   5.515643
    29  H    5.723371   5.269992   5.270232   4.413854   5.309349
    30  H    4.568334   4.193472   4.034137   3.167018   4.688909
                   21         22         23         24         25
    21  H    0.000000
    22  O    5.578135   0.000000
    23  H    4.787729   1.039405   0.000000
    24  H    5.620555   1.403849   1.841130   0.000000
    25  H    5.426642   0.975925   1.589364   1.971857   0.000000
    26  O    3.570983   2.540670   1.522578   2.916149   2.878504
    27  H    4.458175   3.708853   2.892127   3.447581   4.388079
    28  O    5.687526   2.474712   2.696569   1.088032   2.987629
    29  H    5.634836   2.998243   3.285198   1.700025   3.228919
    30  H    4.834558   2.794426   2.600575   1.694773   3.306290
                   26         27         28         29         30
    26  O    0.000000
    27  H    2.063717   0.000000
    28  O    3.381357   3.383417   0.000000
    29  H    3.895545   4.087802   0.992609   0.000000
    30  H    2.768898   2.540822   1.073350   1.562823   0.000000
 Stoichiometry    C6H16O8
 Framework group  C1[X(C6H16O8)]
 Deg. of freedom    84
 Full point group                 C1      NOp   1
 Largest Abelian subgroup         C1      NOp   1
 Largest concise Abelian subgroup C1      NOp   1
                         Standard orientation:                         
 ---------------------------------------------------------------------
 Center     Atomic      Atomic             Coordinates (Angstroms)
 Number     Number       Type             X           Y           Z
 ---------------------------------------------------------------------
      1          6           0        0.080726    0.957357   -0.339952
      2          6           0       -2.203009    0.236834    0.526705
      3          6           0       -1.463871    1.125679   -0.496645
      4          6           0       -1.722964   -1.221112    0.424880
      5          1           0       -2.258881   -1.823072    1.172101
      6          1           0       -3.276020    0.274905    0.295761
      7          1           0        0.444609    0.441983   -1.236619
      8          1           0       -1.745253    2.167489   -0.277622
      9          6           0       -0.185127   -1.375062    0.687424
     10          8           0        0.387203    0.162294    0.822679
     11          6           0        0.766592    2.310460   -0.223138
     12          1           0        0.351011    2.981594   -0.983404
     13          1           0        0.566126    2.735540    0.771643
     14          8           0        2.189228    2.178617   -0.438200
     15          1           0        2.588893    3.059912   -0.386773
     16          8           0       -1.992299   -1.707645   -0.885220
     17          1           0       -1.124116   -2.117405   -1.132122
     18          8           0       -2.064524    0.743204    1.845722
     19          1           0       -1.102065    0.726555    2.007320
     20          8           0       -1.845348    0.859067   -1.835929
     21          1           0       -2.121387   -0.082566   -1.836538
     22          8           0        2.939527   -2.039482   -0.543006
     23          1           0        1.923525   -2.196099   -0.389468
     24          1           0        3.043865   -0.874402    0.233198
     25          1           0        3.005886   -1.826578   -1.493110
     26          8           0        0.415043   -2.037688   -0.256683
     27          1           0        0.038767   -1.649091    1.734884
     28          8           0        2.875378   -0.015345    0.879300
     29          1           0        2.990218    0.820326    0.356099
     30          1           0        1.807079    0.011797    0.979701
 ---------------------------------------------------------------------
 Rotational constants (GHZ):      0.7786815      0.5477904      0.4235593
 Standard basis: 6-31G(d) (6D, 7F)
 There are   242 symmetry adapted cartesian basis functions of A   symmetry.
 There are   242 symmetry adapted basis functions of A   symmetry.
   242 basis functions,   456 primitive gaussians,   242 cartesian basis functions
    58 alpha electrons       58 beta electrons
       nuclear repulsion energy      1136.7765810520 Hartrees.
 NAtoms=   30 NActive=   30 NUniq=   30 SFac= 1.00D+00 NAtFMM=   60 NAOKFM=F Big=F
 Integral buffers will be    131072 words long.
 Raffenetti 2 integral format.
 Two-electron integral symmetry is turned on.
 One-electron integrals computed using PRISM.
 NBasis=   242 RedAO= T EigKep=  1.36D-03  NBF=   242
 NBsUse=   242 1.00D-06 EigRej= -1.00D+00 NBFU=   242
 ExpMin= 1.61D-01 ExpMax= 5.48D+03 ExpMxC= 8.25D+02 IAcc=1 IRadAn=         1 AccDes= 0.00D+00
 Harris functional with IExCor=  402 and IRadAn=       1 diagonalized for initial guess.
 HarFok:  IExCor=  402 AccDes= 0.00D+00 IRadAn=         1 IDoV= 1 UseB2=F ITyADJ=14
 ICtDFT=  3500011 ScaDFX=  1.000000  1.000000  1.000000  1.000000
 FoFCou: FMM=F IPFlag=           0 FMFlag=      100000 FMFlg1=           0
         NFxFlg=           0 DoJE=T BraDBF=F KetDBF=T FulRan=T
         wScrn=  0.000000 ICntrl=     500 IOpCl=  0 I1Cent=   200000004 NGrid=           0
         NMat0=    1 NMatS0=      1 NMatT0=    0 NMatD0=    1 NMtDS0=    0 NMtDT0=    0
 Petite list used in FoFCou.
 Requested convergence on RMS density matrix=1.00D-08 within 128 cycles.
 Requested convergence on MAX density matrix=1.00D-06.
 Requested convergence on             energy=1.00D-06.
 No special actions if energy rises.
 Integral accuracy reduced to 1.0D-05 until final iterations.
 Initial convergence to 1.0D-05 achieved.  Increase integral accuracy.
 SCF Done:  E(RB3LYP) =  -839.978243149     A.U. after   14 cycles
            NFock= 14  Conv=0.73D-08     -V/T= 2.0087
 DoSCS=F DFT=T ScalE2(SS,OS)=  1.000000  1.000000
 Range of M.O.s used for correlation:     1   242
 NBasis=   242 NAE=    58 NBE=    58 NFC=     0 NFV=     0
 NROrb=    242 NOA=    58 NOB=    58 NVA=   184 NVB=   184
 Symmetrizing basis deriv contribution to polar:
 IMax=3 JMax=2 DiffMx= 0.00D+00
 G2DrvN: will do    31 centers at a time, making    1 passes.
 Calling FoFCou, ICntrl=  3107 FMM=F I1Cent=   0 AccDes= 0.00D+00.
 End of G2Drv F.D. properties file   721 does not exist.
 End of G2Drv F.D. properties file   722 does not exist.
 End of G2Drv F.D. properties file   788 does not exist.
          IDoAtm=111111111111111111111111111111
          Differentiating once with respect to nuclear coordinates.
          There are    93 degrees of freedom in the 1st order CPHF.  IDoFFX=6 NUNeed=     0.
     87 vectors produced by pass  0 Test12= 1.15D-14 1.08D-09 XBig12= 1.26D-01 8.83D-02.
 AX will form    87 AO Fock derivatives at one time.
     87 vectors produced by pass  1 Test12= 1.15D-14 1.08D-09 XBig12= 1.02D-02 1.98D-02.
     87 vectors produced by pass  2 Test12= 1.15D-14 1.08D-09 XBig12= 1.02D-04 1.44D-03.
     87 vectors produced by pass  3 Test12= 1.15D-14 1.08D-09 XBig12= 2.94D-07 5.15D-05.
     87 vectors produced by pass  4 Test12= 1.15D-14 1.08D-09 XBig12= 3.62D-10 1.99D-06.
     69 vectors produced by pass  5 Test12= 1.15D-14 1.08D-09 XBig12= 3.32D-13 5.16D-08.
      2 vectors produced by pass  6 Test12= 1.15D-14 1.08D-09 XBig12= 3.17D-16 1.34D-09.
 InvSVY:  IOpt=1 It=  1 EMax= 4.16D-16
 Solved reduced A of dimension   506 with    93 vectors.
 End of Minotr F.D. properties file   721 does not exist.
 End of Minotr F.D. properties file   722 does not exist.
 End of Minotr F.D. properties file   788 does not exist.

 **********************************************************************

            Population analysis using the SCF density.

 **********************************************************************

 Orbital symmetries:
       Occupied  (A) (A) (A) (A) (A) (A) (A) (A) (A) (A) (A) (A)
                 (A) (A) (A) (A) (A) (A) (A) (A) (A) (A) (A) (A)
                 (A) (A) (A) (A) (A) (A) (A) (A) (A) (A) (A) (A)
                 (A) (A) (A) (A) (A) (A) (A) (A) (A) (A) (A) (A)
                 (A) (A) (A) (A) (A) (A) (A) (A) (A) (A)
       Virtual   (A) (A) (A) (A) (A) (A) (A) (A) (A) (A) (A) (A)
                 (A) (A) (A) (A) (A) (A) (A) (A) (A) (A) (A) (A)
                 (A) (A) (A) (A) (A) (A) (A) (A) (A) (A) (A) (A)
                 (A) (A) (A) (A) (A) (A) (A) (A) (A) (A) (A) (A)
                 (A) (A) (A) (A) (A) (A) (A) (A) (A) (A) (A) (A)
                 (A) (A) (A) (A) (A) (A) (A) (A) (A) (A) (A) (A)
                 (A) (A) (A) (A) (A) (A) (A) (A) (A) (A) (A) (A)
                 (A) (A) (A) (A) (A) (A) (A) (A) (A) (A) (A) (A)
                 (A) (A) (A) (A) (A) (A) (A) (A) (A) (A) (A) (A)
                 (A) (A) (A) (A) (A) (A) (A) (A) (A) (A) (A) (A)
                 (A) (A) (A) (A) (A) (A) (A) (A) (A) (A) (A) (A)
                 (A) (A) (A) (A) (A) (A) (A) (A) (A) (A) (A) (A)
                 (A) (A) (A) (A) (A) (A) (A) (A) (A) (A) (A) (A)
                 (A) (A) (A) (A) (A) (A) (A) (A) (A) (A) (A) (A)
                 (A) (A) (A) (A) (A) (A) (A) (A) (A) (A) (A) (A)
                 (A) (A) (A) (A)
 The electronic state is 1-A.
 Alpha  occ. eigenvalues --  -19.21531 -19.20352 -19.17351 -19.17285 -19.13554
 Alpha  occ. eigenvalues --  -19.13481 -19.12388 -19.10423 -10.27990 -10.26669
 Alpha  occ. eigenvalues --  -10.24876 -10.23363 -10.22923 -10.22691  -1.09284
 Alpha  occ. eigenvalues --   -1.06483  -1.04723  -1.02576  -1.01240  -1.01007
 Alpha  occ. eigenvalues --   -0.99912  -0.96471  -0.78052  -0.74700  -0.68718
 Alpha  occ. eigenvalues --   -0.63654  -0.61766  -0.59270  -0.56638  -0.56380
 Alpha  occ. eigenvalues --   -0.54827  -0.53804  -0.52405  -0.51304  -0.50004
 Alpha  occ. eigenvalues --   -0.47335  -0.46460  -0.45869  -0.44708  -0.42940
 Alpha  occ. eigenvalues --   -0.42744  -0.41111  -0.40635  -0.39858  -0.38577
 Alpha  occ. eigenvalues --   -0.37782  -0.37293  -0.35441  -0.34054  -0.33557
 Alpha  occ. eigenvalues --   -0.32402  -0.31912  -0.29667  -0.28465  -0.26266
 Alpha  occ. eigenvalues --   -0.25355  -0.24631  -0.23965
 Alpha virt. eigenvalues --    0.02454   0.05413   0.06812   0.09282   0.09701
 Alpha virt. eigenvalues --    0.11200   0.12299   0.12832   0.14062   0.14833
 Alpha virt. eigenvalues --    0.15164   0.15806   0.16989   0.18759   0.19373
 Alpha virt. eigenvalues --    0.21117   0.22161   0.23271   0.23625   0.24328
 Alpha virt. eigenvalues --    0.24738   0.25343   0.27025   0.27531   0.30143
 Alpha virt. eigenvalues --    0.31984   0.34562   0.38694   0.51334   0.52141
 Alpha virt. eigenvalues --    0.53441   0.55550   0.56743   0.58524   0.59066
 Alpha virt. eigenvalues --    0.60210   0.60510   0.62269   0.62924   0.64338
 Alpha virt. eigenvalues --    0.68074   0.68716   0.71242   0.72314   0.72978
 Alpha virt. eigenvalues --    0.75174   0.75637   0.77174   0.78755   0.79119
 Alpha virt. eigenvalues --    0.80399   0.81489   0.82232   0.82987   0.83969
 Alpha virt. eigenvalues --    0.84709   0.85889   0.86127   0.88616   0.90364
 Alpha virt. eigenvalues --    0.91479   0.92036   0.92435   0.93576   0.95279
 Alpha virt. eigenvalues --    0.97596   0.98149   1.00719   1.01708   1.02850
 Alpha virt. eigenvalues --    1.05894   1.06744   1.07368   1.09056   1.10191
 Alpha virt. eigenvalues --    1.11461   1.13131   1.14423   1.15049   1.17440
 Alpha virt. eigenvalues --    1.19690   1.21599   1.23101   1.24514   1.26979
 Alpha virt. eigenvalues --    1.29831   1.33136   1.33341   1.34983   1.37087
 Alpha virt. eigenvalues --    1.38157   1.43550   1.46047   1.49418   1.49858
 Alpha virt. eigenvalues --    1.52485   1.53092   1.56280   1.59049   1.60787
 Alpha virt. eigenvalues --    1.63086   1.64660   1.66290   1.66514   1.67979
 Alpha virt. eigenvalues --    1.69818   1.70248   1.71159   1.72101   1.72584
 Alpha virt. eigenvalues --    1.73323   1.75251   1.75626   1.78268   1.78870
 Alpha virt. eigenvalues --    1.81089   1.81724   1.82602   1.83854   1.85578
 Alpha virt. eigenvalues --    1.87411   1.87984   1.92554   1.93930   1.94518
 Alpha virt. eigenvalues --    1.96638   1.98707   2.00795   2.01650   2.04457
 Alpha virt. eigenvalues --    2.04948   2.09135   2.09876   2.14393   2.16434
 Alpha virt. eigenvalues --    2.16598   2.23380   2.24539   2.27476   2.30097
 Alpha virt. eigenvalues --    2.33091   2.33537   2.34390   2.36525   2.38941
 Alpha virt. eigenvalues --    2.41096   2.45902   2.48681   2.49972   2.50990
 Alpha virt. eigenvalues --    2.52193   2.56284   2.58064   2.59901   2.62853
 Alpha virt. eigenvalues --    2.64337   2.66283   2.68722   2.71340   2.72167
 Alpha virt. eigenvalues --    2.76834   2.80103   2.81953   2.86114   2.89741
 Alpha virt. eigenvalues --    2.93882   2.94448   2.97306   3.03225   3.11550
 Alpha virt. eigenvalues --    3.76256   3.78049   3.79092   3.89577   3.92177
 Alpha virt. eigenvalues --    4.01360   4.08359   4.20026   4.28802   4.41221
 Alpha virt. eigenvalues --    4.43297   4.56792   4.76961   4.93171
          Condensed to atoms (all electrons):
               1          2          3          4          5          6
     1  C    5.067307  -0.030982   0.272238  -0.023269   0.000207   0.006372
     2  C   -0.030982   4.969714   0.305299   0.301504  -0.057791   0.379847
     3  C    0.272238   0.305299   4.971850  -0.029597   0.006669  -0.053047
     4  C   -0.023269   0.301504  -0.029597   5.061202   0.364197  -0.048435
     5  H    0.000207  -0.057791   0.006669   0.364197   0.627461  -0.006883
     6  H    0.006372   0.379847  -0.053047  -0.048435  -0.006883   0.592596
     7  H    0.340326  -0.000661  -0.040290  -0.000602   0.000037  -0.000240
     8  H   -0.076020  -0.042483   0.372137   0.006540  -0.000204  -0.006532
     9  C   -0.000603  -0.028345  -0.018979   0.304515  -0.046510   0.004556
    10  O    0.123561  -0.002400  -0.028003  -0.020243   0.002625   0.000018
    11  C    0.336480   0.000223  -0.017041   0.000314   0.000015  -0.000115
    12  H   -0.040208   0.000498  -0.000519   0.000003  -0.000000  -0.000007
    13  H   -0.029414  -0.000393  -0.003887   0.000054  -0.000001   0.000000
    14  O   -0.035597  -0.000031   0.001737  -0.000003  -0.000000   0.000000
    15  H    0.005007   0.000003  -0.000155   0.000000   0.000000  -0.000000
    16  O    0.000667  -0.045946   0.007825   0.222061  -0.039219   0.001529
    17  H   -0.000460   0.004838   0.000687  -0.049950   0.003706  -0.000607
    18  O    0.006479   0.232347  -0.037449  -0.042728   0.005457  -0.035364
    19  H    0.000297  -0.036660  -0.009723  -0.007280  -0.000537   0.006598
    20  O   -0.053584  -0.019264   0.238818   0.002397  -0.000257   0.003460
    21  H    0.001380  -0.012159  -0.035038  -0.006513   0.000637   0.001866
    22  O   -0.000198   0.000001   0.000003  -0.000102   0.000001  -0.000000
    23  H    0.000155  -0.000021  -0.000011   0.001847  -0.000044   0.000001
    24  H    0.000007  -0.000003   0.000008   0.000047  -0.000000   0.000000
    25  H    0.000014  -0.000000   0.000002   0.000004  -0.000000   0.000000
    26  O   -0.000146   0.000425   0.000546  -0.057033   0.001653  -0.000095
    27  H    0.005394  -0.000282   0.000694  -0.064863  -0.000679  -0.000238
    28  O    0.009490   0.000005  -0.000006  -0.000044   0.000001   0.000000
    29  H   -0.002240   0.000002   0.000077   0.000000  -0.000000  -0.000000
    30  H   -0.011272   0.000166   0.001023   0.001067  -0.000045   0.000004
               7          8          9         10         11         12
     1  C    0.340326  -0.076020  -0.000603   0.123561   0.336480  -0.040208
     2  C   -0.000661  -0.042483  -0.028345  -0.002400   0.000223   0.000498
     3  C   -0.040290   0.372137  -0.018979  -0.028003  -0.017041  -0.000519
     4  C   -0.000602   0.006540   0.304515  -0.020243   0.000314   0.000003
     5  H    0.000037  -0.000204  -0.046510   0.002625   0.000015  -0.000000
     6  H   -0.000240  -0.006532   0.004556   0.000018  -0.000115  -0.000007
     7  H    0.600299   0.005500  -0.001974  -0.043003  -0.046380   0.000450
     8  H    0.005500   0.633648   0.000109   0.003637  -0.005695   0.002590
     9  C   -0.001974   0.000109   4.723612   0.061855   0.002497  -0.000057
    10  O   -0.043003   0.003637   0.061855   8.624972  -0.033818   0.003263
    11  C   -0.046380  -0.005695   0.002497  -0.033818   4.947678   0.368786
    12  H    0.000450   0.002590  -0.000057   0.003263   0.368786   0.573495
    13  H    0.006161   0.003731  -0.000107  -0.001304   0.348190  -0.042049
    14  O    0.000761   0.000138  -0.000033   0.001078   0.201837  -0.034551
    15  H    0.000026   0.000002   0.000004  -0.000085  -0.017077  -0.003290
    16  O    0.000744  -0.000158  -0.027033  -0.000048   0.000033  -0.000000
    17  H    0.000500   0.000046  -0.022308   0.000961   0.000020  -0.000001
    18  O   -0.000178   0.004192   0.002600  -0.018530  -0.000723  -0.000016
    19  H    0.000839   0.000350   0.003448   0.035718  -0.001286   0.000020
    20  O    0.007284  -0.041409  -0.000400   0.001444   0.002073   0.001401
    21  H    0.000808   0.004971   0.001313  -0.000111  -0.000040  -0.000041
    22  O    0.000584   0.000000   0.003903  -0.000457   0.000008  -0.000000
    23  H   -0.000593  -0.000000  -0.008978   0.001399  -0.000021  -0.000000
    24  H    0.000092  -0.000000  -0.000068   0.002545  -0.000050  -0.000001
    25  H    0.000416   0.000000  -0.000135  -0.000052  -0.000015   0.000000
    26  O    0.013664  -0.000014   0.332716  -0.052284   0.000177   0.000007
    27  H    0.000800   0.000009   0.366528  -0.052996  -0.000224   0.000005
    28  O    0.000499   0.000003   0.004310  -0.074758   0.001872  -0.000076
    29  H    0.000195  -0.000001  -0.000269   0.004602  -0.005693   0.000679
    30  H   -0.000030  -0.000083  -0.003630   0.111629  -0.002945   0.000090
              13         14         15         16         17         18
     1  C   -0.029414  -0.035597   0.005007   0.000667  -0.000460   0.006479
     2  C   -0.000393  -0.000031   0.000003  -0.045946   0.004838   0.232347
     3  C   -0.003887   0.001737  -0.000155   0.007825   0.000687  -0.037449
     4  C    0.000054  -0.000003   0.000000   0.222061  -0.049950  -0.042728
     5  H   -0.000001  -0.000000   0.000000  -0.039219   0.003706   0.005457
     6  H    0.000000   0.000000  -0.000000   0.001529  -0.000607  -0.035364
     7  H    0.006161   0.000761   0.000026   0.000744   0.000500  -0.000178
     8  H    0.003731   0.000138   0.000002  -0.000158   0.000046   0.004192
     9  C   -0.000107  -0.000033   0.000004  -0.027033  -0.022308   0.002600
    10  O   -0.001304   0.001078  -0.000085  -0.000048   0.000961  -0.018530
    11  C    0.348190   0.201837  -0.017077   0.000033   0.000020  -0.000723
    12  H   -0.042049  -0.034551  -0.003290  -0.000000  -0.000001  -0.000016
    13  H    0.603368  -0.037149  -0.002998  -0.000001  -0.000000   0.000725
    14  O   -0.037149   8.279792   0.236119  -0.000000  -0.000000   0.000001
    15  H   -0.002998   0.236119   0.366868   0.000000   0.000000  -0.000000
    16  O   -0.000001  -0.000000   0.000000   8.342726   0.207878   0.001499
    17  H   -0.000000  -0.000000   0.000000   0.207878   0.354121  -0.000094
    18  O    0.000725   0.000001  -0.000000   0.001499  -0.000094   8.298321
    19  H    0.001773  -0.000008  -0.000001   0.000001  -0.000018   0.228148
    20  O    0.000037  -0.000019   0.000003  -0.023761   0.001425   0.001561
    21  H    0.000000   0.000002  -0.000000   0.060379  -0.001847   0.000163
    22  O    0.000000  -0.000038   0.000001  -0.000003   0.000144  -0.000000
    23  H   -0.000001   0.000009  -0.000000   0.000144  -0.000949   0.000000
    24  H    0.000007   0.000186  -0.000021   0.000000  -0.000009   0.000000
    25  H    0.000000   0.000027  -0.000001   0.000001  -0.000027  -0.000000
    26  O   -0.000001  -0.000004  -0.000000  -0.036619   0.077962   0.000033
    27  H   -0.000011   0.000002  -0.000000   0.001975   0.003296   0.001059
    28  O   -0.000026  -0.030137   0.001284   0.000000   0.000004  -0.000001
    29  H    0.000110   0.069583  -0.003402   0.000000  -0.000000   0.000000
    30  H    0.000077   0.002471  -0.000217  -0.000016  -0.000063   0.000033
              19         20         21         22         23         24
     1  C    0.000297  -0.053584   0.001380  -0.000198   0.000155   0.000007
     2  C   -0.036660  -0.019264  -0.012159   0.000001  -0.000021  -0.000003
     3  C   -0.009723   0.238818  -0.035038   0.000003  -0.000011   0.000008
     4  C   -0.007280   0.002397  -0.006513  -0.000102   0.001847   0.000047
     5  H   -0.000537  -0.000257   0.000637   0.000001  -0.000044  -0.000000
     6  H    0.006598   0.003460   0.001866  -0.000000   0.000001   0.000000
     7  H    0.000839   0.007284   0.000808   0.000584  -0.000593   0.000092
     8  H    0.000350  -0.041409   0.004971   0.000000  -0.000000  -0.000000
     9  C    0.003448  -0.000400   0.001313   0.003903  -0.008978  -0.000068
    10  O    0.035718   0.001444  -0.000111  -0.000457   0.001399   0.002545
    11  C   -0.001286   0.002073  -0.000040   0.000008  -0.000021  -0.000050
    12  H    0.000020   0.001401  -0.000041  -0.000000  -0.000000  -0.000001
    13  H    0.001773   0.000037   0.000000   0.000000  -0.000001   0.000007
    14  O   -0.000008  -0.000019   0.000002  -0.000038   0.000009   0.000186
    15  H   -0.000001   0.000003  -0.000000   0.000001  -0.000000  -0.000021
    16  O    0.000001  -0.023761   0.060379  -0.000003   0.000144   0.000000
    17  H   -0.000018   0.001425  -0.001847   0.000144  -0.000949  -0.000009
    18  O    0.228148   0.001561   0.000163  -0.000000   0.000000   0.000000
    19  H    0.371947  -0.000015   0.000035  -0.000000  -0.000000  -0.000000
    20  O   -0.000015   8.319280   0.224572  -0.000000  -0.000000  -0.000000
    21  H    0.000035   0.224572   0.336845   0.000000  -0.000002  -0.000000
    22  O   -0.000000  -0.000000   0.000000   8.408515   0.164429   0.136124
    23  H   -0.000000  -0.000000  -0.000002   0.164429   0.299880  -0.010909
    24  H   -0.000000  -0.000000  -0.000000   0.136124  -0.010909   0.270797
    25  H    0.000000  -0.000000  -0.000000   0.238527  -0.012082  -0.007072
    26  O    0.000209  -0.000031  -0.000003  -0.057523   0.106137   0.003232
    27  H    0.000238  -0.000008  -0.000028   0.000361  -0.002261  -0.000066
    28  O    0.000010   0.000000  -0.000000  -0.081279   0.006708   0.142723
    29  H   -0.000003  -0.000001  -0.000000   0.002466  -0.000188   0.000507
    30  H    0.000325  -0.000029   0.000002   0.003858   0.000410  -0.004421
              25         26         27         28         29         30
     1  C    0.000014  -0.000146   0.005394   0.009490  -0.002240  -0.011272
     2  C   -0.000000   0.000425  -0.000282   0.000005   0.000002   0.000166
     3  C    0.000002   0.000546   0.000694  -0.000006   0.000077   0.001023
     4  C    0.000004  -0.057033  -0.064863  -0.000044   0.000000   0.001067
     5  H   -0.000000   0.001653  -0.000679   0.000001  -0.000000  -0.000045
     6  H    0.000000  -0.000095  -0.000238   0.000000  -0.000000   0.000004
     7  H    0.000416   0.013664   0.000800   0.000499   0.000195  -0.000030
     8  H    0.000000  -0.000014   0.000009   0.000003  -0.000001  -0.000083
     9  C   -0.000135   0.332716   0.366528   0.004310  -0.000269  -0.003630
    10  O   -0.000052  -0.052284  -0.052996  -0.074758   0.004602   0.111629
    11  C   -0.000015   0.000177  -0.000224   0.001872  -0.005693  -0.002945
    12  H    0.000000   0.000007   0.000005  -0.000076   0.000679   0.000090
    13  H    0.000000  -0.000001  -0.000011  -0.000026   0.000110   0.000077
    14  O    0.000027  -0.000004   0.000002  -0.030137   0.069583   0.002471
    15  H   -0.000001  -0.000000  -0.000000   0.001284  -0.003402  -0.000217
    16  O    0.000001  -0.036619   0.001975   0.000000   0.000000  -0.000016
    17  H   -0.000027   0.077962   0.003296   0.000004  -0.000000  -0.000063
    18  O   -0.000000   0.000033   0.001059  -0.000001   0.000000   0.000033
    19  H    0.000000   0.000209   0.000238   0.000010  -0.000003   0.000325
    20  O   -0.000000  -0.000031  -0.000008   0.000000  -0.000001  -0.000029
    21  H   -0.000000  -0.000003  -0.000028  -0.000000  -0.000000   0.000002
    22  O    0.238527  -0.057523   0.000361  -0.081279   0.002466   0.003858
    23  H   -0.012082   0.106137  -0.002261   0.006708  -0.000188   0.000410
    24  H   -0.007072   0.003232  -0.000066   0.142723   0.000507  -0.004421
    25  H    0.366454   0.003744   0.000008   0.003675  -0.000031  -0.000024
    26  O    0.003744   8.378450  -0.047145  -0.001616   0.000070   0.004477
    27  H    0.000008  -0.047145   0.673893   0.000075   0.000024  -0.000844
    28  O    0.003675  -0.001616   0.000075   8.469523   0.208964   0.155044
    29  H   -0.000031   0.000070   0.000024   0.208964   0.287989  -0.013573
    30  H   -0.000024   0.004477  -0.000844   0.155044  -0.013573   0.280110
 Mulliken charges:
               1
     1  C    0.128611
     2  C    0.082548
     3  C    0.094130
     4  C    0.084910
     5  H    0.139505
     6  H    0.154712
     7  H    0.153965
     8  H    0.134996
     9  C    0.347459
    10  O   -0.651219
    11  C   -0.079082
    12  H    0.169529
    13  H    0.153108
    14  O   -0.656173
    15  H    0.417931
    16  O   -0.674659
    17  H    0.420743
    18  O   -0.647537
    19  H    0.405576
    20  O   -0.664977
    21  H    0.422808
    22  O   -0.819324
    23  H    0.454941
    24  H    0.466346
    25  H    0.406568
    26  O   -0.670988
    27  H    0.115284
    28  O   -0.816248
    29  H    0.450132
    30  H    0.476407
 Sum of Mulliken charges =  -0.00000
 Mulliken charges with hydrogens summed into heavy atoms:
               1
     1  C    0.282575
     2  C    0.237260
     3  C    0.229125
     4  C    0.224415
     9  C    0.462743
    10  O   -0.651219
    11  C    0.243555
    14  O   -0.238242
    16  O   -0.253916
    18  O   -0.241961
    20  O   -0.242169
    22  O    0.042186
    26  O   -0.670988
    28  O    0.576636
 APT charges:
               1
     1  C   -0.152141
     2  C   -0.497441
     3  C   -0.383528
     4  C   -0.372720
     5  H    0.558861
     6  H    0.624671
     7  H    0.275696
     8  H    0.489940
     9  C   -0.272610
    10  O   -0.451791
    11  C   -0.621901
    12  H    0.517336
    13  H    0.397282
    14  O   -1.167570
    15  H    0.984332
    16  O   -0.566004
    17  H    0.410675
    18  O   -0.454342
    19  H    0.310639
    20  O   -0.630154
    21  H    0.482290
    22  O   -0.827025
    23  H    0.247088
    24  H    0.447744
    25  H    0.620046
    26  O   -0.550975
    27  H    0.431715
    28  O   -0.646508
    29  H    0.508572
    30  H    0.287824
 Sum of APT charges =  -0.00000
 APT charges with hydrogens summed into heavy atoms:
               1
     1  C    0.123555
     2  C    0.127231
     3  C    0.106412
     4  C    0.186140
     9  C    0.159105
    10  O   -0.451791
    11  C    0.292717
    14  O   -0.183238
    16  O   -0.155330
    18  O   -0.143703
    20  O   -0.147864
    22  O    0.040109
    26  O   -0.550975
    28  O    0.597632
 Electronic spatial extent (au):  <R**2>=           2902.6495
 Charge=             -0.0000 electrons
 Dipole moment (field-independent basis, Debye):
    X=              5.1389    Y=              3.8323    Z=             -0.4480  Tot=              6.4262
 Quadrupole moment (field-independent basis, Debye-Ang):
   XX=            -85.7075   YY=            -78.5873   ZZ=            -88.1624
   XY=             11.0965   XZ=             -5.5502   YZ=              0.8173
 Traceless Quadrupole moment (field-independent basis, Debye-Ang):
   XX=             -1.5551   YY=              5.5651   ZZ=             -4.0100
   XY=             11.0965   XZ=             -5.5502   YZ=              0.8173
 Octapole moment (field-independent basis, Debye-Ang**2):
  XXX=             48.0587  YYY=             55.5378  ZZZ=             -7.3396  XYY=             30.5352
  XXY=             23.8723  XXZ=            -21.7781  XZZ=             30.1409  YZZ=            -21.1377
  YYZ=             -1.2414  XYZ=              8.2935
 Hexadecapole moment (field-independent basis, Debye-Ang**3):
 XXXX=          -1718.5361 YYYY=          -1060.4102 ZZZZ=           -513.4780 XXXY=             96.6275
 XXXZ=            -51.0631 YYYX=            119.2060 YYYZ=             -4.6284 ZZZX=             -6.6149
 ZZZY=             36.6319 XXYY=           -473.3996 XXZZ=           -406.4534 YYZZ=           -267.3076
 XXYZ=              7.7957 YYXZ=            -20.0842 ZZXY=              5.1511
 N-N= 1.136776581052D+03 E-N=-4.245725406274D+03  KE= 8.327434937836D+02
  Exact polarizability:   0.000   0.000   0.000   0.000   0.000   0.000
 Approx polarizability: 136.951  -0.935 135.480  -0.869   6.804 133.637
 Calling FoFJK, ICntrl=    100147 FMM=F ISym2X=0 I1Cent= 0 IOpClX= 0 NMat=1 NMatS=1 NMatT=0.
 ***** Axes restored to original set *****
 -------------------------------------------------------------------
 Center     Atomic                   Forces (Hartrees/Bohr)
 Number     Number              X              Y              Z
 -------------------------------------------------------------------
      1        6          -0.000408809   -0.000424398   -0.000174696
      2        6           0.002890866    0.000374569    0.000642257
      3        6           0.000390240    0.001362127    0.000782858
      4        6          -0.000478308    0.000069068   -0.000337897
      5        1           0.000139268   -0.000248711   -0.000010024
      6        1          -0.002270739   -0.000351452    0.000448727
      7        1          -0.000107676   -0.000289193   -0.000241436
      8        1          -0.000296662   -0.001682302    0.000072081
      9        6          -0.001731759   -0.001360441   -0.001882287
     10        8          -0.000100400   -0.000352986   -0.000128610
     11        6           0.000179484   -0.000218302   -0.000457371
     12        1           0.000229564   -0.000243143    0.000822899
     13        1          -0.000034258    0.000125475    0.000853977
     14        8          -0.000639096   -0.000212825    0.000600384
     15        1          -0.000159336    0.000245524   -0.000171761
     16        8           0.000718685    0.000253072   -0.000319914
     17        1          -0.000300798   -0.000249499    0.000738734
     18        8          -0.003068547   -0.000004637   -0.000357225
     19        1           0.001940947    0.000179974   -0.001775662
     20        8           0.004981368    0.001671144   -0.001687300
     21        1          -0.004318208   -0.000380406    0.001541375
     22        8           0.001010390    0.001513234    0.003151425
     23        1          -0.000606269    0.000198889    0.000622879
     24        1           0.000002989    0.000307882    0.000293367
     25        1           0.000096585   -0.001663477   -0.004794723
     26        8           0.001535921    0.001325206   -0.000116105
     27        1           0.000288514    0.000088672    0.002322187
     28        8           0.000089026   -0.000498036   -0.000224054
     29        1           0.000041499    0.000426815    0.000087673
     30        1          -0.000014480    0.000038157   -0.000301755
 -------------------------------------------------------------------
 Cartesian Forces:  Max     0.004981368 RMS     0.001299053

 GradGradGradGradGradGradGradGradGradGradGradGradGradGradGradGradGradGrad
 Berny optimization.
 Search for a saddle point.
 Step number   1 out of a maximum of  180
 All quantities printed in internal units (Hartrees-Bohrs-Radians)
 Swapping is turned off.
 Second derivative matrix not updated -- analytic derivatives used.
 ITU=  0
     Eigenvalues ---   -0.01086   0.00005   0.00100   0.00180   0.00224
     Eigenvalues ---    0.00416   0.00500   0.00632   0.00919   0.00990
     Eigenvalues ---    0.01165   0.01276   0.01413   0.01471   0.01631
     Eigenvalues ---    0.01677   0.02054   0.02382   0.02593   0.02908
     Eigenvalues ---    0.03040   0.03198   0.03469   0.03710   0.03963
     Eigenvalues ---    0.04543   0.04548   0.04789   0.05046   0.05341
     Eigenvalues ---    0.05676   0.05885   0.06803   0.06956   0.07078
     Eigenvalues ---    0.07514   0.08055   0.09464   0.10202   0.11190
     Eigenvalues ---    0.11479   0.12689   0.13481   0.13934   0.14481
     Eigenvalues ---    0.14877   0.15473   0.16564   0.16864   0.16990
     Eigenvalues ---    0.18138   0.18656   0.20429   0.21788   0.26130
     Eigenvalues ---    0.27684   0.28373   0.31986   0.34231   0.35176
     Eigenvalues ---    0.40757   0.43677   0.48145   0.53634   0.55138
     Eigenvalues ---    0.58949   0.61626   0.63276   0.65789   0.67058
     Eigenvalues ---    0.73425   0.75541   0.77656   0.81681   0.83755
     Eigenvalues ---    0.84530   0.86557   0.89068   0.89751   0.95328
     Eigenvalues ---    0.97500   1.01080   1.06717   1.07599
 Eigenvectors required to have negative eigenvalues:
                          X30       X23       Y24       Z24       Y9
   1                    0.48936  -0.34355   0.30470  -0.26073  -0.25600
                          Y23       X28       Z30       X22       Z22
   1                   -0.23474   0.19012   0.18081  -0.15627   0.15364
 RFO step:  Lambda0=1.600401583D-05 Lambda=-2.85483930D-03.
 Linear search not attempted -- option 19 set.
 Maximum step size (   0.300) exceeded in Quadratic search.
    -- Step size scaled by   0.502
 B after Tr=     0.003041    0.003043   -0.001043
         Rot=    1.000000    0.000583   -0.000478   -0.000089 Ang=   0.09 deg.
 Variable       Old X    -DE/DX   Delta X   Delta X   Delta X     New X
                                 (Linear)    (Quad)   (Total)
    X1       -0.15255  -0.00041   0.00000   0.01023   0.01357  -0.13898
    Y1        1.80914  -0.00042   0.00000  -0.01245  -0.00868   1.80047
    Z1        0.64242  -0.00017   0.00000   0.00615   0.00315   0.64557
    X2        4.16308   0.00289   0.00000   0.00326   0.00525   4.16834
    Y2        0.44755   0.00037   0.00000  -0.00956  -0.00696   0.44059
    Z2       -0.99533   0.00064   0.00000  -0.01872  -0.02426  -1.01958
    X3        2.76632   0.00039   0.00000   0.01385   0.01737   2.78369
    Y3        2.12723   0.00136   0.00000   0.01719   0.02178   2.14900
    Z3        0.93852   0.00078   0.00000  -0.03414  -0.04034   0.89818
    X4        3.25593  -0.00048   0.00000  -0.00723  -0.00452   3.25141
    Y4       -2.30757   0.00007   0.00000  -0.00330  -0.00059  -2.30816
    Z4       -0.80291  -0.00034   0.00000   0.01704   0.01559  -0.78732
    X5        4.26867   0.00014   0.00000  -0.00145   0.00013   4.26880
    Y5       -3.44510  -0.00025   0.00000  -0.03187  -0.03059  -3.47570
    Z5       -2.21495  -0.00001   0.00000   0.04338   0.04230  -2.17265
    X6        6.19078  -0.00227   0.00000  -0.00193   0.00047   6.19125
    Y6        0.51950  -0.00035   0.00000  -0.01097  -0.00750   0.51200
    Z6       -0.55891   0.00045   0.00000  -0.01259  -0.02015  -0.57906
    X7       -0.84019  -0.00011   0.00000   0.03407   0.03921  -0.80098
    Y7        0.83523  -0.00029   0.00000  -0.03630  -0.03067   0.80455
    Z7        2.33687  -0.00024   0.00000   0.00250   0.00129   2.33817
    X8        3.29805  -0.00030   0.00000  -0.00718  -0.00445   3.29360
    Y8        4.09596  -0.00168   0.00000   0.00948   0.01363   4.10959
    Z8        0.52463   0.00007   0.00000  -0.07838  -0.08735   0.43728
    X9        0.34984  -0.00173   0.00000  -0.00403  -0.00176   0.34808
    Y9       -2.59849  -0.00136   0.00000  -0.00707  -0.00547  -2.60396
    Z9       -1.29904  -0.00188   0.00000   0.00823   0.00989  -1.28915
   X10       -0.73171  -0.00010   0.00000   0.00043   0.00193  -0.72978
   Y10        0.30669  -0.00035   0.00000   0.00079   0.00189   0.30858
   Z10       -1.55464  -0.00013   0.00000   0.00009  -0.00061  -1.55525
   X11       -1.44865   0.00018   0.00000  -0.00251   0.00020  -1.44845
   Y11        4.36614  -0.00022   0.00000  -0.01558  -0.01224   4.35390
   Z11        0.42167  -0.00046   0.00000   0.05270   0.04797   0.46964
   X12       -0.66332   0.00023   0.00000  -0.00046   0.00343  -0.65988
   Y12        5.63440  -0.00024   0.00000  -0.04329  -0.03811   5.59629
   Z12        1.85836   0.00082   0.00000   0.07690   0.06997   1.92834
   X13       -1.06982  -0.00003   0.00000  -0.00676  -0.00597  -1.07580
   Y13        5.16942   0.00013   0.00000   0.02063   0.02185   5.19128
   Z13       -1.45819   0.00085   0.00000   0.06817   0.06211  -1.39608
   X14       -4.13704  -0.00064   0.00000  -0.00363  -0.00048  -4.13752
   Y14        4.11699  -0.00021   0.00000  -0.02233  -0.01900   4.09798
   Z14        0.82808   0.00060   0.00000   0.05171   0.04986   0.87794
   X15       -4.89230  -0.00016   0.00000  -0.00603  -0.00328  -4.89558
   Y15        5.78239   0.00025   0.00000  -0.02346  -0.02040   5.76200
   Z15        0.73090  -0.00017   0.00000   0.04012   0.03705   0.76795
   X16        3.76490   0.00072   0.00000  -0.02728  -0.02203   3.74287
   Y16       -3.22698   0.00025   0.00000   0.03851   0.04422  -3.18276
   Z16        1.67282  -0.00032   0.00000   0.03880   0.03789   1.71072
   X17        2.12427  -0.00030   0.00000  -0.01893  -0.01310   2.11117
   Y17       -4.00132  -0.00025   0.00000   0.00988   0.01582  -3.98550
   Z17        2.13940   0.00074   0.00000   0.02299   0.02458   2.16398
   X18        3.90138  -0.00307   0.00000   0.00802   0.00745   3.90883
   Y18        1.40445  -0.00000   0.00000  -0.04094  -0.04130   1.36315
   Z18       -3.48791  -0.00036   0.00000  -0.03266  -0.03903  -3.52694
   X19        2.08260   0.00194   0.00000   0.01238   0.01151   2.09411
   Y19        1.37299   0.00018   0.00000  -0.03015  -0.03121   1.34178
   Z19       -3.79329  -0.00178   0.00000  -0.04463  -0.04924  -3.84252
   X20        3.48720   0.00498   0.00000   0.07193   0.07794   3.56514
   Y20        1.62340   0.00167   0.00000   0.08699   0.09466   1.71806
   Z20        3.46940  -0.00169   0.00000  -0.04031  -0.04675   3.42265
   X21        4.00884  -0.00432   0.00000  -0.10559  -0.09918   3.90966
   Y21       -0.15603  -0.00038   0.00000   0.03463   0.04245  -0.11357
   Z21        3.47055   0.00154   0.00000   0.03027   0.02563   3.49619
   X22       -5.55490   0.00101   0.00000  -0.01355  -0.00888  -5.56378
   Y22       -3.85406   0.00151   0.00000  -0.01270  -0.00951  -3.86358
   Z22        1.02613   0.00315   0.00000  -0.05533  -0.04655   0.97959
   X23       -3.63493  -0.00061   0.00000  -0.01124  -0.00677  -3.64170
   Y23       -4.15003   0.00020   0.00000  -0.00522  -0.00199  -4.15202
   Z23        0.73599   0.00062   0.00000  -0.02202  -0.01473   0.72126
   X24       -5.75207   0.00000   0.00000  -0.00147   0.00141  -5.75066
   Y24       -1.65238   0.00031   0.00000   0.01434   0.01580  -1.63658
   Z24       -0.44068   0.00029   0.00000  -0.03625  -0.02988  -0.47056
   X25       -5.68030   0.00010   0.00000  -0.05108  -0.04477  -5.72507
   Y25       -3.45173  -0.00166   0.00000  -0.04903  -0.04378  -3.49551
   Z25        2.82157  -0.00479   0.00000  -0.05497  -0.04646   2.77511
   X26       -0.78432   0.00154   0.00000  -0.00537  -0.00116  -0.78548
   Y26       -3.85067   0.00133   0.00000   0.00535   0.00883  -3.84184
   Z26        0.48506  -0.00012   0.00000   0.01343   0.01762   0.50268
   X27       -0.07326   0.00029   0.00000  -0.00346  -0.00298  -0.07624
   Y27       -3.11633   0.00009   0.00000  -0.01415  -0.01492  -3.13125
   Z27       -3.27846   0.00232   0.00000   0.01410   0.01678  -3.26167
   X28       -5.43368   0.00009   0.00000   0.00810   0.00954  -5.42414
   Y28       -0.02900  -0.00050   0.00000   0.01808   0.01820  -0.01080
   Z28       -1.66164  -0.00022   0.00000  -0.01768  -0.01352  -1.67515
   X29       -5.65069   0.00004   0.00000   0.01135   0.01347  -5.63722
   Y29        1.55019   0.00043   0.00000   0.00856   0.00981   1.56000
   Z29       -0.67293   0.00009   0.00000   0.00012   0.00265  -0.67028
   X30       -3.41488  -0.00001   0.00000   0.01519   0.01645  -3.39844
   Y30        0.02229   0.00004   0.00000   0.01371   0.01398   0.03628
   Z30       -1.85137  -0.00030   0.00000  -0.00768  -0.00552  -1.85688
         Item               Value     Threshold  Converged?
 Maximum Force            0.004981     0.000450     NO 
 RMS     Force            0.001299     0.000300     NO 
 Maximum Displacement     0.099184     0.001800     NO 
 RMS     Displacement     0.031344     0.001200     NO 
 Predicted change in Energy=-1.195037D-03
 GradGradGradGradGradGradGradGradGradGradGradGradGradGradGradGradGradGrad

                          Input orientation:                          
 ---------------------------------------------------------------------
 Center     Atomic      Atomic             Coordinates (Angstroms)
 Number     Number       Type             X           Y           Z
 ---------------------------------------------------------------------
      1          6           0       -0.073543    0.952766    0.341621
      2          6           0        2.205788    0.233151   -0.539540
      3          6           0        1.473063    1.137202    0.475298
      4          6           0        1.720570   -1.221426   -0.416633
      5          1           0        2.258951   -1.839261   -1.149715
      6          1           0        3.276269    0.270939   -0.306423
      7          1           0       -0.423862    0.425751    1.237304
      8          1           0        1.742896    2.174700    0.231398
      9          6           0        0.184198   -1.377958   -0.682188
     10          8           0       -0.386181    0.163295   -0.823000
     11          6           0       -0.766486    2.303982    0.248525
     12          1           0       -0.349195    2.961427    1.020431
     13          1           0       -0.569287    2.747105   -0.738773
     14          8           0       -2.189482    2.168560    0.464585
     15          1           0       -2.590629    3.049118    0.406380
     16          8           0        1.980640   -1.684245    0.905273
     17          1           0        1.117183   -2.109033    1.145128
     18          8           0        2.068465    0.721350   -1.866374
     19          1           0        1.108157    0.710041   -2.033375
     20          8           0        1.886593    0.909158    1.811188
     21          1           0        2.068901   -0.060101    1.850103
     22          8           0       -2.944226   -2.044516    0.518375
     23          1           0       -1.927107   -2.197155    0.381672
     24          1           0       -3.043120   -0.866041   -0.249008
     25          1           0       -3.029575   -1.849745    1.468527
     26          8           0       -0.415657   -2.033015    0.266008
     27          1           0       -0.040342   -1.656988   -1.726002
     28          8           0       -2.870329   -0.005714   -0.886454
     29          1           0       -2.983090    0.825518   -0.354696
     30          1           0       -1.798375    0.019196   -0.982620
 ---------------------------------------------------------------------
                    Distance matrix (angstroms):
                    1          2          3          4          5
     1  C    0.000000
     2  C    2.547478   0.000000
     3  C    1.563291   1.544050   0.000000
     4  C    2.919058   1.538290   2.533757   0.000000
     5  H    3.931924   2.161026   3.481037   1.099539   0.000000
     6  H    3.479381   1.096221   2.147801   2.158587   2.489783
     7  H    1.096684   3.179517   2.164519   3.169745   4.245660
     8  H    2.191968   2.139679   1.099409   3.457472   4.276175
     9  C    2.558689   2.588986   3.054010   1.566991   2.176232
    10  O    1.441302   2.608359   2.467968   2.553622   3.333721
    11  C    1.521388   3.707263   2.535425   4.365361   5.317406
    12  H    2.138104   4.050302   2.635450   4.883169   5.878654
    13  H    2.152363   3.749760   2.870009   4.593088   5.403939
    14  O    2.443454   4.906371   3.805003   5.249481   6.201383
    15  H    3.276371   5.641813   4.491522   6.123833   7.059470
    16  O    3.389867   2.411345   2.898806   1.424525   2.079534
    17  H    3.382022   3.083666   3.333672   1.894999   2.577347
    18  O    3.084962   1.420452   2.451706   2.448910   2.665824
    19  H    2.663820   1.914096   2.570811   2.592194   2.933279
    20  O    2.450237   2.466737   1.416902   3.087091   4.057019
    21  H    2.809179   2.411458   1.917979   2.570622   3.492912
    22  O    4.154006   5.729712   5.444046   4.828254   5.467880
    23  H    3.655038   4.882197   4.763177   3.859389   4.471724
    24  H    3.532038   5.370631   4.993347   4.779868   5.465381
    25  H    4.226358   5.981623   5.493824   5.149027   5.901170
    26  O    3.006268   3.557582   3.696125   2.384982   3.032382
    27  H    3.329713   3.166295   3.865698   2.237180   2.377410
    28  O    3.201384   5.093562   4.693152   4.772320   5.453505
    29  H    2.994414   5.225852   4.543494   5.130130   5.933979
    30  H    2.366476   4.034280   3.752035   3.773918   4.465835
                    6          7          8          9         10
     6  H    0.000000
     7  H    4.012235   0.000000
     8  H    2.502956   2.960661   0.000000
     9  C    3.524338   2.703248   3.985669   0.000000
    10  O    3.700267   2.077295   3.112953   1.649430   0.000000
    11  C    4.559067   2.150076   2.512768   3.914934   2.423910
    12  H    4.705663   2.546029   2.370308   4.691874   3.350993
    13  H    4.594195   3.052002   2.571979   4.193696   2.591659
    14  O    5.836938   2.598440   3.939291   4.418962   2.988454
    15  H    6.530456   3.502480   4.424327   5.337007   3.833920
    16  O    2.640001   3.216202   3.924549   2.416826   3.464415
    17  H    3.526035   2.967903   4.424567   2.178077   3.361118
    18  O    2.023637   3.991477   2.572716   3.059387   2.724948
    19  H    2.806401   3.622878   2.770798   2.653138   1.999246
    20  O    2.612049   2.429245   2.029281   3.787607   3.558196
    21  H    2.493577   2.612555   2.778636   3.420723   3.636319
    22  O    6.688511   3.601571   6.312944   3.416532   3.635562
    23  H    5.800007   3.141892   5.710046   2.502097   3.065520
    24  H    6.421113   3.276944   5.690593   3.296253   2.906600
    25  H    6.885594   3.467143   6.364206   3.895702   4.036205
    26  O    4.389327   2.643674   4.729209   1.299231   2.451649
    27  H    4.090479   3.642262   4.657595   1.103551   2.061177
    28  O    6.180100   3.268288   5.223566   3.354834   2.490699
    29  H    6.284064   3.040383   4.949621   3.872244   2.720622
    30  H    5.125683   2.642467   4.319796   2.443950   1.428472
                   11         12         13         14         15
    11  C    0.000000
    12  H    1.096451   0.000000
    13  H    1.100001   1.785826   0.000000
    14  O    1.445662   2.079485   2.099480   0.000000
    15  H    1.976776   2.325677   2.342736   0.969376   0.000000
    16  O    4.887123   5.198429   5.370464   5.694579   6.599251
    17  H    4.881272   5.279715   5.474975   5.449310   6.395322
    18  O    3.874850   4.381400   3.511823   5.065362   5.682523
    19  H    3.355890   4.064277   2.939293   4.386513   5.010459
    20  O    3.380278   3.136217   3.988947   4.473681   5.157367
    21  H    4.024097   3.957926   4.641414   5.002041   5.784704
    22  O    4.870812   5.660893   5.493668   4.280484   5.107121
    23  H    4.650269   5.432199   5.248312   4.374377   5.288123
    24  H    3.934419   4.849559   4.406194   3.232138   3.995341
    25  H    4.885020   5.525631   5.661821   4.226160   5.031867
    26  O    4.351198   5.051537   4.886996   4.564988   5.529763
    27  H    4.485012   5.382198   4.544276   4.904314   5.761810
    28  O    3.324008   4.335464   3.590907   2.648834   3.328911
    29  H    2.731861   3.659301   3.109092   1.762043   2.382784
    30  H    2.792984   3.843053   3.001933   2.620521   3.425991
                   16         17         18         19         20
    16  O    0.000000
    17  H    0.991732   0.000000
    18  O    3.671053   4.240891   0.000000
    19  H    3.889664   4.248546   0.974787   0.000000
    20  O    2.748684   3.185138   3.686842   3.927630   0.000000
    21  H    1.881047   2.366618   3.797744   4.074009   0.987022
    22  O    4.953160   4.109991   6.201944   5.524565   5.807957
    23  H    3.975893   3.139799   5.434701   4.847377   5.122207
    24  H    5.219194   4.560348   5.591420   4.785509   5.630081
    25  H    5.044491   4.167423   6.612269   5.994718   5.647802
    26  O    2.504504   1.768681   4.278369   3.890183   4.042810
    27  H    3.317939   3.128514   3.181708   2.648840   4.775971
    28  O    5.436879   4.944849   5.087293   4.201914   5.544598
    29  H    5.703074   5.260543   5.273919   4.423754   5.330278
    30  H    4.554866   4.190125   4.028212   3.166903   4.709180
                   21         22         23         24         25
    21  H    0.000000
    22  O    5.553634   0.000000
    23  H    4.763546   1.037553   0.000000
    24  H    5.584673   1.409773   1.848000   0.000000
    25  H    5.416907   0.973657   1.586626   1.979339   0.000000
    26  O    3.546093   2.541158   1.524730   2.920724   2.883089
    27  H    4.448313   3.690522   2.879923   3.438573   4.379233
    28  O    5.646919   2.477039   2.701892   1.084600   2.995287
    29  H    5.582838   3.000143   3.285405   1.695921   3.237798
    30  H    4.794416   2.797297   2.605777   1.694468   3.319173
                   26         27         28         29         30
    26  O    0.000000
    27  H    2.061641   0.000000
    28  O    3.385783   3.382362   0.000000
    29  H    3.892068   4.086941   0.993191   0.000000
    30  H    2.771741   2.540254   1.076547   1.564606   0.000000
 Stoichiometry    C6H16O8
 Framework group  C1[X(C6H16O8)]
 Deg. of freedom    84
 Full point group                 C1      NOp   1
 Largest Abelian subgroup         C1      NOp   1
 Largest concise Abelian subgroup C1      NOp   1
                         Standard orientation:                         
 ---------------------------------------------------------------------
 Center     Atomic      Atomic             Coordinates (Angstroms)
 Number     Number       Type             X           Y           Z
 ---------------------------------------------------------------------
      1          6           0        0.065399    0.954187   -0.332899
      2          6           0       -2.205948    0.199034    0.539092
      3          6           0       -1.483169    1.121891   -0.465904
      4          6           0       -1.703673   -1.248444    0.401745
      5          1           0       -2.235281   -1.879975    1.128069
      6          1           0       -3.276642    0.226686    0.305531
      7          1           0        0.422453    0.440466   -1.233631
      8          1           0       -1.765278    2.153623   -0.211653
      9          6           0       -0.165753   -1.389712    0.666898
     10          8           0        0.386471    0.156584    0.823861
     11          6           0        0.742432    2.312389   -0.225491
     12          1           0        0.317997    2.972753   -0.990983
     13          1           0        0.539408    2.743082    0.766118
     14          8           0        2.167058    2.195816   -0.441802
     15          1           0        2.557842    3.080362   -0.374310
     16          8           0       -1.957432   -1.700762   -0.925013
     17          1           0       -1.088908   -2.112962   -1.168507
     18          8           0       -2.075227    0.675244    1.870939
     19          1           0       -1.114964    0.673454    2.038571
     20          8           0       -1.893114    0.902670   -1.804373
     21          1           0       -2.064049   -0.068206   -1.853308
     22          8           0        2.971051   -2.007385   -0.537939
     23          1           0        1.955696   -2.173285   -0.403598
     24          1           0        3.055647   -0.835724    0.241494
     25          1           0        3.054749   -1.801947   -1.485989
     26          8           0        0.442353   -2.028008   -0.287454
     27          1           0        0.061339   -1.676733    1.707990
     28          8           0        2.872382    0.015978    0.887539
     29          1           0        2.975771    0.853852    0.364371
     30          1           0        1.800147    0.027377    0.983112
 ---------------------------------------------------------------------
 Rotational constants (GHZ):      0.7794029      0.5461513      0.4231823
 Standard basis: 6-31G(d) (6D, 7F)
 There are   242 symmetry adapted cartesian basis functions of A   symmetry.
 There are   242 symmetry adapted basis functions of A   symmetry.
   242 basis functions,   456 primitive gaussians,   242 cartesian basis functions
    58 alpha electrons       58 beta electrons
       nuclear repulsion energy      1136.4695797501 Hartrees.
 NAtoms=   30 NActive=   30 NUniq=   30 SFac= 1.00D+00 NAtFMM=   60 NAOKFM=F Big=F
 Integral buffers will be    131072 words long.
 Raffenetti 2 integral format.
 Two-electron integral symmetry is turned on.
 One-electron integrals computed using PRISM.
 NBasis=   242 RedAO= T EigKep=  1.36D-03  NBF=   242
 NBsUse=   242 1.00D-06 EigRej= -1.00D+00 NBFU=   242
 Initial guess from the checkpoint file:  "/scratch/10457014.yak.local/Gau-11714.chk"
 B after Tr=     0.000000    0.000000    0.000000
         Rot=    0.999964   -0.006194   -0.000458   -0.005713 Ang=  -0.97 deg.
 ExpMin= 1.61D-01 ExpMax= 5.48D+03 ExpMxC= 8.25D+02 IAcc=1 IRadAn=         1 AccDes= 0.00D+00
 Harris functional with IExCor=  402 and IRadAn=       1 diagonalized for initial guess.
 HarFok:  IExCor=  402 AccDes= 0.00D+00 IRadAn=         1 IDoV= 1 UseB2=F ITyADJ=14
 ICtDFT=  3500011 ScaDFX=  1.000000  1.000000  1.000000  1.000000
 FoFCou: FMM=F IPFlag=           0 FMFlag=      100000 FMFlg1=           0
         NFxFlg=           0 DoJE=T BraDBF=F KetDBF=T FulRan=T
         wScrn=  0.000000 ICntrl=     500 IOpCl=  0 I1Cent=   200000004 NGrid=           0
         NMat0=    1 NMatS0=      1 NMatT0=    0 NMatD0=    1 NMtDS0=    0 NMtDT0=    0
 Petite list used in FoFCou.
 Requested convergence on RMS density matrix=1.00D-08 within 128 cycles.
 Requested convergence on MAX density matrix=1.00D-06.
 Requested convergence on             energy=1.00D-06.
 No special actions if energy rises.
 Integral accuracy reduced to 1.0D-05 until final iterations.
 Initial convergence to 1.0D-05 achieved.  Increase integral accuracy.
 SCF Done:  E(RB3LYP) =  -839.979402700     A.U. after   11 cycles
            NFock= 11  Conv=0.56D-08     -V/T= 2.0087
 Calling FoFJK, ICntrl=      2127 FMM=F ISym2X=0 I1Cent= 0 IOpClX= 0 NMat=1 NMatS=1 NMatT=0.
 ***** Axes restored to original set *****
 -------------------------------------------------------------------
 Center     Atomic                   Forces (Hartrees/Bohr)
 Number     Number              X              Y              Z
 -------------------------------------------------------------------
      1        6          -0.000078445   -0.000085398    0.000059195
      2        6           0.001416219    0.000090953    0.000206586
      3        6           0.000298355    0.001110481    0.000411737
      4        6          -0.000168100    0.000014634   -0.000085139
      5        1           0.000009913   -0.000140685    0.000214749
      6        1          -0.001124357   -0.000202972    0.000172495
      7        1           0.000075402   -0.000202880   -0.000198090
      8        1          -0.000233124   -0.000935317   -0.000237516
      9        6          -0.000899551   -0.000699715   -0.000872012
     10        8           0.000034120   -0.000166274    0.000027789
     11        6           0.000204129   -0.000097026   -0.000153303
     12        1           0.000109257   -0.000316433    0.000521208
     13        1          -0.000042775    0.000060944    0.000738411
     14        8          -0.000347366   -0.000157975    0.000424157
     15        1          -0.000074985    0.000041074    0.000029820
     16        8           0.000175348    0.000315419   -0.000212468
     17        1          -0.000078324   -0.000052359    0.000445927
     18        8          -0.001530861   -0.000160356   -0.000213385
     19        1           0.001027197   -0.000002902   -0.001028764
     20        8           0.003177057   -0.003734968   -0.001409756
     21        1          -0.003073188    0.004433340    0.000959249
     22        8           0.000602760    0.000853535    0.001717490
     23        1          -0.000368757    0.000122918    0.000293958
     24        1          -0.000001047    0.000181373    0.000096778
     25        1          -0.000099508   -0.001068269   -0.002862338
     26        8           0.000741294    0.000701058   -0.000010904
     27        1           0.000130823    0.000002262    0.001204320
     28        8           0.000058840   -0.000151838   -0.000099066
     29        1           0.000056518    0.000201320    0.000037327
     30        1           0.000003157    0.000046057   -0.000178455
 -------------------------------------------------------------------
 Cartesian Forces:  Max     0.004433340 RMS     0.000981815

 GradGradGradGradGradGradGradGradGradGradGradGradGradGradGradGradGradGrad
 Berny optimization.
 Search for a saddle point.
 Step number   2 out of a maximum of  180
 All quantities printed in internal units (Hartrees-Bohrs-Radians)
 Swapping is turned off.
 Update second derivatives using D2CorN and points    1    2
 ITU=  0  0
     Eigenvalues ---   -0.01086   0.00016   0.00099   0.00177   0.00230
     Eigenvalues ---    0.00415   0.00498   0.00628   0.00918   0.00995
     Eigenvalues ---    0.01173   0.01296   0.01414   0.01507   0.01649
     Eigenvalues ---    0.01682   0.02055   0.02381   0.02593   0.02907
     Eigenvalues ---    0.03040   0.03198   0.03474   0.03710   0.03967
     Eigenvalues ---    0.04548   0.04551   0.04804   0.05046   0.05341
     Eigenvalues ---    0.05679   0.05890   0.06801   0.06955   0.07081
     Eigenvalues ---    0.07511   0.08056   0.09464   0.10201   0.11191
     Eigenvalues ---    0.11477   0.12687   0.13478   0.13935   0.14484
     Eigenvalues ---    0.14875   0.15471   0.16557   0.16863   0.16989
     Eigenvalues ---    0.18142   0.18657   0.20430   0.21801   0.26134
     Eigenvalues ---    0.27675   0.28372   0.32002   0.34244   0.35176
     Eigenvalues ---    0.40761   0.43670   0.48137   0.53628   0.55138
     Eigenvalues ---    0.58947   0.61628   0.63276   0.65797   0.67065
     Eigenvalues ---    0.73416   0.75539   0.77641   0.81686   0.83741
     Eigenvalues ---    0.84533   0.86563   0.89068   0.89771   0.95353
     Eigenvalues ---    0.97462   1.01083   1.06696   1.07594
 Eigenvectors required to have negative eigenvalues:
                          X30       X23       Y24       Z24       Y9
   1                    0.48951  -0.34347   0.30477  -0.26157  -0.25597
                          Y23       X28       Z30       X22       Z22
   1                   -0.23462   0.19029   0.18038  -0.15636   0.15212
 RFO step:  Lambda0=3.121199423D-06 Lambda=-1.52159439D-03.
 Linear search not attempted -- option 19 set.
 Maximum step size (   0.300) exceeded in Quadratic search.
    -- Step size scaled by   0.395
 B after Tr=     0.001255    0.002000   -0.000883
         Rot=    1.000000    0.000465   -0.000180    0.000022 Ang=   0.06 deg.
 Variable       Old X    -DE/DX   Delta X   Delta X   Delta X     New X
                                 (Linear)    (Quad)   (Total)
    X1       -0.13898  -0.00008   0.00000   0.01323   0.01480  -0.12417
    Y1        1.80047  -0.00009   0.00000  -0.00821  -0.00561   1.79486
    Z1        0.64557   0.00006   0.00000   0.00112  -0.00138   0.64419
    X2        4.16834   0.00142   0.00000   0.00457   0.00547   4.17381
    Y2        0.44059   0.00009   0.00000  -0.01378  -0.01293   0.42766
    Z2       -1.01958   0.00021   0.00000  -0.01752  -0.02031  -1.03989
    X3        2.78369   0.00030   0.00000   0.01356   0.01523   2.79891
    Y3        2.14900   0.00111   0.00000   0.01789   0.02056   2.16957
    Z3        0.89818   0.00041   0.00000  -0.03776  -0.04167   0.85652
    X4        3.25141  -0.00017   0.00000  -0.00701  -0.00614   3.24527
    Y4       -2.30816   0.00001   0.00000  -0.00624  -0.00509  -2.31325
    Z4       -0.78732  -0.00009   0.00000   0.02252   0.02262  -0.76470
    X5        4.26880   0.00001   0.00000  -0.00446  -0.00413   4.26467
    Y5       -3.47570  -0.00014   0.00000  -0.03520  -0.03537  -3.51107
    Z5       -2.17265   0.00021   0.00000   0.04765   0.04849  -2.12416
    X6        6.19125  -0.00112   0.00000   0.00300   0.00406   6.19531
    Y6        0.51200  -0.00020   0.00000  -0.01491  -0.01375   0.49825
    Z6       -0.57906   0.00017   0.00000  -0.01645  -0.02003  -0.59909
    X7       -0.80098   0.00008   0.00000   0.04177   0.04390  -0.75708
    Y7        0.80455  -0.00020   0.00000  -0.03087  -0.02666   0.77789
    Z7        2.33817  -0.00020   0.00000  -0.00046  -0.00179   2.33638
    X8        3.29360  -0.00023   0.00000  -0.00271  -0.00114   3.29245
    Y8        4.10959  -0.00094   0.00000   0.01048   0.01266   4.12225
    Z8        0.43728  -0.00024   0.00000  -0.08471  -0.09061   0.34667
    X9        0.34808  -0.00090   0.00000  -0.00434  -0.00367   0.34442
    Y9       -2.60396  -0.00070   0.00000  -0.00452  -0.00372  -2.60768
    Z9       -1.28915  -0.00087   0.00000   0.01193   0.01335  -1.27580
   X10       -0.72978   0.00003   0.00000   0.00333   0.00404  -0.72574
   Y10        0.30858  -0.00017   0.00000   0.00222   0.00281   0.31139
   Z10       -1.55525   0.00003   0.00000  -0.00204  -0.00295  -1.55819
   X11       -1.44845   0.00020   0.00000  -0.00327  -0.00164  -1.45009
   Y11        4.35390  -0.00010   0.00000  -0.01382  -0.01127   4.34262
   Z11        0.46964  -0.00015   0.00000   0.04825   0.04385   0.51350
[...]
 0510338,0.00387148,0.00380843,0.00069422,0.00012271,-0.00061713,-0.001
 34410,-0.00160356,0.00079920,0.00191799,0.00069262,0.00063315,0.000733
 15,-0.00075946,0.00005629,-0.00076836,0.00038267,0.00055739,0.00122448
 ,-0.00053305,0.00081586,-0.00014430,0.00073908,-0.00002061,-0.00785558
 ,0.00801304,-0.01889609,0.03559061,0.00069702,0.00087957,0.01470675,0.
 10990249,-0.00026970,0.00031207,0.00124749,0.00027726,-0.00041295,0.00
 029194,0.00035107,0.00003431,-0.00008687,0.00033173,0.00067092,0.00001
 179,-0.00008892,0.00003347,-0.00006439,-0.00001233,0.00016332,-0.00003
 027,-0.00011498,-0.00014634,-0.00034661,0.00002832,0.00006383,-0.00000
 327,-0.00078917,-0.00691477,0.00560015,-0.00672794,0.00320404,-0.00210
 498,0.00185874,-0.00004788,-0.00026235,-0.00035429,-0.00008247,0.00003
 897,-0.00008932,0.00016924,0.00002114,-0.00298954,-0.00271343,-0.00396
 283,-0.00027165,-0.00008030,0.00015129,0.00056433,0.00059261,-0.000510
 15,-0.00089798,-0.00024226,-0.00023040,-0.00024130,0.00025710,-0.00019
 797,0.00025966,-0.00010288,-0.00006680,-0.00037491,0.00018947,-0.00033
 563,-0.00000759,-0.00026352,0.00002270,0.01465834,-0.02798239,-0.01357
 353,-0.01643307,0.00101117,0.00085888,-0.02564710,-0.01498212,0.079271
 64,-0.00009401,-0.00022640,-0.00002722,0.00000158,-0.00006389,0.000088
 32,-0.00010943,0.00000141,-0.00006490,-0.00013718,0.00017926,-0.000090
 31,0.00002886,-0.00001015,-0.00001441,0.00003169,0.00002136,-0.0000070
 7,-0.00004903,-0.00001711,-0.00005188,0.00003224,0.00002881,-0.0000077
 1,0.00041329,-0.00049221,0.00026780,0.00023310,0.00046256,-0.00014020,
 0.00001154,-0.00007402,0.00002417,-0.00000050,0.00002122,0.00001473,-0
 .00001466,0.00001424,-0.00002283,-0.00008292,0.00023167,0.00012619,0.0
 0011736,0.00004328,-0.00002850,-0.00004823,-0.00004892,-0.00000807,-0.
 00011090,-0.00001510,0.00014100,0.00007018,0.00005628,-0.00010226,-0.0
 0006741,-0.00003986,0.00008967,0.00011047,0.00004617,0.00005769,-0.000
 06449,-0.00003697,-0.00002067,-0.10561022,-0.00646565,0.13867220,-0.00
 851345,-0.00425846,0.04305872,0.00060004,-0.00664601,-0.00073632,0.115
 31535,-0.00002208,-0.00006612,0.00019630,0.00002092,0.00000412,0.00008
 668,-0.00014586,-0.00000711,-0.00010766,-0.00000872,0.00014369,-0.0000
 3081,0.00003859,-0.00002232,-0.00001920,0.00003044,0.00001084,-0.00001
 417,-0.00008417,0.00002841,-0.00008646,0.00003248,0.00000925,-0.000000
 89,-0.00031179,-0.00036545,0.00059187,0.00014967,0.00002270,-0.0001922
 5,-0.00031806,-0.00004507,0.00014076,0.00004432,0.00001833,-0.00000674
 ,0.00005682,0.00004225,-0.00005226,0.00023352,0.00007023,-0.00039343,-
 0.00000067,-0.00003543,0.00002165,0.00021819,-0.00008857,0.00001207,-0
 .00020794,0.00014717,-0.00010349,0.00005469,-0.00001346,-0.00007707,-0
 .00005459,-0.00000264,0.00007287,0.00012745,-0.00001955,0.00004618,-0.
 00006234,0.00003014,-0.00001397,-0.00702283,-0.02178641,0.04609233,-0.
 00179274,0.00074257,-0.00442400,-0.00684063,0.00971472,0.01078819,0.01
 367200,0.02032450,0.00004487,0.00007426,0.00023177,-0.00001800,0.00002
 592,-0.00001215,0.00002210,0.00001297,0.00002567,-0.00001778,-0.000067
 91,0.00010548,-0.00000520,-0.00000191,-0.00001116,-0.00001317,-0.00001
 930,0.00000641,-0.00001355,0.00001561,-0.00001497,0.00000435,-0.000001
 92,-0.00000414,0.00021706,0.00021800,-0.00042136,-0.00030607,-0.000152
 52,-0.00010559,0.00001629,-0.00001150,0.00000387,-0.00000830,-0.000018
 42,-0.00000440,0.00000336,0.00001562,-0.00001039,-0.00005713,-0.000036
 12,-0.00014179,0.00000428,-0.00000433,0.00004934,-0.00016835,-0.000050
 34,-0.00010777,0.00010372,0.00001443,0.00016538,-0.00002171,-0.0000111
 3,-0.00002056,0.00002175,0.00001394,-0.00001134,-0.00001593,-0.0000118
 1,-0.00008173,-0.00001340,0.00000811,0.00004277,0.17993460,0.05413289,
 -0.42945570,-0.00178939,-0.00084024,0.00344989,0.00082354,0.00117059,-
 0.00523986,-0.17598907,-0.05286096,0.43040142,0.00198554,-0.00037896,0
 .00430924,-0.00682252,0.00581830,-0.00525062,-0.00104333,0.00125015,0.
 00061102,-0.03629996,-0.02834954,0.02242542,-0.00158763,0.00031763,-0.
 00006101,-0.00081405,-0.00340519,0.00093716,-0.00141567,-0.00067495,-0
 .00146020,0.00048210,-0.00063528,-0.00010848,-0.19561879,-0.05663121,0
 .11478718,0.02256713,-0.01782350,-0.00210052,-0.00307603,-0.00025718,-
 0.00044934,0.00064207,-0.00027841,-0.00024039,0.00016105,0.00025174,-0
 .00019441,0.00292985,0.00094134,-0.00003040,0.00004991,0.00007609,0.00
 002071,-0.02073800,-0.01016147,0.00621202,0.00235509,0.00001446,0.0068
 6835,0.00111116,-0.00144328,0.00178245,-0.00035849,0.00107497,-0.00035
 987,0.00071614,-0.00177913,-0.00108579,-0.00025963,0.00194900,0.001473
 22,-0.06667636,0.00359797,-0.00557898,0.02708676,0.00529063,-0.0092813
 6,-0.00028500,-0.01905935,0.00843431,-0.00251831,0.00149218,-0.0026699
 4,0.27178458,0.00191377,0.00437122,0.00934044,-0.00097086,-0.00027020,
 -0.00026267,0.00217480,-0.00032955,0.00093438,-0.01750548,-0.00058210,
 0.00886451,-0.00277035,0.00000153,-0.00013867,-0.00044705,-0.00056284,
 0.00024492,-0.00024388,-0.00032591,-0.00021018,-0.00042407,-0.00002890
 ,-0.00000186,-0.08687599,-0.12350979,0.09956648,-0.00567861,-0.0474316
 1,0.02900558,-0.00184891,-0.00013682,-0.00015550,0.00048862,-0.0004615
 4,-0.00040065,0.00026216,0.00014583,-0.00014390,0.00151105,0.00000780,
 -0.00037668,-0.00020194,0.00005560,0.00016386,0.00057985,0.00570378,0.
 00232593,-0.00290508,-0.00843625,-0.00158594,-0.00125890,0.00087446,0.
 00013355,0.00188880,-0.00055321,-0.00153702,-0.00167352,0.00061999,-0.
 00130962,0.00036403,-0.00098557,0.00009461,-0.01633266,0.01299860,-0.0
 0275545,0.01783477,-0.01426195,0.00100207,-0.00255785,-0.00977194,0.00
 342666,-0.00011450,0.00000578,-0.00048126,0.11507313,0.16813901,-0.004
 51218,-0.00232810,-0.01244744,0.00117443,-0.00095530,0.00058056,-0.000
 79481,0.00001943,-0.00086912,0.01050892,0.01399354,-0.00749980,-0.0011
 6210,-0.00037443,0.00094943,0.00079433,0.00119724,-0.00027921,0.000489
 79,0.00127640,0.00400741,-0.00027872,-0.00008358,0.00015399,0.13450198
 ,0.07377725,-0.27936205,-0.00591835,0.04447952,-0.00048364,0.00199922,
 0.00133650,0.00311065,-0.00083666,0.00106833,0.00046055,0.00031073,-0.
 00104015,0.00007667,-0.00080593,-0.00022575,0.00058871,0.00006882,-0.0
 0010423,-0.00013339,-0.02213386,-0.00942158,0.00677131,0.01143404,0.00
 168228,0.00179297,0.00128786,0.00021099,0.00144616,-0.00162594,-0.0014
 6024,0.00077645,0.00100270,-0.00113113,0.00210543,0.00041448,0.0019695
 1,0.00006148,0.00910046,-0.00423086,0.01448094,-0.01529534,0.00178815,
 -0.02385977,0.00057247,0.00597661,-0.00369750,-0.00433992,-0.00013641,
 -0.00053962,-0.14367792,-0.14926380,0.32568697,-0.00150471,0.00167505,
 -0.00216434,-0.00152656,0.00168854,-0.00201518,-0.00067003,0.00032016,
 0.00011329,-0.00087925,-0.00966698,-0.02449787,0.00095388,0.00088711,0
 .00006565,-0.00026787,-0.00065522,0.00017585,-0.00013311,-0.00007434,0
 .00029031,0.00008065,-0.00014098,-0.00003270,-0.07128966,-0.02750067,-
 0.04808983,0.00227905,0.01467807,0.00838816,0.00054749,0.00045356,0.00
 083921,-0.00022590,0.00032135,0.00010225,0.00002170,-0.00008715,-0.000
 00406,-0.00008611,-0.00005114,-0.00000024,0.00003811,-0.00002199,-0.00
 001728,-0.00473775,-0.00075934,-0.00398330,-0.00163159,-0.00082782,0.0
 0057944,0.00076537,-0.00016962,0.00153574,-0.00037121,-0.00084435,0.00
 026911,0.00043463,-0.00037376,0.00027785,-0.00002589,0.00069351,0.0001
 5596,0.00005370,-0.00034850,-0.00044490,0.00048132,0.00069270,0.000740
 32,0.00000877,0.00047233,-0.00004543,0.00017674,-0.00002881,0.00001542
 ,0.01061954,0.00352825,0.02430112,0.06646101,0.00422967,-0.00418609,0.
 00355342,0.00066214,-0.00033495,-0.00026580,0.00100950,0.00005249,0.00
 013671,0.00248019,0.00387045,-0.00142409,-0.00046828,0.00060970,0.0004
 9320,-0.00001400,0.00020150,0.00002116,-0.00002812,-0.00017634,-0.0002
 1398,-0.00006430,-0.00000397,-0.00000868,-0.01930441,-0.06358593,-0.07
 150109,-0.00072300,-0.02791062,-0.02266509,-0.00144412,-0.00095342,-0.
 00186713,0.00047968,-0.00069333,-0.00012505,-0.00001310,0.00012334,0.0
 0005124,0.00036470,0.00014236,0.00001297,-0.00005211,0.00005254,0.0000
 1443,0.00005331,0.00109860,0.00013304,-0.00116845,-0.00005321,0.000094
 48,-0.00000789,0.00063355,0.00071948,0.00008779,-0.00133212,-0.0004440
 3,-0.00047413,0.00023378,-0.00014081,0.00003676,-0.00025468,-0.0000416
 1,-0.00038274,0.00030383,-0.00025257,0.00121718,-0.00011083,0.00033922
 ,0.00004876,-0.00067517,0.00016099,0.00009834,-0.00002330,0.00002180,-
 0.00215331,0.00989948,0.02437863,0.01615972,0.08330679,-0.00005885,0.0
 0070460,0.00132305,-0.00117464,0.00056366,-0.00129918,0.00010214,0.000
 14359,-0.00002025,-0.00077631,-0.00378489,-0.00525597,-0.00061467,0.00
 040209,0.00079108,-0.00008387,-0.00037638,0.00024631,0.00009538,0.0006
 8064,0.00019708,-0.00001172,-0.00007993,-0.00000625,-0.05035035,-0.070
 71170,-0.25901990,0.00033321,-0.00314813,0.00389608,-0.00013967,0.0001
 7759,0.00010777,0.00000287,0.00003335,-0.00002465,0.00003088,-0.000044
 88,0.00000412,0.00013297,-0.00001220,0.00006392,-0.00001598,0.00000550
 ,-0.00001816,-0.00199754,-0.00039302,0.00197898,0.00374370,0.00003919,
 0.00041037,0.00038277,0.00090180,0.00082987,0.00026919,-0.00070041,-0.
 00025428,-0.00003747,-0.00016166,0.00015617,0.00011113,0.00026929,0.00
 008559,0.00273200,-0.00031002,0.00064867,-0.00460345,0.00005123,-0.000
 59202,0.00016004,0.00060103,-0.00071215,-0.00007957,-0.00009023,0.0000
 1903,0.00911688,0.00654215,-0.03477069,0.04303579,0.06953186,0.2915143
 1,-0.00330009,0.01004826,0.01272105,0.00216148,-0.00019867,0.00014795,
 0.00185331,-0.00100267,-0.00204435,0.00028215,0.00239416,0.00124120,-0
 .00115046,0.00017326,-0.00027687,-0.00028996,0.00005520,-0.00001735,-0
 .00017147,-0.00052776,-0.00153267,-0.00047777,-0.00032162,0.00025145,-
 0.00048443,-0.02370155,0.00606092,-0.08041415,0.00303368,-0.01137807,-
 0.00318423,0.00133687,0.00125016,0.00099207,-0.00037461,-0.00042206,0.
 00043630,0.00007485,0.00002390,0.00839542,-0.00451641,-0.00407316,-0.0
 0136614,-0.00089667,-0.00111654,-0.00059483,0.00092451,-0.00141542,0.0
 0008067,-0.00042869,0.00048940,-0.00229178,-0.00007277,0.00095899,0.00
 184506,0.00049827,-0.00268141,-0.00275372,-0.00051711,-0.00213876,0.00
 036851,-0.00028465,0.00049936,0.02034650,-0.01666509,0.00456277,-0.013
 62117,-0.00391548,0.00029348,-0.05221920,0.00131669,0.02382015,0.00006
 745,0.00116604,-0.00097678,0.00930238,0.00781422,-0.00647334,-0.000797
 20,0.00137879,0.00039041,0.31753698,0.00113064,-0.00149807,-0.00083540
 ,0.00014349,-0.00082860,-0.00003220,0.00065454,0.00053655,0.00091186,0
 .00020413,0.00152105,0.00029535,-0.00029796,0.00012050,-0.00009027,-0.
 00004552,0.00036441,0.00002353,-0.00000801,-0.00025876,-0.00011192,0.0
 0016953,0.00019656,-0.00010534,-0.00395247,-0.01164873,0.00579232,-0.0
 0777273,0.01985435,0.00044249,0.00885870,-0.00101806,-0.00318179,-0.00
 206251,-0.00014253,0.00055738,-0.00065306,0.00022755,0.00039548,-0.013
 07925,-0.01618040,-0.01485608,-0.00272397,-0.00027641,-0.00060021,0.00
 111913,0.00121929,-0.00039308,-0.00152446,-0.00052020,-0.00055403,-0.0
 0013878,0.00069818,0.00003146,0.00022394,-0.00050169,-0.00013661,-0.00
 047969,0.00068879,-0.00022246,0.00007747,-0.00058735,-0.00005490,0.002
 33208,-0.06487363,0.03472922,-0.02012887,-0.00152020,-0.00011893,-0.00
 500345,-0.11272653,0.04791559,0.00396315,-0.00777212,-0.00154981,0.012
 49558,0.00548229,-0.00342195,-0.00037817,0.00062956,-0.00010432,0.0089
 0536,0.46866115,0.00240080,-0.00217731,-0.00248660,-0.00038153,0.00005
 409,-0.00046281,-0.00014353,0.00061806,0.00084641,-0.00018184,-0.00067
 014,-0.00021565,0.00014518,0.00004117,0.00008988,-0.00001244,-0.000002
 78,0.00008652,0.00036794,0.00002777,0.00073170,0.00011708,0.00001282,-
 0.00007296,0.00098464,0.00485226,-0.00377489,0.00631949,0.00007322,0.0
 1358820,0.00416070,-0.00092631,-0.00371475,-0.00139267,-0.00011269,0.0
 0065169,-0.00084421,-0.00050243,0.00052565,-0.00546918,-0.01306296,-0.
 00218213,-0.00292269,-0.00118547,-0.00178256,-0.00023954,-0.00016178,0
 .00054884,0.00043005,0.00005958,0.00003459,0.00013546,-0.00003596,0.00
 046928,-0.00033317,-0.00001691,-0.00020716,0.00037456,0.00014568,0.000
 47885,0.00005703,0.00004469,-0.00007688,-0.00408496,0.02969271,0.00035
 545,0.00757922,0.00049502,-0.00103392,0.01805986,0.02874523,-0.0764242
 2,-0.00074780,-0.00112964,0.00175899,-0.00478240,-0.00154532,0.0028392
 8,-0.00007581,0.00008436,0.00058425,-0.05451430,0.12767654,0.33428288,
 -0.00182861,0.00049752,0.00000005,0.00007116,0.00019632,0.00026339,-0.
 00056632,-0.00040083,-0.00063629,-0.00003483,-0.00013189,-0.00006841,0
 .00009950,-0.00006823,0.00000189,0.00008173,-0.00008886,-0.00005328,-0
 .00024821,0.00017715,-0.00026096,0.00001672,0.00001010,0.00003110,0.00
 006414,0.00231667,-0.00023765,-0.00080770,-0.00397271,-0.00273761,-0.0
 0582092,-0.00235452,-0.00063153,0.00049551,0.00020718,0.00009640,0.000
 50667,-0.00006286,-0.00027824,-0.00804704,0.00393092,0.00174612,0.0043
 8498,0.00233597,0.00235308,0.00009346,-0.00028576,0.00004972,-0.000003
 86,0.00015071,-0.00004124,0.00016486,-0.00011440,-0.00029870,-0.000140
 87,0.00006983,0.00028701,0.00032919,-0.00015556,0.00021778,-0.00012732
 ,0.00013401,-0.00005146,-0.00154549,-0.00022827,0.00055994,0.00161468,
 0.00032723,0.00031822,0.00045046,-0.00314013,-0.00766016,0.00050423,-0
 .00045364,0.00023849,-0.00089030,-0.00107430,0.00025573,0.00012940,-0.
 00025916,-0.00018032,-0.04861281,0.00530659,0.02334262,0.06208641,0.00
 091347,0.00470928,0.00286972,0.00043057,0.00055589,0.00045556,-0.00028
 009,-0.00077168,-0.00070568,0.00007042,0.00008717,0.00010395,-0.000147
 49,-0.00009749,-0.00004040,0.00001415,-0.00022751,-0.00007836,0.000022
 42,-0.00004707,-0.00014806,-0.00028809,-0.00018669,0.00013956,0.001291
 19,0.00037481,-0.00098894,-0.00863824,-0.00333183,-0.00244903,-0.01078
 905,0.00174155,0.00595683,0.00306759,0.00045508,-0.00086303,0.00117424
 ,0.00011416,-0.00077386,0.01199897,-0.00220535,0.00095380,0.00133387,-
 0.00189058,-0.00157299,-0.00060867,-0.00051863,-0.00029875,0.00066479,
 0.00017813,0.00030581,-0.00036128,-0.00045619,-0.00020758,0.00035110,0
 .00041234,-0.00019568,0.00009937,-0.00062654,-0.00020682,-0.00002059,0
 .00037868,0.00010234,-0.00240622,0.00470800,0.00126373,0.00329713,-0.0
 0077879,0.00019658,0.00345427,-0.02056872,-0.01824735,-0.00021755,-0.0
 0144811,0.00043595,-0.00277953,-0.00033535,0.00023110,0.00009398,-0.00
 024215,-0.00006955,0.01382065,-0.21186351,-0.16327134,-0.03360577,0.22
 971360,0.00033944,0.00260354,0.00275085,0.00031286,0.00034517,0.000473
 14,-0.00035693,-0.00045855,-0.00061834,0.00002720,0.00018971,0.0001731
 2,-0.00010328,-0.00007936,-0.00005407,0.00002484,-0.00014745,-0.000074
 74,-0.00033632,0.00019672,-0.00044083,-0.00007829,-0.00008241,0.000079
 82,0.00033708,-0.00059997,0.00000860,-0.00629896,-0.00099905,-0.002196
 50,-0.00639009,0.00281554,0.00569572,0.00240195,0.00036962,-0.00092307
 ,0.00160096,0.00072789,-0.00078652,0.00444005,-0.00121822,-0.00944578,
 0.00320629,0.00119406,0.00104810,-0.00029310,-0.00034011,-0.00033248,0
 .00029614,0.00016241,0.00022249,-0.00021711,-0.00021651,-0.00033425,0.
 00023787,0.00017236,-0.00000161,0.00014252,-0.00037732,-0.00020934,-0.
 00010122,0.00024569,0.00008640,-0.00043639,0.00699945,-0.00572051,0.00
 237491,-0.00007912,0.00061938,-0.00643955,-0.00254273,0.02122314,-0.00
 027032,0.00156802,-0.00002727,-0.00123061,-0.00039578,-0.00061831,0.00
 007476,-0.00012848,-0.00013928,0.04100921,-0.18483238,-0.22452420,-0.0
 4704244,0.18121070,0.21850929,0.00366772,-0.01577937,-0.01894835,-0.00
 307994,0.00017993,-0.00010375,-0.00210908,0.00180295,0.00318614,-0.000
 54119,-0.00369229,-0.00159247,0.00170842,-0.00023614,0.00038260,0.0004
 0904,-0.00002824,0.00002009,0.00075351,0.00102746,0.00313180,0.0007895
 2,0.00050014,-0.00041322,-0.00114664,0.03760492,-0.00912312,0.02497617
 ,-0.00622941,0.01603134,0.01009089,-0.00134437,-0.00162357,-0.00205955
 ,0.00073743,0.00068332,-0.00092144,-0.00017150,0.00007959,-0.01069520,
 -0.00547041,-0.00382700,-0.00047210,-0.00029764,0.00023630,0.00096183,
 -0.00116635,0.00220841,-0.00006944,0.00060588,-0.00071808,0.00315566,0
 .00026346,-0.00143502,-0.00288606,-0.00075280,0.00377949,0.00402777,0.
 00086743,0.00318313,-0.00050210,0.00032965,-0.00072203,-0.01031425,0.0
 1753271,-0.00718582,0.01742947,0.00021311,0.00106354,-0.00521840,-0.03
 783961,0.01316781,-0.00029338,0.00001756,0.00063395,-0.01338925,-0.010
 54951,0.00963800,0.00109550,-0.00174939,-0.00051498,-0.15193885,0.0126
 6458,0.01165148,-0.00241881,0.01804439,0.01276853,0.13899022,-0.007389
 67,-0.00031242,0.00043666,-0.00005832,-0.00005964,0.00003189,0.0003196
 0,-0.00054702,-0.00155086,0.00042950,-0.00226025,-0.00087004,0.0005980
 3,0.00002955,0.00018099,0.00000396,-0.00006370,0.00000100,0.00022989,0
 .00016350,0.00005995,-0.00013660,-0.00010302,0.00010731,0.01100494,0.0
 0628529,-0.00003078,0.00344654,-0.02899084,-0.00420150,-0.00236038,-0.
 00110682,-0.00191533,-0.00002873,-0.00002319,0.00031453,-0.00009761,-0
 .00058715,0.00024605,-0.00049046,0.00025813,0.00095197,0.00041591,0.00
 008341,0.00007186,-0.00042576,-0.00033280,0.00026389,0.00053204,0.0001
 5071,0.00022289,-0.00015509,-0.00016967,0.00011051,-0.00011502,0.00021
 849,-0.00010862,-0.00047890,-0.00023607,-0.00016615,0.00002320,0.00002
 789,0.00002838,0.00253973,-0.00202213,-0.00028153,0.00028949,-0.002524
 55,0.00148390,-0.02855005,0.00570022,0.00322569,-0.00011297,0.00038098
 ,-0.00004064,-0.00383287,-0.00032185,0.00079204,0.00026455,-0.00062187
 ,-0.00066025,0.00048295,-0.06798343,-0.00782217,0.03073668,0.00216750,
 -0.00630341,-0.00708459,0.09280075,-0.01021117,-0.00021688,-0.00212075
 ,-0.00027756,-0.00000900,0.00000968,0.00041114,-0.00061058,-0.00118502
 ,-0.00019694,0.00017622,0.00006360,0.00007883,-0.00005591,-0.00004664,
 0.00005313,-0.00000366,-0.00006309,-0.00041222,-0.00008283,-0.00068516
 ,-0.00002822,0.00005484,0.00000771,-0.00296455,0.00168163,0.00244794,0
 .01039434,-0.00525892,-0.02054499,-0.00171827,-0.00165409,0.00097756,0
 .00002247,0.00027079,-0.00007948,0.00025573,0.00024260,-0.00018726,-0.
 00057257,0.00111008,-0.00011386,0.00058011,0.00042869,0.00039750,0.000
 35565,-0.00001195,-0.00008694,-0.00033800,0.00001895,-0.00014306,0.000
 82613,0.00009080,-0.00070298,-0.00001274,-0.00017906,0.00123777,-0.000
 41085,0.00000700,-0.00015013,-0.00005640,-0.00008968,-0.00000259,-0.00
 136424,-0.00054936,-0.00049326,0.00025046,0.00184219,0.00038086,0.0130
 1293,0.00068084,-0.00088936,0.00020856,0.00012270,-0.00005021,0.001584
 28,-0.00108084,-0.00132842,0.00041072,-0.00066859,-0.00074390,-0.00465
 936,-0.00756954,-0.04091375,0.03041672,-0.00410823,-0.00444296,-0.0356
 3813,0.01542178,0.06945121\\-0.00000533,0.00000193,0.00000182,0.000001
 54,0.00000884,-0.00000284,-0.00000430,0.00000821,-0.00000442,-0.000007
 96,0.00001531,-0.00000628,0.00001273,-0.00001396,-0.00001065,-0.000001
 20,0.00000367,0.00000050,-0.00000126,-0.00000147,-0.00000098,-0.000004
 40,-0.00000723,0.00000721,0.00000319,-0.00000434,-0.00000507,-0.000002
 64,-0.00000009,-0.00000016,-0.00000488,-0.00000190,0.00000706,-0.00000
 282,-0.00000233,0.00000034,-0.00000480,-0.00000221,0.00000773,-0.00000
 009,-0.00001873,0.00001851,-0.00000320,0.00000743,0.00000075,0.0000138
 0,0.00000159,0.00000883,0.00000351,-0.00000026,-0.00000446,-0.00001448
 ,0.00001423,0.00000204,0.00000925,-0.00000099,0.00000038,-0.00000552,0
 .00001285,0.00000512,0.00000531,-0.00000918,-0.00000482,-0.00000690,-0
 .00003201,-0.00003183,-0.00000858,0.00000393,0.00000800,0.00000157,0.0
 0001302,-0.00000195,0.00001142,0.00000651,0.00000741,0.00000606,-0.000
 00200,-0.00000776,0.00000070,-0.00000132,0.00000368,0.00000232,-0.0000
 0454,0.00000054,0.00000277,0.00000011,0.,0.00000420,0.00000490,0.00000
 127\\\@


 SIGN SEEN IN A RESTAURANT-
 WE RESERVE THE RIGHT TO SERVE REFUSE TO ANYONE.
 Job cpu time:       0 days  0 hours 34 minutes 11.9 seconds.
 File lengths (MBytes):  RWF=    220 Int=      0 D2E=      0 Chk=      6 Scr=      1
 Normal termination of Gaussian 09 at Thu Jan 12 22:07:40 2017.
