 Entering Gaussian System, Link 0=g09
 Initial command:
 /global/software/gaussian/g09.e01/l1.exe "/scratch/10501396.yak.local/Gau-19038.inp" -scrdir="/scratch/10501396.yak.local/"
 Entering Link 1 = /global/software/gaussian/g09.e01/l1.exe PID=     19039.
  
 Copyright (c) 1988,1990,1992,1993,1995,1998,2003,2009,2015,
            Gaussian, Inc.  All Rights Reserved.
  
 This is part of the Gaussian(R) 09 program.  It is based on
 the Gaussian(R) 03 system (copyright 2003, Gaussian, Inc.),
 the Gaussian(R) 98 system (copyright 1998, Gaussian, Inc.),
 the Gaussian(R) 94 system (copyright 1995, Gaussian, Inc.),
 the Gaussian 92(TM) system (copyright 1992, Gaussian, Inc.),
 the Gaussian 90(TM) system (copyright 1990, Gaussian, Inc.),
 the Gaussian 88(TM) system (copyright 1988, Gaussian, Inc.),
 the Gaussian 86(TM) system (copyright 1986, Carnegie Mellon
 University), and the Gaussian 82(TM) system (copyright 1983,
 Carnegie Mellon University). Gaussian is a federally registered
 trademark of Gaussian, Inc.
  
 This software contains proprietary and confidential information,
 including trade secrets, belonging to Gaussian, Inc.
  
 This software is provided under written license and may be
 used, copied, transmitted, or stored only in accord with that
 written license.
  
 The following legend is applicable only to US Government
 contracts under FAR:
  
                    RESTRICTED RIGHTS LEGEND
  
 Use, reproduction and disclosure by the US Government is
 subject to restrictions as set forth in subparagraphs (a)
 and (c) of the Commercial Computer Software - Restricted
 Rights clause in FAR 52.227-19.
  
 Gaussian, Inc.
 340 Quinnipiac St., Bldg. 40, Wallingford CT 06492
  
  
 ---------------------------------------------------------------
 Warning -- This program may not be used in any manner that
 competes with the business of Gaussian, Inc. or will provide
 assistance to any competitor of Gaussian, Inc.  The licensee
 of this program is prohibited from giving any competitor of
 Gaussian, Inc. access to this program.  By using this program,
 the user acknowledges that Gaussian, Inc. is engaged in the
 business of creating and licensing software in the field of
 computational chemistry and represents and warrants to the
 licensee that it is not a competitor of Gaussian, Inc. and that
 it will not use this program in any manner prohibited above.
 ---------------------------------------------------------------
  

 Cite this work as:
 Gaussian 09, Revision E.01,
 M. J. Frisch, G. W. Trucks, H. B. Schlegel, G. E. Scuseria, 
 M. A. Robb, J. R. Cheeseman, G. Scalmani, V. Barone, B. Mennucci, 
 G. A. Petersson, H. Nakatsuji, M. Caricato, X. Li, H. P. Hratchian, 
 A. F. Izmaylov, J. Bloino, G. Zheng, J. L. Sonnenberg, M. Hada, 
 M. Ehara, K. Toyota, R. Fukuda, J. Hasegawa, M. Ishida, T. Nakajima, 
 Y. Honda, O. Kitao, H. Nakai, T. Vreven, J. A. Montgomery, Jr., 
 J. E. Peralta, F. Ogliaro, M. Bearpark, J. J. Heyd, E. Brothers, 
 K. N. Kudin, V. N. Staroverov, T. Keith, R. Kobayashi, J. Normand, 
 K. Raghavachari, A. Rendell, J. C. Burant, S. S. Iyengar, J. Tomasi, 
 M. Cossi, N. Rega, J. M. Millam, M. Klene, J. E. Knox, J. B. Cross, 
 V. Bakken, C. Adamo, J. Jaramillo, R. Gomperts, R. E. Stratmann, 
 O. Yazyev, A. J. Austin, R. Cammi, C. Pomelli, J. W. Ochterski, 
 R. L. Martin, K. Morokuma, V. G. Zakrzewski, G. A. Voth, 
 P. Salvador, J. J. Dannenberg, S. Dapprich, A. D. Daniels, 
 O. Farkas, J. B. Foresman, J. V. Ortiz, J. Cioslowski, 
 and D. J. Fox, Gaussian, Inc., Wallingford CT, 2013.
 
 ******************************************
 Gaussian 09:  ES64L-G09RevE.01 30-Nov-2015
                31-Jan-2017 
 ******************************************
 %NPROCS=4
 Will use up to    4 processors via shared memory.
 ----------------------------------------------------------------------
 # opt=(calcfc,ts,noeigentest,maxcycle=1000,cartesian) b3lyp 6-31g(d) f
 req
 ----------------------------------------------------------------------
 1/5=1,6=1000,10=4,11=1,14=-1,18=10,26=3,38=1/1,3;
 2/12=2,17=6,18=5,29=2,40=1/2;
 3/5=1,6=6,7=1,11=2,16=1,25=1,30=1,71=2,74=-5,140=1/1,2,3;
 4//1;
 5/5=2,38=5/2;
 8/6=4,10=90,11=11/1;
 11/6=1,8=1,9=11,15=111,16=1/1,2,10;
 10/6=1,13=1/2;
 6/7=2,8=2,9=2,10=2,28=1/1;
 7/7=1,10=1,18=20,25=1/1,2,3,16;
 1/5=1,6=1000,10=4,11=1,14=-1,18=10,26=3/3(2);
 2/29=1/2;
 99/12=1/99;
 2/29=1/2;
 3/5=1,6=6,7=1,11=2,16=1,25=1,30=1,71=1,74=-5/1,2,3;
 4/5=5,16=3,69=1/1;
 5/5=2,38=5/2;
 7/7=1/1,2,3,16;
 1/5=1,6=1000,11=1,14=-1,18=10,26=3/3(-5);
 2/29=1/2;
 6/7=2,8=2,9=2,10=2,19=2,28=1/1;
 99/9=1,12=1/99;
 -------------------------------------------
 ./6/glo_2w_alpha_boat6_B3LYP_631Gd_iopt.out
 -------------------------------------------
 Symbolic Z-matrix:
 Charge =  0 Multiplicity = 1
 C                    -0.26959   0.94116   0.56346 
 C                     2.15861   0.36822   0.05716 
 C                     1.13413   0.69115   1.16101 
 C                     1.69167  -0.76105  -0.91518 
 H                     1.90786  -0.40599  -1.93032 
 H                     3.07602   0.01647   0.54632 
 H                    -1.00913   0.58758   1.29489 
 H                     1.47219   1.60517   1.66212 
 C                     0.17084  -0.99787  -0.83089 
 O                    -0.50552   0.23961  -0.68134 
 C                    -0.55256   2.4079    0.24318 
 H                    -0.62615   2.97806   1.17469 
 H                     0.26264   2.82214  -0.35919 
 O                    -1.81082   2.55197  -0.42761 
 H                    -1.6445    2.34058  -1.35963 
 O                     2.40011  -1.97303  -0.74429 
 H                     1.88616  -2.49547  -0.10401 
 O                     2.38584   1.59582  -0.64203 
 H                     3.09919   1.44556  -1.28159 
 O                     1.11946  -0.3144    2.15963 
 H                     0.67427  -1.08557   1.7545 
 O                    -2.67245  -2.44103   0.20425 
 H                    -1.02692  -2.17      0.22158 
 H                    -3.07666  -1.55623   0.00937 
 H                    -2.98969  -2.67635   1.08881 
 O                    -0.06467  -1.88746   0.23473 
 H                    -0.21884  -1.41548  -1.76538 
 O                    -3.49192   0.08625  -0.38755 
 H                    -4.00736   0.67731   0.18079 
 H                    -2.65795   0.57336  -0.53168 
 

 GradGradGradGradGradGradGradGradGradGradGradGradGradGradGradGradGradGrad
 Berny optimization.
 Initialization pass.
 No Z-matrix variables, so optimization will use Cartesian coordinates.
 Trust Radius=3.00D-01 FncErr=1.00D-07 GrdErr=1.00D-06
 Number of steps in this run=    180 maximum allowed number of steps=    180.
 Search for a saddle point of order  1.
 GradGradGradGradGradGradGradGradGradGradGradGradGradGradGradGradGradGrad

 ---------------------------------------------------------------------------------------------------
                            Z-MATRIX (ANGSTROMS AND DEGREES)
   CD    Cent   Atom    N1       Length/X        N2       Alpha/Y        N3        Beta/Z          J
 ---------------------------------------------------------------------------------------------------
      1      1  C        0  -0.269590          0.941160          0.563460
      2      2  C        0   2.158610          0.368220          0.057160
      3      3  C        0   1.134130          0.691150          1.161010
      4      4  C        0   1.691670         -0.761050         -0.915180
      5      5  H        0   1.907860         -0.405990         -1.930320
      6      6  H        0   3.076020          0.016470          0.546320
      7      7  H        0  -1.009130          0.587580          1.294890
      8      8  H        0   1.472190          1.605170          1.662120
      9      9  C        0   0.170840         -0.997870         -0.830890
     10     10  O        0  -0.505520          0.239610         -0.681340
     11     11  C        0  -0.552560          2.407900          0.243180
     12     12  H        0  -0.626150          2.978060          1.174690
     13     13  H        0   0.262640          2.822140         -0.359190
     14     14  O        0  -1.810820          2.551970         -0.427610
     15     15  H        0  -1.644500          2.340580         -1.359630
     16     16  O        0   2.400110         -1.973030         -0.744290
     17     17  H        0   1.886160         -2.495470         -0.104010
     18     18  O        0   2.385840          1.595820         -0.642030
     19     19  H        0   3.099190          1.445560         -1.281590
     20     20  O        0   1.119460         -0.314400          2.159630
     21     21  H        0   0.674270         -1.085570          1.754500
     22     22  O        0  -2.672450         -2.441030          0.204250
     23     23  H        0  -1.026920         -2.170000          0.221580
     24     24  H        0  -3.076660         -1.556230          0.009370
     25     25  H        0  -2.989690         -2.676350          1.088810
     26     26  O        0  -0.064670         -1.887460          0.234730
     27     27  H        0  -0.218840         -1.415480         -1.765380
     28     28  O        0  -3.491920          0.086250         -0.387550
     29     29  H        0  -4.007360          0.677310          0.180790
     30     30  H        0  -2.657950          0.573360         -0.531680
 ---------------------------------------------------------------------------------------------------
                         Z-Matrix orientation:                         
 ---------------------------------------------------------------------
 Center     Atomic      Atomic             Coordinates (Angstroms)
 Number     Number       Type             X           Y           Z
 ---------------------------------------------------------------------
      1          6           0       -0.269590    0.941160    0.563460
      2          6           0        2.158610    0.368220    0.057160
      3          6           0        1.134130    0.691150    1.161010
      4          6           0        1.691670   -0.761050   -0.915180
      5          1           0        1.907860   -0.405990   -1.930320
      6          1           0        3.076020    0.016470    0.546320
      7          1           0       -1.009130    0.587580    1.294890
      8          1           0        1.472190    1.605170    1.662120
      9          6           0        0.170840   -0.997870   -0.830890
     10          8           0       -0.505520    0.239610   -0.681340
     11          6           0       -0.552560    2.407900    0.243180
     12          1           0       -0.626150    2.978060    1.174690
     13          1           0        0.262640    2.822140   -0.359190
     14          8           0       -1.810820    2.551970   -0.427610
     15          1           0       -1.644500    2.340580   -1.359630
     16          8           0        2.400110   -1.973030   -0.744290
     17          1           0        1.886160   -2.495470   -0.104010
     18          8           0        2.385840    1.595820   -0.642030
     19          1           0        3.099190    1.445560   -1.281590
     20          8           0        1.119460   -0.314400    2.159630
     21          1           0        0.674270   -1.085570    1.754500
     22          8           0       -2.672450   -2.441030    0.204250
     23          1           0       -1.026920   -2.170000    0.221580
     24          1           0       -3.076660   -1.556230    0.009370
     25          1           0       -2.989690   -2.676350    1.088810
     26          8           0       -0.064670   -1.887460    0.234730
     27          1           0       -0.218840   -1.415480   -1.765380
     28          8           0       -3.491920    0.086250   -0.387550
     29          1           0       -4.007360    0.677310    0.180790
     30          1           0       -2.657950    0.573360   -0.531680
 ---------------------------------------------------------------------
                    Distance matrix (angstroms):
                    1          2          3          4          5
     1  C    0.000000
     2  C    2.545733   0.000000
     3  C    1.545963   1.540236   0.000000
     4  C    2.988383   1.561643   2.594282   0.000000
     5  H    3.574219   2.147639   3.370266   1.096957   0.000000
     6  H    3.471088   1.097564   2.145687   2.157995   2.770707
     7  H    1.098603   3.408030   2.149933   3.741328   4.460716
     8  H    2.163738   2.139419   1.095823   3.505659   4.140072
     9  C    2.428586   2.570227   2.783592   1.541464   2.139230
    10  O    1.448227   2.767582   2.507308   2.425623   2.793054
    11  C    1.527736   3.397844   2.575765   4.052235   4.323858
    12  H    2.156316   3.976811   2.885954   4.870399   5.245387
    13  H    2.161628   3.128861   2.758917   3.897499   3.949180
    14  O    2.439737   4.556330   3.828720   4.845747   4.983598
    15  H    2.747186   4.512332   4.098174   4.576863   4.526433
    16  O    4.162933   2.486382   3.511514   1.414209   2.025979
    17  H    4.111350   2.881133   3.510039   1.924587   2.775213
    18  O    2.988828   1.430909   2.374060   2.472108   2.428044
    19  H    3.873927   1.958980   3.224421   2.642820   2.295290
    20  O    2.460417   2.442577   1.417247   3.159332   4.166252
    21  H    2.533196   2.682859   1.928843   2.875345   3.944803
    22  O    4.164370   5.590408   5.021553   4.808430   5.447662
    23  H    3.220209   4.076420   3.706595   3.266205   4.044173
    24  H    3.797843   5.577978   4.909964   4.921796   5.470913
    25  H    4.556459   6.069489   5.324581   5.440541   6.185117
    26  O    2.855021   3.172160   2.990710   2.382399   3.282235
    27  H    3.313582   3.486475   3.851256   2.191157   2.359900
    28  O    3.466800   5.675012   4.915718   5.278818   5.637381
    29  H    3.766560   6.174950   5.234113   5.979044   6.373394
    30  H    2.653087   4.856755   4.154389   4.565842   4.874622
                    6          7          8          9         10
     6  H    0.000000
     7  H    4.192252   0.000000
     8  H    2.518183   2.706898   0.000000
     9  C    3.371300   2.902572   3.832027   0.000000
    10  O    3.792673   2.068862   3.356769   1.418162   0.000000
    11  C    4.356309   2.151305   2.599496   3.643652   2.357633
    12  H    4.782460   2.423946   2.554495   4.523888   3.310364
    13  H    4.075149   3.057227   2.651362   3.850117   2.713542
    14  O    5.590931   2.732863   4.005191   4.085459   2.667432
    15  H    5.596199   3.243945   4.402903   3.836701   2.484236
    16  O    2.465895   4.726298   4.410823   2.434765   3.652728
    17  H    2.854565   4.454753   4.483953   2.390289   3.678873
    18  O    2.093531   4.036586   2.478699   3.416010   3.193871
    19  H    2.320364   4.924700   3.367200   3.840405   3.848188
    20  O    2.557415   2.468246   2.014121   3.210953   3.319427
    21  H    2.905614   2.417542   2.808076   2.635408   3.013523
    22  O    6.261088   3.623342   5.972869   3.352391   3.558888
    23  H    4.660496   2.959148   4.751065   1.978942   2.625518
    24  H    6.373160   3.243943   5.780836   3.400597   3.211368
    25  H    6.658710   3.823392   6.210352   4.060972   4.219876
    26  O    3.685915   2.853378   4.074045   1.407971   2.357533
    27  H    4.272065   3.741933   4.871516   1.095226   1.999163
    28  O    6.634366   3.040754   5.581277   3.845475   3.004732
    29  H    7.123524   3.199790   5.751585   4.613792   3.632868
    30  H    5.860940   2.460725   4.789097   3.249668   2.183287
                   11         12         13         14         15
    11  C    0.000000
    12  H    1.094627   0.000000
    13  H    1.094986   1.779620   0.000000
    14  O    1.433155   2.037734   2.092106   0.000000
    15  H    1.940584   2.804674   2.206799   0.970056   0.000000
    16  O    5.374561   6.111794   5.264099   6.189333   5.945145
    17  H    5.487343   6.156810   5.565780   6.264905   6.117967
    18  O    3.174471   3.779305   2.468165   4.309542   4.160920
    19  H    4.072628   4.718053   3.285089   5.105059   4.828017
    20  O    3.725500   3.854550   4.112965   4.847311   5.203228
    21  H    3.999191   4.305852   4.461762   4.916195   5.178127
    22  O    5.292218   5.873298   6.052535   5.106046   5.134802
    23  H    4.602462   5.250863   5.188615   4.830419   4.819436
    24  H    4.705324   5.284199   5.518776   4.320950   4.371541
    25  H    5.701253   6.129115   6.550400   5.569973   5.742298
    26  O    4.322988   4.987191   4.758172   4.816251   4.786875
    27  H    4.331734   5.302179   4.490726   4.479362   4.037961
    28  O    3.798383   4.360711   4.645710   2.984540   3.072443
    29  H    3.864515   4.208785   4.808823   2.951150   3.274518
    30  H    2.898036   3.580851   3.690069   2.154845   2.199011
                   16         17         18         19         20
    16  O    0.000000
    17  H    0.973163   0.000000
    18  O    3.570343   4.156657   0.000000
    19  H    3.530462   4.288339   0.969785   0.000000
    20  O    3.581043   3.235577   3.619663   4.342670   0.000000
    21  H    3.163868   2.628793   3.982798   4.637316   0.978278
    22  O    5.181662   4.569345   6.526764   7.115134   4.767038
    23  H    3.565983   2.949233   5.155012   5.688284   3.436020
    24  H    5.544072   5.052189   6.340240   6.987020   4.875775
    25  H    5.736276   5.022893   7.081212   7.725503   4.859072
    26  O    2.653477   2.071270   4.348212   4.839242   2.753529
    27  H    2.865726   2.890943   4.136931   4.407826   4.290586
    28  O    6.251713   5.972388   6.073848   6.788944   5.283320
    29  H    6.995409   6.699345   6.511044   7.296014   5.584226
    30  H    5.666858   5.499960   5.147564   5.870925   4.722297
                   21         22         23         24         25
    21  H    0.000000
    22  O    3.929514   0.000000
    23  H    2.533748   1.667791   0.000000
    24  H    4.163709   0.992086   2.150158   0.000000
    25  H    4.049485   0.968743   2.204755   1.558019   0.000000
    26  O    1.870497   2.666062   1.002959   3.038517   3.147625
    27  H    3.646374   3.309290   2.273830   3.366999   4.172985
    28  O    4.828942   2.721930   3.396753   1.740036   3.172354
    29  H    5.244232   3.392135   4.122118   2.425755   3.620385
    30  H    4.368336   3.102958   3.279281   2.236785   3.646458
                   26         27         28         29         30
    26  O    0.000000
    27  H    2.060819   0.000000
    28  O    4.003599   3.855731   0.000000
    29  H    4.703803   4.745549   0.968525   0.000000
    30  H    3.656244   3.380349   0.976502   1.529486   0.000000
 Stoichiometry    C6H16O8
 Framework group  C1[X(C6H16O8)]
 Deg. of freedom    84
 Full point group                 C1      NOp   1
 Largest Abelian subgroup         C1      NOp   1
 Largest concise Abelian subgroup C1      NOp   1
                         Standard orientation:                         
 ---------------------------------------------------------------------
 Center     Atomic      Atomic             Coordinates (Angstroms)
 Number     Number       Type             X           Y           Z
 ---------------------------------------------------------------------
      1          6           0       -0.269590    0.941160    0.563460
      2          6           0        2.158610    0.368220    0.057160
      3          6           0        1.134130    0.691150    1.161010
      4          6           0        1.691670   -0.761050   -0.915180
      5          1           0        1.907860   -0.405990   -1.930320
      6          1           0        3.076020    0.016469    0.546320
      7          1           0       -1.009130    0.587580    1.294890
      8          1           0        1.472190    1.605170    1.662120
      9          6           0        0.170840   -0.997870   -0.830890
     10          8           0       -0.505520    0.239610   -0.681340
     11          6           0       -0.552560    2.407900    0.243180
     12          1           0       -0.626150    2.978060    1.174690
     13          1           0        0.262640    2.822140   -0.359190
     14          8           0       -1.810820    2.551970   -0.427610
     15          1           0       -1.644500    2.340580   -1.359630
     16          8           0        2.400110   -1.973031   -0.744290
     17          1           0        1.886160   -2.495470   -0.104010
     18          8           0        2.385840    1.595819   -0.642030
     19          1           0        3.099190    1.445559   -1.281590
     20          8           0        1.119460   -0.314400    2.159630
     21          1           0        0.674270   -1.085570    1.754500
     22          8           0       -2.672450   -2.441030    0.204250
     23          1           0       -1.026920   -2.170000    0.221580
     24          1           0       -3.076660   -1.556230    0.009370
     25          1           0       -2.989690   -2.676350    1.088810
     26          8           0       -0.064670   -1.887460    0.234730
     27          1           0       -0.218840   -1.415480   -1.765380
     28          8           0       -3.491920    0.086250   -0.387550
     29          1           0       -4.007360    0.677310    0.180790
     30          1           0       -2.657950    0.573360   -0.531680
 ---------------------------------------------------------------------
 Rotational constants (GHZ):      0.7372128      0.5488310      0.3958094
 Standard basis: 6-31G(d) (6D, 7F)
 There are   242 symmetry adapted cartesian basis functions of A   symmetry.
 There are   242 symmetry adapted basis functions of A   symmetry.
   242 basis functions,   456 primitive gaussians,   242 cartesian basis functions
    58 alpha electrons       58 beta electrons
       nuclear repulsion energy      1122.6193546663 Hartrees.
 NAtoms=   30 NActive=   30 NUniq=   30 SFac= 1.00D+00 NAtFMM=   60 NAOKFM=F Big=F
 Integral buffers will be    131072 words long.
 Raffenetti 2 integral format.
 Two-electron integral symmetry is turned on.
 One-electron integrals computed using PRISM.
 NBasis=   242 RedAO= T EigKep=  1.25D-03  NBF=   242
 NBsUse=   242 1.00D-06 EigRej= -1.00D+00 NBFU=   242
 ExpMin= 1.61D-01 ExpMax= 5.48D+03 ExpMxC= 8.25D+02 IAcc=1 IRadAn=         1 AccDes= 0.00D+00
 Harris functional with IExCor=  402 and IRadAn=       1 diagonalized for initial guess.
 HarFok:  IExCor=  402 AccDes= 0.00D+00 IRadAn=         1 IDoV= 1 UseB2=F ITyADJ=14
 ICtDFT=  3500011 ScaDFX=  1.000000  1.000000  1.000000  1.000000
 FoFCou: FMM=F IPFlag=           0 FMFlag=      100000 FMFlg1=           0
         NFxFlg=           0 DoJE=T BraDBF=F KetDBF=T FulRan=T
         wScrn=  0.000000 ICntrl=     500 IOpCl=  0 I1Cent=   200000004 NGrid=           0
         NMat0=    1 NMatS0=      1 NMatT0=    0 NMatD0=    1 NMtDS0=    0 NMtDT0=    0
 Petite list used in FoFCou.
 Requested convergence on RMS density matrix=1.00D-08 within 128 cycles.
 Requested convergence on MAX density matrix=1.00D-06.
 Requested convergence on             energy=1.00D-06.
 No special actions if energy rises.
 Integral accuracy reduced to 1.0D-05 until final iterations.
 Initial convergence to 1.0D-05 achieved.  Increase integral accuracy.
 SCF Done:  E(RB3LYP) =  -840.003963645     A.U. after   13 cycles
            NFock= 13  Conv=0.98D-08     -V/T= 2.0086
 DoSCS=F DFT=T ScalE2(SS,OS)=  1.000000  1.000000
 Range of M.O.s used for correlation:     1   242
 NBasis=   242 NAE=    58 NBE=    58 NFC=     0 NFV=     0
 NROrb=    242 NOA=    58 NOB=    58 NVA=   184 NVB=   184
 Symmetrizing basis deriv contribution to polar:
 IMax=3 JMax=2 DiffMx= 0.00D+00
 G2DrvN: will do    31 centers at a time, making    1 passes.
 Calling FoFCou, ICntrl=  3107 FMM=F I1Cent=   0 AccDes= 0.00D+00.
 End of G2Drv F.D. properties file   721 does not exist.
 End of G2Drv F.D. properties file   722 does not exist.
 End of G2Drv F.D. properties file   788 does not exist.
          IDoAtm=111111111111111111111111111111
          Differentiating once with respect to nuclear coordinates.
          There are    93 degrees of freedom in the 1st order CPHF.  IDoFFX=6 NUNeed=     0.
     87 vectors produced by pass  0 Test12= 1.15D-14 1.08D-09 XBig12= 1.19D-01 6.10D-02.
 AX will form    87 AO Fock derivatives at one time.
     87 vectors produced by pass  1 Test12= 1.15D-14 1.08D-09 XBig12= 1.16D-02 1.24D-02.
     87 vectors produced by pass  2 Test12= 1.15D-14 1.08D-09 XBig12= 8.66D-05 1.33D-03.
     87 vectors produced by pass  3 Test12= 1.15D-14 1.08D-09 XBig12= 1.88D-07 4.25D-05.
     87 vectors produced by pass  4 Test12= 1.15D-14 1.08D-09 XBig12= 2.75D-10 1.42D-06.
     63 vectors produced by pass  5 Test12= 1.15D-14 1.08D-09 XBig12= 1.88D-13 4.26D-08.
 InvSVY:  IOpt=1 It=  1 EMax= 3.89D-16
 Solved reduced A of dimension   498 with    93 vectors.
 End of Minotr F.D. properties file   721 does not exist.
 End of Minotr F.D. properties file   722 does not exist.
 End of Minotr F.D. properties file   788 does not exist.

 **********************************************************************

            Population analysis using the SCF density.

 **********************************************************************

 Orbital symmetries:
       Occupied  (A) (A) (A) (A) (A) (A) (A) (A) (A) (A) (A) (A)
                 (A) (A) (A) (A) (A) (A) (A) (A) (A) (A) (A) (A)
                 (A) (A) (A) (A) (A) (A) (A) (A) (A) (A) (A) (A)
                 (A) (A) (A) (A) (A) (A) (A) (A) (A) (A) (A) (A)
                 (A) (A) (A) (A) (A) (A) (A) (A) (A) (A)
       Virtual   (A) (A) (A) (A) (A) (A) (A) (A) (A) (A) (A) (A)
                 (A) (A) (A) (A) (A) (A) (A) (A) (A) (A) (A) (A)
                 (A) (A) (A) (A) (A) (A) (A) (A) (A) (A) (A) (A)
                 (A) (A) (A) (A) (A) (A) (A) (A) (A) (A) (A) (A)
                 (A) (A) (A) (A) (A) (A) (A) (A) (A) (A) (A) (A)
                 (A) (A) (A) (A) (A) (A) (A) (A) (A) (A) (A) (A)
                 (A) (A) (A) (A) (A) (A) (A) (A) (A) (A) (A) (A)
                 (A) (A) (A) (A) (A) (A) (A) (A) (A) (A) (A) (A)
                 (A) (A) (A) (A) (A) (A) (A) (A) (A) (A) (A) (A)
                 (A) (A) (A) (A) (A) (A) (A) (A) (A) (A) (A) (A)
                 (A) (A) (A) (A) (A) (A) (A) (A) (A) (A) (A) (A)
                 (A) (A) (A) (A) (A) (A) (A) (A) (A) (A) (A) (A)
                 (A) (A) (A) (A) (A) (A) (A) (A) (A) (A) (A) (A)
                 (A) (A) (A) (A) (A) (A) (A) (A) (A) (A) (A) (A)
                 (A) (A) (A) (A) (A) (A) (A) (A) (A) (A) (A) (A)
                 (A) (A) (A) (A)
 The electronic state is 1-A.
 Alpha  occ. eigenvalues --  -19.16902 -19.16378 -19.16193 -19.16062 -19.15687
 Alpha  occ. eigenvalues --  -19.15417 -19.14069 -19.12976 -10.29340 -10.24252
 Alpha  occ. eigenvalues --  -10.23805 -10.23791 -10.23738 -10.23457  -1.08024
 Alpha  occ. eigenvalues --   -1.03573  -1.02845  -1.02333  -1.01782  -1.01048
 Alpha  occ. eigenvalues --   -1.00706  -0.99778  -0.78015  -0.76086  -0.69045
 Alpha  occ. eigenvalues --   -0.64808  -0.62842  -0.58160  -0.54698  -0.53986
 Alpha  occ. eigenvalues --   -0.53594  -0.53426  -0.52414  -0.50914  -0.50107
 Alpha  occ. eigenvalues --   -0.46951  -0.45815  -0.43855  -0.42988  -0.42474
 Alpha  occ. eigenvalues --   -0.41806  -0.41190  -0.40808  -0.39883  -0.38158
 Alpha  occ. eigenvalues --   -0.36504  -0.35420  -0.34116  -0.33540  -0.33124
 Alpha  occ. eigenvalues --   -0.31830  -0.30965  -0.30018  -0.29904  -0.29118
 Alpha  occ. eigenvalues --   -0.27524  -0.25795  -0.24689
 Alpha virt. eigenvalues --    0.04290   0.06299   0.06990   0.08468   0.09781
 Alpha virt. eigenvalues --    0.10644   0.11183   0.12909   0.13890   0.15027
 Alpha virt. eigenvalues --    0.15171   0.15742   0.17095   0.18540   0.19157
 Alpha virt. eigenvalues --    0.20248   0.20374   0.22926   0.23056   0.23750
 Alpha virt. eigenvalues --    0.24742   0.25165   0.27292   0.28546   0.30587
 Alpha virt. eigenvalues --    0.32529   0.33630   0.35050   0.53302   0.53659
 Alpha virt. eigenvalues --    0.53990   0.55145   0.56578   0.58183   0.60215
 Alpha virt. eigenvalues --    0.60455   0.61024   0.62118   0.64845   0.65431
 Alpha virt. eigenvalues --    0.67051   0.69868   0.73304   0.75136   0.77189
 Alpha virt. eigenvalues --    0.77265   0.78722   0.79286   0.79797   0.80849
 Alpha virt. eigenvalues --    0.81553   0.82982   0.83885   0.85383   0.85433
 Alpha virt. eigenvalues --    0.85805   0.87504   0.88367   0.88517   0.90012
 Alpha virt. eigenvalues --    0.90162   0.91254   0.92080   0.93470   0.96129
 Alpha virt. eigenvalues --    0.97167   0.97873   0.99154   1.00385   1.02095
 Alpha virt. eigenvalues --    1.03433   1.05160   1.05773   1.06631   1.08658
 Alpha virt. eigenvalues --    1.09868   1.10943   1.12890   1.14372   1.14992
 Alpha virt. eigenvalues --    1.18094   1.19429   1.20506   1.22609   1.26405
 Alpha virt. eigenvalues --    1.27643   1.30111   1.31723   1.33598   1.35624
 Alpha virt. eigenvalues --    1.39320   1.43400   1.46518   1.47948   1.51888
 Alpha virt. eigenvalues --    1.52406   1.55020   1.57239   1.59100   1.60073
 Alpha virt. eigenvalues --    1.60932   1.65198   1.66814   1.68552   1.69720
 Alpha virt. eigenvalues --    1.70954   1.71076   1.71471   1.72914   1.73231
 Alpha virt. eigenvalues --    1.74159   1.75124   1.76377   1.78198   1.78626
 Alpha virt. eigenvalues --    1.80204   1.81837   1.82057   1.83663   1.85019
 Alpha virt. eigenvalues --    1.87028   1.87875   1.89509   1.93148   1.95997
 Alpha virt. eigenvalues --    1.99333   2.01092   2.02582   2.06074   2.07103
 Alpha virt. eigenvalues --    2.07978   2.08206   2.11514   2.14273   2.17538
 Alpha virt. eigenvalues --    2.20168   2.20379   2.24289   2.27804   2.31367
 Alpha virt. eigenvalues --    2.31872   2.33658   2.34292   2.36342   2.38980
 Alpha virt. eigenvalues --    2.40260   2.44016   2.47812   2.48471   2.51513
 Alpha virt. eigenvalues --    2.52156   2.54985   2.56132   2.57682   2.58407
 Alpha virt. eigenvalues --    2.59259   2.62798   2.64325   2.67788   2.71382
 Alpha virt. eigenvalues --    2.73081   2.79729   2.82415   2.85255   2.89710
 Alpha virt. eigenvalues --    2.93477   2.97058   2.98523   3.01833   3.12840
 Alpha virt. eigenvalues --    3.71731   3.76063   3.80428   3.81531   3.92583
 Alpha virt. eigenvalues --    3.98598   4.03735   4.11959   4.27775   4.33961
 Alpha virt. eigenvalues --    4.54243   4.54760   4.71969   4.89203
          Condensed to atoms (all electrons):
               1          2          3          4          5          6
     1  C    5.053820  -0.032961   0.287898  -0.030552   0.001242   0.006371
     2  C   -0.032961   5.115609   0.287045   0.261703  -0.066680   0.360030
     3  C    0.287898   0.287045   4.921956  -0.017983   0.003600  -0.042401
     4  C   -0.030552   0.261703  -0.017983   5.024772   0.361389  -0.060602
     5  H    0.001242  -0.066680   0.003600   0.361389   0.622928   0.003489
     6  H    0.006371   0.360030  -0.042401  -0.060602   0.003489   0.605887
     7  H    0.352217   0.006038  -0.053119  -0.000100   0.000035  -0.000173
     8  H   -0.056103  -0.043518   0.371768   0.005605  -0.000295  -0.006041
     9  C   -0.023953  -0.018749   0.003278   0.307313  -0.034884   0.004092
    10  O    0.168795  -0.005943  -0.028563  -0.035488   0.002880   0.000017
    11  C    0.316490  -0.003703  -0.014142   0.000271   0.000039  -0.000072
    12  H   -0.044241   0.000310  -0.000925  -0.000037   0.000001   0.000011
    13  H   -0.040657  -0.000877  -0.005251   0.000420   0.000055   0.000104
    14  O   -0.044619  -0.000040   0.002201  -0.000039  -0.000002   0.000001
    15  H   -0.006738   0.000085  -0.000206  -0.000011   0.000008   0.000000
    16  O    0.000304  -0.045138   0.001587   0.244687  -0.039680   0.007985
    17  H    0.000072  -0.001272   0.000141  -0.035880   0.006769  -0.000118
    18  O    0.006088   0.165596  -0.040315  -0.034074   0.004321  -0.028759
    19  H   -0.000193  -0.020505   0.006365  -0.003046   0.006116  -0.004924
    20  O   -0.037827  -0.051012   0.262943   0.005747   0.000014   0.005165
    21  H   -0.002600  -0.003182  -0.035508   0.000980   0.000029  -0.000723
    22  O   -0.000243  -0.000000  -0.000002  -0.000018   0.000001  -0.000000
    23  H   -0.000419  -0.000211   0.000093   0.004713  -0.000106   0.000014
    24  H    0.000087  -0.000000   0.000007   0.000026  -0.000000   0.000000
    25  H    0.000007   0.000000   0.000001  -0.000000  -0.000000  -0.000000
    26  O    0.006730  -0.004477  -0.001465  -0.051170   0.003612  -0.000018
    27  H    0.005878   0.005404  -0.000138  -0.049256  -0.008082  -0.000193
    28  O    0.001626  -0.000001   0.000042  -0.000003   0.000000  -0.000000
    29  H    0.000141  -0.000000   0.000005   0.000000  -0.000000  -0.000000
    30  H   -0.002608  -0.000013   0.000559   0.000108  -0.000004   0.000000
               7          8          9         10         11         12
     1  C    0.352217  -0.056103  -0.023953   0.168795   0.316490  -0.044241
     2  C    0.006038  -0.043518  -0.018749  -0.005943  -0.003703   0.000310
     3  C   -0.053119   0.371768   0.003278  -0.028563  -0.014142  -0.000925
     4  C   -0.000100   0.005605   0.307313  -0.035488   0.000271  -0.000037
     5  H    0.000035  -0.000295  -0.034884   0.002880   0.000039   0.000001
     6  H   -0.000173  -0.006041   0.004092   0.000017  -0.000072   0.000011
     7  H    0.644338   0.001772  -0.005281  -0.046845  -0.044425  -0.001972
     8  H    0.001772   0.600122  -0.000224   0.003045  -0.002192   0.003096
     9  C   -0.005281  -0.000224   4.718100   0.205210   0.004342  -0.000098
    10  O   -0.046845   0.003045   0.205210   8.388894  -0.038803   0.003255
    11  C   -0.044425  -0.002192   0.004342  -0.038803   4.929021   0.368409
    12  H   -0.001972   0.003096  -0.000098   0.003255   0.368409   0.579688
    13  H    0.005697   0.001276  -0.000424  -0.000666   0.360712  -0.031592
    14  O   -0.000953   0.000091   0.000214  -0.005754   0.236820  -0.035350
    15  H    0.000061  -0.000001   0.000024   0.010240  -0.025033   0.006692
    16  O    0.000027  -0.000090  -0.025478   0.001288  -0.000001   0.000000
    17  H   -0.000025   0.000009  -0.017442   0.000589  -0.000001  -0.000000
    18  O   -0.000105   0.005104   0.000737  -0.000697  -0.006347   0.000145
    19  H    0.000014  -0.000329   0.000103   0.000003   0.000175  -0.000008
    20  O    0.003408  -0.040217   0.000859   0.000764   0.002536  -0.000103
    21  H    0.001040   0.006160  -0.007529   0.000178   0.000101   0.000010
    22  O    0.000598  -0.000000   0.002085  -0.000362   0.000003  -0.000000
    23  H   -0.000198  -0.000000  -0.012794   0.003553  -0.000011  -0.000001
    24  H    0.000143  -0.000000   0.000308   0.000652  -0.000006  -0.000000
    25  H    0.000072   0.000000  -0.000091   0.000011  -0.000000   0.000000
    26  O    0.004220  -0.000028   0.212302  -0.055998   0.000254   0.000007
    27  H   -0.000095   0.000017   0.385435  -0.050044  -0.000229   0.000006
    28  O    0.003835   0.000000   0.000197  -0.005732  -0.000207  -0.000022
    29  H    0.000402   0.000000  -0.000015   0.000080  -0.000138  -0.000018
    30  H   -0.000758  -0.000009  -0.000550   0.024928  -0.005004   0.000118
              13         14         15         16         17         18
     1  C   -0.040657  -0.044619  -0.006738   0.000304   0.000072   0.006088
     2  C   -0.000877  -0.000040   0.000085  -0.045138  -0.001272   0.165596
     3  C   -0.005251   0.002201  -0.000206   0.001587   0.000141  -0.040315
     4  C    0.000420  -0.000039  -0.000011   0.244687  -0.035880  -0.034074
     5  H    0.000055  -0.000002   0.000008  -0.039680   0.006769   0.004321
     6  H    0.000104   0.000001   0.000000   0.007985  -0.000118  -0.028759
     7  H    0.005697  -0.000953   0.000061   0.000027  -0.000025  -0.000105
     8  H    0.001276   0.000091  -0.000001  -0.000090   0.000009   0.005104
     9  C   -0.000424   0.000214   0.000024  -0.025478  -0.017442   0.000737
    10  O   -0.000666  -0.005754   0.010240   0.001288   0.000589  -0.000697
    11  C    0.360712   0.236820  -0.025033  -0.000001  -0.000001  -0.006347
    12  H   -0.031592  -0.035350   0.006692   0.000000  -0.000000   0.000145
    13  H    0.556612  -0.028259  -0.008142   0.000000   0.000000   0.015595
    14  O   -0.028259   8.241549   0.233143   0.000000   0.000000   0.000024
    15  H   -0.008142   0.233143   0.381222   0.000000  -0.000000  -0.000001
    16  O    0.000000   0.000000   0.000000   8.261885   0.236035   0.001449
    17  H    0.000000   0.000000  -0.000000   0.236035   0.366070  -0.000044
    18  O    0.015595   0.000024  -0.000001   0.001449  -0.000044   8.318307
    19  H   -0.000244  -0.000003  -0.000000   0.000156   0.000002   0.228704
    20  O   -0.000008  -0.000011  -0.000001  -0.000446   0.001173   0.001507
    21  H    0.000001   0.000000  -0.000000   0.000509   0.001100  -0.000042
    22  O   -0.000000  -0.000000   0.000001  -0.000001   0.000016  -0.000000
    23  H   -0.000000  -0.000002  -0.000002  -0.000011  -0.000171   0.000002
    24  H    0.000000   0.000013  -0.000011   0.000000  -0.000001   0.000000
    25  H    0.000000   0.000000  -0.000000   0.000000  -0.000002  -0.000000
    26  O    0.000002  -0.000005   0.000014  -0.011155   0.031929   0.000018
    27  H   -0.000009   0.000017   0.000002   0.002811   0.000307  -0.000206
    28  O   -0.000022  -0.008718   0.001055   0.000000   0.000000  -0.000000
    29  H    0.000011   0.003059  -0.000280  -0.000000   0.000000  -0.000000
    30  H    0.000404   0.037188  -0.000359  -0.000000  -0.000000   0.000001
              19         20         21         22         23         24
     1  C   -0.000193  -0.037827  -0.002600  -0.000243  -0.000419   0.000087
     2  C   -0.020505  -0.051012  -0.003182  -0.000000  -0.000211  -0.000000
     3  C    0.006365   0.262943  -0.035508  -0.000002   0.000093   0.000007
     4  C   -0.003046   0.005747   0.000980  -0.000018   0.004713   0.000026
     5  H    0.006116   0.000014   0.000029   0.000001  -0.000106  -0.000000
     6  H   -0.004924   0.005165  -0.000723  -0.000000   0.000014   0.000000
     7  H    0.000014   0.003408   0.001040   0.000598  -0.000198   0.000143
     8  H   -0.000329  -0.040217   0.006160  -0.000000  -0.000000  -0.000000
     9  C    0.000103   0.000859  -0.007529   0.002085  -0.012794   0.000308
    10  O    0.000003   0.000764   0.000178  -0.000362   0.003553   0.000652
    11  C    0.000175   0.002536   0.000101   0.000003  -0.000011  -0.000006
    12  H   -0.000008  -0.000103   0.000010  -0.000000  -0.000001  -0.000000
    13  H   -0.000244  -0.000008   0.000001  -0.000000  -0.000000   0.000000
    14  O   -0.000003  -0.000011   0.000000  -0.000000  -0.000002   0.000013
    15  H   -0.000000  -0.000001  -0.000000   0.000001  -0.000002  -0.000011
    16  O    0.000156  -0.000446   0.000509  -0.000001  -0.000011   0.000000
    17  H    0.000002   0.001173   0.001100   0.000016  -0.000171  -0.000001
    18  O    0.228704   0.001507  -0.000042  -0.000000   0.000002   0.000000
    19  H    0.390428  -0.000127   0.000007   0.000000  -0.000000   0.000000
    20  O   -0.000127   8.305404   0.224757  -0.000003   0.000498  -0.000001
    21  H    0.000007   0.224757   0.345433   0.000032  -0.000641  -0.000008
    22  O    0.000000  -0.000003   0.000032   8.340489   0.094879   0.206426
    23  H   -0.000000   0.000498  -0.000641   0.094879   0.285904  -0.005494
    24  H    0.000000  -0.000001  -0.000008   0.206426  -0.005494   0.296236
    25  H   -0.000000   0.000001  -0.000001   0.240099  -0.005285  -0.012305
    26  O    0.000001  -0.021193   0.052417  -0.038138   0.184307   0.002689
    27  H   -0.000005  -0.000091   0.000747   0.000688  -0.004332  -0.000130
    28  O   -0.000000   0.000000  -0.000002  -0.028004   0.000480   0.071119
    29  H    0.000000  -0.000000   0.000000   0.001222  -0.000012  -0.003139
    30  H   -0.000000  -0.000013  -0.000016   0.001647   0.000117  -0.003896
              25         26         27         28         29         30
     1  C    0.000007   0.006730   0.005878   0.001626   0.000141  -0.002608
     2  C    0.000000  -0.004477   0.005404  -0.000001  -0.000000  -0.000013
     3  C    0.000001  -0.001465  -0.000138   0.000042   0.000005   0.000559
     4  C   -0.000000  -0.051170  -0.049256  -0.000003   0.000000   0.000108
     5  H   -0.000000   0.003612  -0.008082   0.000000  -0.000000  -0.000004
     6  H   -0.000000  -0.000018  -0.000193  -0.000000  -0.000000   0.000000
     7  H    0.000072   0.004220  -0.000095   0.003835   0.000402  -0.000758
     8  H    0.000000  -0.000028   0.000017   0.000000   0.000000  -0.000009
     9  C   -0.000091   0.212302   0.385435   0.000197  -0.000015  -0.000550
    10  O    0.000011  -0.055998  -0.050044  -0.005732   0.000080   0.024928
    11  C   -0.000000   0.000254  -0.000229  -0.000207  -0.000138  -0.005004
    12  H    0.000000   0.000007   0.000006  -0.000022  -0.000018   0.000118
    13  H    0.000000   0.000002  -0.000009  -0.000022   0.000011   0.000404
    14  O    0.000000  -0.000005   0.000017  -0.008718   0.003059   0.037188
    15  H   -0.000000   0.000014   0.000002   0.001055  -0.000280  -0.000359
    16  O    0.000000  -0.011155   0.002811   0.000000  -0.000000  -0.000000
    17  H   -0.000002   0.031929   0.000307   0.000000   0.000000  -0.000000
    18  O   -0.000000   0.000018  -0.000206  -0.000000  -0.000000   0.000001
    19  H   -0.000000   0.000001  -0.000005  -0.000000   0.000000  -0.000000
    20  O    0.000001  -0.021193  -0.000091   0.000000  -0.000000  -0.000013
    21  H   -0.000001   0.052417   0.000747  -0.000002   0.000000  -0.000016
    22  O    0.240099  -0.038138   0.000688  -0.028004   0.001222   0.001647
    23  H   -0.005285   0.184307  -0.004332   0.000480  -0.000012   0.000117
    24  H   -0.012305   0.002689  -0.000130   0.071119  -0.003139  -0.003896
    25  H    0.376098   0.002157  -0.000023   0.001406  -0.000072  -0.000050
    26  O    0.002157   8.424566  -0.041073  -0.000109   0.000002   0.000090
    27  H   -0.000023  -0.041073   0.603168   0.000109  -0.000002  -0.000339
    28  O    0.001406  -0.000109   0.000109   8.328125   0.247523   0.208299
    29  H   -0.000072   0.000002  -0.000002   0.247523   0.364346  -0.017396
    30  H   -0.000050   0.000090  -0.000339   0.208299  -0.017396   0.315108
 Mulliken charges:
               1
     1  C    0.115947
     2  C    0.096462
     3  C    0.090531
     4  C    0.100522
     5  H    0.133207
     6  H    0.150858
     7  H    0.130132
     8  H    0.150983
     9  C    0.302913
    10  O   -0.539487
    11  C   -0.078859
    12  H    0.152619
    13  H    0.175259
    14  O   -0.630566
    15  H    0.408238
    16  O   -0.636721
    17  H    0.410746
    18  O   -0.637005
    19  H    0.397311
    20  O   -0.663723
    21  H    0.416750
    22  O   -0.821415
    23  H    0.455132
    24  H    0.447286
    25  H    0.397977
    26  O   -0.700488
    27  H    0.149657
    28  O   -0.820997
    29  H    0.404283
    30  H    0.442448
 Sum of Mulliken charges =  -0.00000
 Mulliken charges with hydrogens summed into heavy atoms:
               1
     1  C    0.246079
     2  C    0.247320
     3  C    0.241514
     4  C    0.233729
     9  C    0.452570
    10  O   -0.539487
    11  C    0.249019
    14  O   -0.222328
    16  O   -0.225975
    18  O   -0.239695
    20  O   -0.246973
    22  O    0.023848
    26  O   -0.245356
    28  O    0.025734
 APT charges:
               1
     1  C   -0.179942
     2  C   -0.351988
     3  C   -0.422349
     4  C   -0.264821
     5  H    0.435565
     6  H    0.531768
     7  H    0.320771
     8  H    0.527717
     9  C   -0.289557
    10  O   -0.415201
    11  C   -0.733625
    12  H    0.546429
    13  H    0.386895
    14  O   -0.631645
    15  H    0.502321
    16  O   -0.554281
    17  H    0.461449
    18  O   -0.956448
    19  H    0.821253
    20  O   -0.521827
    21  H    0.377191
    22  O   -1.117432
    23  H    0.546365
    24  H    0.365266
    25  H    0.789027
    26  O   -0.712386
    27  H    0.490062
    28  O   -0.932198
    29  H    0.818433
    30  H    0.163191
 Sum of APT charges =  -0.00000
 APT charges with hydrogens summed into heavy atoms:
               1
     1  C    0.140828
     2  C    0.179780
     3  C    0.105367
     4  C    0.170744
     9  C    0.200505
    10  O   -0.415201
    11  C    0.199698
    14  O   -0.129324
    16  O   -0.092832
    18  O   -0.135195
    20  O   -0.144636
    22  O    0.036861
    26  O   -0.166021
    28  O    0.049425
 Electronic spatial extent (au):  <R**2>=           3023.6019
 Charge=             -0.0000 electrons
 Dipole moment (field-independent basis, Debye):
    X=             -1.7981    Y=              1.2080    Z=             -0.1177  Tot=              2.1694
 Quadrupole moment (field-independent basis, Debye-Ang):
   XX=            -79.9453   YY=            -86.3438   ZZ=            -82.5642
   XY=              4.4065   XZ=            -11.0164   YZ=             -6.0552
 Traceless Quadrupole moment (field-independent basis, Debye-Ang):
   XX=              3.0058   YY=             -3.3927   ZZ=              0.3869
   XY=              4.4065   XZ=            -11.0164   YZ=             -6.0552
 Octapole moment (field-independent basis, Debye-Ang**2):
  XXX=            -36.1268  YYY=            -17.6277  ZZZ=            -25.8878  XYY=             -8.2157
  XXY=             14.2121  XXZ=             19.9998  XZZ=            -17.7477  YZZ=              3.3679
  YYZ=             17.3917  XYZ=              5.2063
 Hexadecapole moment (field-independent basis, Debye-Ang**3):
 XXXX=          -1599.1379 YYYY=          -1303.9515 ZZZZ=           -492.7913 XXXY=             58.8048
 XXXZ=           -143.8759 YYYX=             29.7789 YYYZ=            -64.3787 ZZZX=            -37.5098
 ZZZY=            -31.0887 XXYY=           -544.1600 XXZZ=           -346.4005 YYZZ=           -247.4526
 XXYZ=            -78.4230 YYXZ=            -16.1301 ZZXY=             27.3275
 N-N= 1.122619354666D+03 E-N=-4.217823180168D+03  KE= 8.328820706586D+02
  Exact polarizability:   0.000   0.000   0.000   0.000   0.000   0.000
 Approx polarizability: 125.340  -1.115 131.609  -3.482  -3.771 125.134
 Calling FoFJK, ICntrl=    100147 FMM=F ISym2X=0 I1Cent= 0 IOpClX= 0 NMat=1 NMatS=1 NMatT=0.
 ***** Axes restored to original set *****
 -------------------------------------------------------------------
 Center     Atomic                   Forces (Hartrees/Bohr)
 Number     Number              X              Y              Z
 -------------------------------------------------------------------
      1        6           0.000007856   -0.000003485    0.000005278
      2        6           0.000006235   -0.000009072   -0.000007188
      3        6          -0.000001028   -0.000005152   -0.000002445
      4        6          -0.000002324    0.000002726   -0.000008392
      5        1          -0.000002710    0.000002100   -0.000003098
      6        1          -0.000001958   -0.000001537   -0.000005419
      7        1           0.000001222   -0.000001632    0.000003373
      8        1           0.000004618   -0.000000589    0.000002008
      9        6          -0.000009023   -0.000001038   -0.000002165
     10        8          -0.000002000    0.000003802    0.000001734
     11        6           0.000000908    0.000002062    0.000003022
     12        1           0.000003074   -0.000000464    0.000007138
     13        1           0.000000238   -0.000001078    0.000005324
     14        8           0.000004206    0.000005768    0.000025230
     15        1           0.000000904    0.000001854    0.000000886
     16        8          -0.000007287   -0.000000902   -0.000017369
     17        1          -0.000001368   -0.000001283   -0.000006506
     18        8           0.000000543    0.000001098   -0.000004236
     19        1          -0.000001543    0.000000027   -0.000001636
     20        8           0.000006661   -0.000013202   -0.000008190
     21        1           0.000002523   -0.000002453   -0.000000905
     22        8          -0.000003953    0.000001182    0.000003478
     23        1          -0.000002017    0.000000203   -0.000002274
     24        1          -0.000001473    0.000003063    0.000001600
     25        1           0.000000995    0.000001121   -0.000003053
     26        8           0.000000949    0.000001687   -0.000009587
     27        1          -0.000002721    0.000003076   -0.000001291
     28        8           0.000001934    0.000007952    0.000012532
     29        1          -0.000000656    0.000003177    0.000007618
     30        1          -0.000002805    0.000000993    0.000004532
 -------------------------------------------------------------------
 Cartesian Forces:  Max     0.000025230 RMS     0.000005396

 GradGradGradGradGradGradGradGradGradGradGradGradGradGradGradGradGradGrad
 Berny optimization.
 Search for a saddle point.
 Step number   1 out of a maximum of  180
 All quantities printed in internal units (Hartrees-Bohrs-Radians)
 Swapping is turned off.
 Second derivative matrix not updated -- analytic derivatives used.
 ITU=  0
     Eigenvalues ---   -0.00274   0.00026   0.00044   0.00109   0.00157
     Eigenvalues ---    0.00223   0.00294   0.00348   0.00408   0.00463
     Eigenvalues ---    0.00571   0.00620   0.00831   0.00964   0.01132
     Eigenvalues ---    0.01373   0.01518   0.01587   0.01685   0.01795
     Eigenvalues ---    0.02071   0.02493   0.02859   0.03314   0.03664
     Eigenvalues ---    0.03809   0.04152   0.04339   0.04575   0.04892
     Eigenvalues ---    0.05314   0.05438   0.05864   0.05908   0.06616
     Eigenvalues ---    0.06711   0.06942   0.07123   0.07639   0.08658
     Eigenvalues ---    0.09361   0.10006   0.11461   0.11961   0.13415
     Eigenvalues ---    0.14483   0.16687   0.17306   0.17705   0.18119
     Eigenvalues ---    0.18403   0.20086   0.22369   0.24691   0.25150
     Eigenvalues ---    0.26932   0.33571   0.35380   0.41907   0.46888
     Eigenvalues ---    0.53033   0.54342   0.58343   0.60877   0.63397
     Eigenvalues ---    0.65601   0.66153   0.67522   0.72816   0.73878
     Eigenvalues ---    0.79830   0.82753   0.84581   0.85741   0.86320
     Eigenvalues ---    0.87481   0.90388   0.93588   0.99148   1.02219
     Eigenvalues ---    1.03614   1.04753   1.06918   1.12344
 Eigenvectors required to have negative eigenvalues:
                          Y30       X29       X30       Z30       Y29
   1                    0.56674  -0.46601  -0.33510   0.27725  -0.17186
                          Z28       Z29       Y28       Y14       Y24
   1                    0.15654   0.13796   0.12891  -0.12838   0.11659
 RFO step:  Lambda0=7.080182794D-13 Lambda= 0.00000000D+00.
 Linear search not attempted -- option 19 set.
 B after Tr=    -0.000001   -0.000000   -0.000000
         Rot=    1.000000   -0.000000   -0.000000   -0.000000 Ang=  -0.00 deg.
 Variable       Old X    -DE/DX   Delta X   Delta X   Delta X     New X
                                 (Linear)    (Quad)   (Total)
    X1       -0.50945   0.00001   0.00000  -0.00000  -0.00000  -0.50945
    Y1        1.77853  -0.00000   0.00000   0.00000   0.00000   1.77854
    Z1        1.06479   0.00001   0.00000  -0.00000  -0.00000   1.06478
    X2        4.07918   0.00001   0.00000   0.00000   0.00000   4.07919
    Y2        0.69583  -0.00001   0.00000  -0.00001  -0.00001   0.69582
    Z2        0.10802  -0.00001   0.00000   0.00000   0.00000   0.10802
    X3        2.14320  -0.00000   0.00000  -0.00002  -0.00002   2.14318
    Y3        1.30608  -0.00001   0.00000   0.00000   0.00000   1.30609
    Z3        2.19399  -0.00000   0.00000  -0.00000  -0.00000   2.19399
    X4        3.19679  -0.00000   0.00000  -0.00000  -0.00000   3.19679
    Y4       -1.43818   0.00000   0.00000   0.00001   0.00001  -1.43817
    Z4       -1.72944  -0.00001   0.00000  -0.00000  -0.00000  -1.72944
    X5        3.60533  -0.00000   0.00000  -0.00001  -0.00001   3.60532
    Y5       -0.76721   0.00000   0.00000   0.00002   0.00002  -0.76719
    Z5       -3.64778  -0.00000   0.00000   0.00000  -0.00000  -3.64778
    X6        5.81284  -0.00000   0.00000  -0.00002  -0.00002   5.81282
    Y6        0.03112  -0.00000   0.00000  -0.00001  -0.00001   0.03111
    Z6        1.03240  -0.00001   0.00000   0.00002   0.00001   1.03241
    X7       -1.90698   0.00000   0.00000  -0.00001  -0.00001  -1.90699
    Y7        1.11037  -0.00000   0.00000   0.00002   0.00002   1.11038
    Z7        2.44699   0.00000   0.00000   0.00001   0.00001   2.44700
    X8        2.78204   0.00000   0.00000  -0.00001  -0.00001   2.78203
    Y8        3.03333  -0.00000   0.00000   0.00000   0.00000   3.03333
    Z8        3.14095   0.00000   0.00000   0.00001   0.00001   3.14096
    X9        0.32284  -0.00001   0.00000  -0.00001  -0.00001   0.32283
    Y9       -1.88570  -0.00000   0.00000  -0.00001  -0.00001  -1.88571
    Z9       -1.57015  -0.00000   0.00000   0.00001   0.00001  -1.57015
   X10       -0.95529  -0.00000   0.00000  -0.00001  -0.00001  -0.95531
   Y10        0.45280   0.00000   0.00000  -0.00001  -0.00001   0.45279
   Z10       -1.28755   0.00000   0.00000   0.00000   0.00000  -1.28754
   X11       -1.04419   0.00000   0.00000  -0.00000  -0.00000  -1.04419
   Y11        4.55027   0.00000   0.00000   0.00001   0.00001   4.55028
   Z11        0.45954   0.00000   0.00000  -0.00003  -0.00002   0.45952
   X12       -1.18325   0.00000   0.00000   0.00002   0.00002  -1.18323
   Y12        5.62772  -0.00000   0.00000   0.00002   0.00002   5.62773
   Z12        2.21984   0.00001   0.00000  -0.00002  -0.00002   2.21982
   X13        0.49632   0.00000   0.00000   0.00000   0.00000   0.49632
   Y13        5.33307  -0.00000   0.00000  -0.00002  -0.00002   5.33305
   Z13       -0.67877   0.00001   0.00000  -0.00003  -0.00003  -0.67880
   X14       -3.42195   0.00000   0.00000   0.00000  -0.00000  -3.42195
   Y14        4.82252   0.00001   0.00000   0.00001   0.00001   4.82254
   Z14       -0.80807   0.00003   0.00000   0.00000   0.00000  -0.80806
   X15       -3.10765   0.00000   0.00000  -0.00001  -0.00001  -3.10767
   Y15        4.42306   0.00000   0.00000   0.00001   0.00001   4.42307
   Z15       -2.56933   0.00000   0.00000  -0.00001  -0.00001  -2.56934
   X16        4.53555  -0.00001   0.00000  -0.00000  -0.00000   4.53555
   Y16       -3.72849  -0.00000   0.00000   0.00000   0.00001  -3.72848
   Z16       -1.40650  -0.00002   0.00000  -0.00002  -0.00002  -1.40653
   X17        3.56433  -0.00000   0.00000   0.00001   0.00001   3.56433
   Y17       -4.71575  -0.00000   0.00000  -0.00000  -0.00000  -4.71576
   Z17       -0.19655  -0.00001   0.00000  -0.00002  -0.00002  -0.19657
   X18        4.50858   0.00000   0.00000   0.00002   0.00002   4.50860
   Y18        3.01566   0.00000   0.00000   0.00000   0.00000   3.01567
   Z18       -1.21326  -0.00000   0.00000   0.00001   0.00001  -1.21325
   X19        5.85662  -0.00000   0.00000   0.00003   0.00003   5.85665
   Y19        2.73171   0.00000   0.00000   0.00000   0.00000   2.73172
   Z19       -2.42185  -0.00000   0.00000   0.00003   0.00003  -2.42183
   X20        2.11547   0.00001   0.00000  -0.00002  -0.00002   2.11545
   Y20       -0.59413  -0.00001   0.00000  -0.00001  -0.00001  -0.59414
   Z20        4.08111  -0.00001   0.00000  -0.00001  -0.00001   4.08110
   X21        1.27419   0.00000   0.00000  -0.00002  -0.00002   1.27417
   Y21       -2.05143  -0.00000   0.00000  -0.00001  -0.00001  -2.05144
   Z21        3.31552  -0.00000   0.00000   0.00000   0.00000   3.31553
   X22       -5.05020  -0.00000   0.00000   0.00001   0.00001  -5.05019
   Y22       -4.61288   0.00000   0.00000  -0.00001  -0.00001  -4.61288
   Z22        0.38598   0.00000   0.00000   0.00001   0.00001   0.38598
   X23       -1.94060  -0.00000   0.00000   0.00001   0.00001  -1.94059
   Y23       -4.10071   0.00000   0.00000  -0.00001  -0.00001  -4.10072
   Z23        0.41873  -0.00000   0.00000   0.00000   0.00000   0.41873
   X24       -5.81404  -0.00000   0.00000   0.00001   0.00001  -5.81403
   Y24       -2.94085   0.00000   0.00000  -0.00000  -0.00000  -2.94085
   Z24        0.01771   0.00000   0.00000   0.00000   0.00000   0.01771
   X25       -5.64970   0.00000   0.00000   0.00001   0.00001  -5.64968
   Y25       -5.05757   0.00000   0.00000   0.00001   0.00001  -5.05756
   Z25        2.05755  -0.00000   0.00000   0.00001   0.00000   2.05756
   X26       -0.12221   0.00000   0.00000   0.00001   0.00001  -0.12220
   Y26       -3.56678   0.00000   0.00000  -0.00000  -0.00000  -3.56678
   Z26        0.44358  -0.00001   0.00000   0.00000  -0.00000   0.44358
   X27       -0.41355  -0.00000   0.00000   0.00000  -0.00000  -0.41355
   Y27       -2.67487   0.00000   0.00000  -0.00001  -0.00001  -2.67488
   Z27       -3.33608  -0.00000   0.00000   0.00001   0.00001  -3.33608
   X28       -6.59877   0.00000   0.00000  -0.00000  -0.00000  -6.59878
   Y28        0.16299   0.00001   0.00000   0.00000   0.00000   0.16299
   Z28       -0.73236   0.00001   0.00000   0.00001   0.00001  -0.73235
   X29       -7.57281  -0.00000   0.00000   0.00001   0.00001  -7.57280
   Y29        1.27993   0.00000   0.00000   0.00001   0.00001   1.27994
   Z29        0.34164   0.00001   0.00000   0.00002   0.00002   0.34167
   X30       -5.02280  -0.00000   0.00000  -0.00001  -0.00001  -5.02281
   Y30        1.08349   0.00000   0.00000  -0.00001  -0.00001   1.08348
   Z30       -1.00473   0.00000   0.00000  -0.00001  -0.00001  -1.00474
         Item               Value     Threshold  Converged?
 Maximum Force            0.000025     0.000450     YES
 RMS     Force            0.000005     0.000300     YES
 Maximum Displacement     0.000032     0.001800     YES
 RMS     Displacement     0.000012     0.001200     YES
 Predicted change in Energy=-5.308216D-10
 Optimization completed.
    -- Stationary point found.
 GradGradGradGradGradGradGradGradGradGradGradGradGradGradGradGradGradGrad

                          Input orientation:                          
 ---------------------------------------------------------------------
 Center     Atomic      Atomic             Coordinates (Angstroms)
 Number     Number       Type             X           Y           Z
 ---------------------------------------------------------------------
      1          6           0       -0.269590    0.941160    0.563460
      2          6           0        2.158610    0.368220    0.057160
      3          6           0        1.134130    0.691150    1.161010
      4          6           0        1.691670   -0.761050   -0.915180
      5          1           0        1.907860   -0.405990   -1.930320
      6          1           0        3.076020    0.016470    0.546320
      7          1           0       -1.009130    0.587580    1.294890
      8          1           0        1.472190    1.605170    1.662120
      9          6           0        0.170840   -0.997870   -0.830890
     10          8           0       -0.505520    0.239610   -0.681340
     11          6           0       -0.552560    2.407900    0.243180
     12          1           0       -0.626150    2.978060    1.174690
     13          1           0        0.262640    2.822140   -0.359190
     14          8           0       -1.810820    2.551970   -0.427610
     15          1           0       -1.644500    2.340580   -1.359630
     16          8           0        2.400110   -1.973030   -0.744290
     17          1           0        1.886160   -2.495470   -0.104010
     18          8           0        2.385840    1.595820   -0.642030
     19          1           0        3.099190    1.445560   -1.281590
     20          8           0        1.119460   -0.314400    2.159630
     21          1           0        0.674270   -1.085570    1.754500
     22          8           0       -2.672450   -2.441030    0.204250
     23          1           0       -1.026920   -2.170000    0.221580
     24          1           0       -3.076660   -1.556230    0.009370
     25          1           0       -2.989690   -2.676350    1.088810
     26          8           0       -0.064670   -1.887460    0.234730
     27          1           0       -0.218840   -1.415480   -1.765380
     28          8           0       -3.491920    0.086250   -0.387550
     29          1           0       -4.007360    0.677310    0.180790
     30          1           0       -2.657950    0.573360   -0.531680
 ---------------------------------------------------------------------
                    Distance matrix (angstroms):
                    1          2          3          4          5
     1  C    0.000000
     2  C    2.545733   0.000000
     3  C    1.545963   1.540236   0.000000
     4  C    2.988383   1.561643   2.594282   0.000000
     5  H    3.574219   2.147639   3.370266   1.096957   0.000000
     6  H    3.471088   1.097564   2.145687   2.157995   2.770707
     7  H    1.098603   3.408030   2.149933   3.741328   4.460716
     8  H    2.163738   2.139419   1.095823   3.505659   4.140072
     9  C    2.428586   2.570227   2.783592   1.541464   2.139230
    10  O    1.448227   2.767582   2.507308   2.425623   2.793054
    11  C    1.527736   3.397844   2.575765   4.052235   4.323858
    12  H    2.156316   3.976811   2.885954   4.870399   5.245387
    13  H    2.161628   3.128861   2.758917   3.897499   3.949180
    14  O    2.439737   4.556330   3.828720   4.845747   4.983598
    15  H    2.747186   4.512332   4.098174   4.576863   4.526433
    16  O    4.162933   2.486382   3.511514   1.414209   2.025979
    17  H    4.111350   2.881133   3.510039   1.924587   2.775213
    18  O    2.988828   1.430909   2.374060   2.472108   2.428044
    19  H    3.873927   1.958980   3.224421   2.642820   2.295290
    20  O    2.460417   2.442577   1.417247   3.159332   4.166252
    21  H    2.533196   2.682859   1.928843   2.875345   3.944803
    22  O    4.164370   5.590408   5.021553   4.808430   5.447662
    23  H    3.220209   4.076420   3.706595   3.266205   4.044173
    24  H    3.797843   5.577978   4.909964   4.921796   5.470913
    25  H    4.556459   6.069489   5.324581   5.440541   6.185117
    26  O    2.855021   3.172160   2.990710   2.382399   3.282235
    27  H    3.313582   3.486475   3.851256   2.191157   2.359900
    28  O    3.466800   5.675012   4.915718   5.278818   5.637381
    29  H    3.766560   6.174950   5.234113   5.979044   6.373394
    30  H    2.653087   4.856755   4.154389   4.565842   4.874622
                    6          7          8          9         10
     6  H    0.000000
     7  H    4.192252   0.000000
     8  H    2.518183   2.706898   0.000000
     9  C    3.371300   2.902572   3.832027   0.000000
    10  O    3.792673   2.068862   3.356769   1.418162   0.000000
    11  C    4.356309   2.151305   2.599496   3.643652   2.357633
    12  H    4.782460   2.423946   2.554495   4.523888   3.310364
    13  H    4.075149   3.057227   2.651362   3.850117   2.713542
    14  O    5.590931   2.732863   4.005191   4.085459   2.667432
    15  H    5.596199   3.243945   4.402903   3.836701   2.484236
    16  O    2.465895   4.726298   4.410823   2.434765   3.652728
    17  H    2.854565   4.454753   4.483953   2.390289   3.678873
    18  O    2.093531   4.036586   2.478699   3.416010   3.193871
    19  H    2.320364   4.924700   3.367200   3.840405   3.848188
    20  O    2.557415   2.468246   2.014121   3.210953   3.319427
    21  H    2.905614   2.417542   2.808076   2.635408   3.013523
    22  O    6.261088   3.623342   5.972869   3.352391   3.558888
    23  H    4.660496   2.959148   4.751065   1.978942   2.625518
    24  H    6.373160   3.243943   5.780836   3.400597   3.211368
    25  H    6.658710   3.823392   6.210352   4.060972   4.219876
    26  O    3.685915   2.853378   4.074045   1.407971   2.357533
    27  H    4.272065   3.741933   4.871516   1.095226   1.999163
    28  O    6.634366   3.040754   5.581277   3.845475   3.004732
    29  H    7.123524   3.199790   5.751585   4.613792   3.632868
    30  H    5.860940   2.460725   4.789097   3.249668   2.183287
                   11         12         13         14         15
    11  C    0.000000
    12  H    1.094627   0.000000
    13  H    1.094986   1.779620   0.000000
    14  O    1.433155   2.037734   2.092106   0.000000
    15  H    1.940584   2.804674   2.206799   0.970056   0.000000
    16  O    5.374561   6.111794   5.264099   6.189333   5.945145
    17  H    5.487343   6.156810   5.565780   6.264905   6.117967
    18  O    3.174471   3.779305   2.468165   4.309542   4.160920
    19  H    4.072628   4.718053   3.285089   5.105059   4.828017
    20  O    3.725500   3.854550   4.112965   4.847311   5.203228
    21  H    3.999191   4.305852   4.461762   4.916195   5.178127
    22  O    5.292218   5.873298   6.052535   5.106046   5.134802
    23  H    4.602462   5.250863   5.188615   4.830419   4.819436
    24  H    4.705324   5.284199   5.518776   4.320950   4.371541
    25  H    5.701253   6.129115   6.550400   5.569973   5.742298
    26  O    4.322988   4.987191   4.758172   4.816251   4.786875
    27  H    4.331734   5.302179   4.490726   4.479362   4.037961
    28  O    3.798383   4.360711   4.645710   2.984540   3.072443
    29  H    3.864515   4.208785   4.808823   2.951150   3.274518
    30  H    2.898036   3.580851   3.690069   2.154845   2.199011
                   16         17         18         19         20
    16  O    0.000000
    17  H    0.973163   0.000000
    18  O    3.570343   4.156657   0.000000
    19  H    3.530462   4.288339   0.969785   0.000000
    20  O    3.581043   3.235577   3.619663   4.342670   0.000000
    21  H    3.163868   2.628793   3.982798   4.637316   0.978278
    22  O    5.181662   4.569345   6.526764   7.115134   4.767038
    23  H    3.565983   2.949233   5.155012   5.688284   3.436020
    24  H    5.544072   5.052189   6.340240   6.987020   4.875775
    25  H    5.736276   5.022893   7.081212   7.725503   4.859072
    26  O    2.653477   2.071270   4.348212   4.839242   2.753529
    27  H    2.865726   2.890943   4.136931   4.407826   4.290586
    28  O    6.251713   5.972388   6.073848   6.788944   5.283320
    29  H    6.995409   6.699345   6.511044   7.296014   5.584226
    30  H    5.666858   5.499960   5.147564   5.870925   4.722297
                   21         22         23         24         25
    21  H    0.000000
    22  O    3.929514   0.000000
    23  H    2.533748   1.667791   0.000000
    24  H    4.163709   0.992086   2.150158   0.000000
    25  H    4.049485   0.968743   2.204755   1.558019   0.000000
    26  O    1.870497   2.666062   1.002959   3.038517   3.147625
    27  H    3.646374   3.309290   2.273830   3.366999   4.172985
    28  O    4.828942   2.721930   3.396753   1.740036   3.172354
    29  H    5.244232   3.392135   4.122118   2.425755   3.620385
    30  H    4.368336   3.102958   3.279281   2.236785   3.646458
                   26         27         28         29         30
    26  O    0.000000
    27  H    2.060819   0.000000
    28  O    4.003599   3.855731   0.000000
    29  H    4.703803   4.745549   0.968525   0.000000
    30  H    3.656244   3.380349   0.976502   1.529486   0.000000
 Stoichiometry    C6H16O8
 Framework group  C1[X(C6H16O8)]
 Deg. of freedom    84
 Full point group                 C1      NOp   1
 Largest Abelian subgroup         C1      NOp   1
 Largest concise Abelian subgroup C1      NOp   1
                         Standard orientation:                         
 ---------------------------------------------------------------------
 Center     Atomic      Atomic             Coordinates (Angstroms)
 Number     Number       Type             X           Y           Z
 ---------------------------------------------------------------------
      1          6           0       -0.269590    0.941160    0.563460
      2          6           0        2.158610    0.368220    0.057160
      3          6           0        1.134130    0.691150    1.161010
      4          6           0        1.691670   -0.761050   -0.915180
      5          1           0        1.907860   -0.405990   -1.930320
      6          1           0        3.076020    0.016469    0.546320
      7          1           0       -1.009130    0.587580    1.294890
      8          1           0        1.472190    1.605170    1.662120
      9          6           0        0.170840   -0.997870   -0.830890
     10          8           0       -0.505520    0.239610   -0.681340
     11          6           0       -0.552560    2.407900    0.243180
     12          1           0       -0.626150    2.978060    1.174690
     13          1           0        0.262640    2.822140   -0.359190
     14          8           0       -1.810820    2.551970   -0.427610
     15          1           0       -1.644500    2.340580   -1.359630
     16          8           0        2.400110   -1.973031   -0.744290
     17          1           0        1.886160   -2.495470   -0.104010
     18          8           0        2.385840    1.595819   -0.642030
     19          1           0        3.099190    1.445559   -1.281590
     20          8           0        1.119460   -0.314400    2.159630
     21          1           0        0.674270   -1.085570    1.754500
     22          8           0       -2.672450   -2.441030    0.204250
     23          1           0       -1.026920   -2.170000    0.221580
     24          1           0       -3.076660   -1.556230    0.009370
     25          1           0       -2.989690   -2.676350    1.088810
     26          8           0       -0.064670   -1.887460    0.234730
     27          1           0       -0.218840   -1.415480   -1.765380
     28          8           0       -3.491920    0.086250   -0.387550
     29          1           0       -4.007360    0.677310    0.180790
     30          1           0       -2.657950    0.573360   -0.531680
 ---------------------------------------------------------------------
 Rotational constants (GHZ):      0.7372128      0.5488310      0.3958094
 1\1\GINC-N260\FTS\RB3LYP\6-31G(d)\C6H16O8\ROOT\31-Jan-2017\0\\# opt=(c
 alcfc,ts,noeigentest,maxcycle=1000,cartesian) b3lyp 6-31g(d) freq\\./6
 /glo_2w_alpha_boat6_B3LYP_631Gd_iopt.out\\0,1\C,-0.26959,0.94116,0.563
 46\C,2.15861,0.36822,0.05716\C,1.13413,0.69115,1.16101\C,1.69167,-0.76
 105,-0.91518\H,1.90786,-0.40599,-1.93032\H,3.07602,0.01647,0.54632\H,-
 1.00913,0.58758,1.29489\H,1.47219,1.60517,1.66212\C,0.17084,-0.99787,-
 0.83089\O,-0.50552,0.23961,-0.68134\C,-0.55256,2.4079,0.24318\H,-0.626
 15,2.97806,1.17469\H,0.26264,2.82214,-0.35919\O,-1.81082,2.55197,-0.42
 761\H,-1.6445,2.34058,-1.35963\O,2.40011,-1.97303,-0.74429\H,1.88616,-
 2.49547,-0.10401\O,2.38584,1.59582,-0.64203\H,3.09919,1.44556,-1.28159
 \O,1.11946,-0.3144,2.15963\H,0.67427,-1.08557,1.7545\O,-2.67245,-2.441
 03,0.20425\H,-1.02692,-2.17,0.22158\H,-3.07666,-1.55623,0.00937\H,-2.9
 8969,-2.67635,1.08881\O,-0.06467,-1.88746,0.23473\H,-0.21884,-1.41548,
 -1.76538\O,-3.49192,0.08625,-0.38755\H,-4.00736,0.67731,0.18079\H,-2.6
 5795,0.57336,-0.53168\\Version=ES64L-G09RevE.01\State=1-A\HF=-840.0039
 636\RMSD=9.818e-09\RMSF=5.396e-06\Dipole=-0.7074222,0.4752793,-0.04629
 43\Polar=0.,0.,0.,0.,0.,0.\Quadrupole=2.2347353,-2.5223652,0.2876299,3
 .2760883,-8.1904353,-4.5018973\PG=C01 [X(C6H16O8)]\\@


 BRING ME INTO THE COMPANY OF THOSE WHO SEEK TRUTH,
 AND DELIVER ME FROM THOSE WHO HAVE FOUND IT.
 Job cpu time:       0 days  0 hours 36 minutes 55.1 seconds.
 File lengths (MBytes):  RWF=    220 Int=      0 D2E=      0 Chk=      6 Scr=      1
 Normal termination of Gaussian 09 at Tue Jan 31 07:19:14 2017.
 Link1:  Proceeding to internal job step number  2.
 --------------------------------------------------------------------
 #N Geom=AllCheck Guess=TCheck SCRF=Check GenChk RB3LYP/6-31G(d) Freq
 --------------------------------------------------------------------
 1/5=1,6=1000,10=4,11=1,29=7,30=1,38=1,40=1/1,3;
 2/12=2,40=1/2;
 3/5=1,6=6,7=1,11=2,14=-4,16=1,25=1,30=1,70=2,71=2,74=-5,116=1,140=1/1,2,3;
 4/5=101/1;
 5/5=2,38=6,98=1/2;
 8/6=4,10=90,11=11/1;
 11/6=1,8=1,9=11,15=111,16=1/1,2,10;
 10/6=1/2;
 6/7=2,8=2,9=2,10=2,18=1,28=1/1;
 7/8=1,10=1,25=1/1,2,3,16;
 1/5=1,6=1000,10=4,11=1,30=1/3;
 99//99;
 Structure from the checkpoint file:  "/scratch/10501396.yak.local/Gau-19039.chk"
 -------------------------------------------
 ./6/glo_2w_alpha_boat6_B3LYP_631Gd_iopt.out
 -------------------------------------------
 Charge =  0 Multiplicity = 1
 No Z-Matrix found in file; cartesian coordinates used.
  C                                                -0.269590000000      0.941160000000      0.563460000000
  C                                                 2.158610000000      0.368220000000      0.057160000000
  C                                                 1.134130000000      0.691150000000      1.161010000000
  C                                                 1.691670000000     -0.761050000000     -0.915180000000
  H                                                 1.907860000000     -0.405990000000     -1.930320000000
  H                                                 3.076020000000      0.016470000000      0.546320000000
  H                                                -1.009130000000      0.587580000000      1.294890000000
  H                                                 1.472190000000      1.605170000000      1.662120000000
  C                                                 0.170840000000     -0.997870000000     -0.830890000000
  O                                                -0.505520000000      0.239610000000     -0.681340000000
  C                                                -0.552560000000      2.407900000000      0.243180000000
  H                                                -0.626150000000      2.978060000000      1.174690000000
  H                                                 0.262640000000      2.822140000000     -0.359190000000
  O                                                -1.810820000000      2.551970000000     -0.427610000000
  H                                                -1.644500000000      2.340580000000     -1.359630000000
  O                                                 2.400110000000     -1.973030000000     -0.744290000000
  H                                                 1.886160000000     -2.495470000000     -0.104010000000
  O                                                 2.385840000000      1.595820000000     -0.642030000000
  H                                                 3.099190000000      1.445560000000     -1.281590000000
  O                                                 1.119460000000     -0.314400000000      2.159630000000
  H                                                 0.674270000000     -1.085570000000      1.754500000000
  O                                                -2.672450000000     -2.441030000000      0.204250000000
  H                                                -1.026920000000     -2.170000000000      0.221580000000
  H                                                -3.076660000000     -1.556230000000      0.009370000000
  H                                                -2.989690000000     -2.676350000000      1.088810000000
  O                                                -0.064670000000     -1.887460000000      0.234730000000
  H                                                -0.218840000000     -1.415480000000     -1.765380000000
  O                                                -3.491920000000      0.086250000000     -0.387550000000
  H                                                -4.007360000000      0.677310000000      0.180790000000
  H                                                -2.657950000000      0.573360000000     -0.531680000000
 Recover connectivity data from disk.

 GradGradGradGradGradGradGradGradGradGradGradGradGradGradGradGradGradGrad
 Berny optimization.
 Initialization pass.
 Trust Radius=3.00D-01 FncErr=1.00D-07 GrdErr=1.00D-07
 Number of steps in this run=      2 maximum allowed number of steps=      2.
 Search for a saddle point of order  1.
 GradGradGradGradGradGradGradGradGradGradGradGradGradGradGradGradGradGrad

                          Input orientation:                          
 ---------------------------------------------------------------------
 Center     Atomic      Atomic             Coordinates (Angstroms)
 Number     Number       Type             X           Y           Z
 ---------------------------------------------------------------------
      1          6           0       -0.269590    0.941160    0.563460
      2          6           0        2.158610    0.368220    0.057160
      3          6           0        1.134130    0.691150    1.161010
      4          6           0        1.691670   -0.761050   -0.915180
      5          1           0        1.907860   -0.405990   -1.930320
      6          1           0        3.076020    0.016470    0.546320
      7          1           0       -1.009130    0.587580    1.294890
      8          1           0        1.472190    1.605170    1.662120
      9          6           0        0.170840   -0.997870   -0.830890
     10          8           0       -0.505520    0.239610   -0.681340
     11          6           0       -0.552560    2.407900    0.243180
     12          1           0       -0.626150    2.978060    1.174690
     13          1           0        0.262640    2.822140   -0.359190
     14          8           0       -1.810820    2.551970   -0.427610
     15          1           0       -1.644500    2.340580   -1.359630
     16          8           0        2.400110   -1.973030   -0.744290
     17          1           0        1.886160   -2.495470   -0.104010
     18          8           0        2.385840    1.595820   -0.642030
     19          1           0        3.099190    1.445560   -1.281590
     20          8           0        1.119460   -0.314400    2.159630
     21          1           0        0.674270   -1.085570    1.754500
     22          8           0       -2.672450   -2.441030    0.204250
     23          1           0       -1.026920   -2.170000    0.221580
     24          1           0       -3.076660   -1.556230    0.009370
     25          1           0       -2.989690   -2.676350    1.088810
     26          8           0       -0.064670   -1.887460    0.234730
     27          1           0       -0.218840   -1.415480   -1.765380
     28          8           0       -3.491920    0.086250   -0.387550
     29          1           0       -4.007360    0.677310    0.180790
     30          1           0       -2.657950    0.573360   -0.531680
 ---------------------------------------------------------------------
                    Distance matrix (angstroms):
                    1          2          3          4          5
     1  C    0.000000
     2  C    2.545733   0.000000
     3  C    1.545963   1.540236   0.000000
     4  C    2.988383   1.561643   2.594282   0.000000
     5  H    3.574219   2.147639   3.370266   1.096957   0.000000
     6  H    3.471088   1.097564   2.145687   2.157995   2.770707
     7  H    1.098603   3.408030   2.149933   3.741328   4.460716
     8  H    2.163738   2.139419   1.095823   3.505659   4.140072
     9  C    2.428586   2.570227   2.783592   1.541464   2.139230
    10  O    1.448227   2.767582   2.507308   2.425623   2.793054
    11  C    1.527736   3.397844   2.575765   4.052235   4.323858
    12  H    2.156316   3.976811   2.885954   4.870399   5.245387
    13  H    2.161628   3.128861   2.758917   3.897499   3.949180
    14  O    2.439737   4.556330   3.828720   4.845747   4.983598
    15  H    2.747186   4.512332   4.098174   4.576863   4.526433
[...]
 259262,0.00206193,0.00075095,-0.00071149,-0.00069349,0.00040432,0.0000
 9275,-0.00078267,0.00014707,0.00054308,0.00010714,-0.00007600,0.000106
 22,-0.00035658,0.00006750,0.00002750,0.00002628,0.00000411,0.00007701,
 -0.00110819,0.00018159,0.00030635,0.00076622,0.00052335,0.13242635,-0.
 32661318,0.08518518,0.01191189,0.00568086,-0.00195236,-0.13834735,0.32
 868691,-0.00041326,0.00016128,0.00084589,-0.00007021,-0.00003896,0.000
 08282,-0.00001480,-0.00029403,0.00011563,0.00007467,-0.00008107,-0.000
 23961,0.00010881,0.00003972,-0.00004294,-0.00001289,-0.00000433,-0.000
 02420,0.00016482,-0.00020369,-0.00023203,-0.00000620,0.00003553,-0.000
 02141,0.00050512,-0.00147630,0.00197682,-0.00088109,0.00029174,-0.0007
 3107,0.00060004,-0.00015576,0.00024705,-0.00003986,-0.00002569,-0.0000
 4395,-0.00008824,0.00008588,-0.00006710,-0.00067905,-0.00037144,-0.000
 32515,0.00019090,0.00019088,0.00000209,0.00000252,0.00018662,-0.000139
 33,-0.00022544,0.00001584,0.00008107,0.00000163,0.00008180,-0.00010523
 ,0.00001013,-0.00000782,0.00001034,0.00020920,0.00031946,-0.00017054,-
 0.00030110,-0.00013353,-0.00005704,0.00521852,0.04109712,-0.05872045,-
 0.00484192,-0.00138804,0.00091719,0.01333324,-0.08075468,0.07731598,-0
 .00019278,0.00001831,0.00031539,-0.00003994,-0.00001919,0.00005866,-0.
 00003443,-0.00019123,0.00016403,-0.00001733,0.00005772,-0.00005294,0.0
 0002489,0.00002140,-0.00001301,0.00000013,-0.00000002,-0.00000795,0.00
 009394,-0.00008998,-0.00009690,0.00001417,0.00003967,-0.00001823,0.000
 49949,-0.00012475,0.00033919,-0.00015109,0.00004843,-0.00026352,0.0001
 8945,-0.00009765,0.00001051,-0.00000561,-0.00000120,0.00000189,-0.0000
 2026,0.00004439,-0.00002336,-0.00015951,0.00005304,-0.00008977,0.00003
 763,-0.00001897,0.00002976,-0.00002319,0.00001729,-0.00001713,-0.00003
 140,-0.00006031,0.00005302,0.00004548,0.00007713,-0.00007906,-0.000004
 65,-0.00001562,0.00000180,0.00018454,0.00019278,-0.00030359,-0.0003769
 0,-0.00017290,0.00027665,-0.07671997,-0.02845606,0.16122476,0.00250491
 ,-0.00109295,0.00830653,0.00739280,0.00420345,-0.01886245,0.07091116,-
 0.00034076,-0.00008409,0.00042053,-0.00002603,-0.00005868,0.00005812,-
 0.00012606,-0.00001618,-0.00008804,-0.00011608,0.00018278,-0.00001370,
 0.00004279,-0.00000046,-0.00001991,0.00004321,0.00000097,-0.00000585,0
 .00009206,-0.00005973,-0.00017565,0.00002308,0.00001280,0.00000677,-0.
 00009602,-0.00020320,0.00037282,0.00014897,-0.00011901,-0.00023894,0.0
 0006762,-0.00007656,-0.00006921,-0.00001060,-0.00000591,0.00001222,-0.
 00000395,0.00006633,-0.00003028,0.00004527,0.00019900,-0.00004917,0.00
 000067,-0.00007173,0.00006045,0.00019627,-0.00016470,-0.00002221,-0.00
 013570,0.00014701,-0.00000373,0.00007915,0.00005425,-0.00003978,-0.000
 01979,-0.00002408,-0.00000264,0.00027729,-0.00001982,0.00002853,-0.000
 29641,0.00007713,-0.00007511,-0.00619855,-0.06114124,0.08415244,-0.002
 58751,-0.00035690,0.00067189,-0.01737519,-0.00618907,0.04191177,0.0240
 8760,0.06940843,-0.00002882,0.00010268,0.00019994,0.00000295,0.0000309
 4,0.00002676,-0.00000007,-0.00007110,0.00009110,0.00004538,0.00002623,
 0.00004739,-0.00002731,-0.00000679,0.00000253,-0.00000755,-0.00000230,
 -0.00000456,0.00003934,-0.00000517,0.00000378,-0.00000421,0.00000244,-
 0.00001332,0.00007673,0.00019586,-0.00033778,-0.00011418,-0.00020140,-
 0.00007245,0.00008695,-0.00001387,0.00004835,-0.00000352,-0.00001666,-
 0.00000955,-0.00001391,0.00001171,-0.00001215,-0.00010415,-0.00007627,
 -0.00005998,0.00002714,0.00003350,-0.00000837,-0.00007158,-0.00004350,
 0.00000456,0.00008650,-0.00001037,0.00001619,-0.00000313,-0.00001605,-
 0.00003761,0.00001117,0.00001009,0.00000296,0.00006169,0.00003308,-0.0
 0021786,-0.00006822,0.00002281,0.00024632,0.14036001,0.13039009,-0.419
 76098,0.00338566,-0.00022028,0.00055846,0.00704563,-0.00420563,-0.0107
 1170,-0.14818310,-0.12490502,0.42968571,-0.00165511,-0.00147878,-0.000
 28324,0.00212658,0.00271285,0.00064678,-0.00164234,0.00235889,-0.00114
 838,-0.01445156,-0.02055393,0.03771031,-0.00819788,-0.00145749,0.00065
 599,0.00020181,-0.00023733,-0.00026473,0.00068135,-0.00047593,-0.00097
 317,0.00040412,-0.00044105,-0.00014084,-0.11288161,-0.02561895,0.02397
 270,0.01387328,0.01302592,-0.01502775,-0.00028700,0.00038578,-0.000685
 99,-0.00001372,0.00002571,0.00008553,-0.00008242,0.00037945,-0.0000529
 3,0.00125059,0.00038502,0.00052992,-0.00020647,-0.00030403,0.00009940,
 -0.00592992,-0.00601229,0.00543930,0.00147157,-0.00286982,0.00109339,-
 0.00012080,-0.00224034,-0.00049667,0.00065965,0.00086354,0.00014028,0.
 00003109,-0.00732738,-0.00854210,-0.00664386,-0.00176869,0.00360688,-0
 .03365406,-0.00552773,0.00268491,-0.33501950,-0.07308734,-0.04117431,0
 .00122432,-0.00715499,0.00281804,-0.00321464,0.00109447,-0.00247138,0.
 49485314,0.00132640,0.00617363,0.00738983,0.00122461,0.00097636,-0.000
 19863,0.00150620,0.00049248,-0.00063152,-0.00623673,-0.01378571,0.0176
 9918,-0.00282972,0.00055815,-0.00017611,-0.00038343,-0.00015485,-0.000
 18450,-0.00044207,-0.00130461,-0.00132885,-0.00046365,0.00012464,-0.00
 040039,-0.01723324,-0.10598566,0.06663103,0.00875858,-0.05474313,0.032
 62713,-0.00062177,0.00109695,-0.00019350,0.00032309,-0.00056050,-0.000
 20024,0.00019253,-0.00002405,0.00007505,0.00122411,-0.00132843,-0.0001
 2866,-0.00092890,0.00125397,-0.00057699,0.00198628,0.00429793,-0.00016
 399,-0.00106158,-0.00196612,-0.00202838,-0.00061886,0.00003116,-0.0001
 9407,0.00024632,0.00024749,0.00007928,-0.00471264,-0.00079761,-0.00776
 535,-0.00251106,-0.01014981,-0.00086621,-0.01289840,0.00637080,-0.0007
 3069,-0.09104823,-0.05222747,0.00486939,-0.00144121,-0.00539861,0.0014
 4226,-0.00013461,0.00017899,-0.00050799,0.12711090,0.21980416,-0.00127
 562,-0.00409214,-0.00588224,0.00126241,-0.00176534,-0.00031015,0.00045
 951,0.00732203,-0.00681016,0.00791637,0.00947422,-0.00864987,0.0011114
 3,-0.00005061,0.00152781,0.00048245,0.00043255,0.00041327,-0.00110098,
 0.00117947,0.00300580,-0.00005331,-0.00086643,0.00128331,-0.00230940,0
 .04225066,-0.17619991,-0.00619664,0.03003868,0.00880253,-0.00092949,0.
 00053628,0.00140204,-0.00023759,0.00070285,0.00004087,0.00005794,-0.00
 056687,0.00001308,0.00046122,0.00025830,0.00069523,0.00039718,-0.00074
 917,0.00006976,0.00230727,0.00147412,0.00214622,0.00086751,-0.00031249
 ,-0.00238043,-0.00007730,0.00061577,0.00168317,-0.00052476,-0.00056246
 ,-0.00004443,-0.00836520,-0.01287409,-0.00374888,0.00505849,0.00063169
 ,-0.00102710,0.00651532,-0.00132197,0.00782996,-0.00937421,0.01498014,
 -0.04462161,-0.00029573,0.00213680,-0.00132765,-0.00285897,-0.00044056
 ,-0.00025617,-0.00229744,-0.11994887,0.25656531,-0.00090443,0.00274203
 ,-0.00142288,-0.00487966,0.00290163,0.00132405,-0.00038484,0.00038452,
 0.00091780,-0.01143183,-0.01659544,-0.02599733,0.00104700,-0.00014604,
 0.00018445,-0.00051735,-0.00117185,-0.00119100,0.00005313,0.00012187,0
 .00033269,0.00019328,-0.00011195,-0.00001322,-0.09510083,-0.04461493,-
 0.08837769,0.00574591,0.01647180,0.01911342,0.00017928,0.00027296,0.00
 119507,-0.00010182,0.00039479,-0.00008143,-0.00004478,0.00004635,-0.00
 004577,-0.00001609,-0.00009162,-0.00004576,0.00003701,-0.00003781,-0.0
 0001130,0.00127804,0.00131397,0.00176276,-0.00021768,-0.00013613,-0.00
 036544,-0.00010562,-0.00162120,0.00043952,0.00013427,0.00010864,-0.000
 14746,0.00062510,0.00025408,-0.00006832,-0.00029570,-0.00032723,-0.000
 02056,0.00024722,0.00005131,-0.00029905,0.00051840,0.00120363,0.000679
 42,-0.00003917,0.00012110,0.00006503,0.00010609,-0.00005688,0.00001526
 ,0.00857158,0.00121243,0.00818937,0.09519012,0.00240473,-0.00245604,0.
 00290446,-0.00033016,0.00063241,0.00037802,0.00050196,-0.00079822,0.00
 099241,-0.00314122,-0.00037209,-0.00400287,-0.00023579,0.00016495,-0.0
 0007262,-0.00010431,0.00003951,-0.00007312,0.00008874,-0.00039079,-0.0
 0054487,-0.00014886,0.00010288,-0.00012967,-0.03893199,-0.08413482,-0.
 08447225,-0.00242273,-0.02573927,-0.03185042,-0.00052042,-0.00021966,-
 0.00197359,0.00012132,-0.00058312,0.00016574,0.00002786,-0.00002419,0.
 00006584,0.00036663,0.00003387,0.00032413,-0.00005331,0.00000522,-0.00
 014386,-0.00107311,0.00110135,-0.00045099,-0.00044768,0.00004203,0.000
 27898,-0.00003459,-0.00014768,0.00001243,-0.00002274,0.00004609,-0.000
 05273,0.00039042,0.00148214,0.00002858,-0.00102695,-0.00134654,-0.0011
 5774,-0.00041281,-0.00007820,-0.00013106,0.00204715,0.00092210,-0.0003
 8147,0.00014367,-0.00016731,-0.00006819,0.00008712,-0.00002885,-0.0000
 0468,0.00563819,0.00449182,0.03251048,0.03732001,0.10741888,0.00027126
 ,-0.00022898,0.00290539,0.00122776,-0.00007054,0.00080956,0.00024936,0
 .00074671,-0.00047407,0.00203360,0.00101654,0.00347737,-0.00017525,0.0
 0007741,0.00133927,0.00012622,0.00021866,0.00025800,-0.00006927,0.0000
 9760,0.00002417,-0.00004728,-0.00006977,0.00007596,-0.08019345,-0.0860
 2018,-0.23288787,0.00020624,-0.00882116,-0.00342113,-0.00022790,-0.000
 03356,-0.00066274,0.00005219,-0.00015747,0.00005612,0.00002351,-0.0000
 3103,0.00002501,0.00022984,-0.00007122,0.00014596,-0.00006482,0.000025
 93,-0.00009837,-0.00038312,0.00040009,0.00039004,0.00054583,-0.0002061
 0,-0.00055022,-0.00013996,-0.00004741,0.00012405,-0.00004862,-0.000032
 07,-0.00001693,-0.00070146,-0.00113544,-0.00024315,0.00121066,0.001316
 47,0.00141709,0.00115974,0.00002504,0.00078418,-0.00363589,-0.00055667
 ,0.00016945,0.00014911,0.00003491,-0.00041020,-0.00022707,-0.00001348,
 0.00001419,-0.00521700,0.00569322,-0.03437090,0.08382868,0.08790797,0.
 26107345,0.00089046,0.00189284,0.00107697,0.00022827,0.00028661,-0.000
 16248,0.00039414,-0.00044764,0.00045055,0.00043311,0.00027707,-0.00019
 303,-0.00003015,-0.00003219,0.00006570,-0.00015549,0.00000171,0.000039
 62,-0.00011550,-0.00008592,0.00059191,-0.00017784,-0.00002761,-0.00010
 366,0.00081751,-0.00376459,-0.00059011,-0.00626321,0.00122896,0.000582
 32,0.00097051,0.00038760,0.00103632,-0.00005836,-0.00014713,-0.0001784
 1,-0.00015402,-0.00012016,-0.00010904,-0.00160833,-0.00580978,0.000245
 13,-0.00046225,0.00086940,-0.00074051,-0.00085034,0.00050040,-0.000033
 91,0.00027939,-0.00022528,0.00006632,-0.00033327,-0.00029835,0.0000721
 9,0.00008094,0.00014054,-0.00001478,-0.00043471,0.00033508,-0.00049266
 ,0.00027160,-0.00015694,0.00028511,0.00506054,0.00672196,-0.00267627,-
 0.00004564,-0.00116726,0.00006088,-0.01159370,-0.00177455,0.00343667,-
 0.00149995,0.00121095,-0.00041299,-0.00019264,0.00144840,-0.00041354,-
 0.00000297,0.00011416,0.00008176,0.52874315,-0.00022432,-0.00129689,-0
 .00148293,-0.00014718,-0.00044285,-0.00004992,0.00038706,-0.00019430,0
 .00074490,0.00003360,-0.00010781,-0.00011499,0.00014813,0.00005848,-0.
 00004846,-0.00005756,0.00010435,0.00005784,-0.00010050,-0.00017413,0.0
 0014672,0.00012665,0.00009351,0.00009290,-0.00048957,-0.00267744,0.001
 32149,0.00161704,0.00333222,0.00073175,0.00403171,-0.00191408,0.003493
 85,-0.00041206,0.00014623,-0.00038578,-0.00095489,0.00014978,-0.000584
 81,-0.00862888,-0.00698803,-0.00237350,0.00135380,0.00057229,-0.000883
 46,0.00015896,0.00047870,-0.00005571,-0.00040361,-0.00004303,0.0000116
 1,-0.00010267,0.00048617,-0.00007246,-0.00005017,-0.00001771,-0.000004
 68,-0.00003352,0.00095152,-0.00027539,-0.00036524,-0.00052591,-0.00040
 296,0.00955490,-0.01983634,0.00502576,-0.00576898,-0.00138297,0.000386
 45,-0.00029726,-0.00020456,0.00326463,0.00106499,-0.00067882,-0.000713
 39,0.00360404,0.00228413,-0.00096936,-0.00013674,0.00019650,0.00006032
 ,0.04603290,0.40177439,0.00148896,0.00006877,-0.00309833,-0.00012700,0
 .00006419,-0.00037229,0.00014993,0.00005072,0.00068683,-0.00007189,-0.
 00011106,-0.00000439,-0.00007135,-0.00001967,0.00006566,-0.00005700,0.
 00002398,0.00010776,-0.00018851,-0.00025202,0.00147122,-0.00000211,-0.
 00002063,0.00001844,0.00005889,0.00109948,-0.00121257,0.00201774,-0.00
 022560,0.00187024,-0.00081050,0.00084429,-0.00046825,0.00023085,0.0001
 0947,0.00018490,0.00016496,-0.00025791,0.00020912,0.00153882,-0.000095
 58,0.00278622,-0.00176187,-0.00145805,0.00007075,0.00006454,-0.0000473
 4,0.00015372,0.00010609,-0.00003198,-0.00008432,0.00000290,-0.00008030
 ,0.00021954,-0.00003735,0.00001203,-0.00003525,-0.00031471,-0.00007742
 ,0.00024719,0.00028519,-0.00010385,-0.00015302,-0.00259236,0.00378641,
 0.00532809,0.00163645,0.00006625,-0.00073511,0.00171698,0.00339239,-0.
 01050178,0.00026586,-0.00239936,0.00054184,-0.00119316,-0.00053828,0.0
 0115747,-0.00008651,0.00017009,0.00026454,-0.22116776,0.15655740,0.208
 23494,-0.00039787,0.00018719,0.00142492,0.00004542,0.00000047,0.000152
 11,-0.00020910,0.00009105,-0.00050673,-0.00007815,0.00014194,0.0000530
 3,0.00000655,-0.00000189,-0.00002157,0.00006812,-0.00002866,-0.0000437
 9,0.00007073,0.00019613,-0.00054751,0.00000036,0.00000199,-0.00000894,
 -0.00021429,0.00020289,0.00012189,-0.00118576,-0.00065675,-0.00058975,
 -0.00106462,0.00007708,-0.00090812,0.00002220,-0.00007614,0.00008858,0
 .00027327,0.00006022,0.00009472,0.00179896,0.00145889,-0.00041265,0.00
 019083,-0.00003902,0.00021859,0.00010071,-0.00014625,-0.00002426,-0.00
 005438,0.00006097,0.00000788,0.00011377,0.00000440,-0.00005701,-0.0000
 0774,-0.00004104,0.00000630,0.00020531,-0.00021437,0.00012288,-0.00009
 145,0.00012479,0.00001436,0.00031107,-0.00148432,0.00012435,-0.0001001
 1,0.00011919,0.00008559,-0.00106458,0.00258297,-0.00082014,0.00026997,
 0.00026471,0.00009244,0.00015616,-0.00020126,-0.00011143,0.00001706,-0
 .00004917,-0.00003463,-0.16450825,0.11429867,0.14247712,0.18664568,0.0
 0037870,0.00046217,0.00005348,0.00002584,0.00007532,-0.00003901,-0.000
 04915,-0.00005632,-0.00005777,0.00001120,0.00009245,-0.00000807,-0.000
 00453,-0.00000444,0.00000756,0.00000032,-0.00001378,0.00000598,0.00007
 232,-0.00000955,0.00019087,-0.00005194,-0.00001155,-0.00002809,-0.0000
 0388,-0.00026512,-0.00011121,-0.00098677,0.00006995,-0.00004600,-0.000
 68618,0.00042676,-0.00073402,0.00000319,-0.00004547,0.00004178,0.00023
 893,-0.00006587,0.00015734,0.00111258,-0.00074013,0.00029984,0.0000580
 9,0.00035999,-0.00006061,-0.00005356,-0.00002293,-0.00000049,0.0000172
 5,0.00000126,0.00000140,0.00001873,-0.00008881,0.00002357,0.00000737,0
 .00000091,0.00000011,-0.00002207,-0.00011122,0.00009562,0.00006618,0.0
 0001818,-0.00001563,-0.00016291,-0.00179146,0.00220481,-0.00008910,-0.
 00005990,-0.00010989,0.00079457,0.00281223,-0.00481717,0.00058514,-0.0
 0102973,0.00010994,-0.00003913,0.00005332,0.00005454,0.00000012,-0.000
 01007,0.00002504,0.16281060,-0.21821527,-0.18864066,-0.14747139,0.2052
 1580,-0.00034224,-0.00001350,0.00071276,0.00000629,-0.00003584,0.00008
 775,0.00002766,0.00003587,-0.00004849,0.00000308,0.00000504,0.00002597
 ,0.00000505,0.00000049,-0.00001543,0.00000869,0.00000081,-0.00002121,0
 .00001005,0.00018583,-0.00018677,0.00001619,-0.00000583,0.00000661,0.0
 0002393,-0.00000873,0.00003284,-0.00018210,-0.00012136,-0.00020235,0.0
 0054576,-0.00034182,0.00071282,-0.00011396,-0.00006822,-0.00010796,-0.
 00018432,0.00007160,-0.00014791,-0.00152127,-0.00043459,-0.00104861,0.
 00064372,0.00017561,-0.00007605,-0.00000578,-0.00000711,-0.00002483,0.
 00000125,0.00000685,0.00001601,-0.00000918,0.00004338,-0.00006269,0.00
 000657,-0.00000067,0.00000886,0.00008739,0.00002020,-0.00013924,-0.000
 05910,0.00004711,0.00008896,-0.00065416,0.00286200,-0.00143063,0.00019
 143,0.00004743,0.00010508,-0.00059682,-0.00406674,0.00217599,-0.000140
 56,0.00066560,0.00000683,-0.00005649,-0.00004167,-0.00013080,-0.000004
 97,-0.00000821,-0.00002470,0.17060173,-0.16634547,-0.17605570,-0.16938
 700,0.17689773,0.18083251,-0.00233260,-0.00295704,-0.00493529,-0.00044
 765,-0.00032636,0.00001440,-0.00032304,0.00072590,-0.00005521,-0.00055
 095,-0.00088889,0.00023806,-0.00001689,0.00002264,-0.00005698,0.000146
 21,0.00001068,-0.00001239,-0.00042287,0.00013996,0.00018348,0.00029987
 ,0.00000923,0.00019288,-0.00023627,0.00767282,0.00050240,0.00348583,-0
 .00442207,-0.00037552,-0.00184305,-0.00214200,-0.00039512,-0.00000284,
 0.00033182,0.00017722,-0.00015366,0.00008117,-0.00012058,-0.00314508,0
 .00342153,-0.00012898,0.00077476,-0.00272289,0.00158244,0.00118957,-0.
 00073276,0.00011027,-0.00015967,0.00025928,-0.00012810,0.00036052,0.00
 034445,-0.00000822,-0.00009403,-0.00013866,0.00001556,0.00032376,-0.00
 052096,0.00060286,-0.00009705,0.00023015,-0.00027193,-0.00391013,0.003
 37982,-0.00052675,0.00265346,0.00123774,-0.00021356,0.00493227,-0.0062
 1385,0.00051731,0.00021702,-0.00028456,0.00017728,-0.00131169,-0.00279
 249,0.00133513,0.00009929,-0.00029612,-0.00023005,-0.34968302,-0.16423
 931,0.07627678,-0.02131985,-0.01658051,0.00107916,0.37156780,0.0005604
 8,0.00325961,0.00230488,0.00023605,0.00051130,0.00001220,-0.00038186,-
 0.00045451,-0.00063046,0.00014504,0.00028831,-0.00013219,-0.00004985,-
 0.00003087,0.00003332,0.00000742,-0.00011158,-0.00004073,0.00013919,-0
 .00002269,0.00018609,-0.00027298,-0.00005432,-0.00018162,0.00162799,-0
 .00092031,-0.00037606,-0.00484085,-0.00326197,-0.00100199,-0.00687181,
 0.00181119,-0.00503335,0.00063566,-0.00020032,0.00060167,0.00132299,-0
 .00022040,0.00067809,0.00577808,0.00550476,0.00415892,-0.00215972,-0.0
 0306528,0.00259606,-0.00044215,-0.00010966,-0.00004678,0.00025405,-0.0
 0003514,0.00005860,0.00007506,-0.00053274,0.00002389,0.00007619,0.0000
 1659,0.00000899,0.00006081,-0.00065709,0.00020319,0.00029232,0.0002822
 3,0.00034069,0.00159211,0.00039846,-0.00027472,0.00120438,-0.00070110,
 0.00021226,-0.00572883,-0.00246790,0.00069617,-0.00012302,0.00000107,0
 .00005109,-0.00098956,-0.00000942,-0.00007822,0.00012659,-0.00018290,-
 0.00015082,-0.21020177,-0.15592818,0.02811424,0.03053670,0.01295328,-0
 .00956580,0.18739129,0.14393960,-0.00341668,-0.00025138,0.00249190,0.0
 0024470,-0.00002848,0.00038391,-0.00023941,-0.00008818,-0.00106985,0.0
 0009245,0.00014126,0.00007492,0.00003642,0.00000468,-0.00005658,0.0000
 6965,-0.00003063,-0.00012235,-0.00009831,0.00020154,-0.00193601,-0.000
 04752,0.00002352,-0.00003443,-0.00022282,-0.00088125,0.00064246,-0.000
 60037,0.00028708,-0.00250101,-0.00003593,-0.00127070,0.00000224,-0.000
 28152,-0.00008024,-0.00021116,-0.00003975,0.00024354,-0.00012738,-0.00
 066474,0.00144302,-0.00371141,0.00261450,0.00375456,-0.00041938,-0.000
 09958,0.00000455,-0.00012286,-0.00003751,0.00002877,0.00005923,-0.0000
 1121,0.00000463,-0.00018696,0.00004701,-0.00000242,0.00003537,0.000255
 20,-0.00006635,-0.00011870,-0.00017515,0.00016497,0.00013028,-0.000234
 62,-0.00093866,-0.00039127,-0.00071454,0.00031356,0.00034965,0.0012586
 7,0.00211432,0.00010050,0.00018955,0.00023150,0.00000560,0.00054213,0.
 00029852,-0.00087553,0.00013119,-0.00022079,-0.00019352,0.04859596,0.0
 0286767,-0.03089748,0.02838877,0.01449899,-0.00508962,-0.07554655,-0.0
 2276761,0.04378943\\-0.00000784,0.00000341,-0.00000531,-0.00000621,0.0
 0000921,0.00000712,0.00000098,0.00000494,0.00000272,0.00000252,-0.0000
 0287,0.00000839,0.00000269,-0.00000207,0.00000309,0.00000194,0.0000015
 1,0.00000542,-0.00000120,0.00000165,-0.00000339,-0.00000462,0.00000061
 ,-0.00000206,0.00000896,0.00000105,0.00000222,0.00000193,-0.00000369,-
 0.00000172,-0.00000095,-0.00000204,-0.00000303,-0.00000306,0.00000046,
 -0.00000713,-0.00000020,0.00000108,-0.00000534,-0.00000428,-0.00000574
 ,-0.00002521,-0.00000087,-0.00000187,-0.00000091,0.00000730,0.00000094
 ,0.00001732,0.00000133,0.00000129,0.00000653,-0.00000056,-0.00000106,0
 .00000424,0.00000156,-0.00000005,0.00000163,-0.00000662,0.00001333,0.0
 0000816,-0.00000253,0.00000245,0.00000087,0.00000394,-0.00000119,-0.00
 000344,0.00000202,-0.00000018,0.00000224,0.00000148,-0.00000305,-0.000
 00162,-0.00000098,-0.00000112,0.00000303,-0.00000098,-0.00000179,0.000
 00964,0.00000271,-0.00000310,0.00000122,-0.00000195,-0.00000795,-0.000
 01252,0.00000066,-0.00000319,-0.00000762,0.00000282,-0.00000099,-0.000
 00454\\\@


 We make a living by what we get,
 we make a life by what we give.
                   -- Sir Winston Churchill
 Job cpu time:       0 days  0 hours 35 minutes 53.9 seconds.
 File lengths (MBytes):  RWF=    220 Int=      0 D2E=      0 Chk=      6 Scr=      1
 Normal termination of Gaussian 09 at Tue Jan 31 07:37:14 2017.
