 Entering Gaussian System, Link 0=g09
 Initial command:
 /global/software/gaussian/g09.e01/l1.exe "/scratch/10461021.yak.local/Gau-21178.inp" -scrdir="/scratch/10461021.yak.local/"
 Entering Link 1 = /global/software/gaussian/g09.e01/l1.exe PID=     21179.
  
 Copyright (c) 1988,1990,1992,1993,1995,1998,2003,2009,2015,
            Gaussian, Inc.  All Rights Reserved.
  
 This is part of the Gaussian(R) 09 program.  It is based on
 the Gaussian(R) 03 system (copyright 2003, Gaussian, Inc.),
 the Gaussian(R) 98 system (copyright 1998, Gaussian, Inc.),
 the Gaussian(R) 94 system (copyright 1995, Gaussian, Inc.),
 the Gaussian 92(TM) system (copyright 1992, Gaussian, Inc.),
 the Gaussian 90(TM) system (copyright 1990, Gaussian, Inc.),
 the Gaussian 88(TM) system (copyright 1988, Gaussian, Inc.),
 the Gaussian 86(TM) system (copyright 1986, Carnegie Mellon
 University), and the Gaussian 82(TM) system (copyright 1983,
 Carnegie Mellon University). Gaussian is a federally registered
 trademark of Gaussian, Inc.
  
 This software contains proprietary and confidential information,
 including trade secrets, belonging to Gaussian, Inc.
  
 This software is provided under written license and may be
 used, copied, transmitted, or stored only in accord with that
 written license.
  
 The following legend is applicable only to US Government
 contracts under FAR:
  
                    RESTRICTED RIGHTS LEGEND
  
 Use, reproduction and disclosure by the US Government is
 subject to restrictions as set forth in subparagraphs (a)
 and (c) of the Commercial Computer Software - Restricted
 Rights clause in FAR 52.227-19.
  
 Gaussian, Inc.
 340 Quinnipiac St., Bldg. 40, Wallingford CT 06492
  
  
 ---------------------------------------------------------------
 Warning -- This program may not be used in any manner that
 competes with the business of Gaussian, Inc. or will provide
 assistance to any competitor of Gaussian, Inc.  The licensee
 of this program is prohibited from giving any competitor of
 Gaussian, Inc. access to this program.  By using this program,
 the user acknowledges that Gaussian, Inc. is engaged in the
 business of creating and licensing software in the field of
 computational chemistry and represents and warrants to the
 licensee that it is not a competitor of Gaussian, Inc. and that
 it will not use this program in any manner prohibited above.
 ---------------------------------------------------------------
  

 Cite this work as:
 Gaussian 09, Revision E.01,
 M. J. Frisch, G. W. Trucks, H. B. Schlegel, G. E. Scuseria, 
 M. A. Robb, J. R. Cheeseman, G. Scalmani, V. Barone, B. Mennucci, 
 G. A. Petersson, H. Nakatsuji, M. Caricato, X. Li, H. P. Hratchian, 
 A. F. Izmaylov, J. Bloino, G. Zheng, J. L. Sonnenberg, M. Hada, 
 M. Ehara, K. Toyota, R. Fukuda, J. Hasegawa, M. Ishida, T. Nakajima, 
 Y. Honda, O. Kitao, H. Nakai, T. Vreven, J. A. Montgomery, Jr., 
 J. E. Peralta, F. Ogliaro, M. Bearpark, J. J. Heyd, E. Brothers, 
 K. N. Kudin, V. N. Staroverov, T. Keith, R. Kobayashi, J. Normand, 
 K. Raghavachari, A. Rendell, J. C. Burant, S. S. Iyengar, J. Tomasi, 
 M. Cossi, N. Rega, J. M. Millam, M. Klene, J. E. Knox, J. B. Cross, 
 V. Bakken, C. Adamo, J. Jaramillo, R. Gomperts, R. E. Stratmann, 
 O. Yazyev, A. J. Austin, R. Cammi, C. Pomelli, J. W. Ochterski, 
 R. L. Martin, K. Morokuma, V. G. Zakrzewski, G. A. Voth, 
 P. Salvador, J. J. Dannenberg, S. Dapprich, A. D. Daniels, 
 O. Farkas, J. B. Foresman, J. V. Ortiz, J. Cioslowski, 
 and D. J. Fox, Gaussian, Inc., Wallingford CT, 2013.
 
 ******************************************
 Gaussian 09:  ES64L-G09RevE.01 30-Nov-2015
                13-Jan-2017 
 ******************************************
 -------------------------------------
 # b3lyp/6-31g(d) irc=(calcfc,forward)
 -------------------------------------
 1/10=4,14=-1,18=10,22=1,26=3,38=1,44=3/1,23;
 2/12=2,17=6,18=5,29=1,40=1/2;
 3/5=1,6=6,7=1,11=2,16=1,25=1,30=1,71=2,74=-5,140=1/1,2,3;
 4//1;
 5/5=2,38=5/2;
 8/6=4,10=90,11=11/1;
 11/6=1,8=1,9=11,15=111,16=1/1,2,10;
 10/6=1,13=1/2;
 6/7=2,8=2,9=2,10=2,28=1/1;
 7/10=1,18=20,25=1/1,2,3,16;
 1/10=4,14=-1,18=10,22=1,26=3,44=3/23(2);
 2/29=1/2;
 99/5=20/99;
 2/29=1/2;
 3/5=1,6=6,7=1,11=2,16=1,25=1,30=1,71=2,74=-5,140=1/1,2,3;
 4/5=5,16=3,69=1/1;
 5/5=2,38=5/2;
 8/6=4,10=90,11=11/1;
 11/6=1,8=1,9=11,15=111,16=1/1,2,10;
 10/6=1,13=1/2;
 7/10=1,18=20,25=1/1,2,3,16;
 1/14=-1,18=10,22=1,26=3,44=3/23(-8);
 2/29=1/2;
 6/7=2,8=2,9=2,10=2,19=2,28=1/1;
 99/5=20,9=1/99;
 --------------------------------
 glo_2w_beta_ts_boat3_B3LYP_631Gd
 --------------------------------
 Symbolic Z-matrix:
 Charge =  0 Multiplicity = 1
 6                     1.1941    0.21822   0.86962 
 6                    -0.49371   1.78186  -0.21675 
 8                    -0.13962  -0.75412  -0.93917 
 6                    -1.06791   0.78772  -1.2663 
 6                     1.17047  -0.46194  -0.51962 
 6                    -0.0284    1.13256   1.09144 
 1                    -0.5892    0.94168  -2.24508 
 1                     0.29683   1.9339    1.77361 
 1                    -1.32535   2.46152   0.01008 
 1                     1.59976   0.26198  -1.23045 
 1                     1.18723  -0.55291   1.65945 
 6                     2.05347  -1.71205  -0.54547 
 1                     1.99627  -2.19586  -1.52882 
 1                     1.71955  -2.43252   0.2089 
 8                    -2.30299   0.49001  -1.26947 
 8                     3.41219  -1.38001  -0.2033 
 1                     3.83701  -1.03666  -1.00507 
 8                     0.56483   2.54279  -0.79267 
 1                     1.38816   2.3468   -0.30992 
 8                    -1.14269   0.43592   1.62452 
 1                    -0.8766    0.01084   2.45423 
 8                     2.36279   1.03477   0.9993 
 1                     3.10749   0.44397   0.77465 
 8                    -1.48228  -2.2364    0.46795 
 1                    -2.51815  -1.58422   0.53705 
 1                    -0.82398  -1.55238  -0.15846 
 1                    -1.64252  -3.02573  -0.07465 
 8                    -3.42765  -0.792     0.4763 
 1                    -4.13974  -1.1672   -0.06849 
 1                    -2.9415   -0.05918  -0.18223 
 
 IRC-IRC-IRC-IRC-IRC-IRC-IRC-IRC-IRC-IRC-IRC-IRC-IRC-IRC-IRC-IRC-IRC-IRC
 ------------------------------------------------------------------------
 INPUT DATA FOR L123
 ------------------------------------------------------------------------
 GENERAL PARAMETERS:
 Rxn path following direction = Forward
 Maximum points per path      =  10
 Step size                    =   0.100 bohr
 Integration scheme           = HPC                                 
    Redo corrector integration= Yes                                 
    DWI Weight Power          =  2
    DWI will use Hessian update vectors when possible.
    Max correction cycles     =  20
 Initial Hessian              = CalcFC
 Hessian evaluation           = All updating
 Hessian updating method      = Bofill                              
 ------------------------------------------------------------------------
 IRC-IRC-IRC-IRC-IRC-IRC-IRC-IRC-IRC-IRC-IRC-IRC-IRC-IRC-IRC-IRC-IRC-IRC
                          Input orientation:                          
 ---------------------------------------------------------------------
 Center     Atomic      Atomic             Coordinates (Angstroms)
 Number     Number       Type             X           Y           Z
 ---------------------------------------------------------------------
      1          6           0        1.194101    0.218224    0.869621
      2          6           0       -0.493707    1.781861   -0.216749
      3          8           0       -0.139622   -0.754118   -0.939169
      4          6           0       -1.067906    0.787717   -1.266299
      5          6           0        1.170467   -0.461944   -0.519615
      6          6           0       -0.028400    1.132564    1.091439
      7          1           0       -0.589196    0.941675   -2.245081
      8          1           0        0.296827    1.933904    1.773613
      9          1           0       -1.325346    2.461517    0.010075
     10          1           0        1.599761    0.261984   -1.230449
     11          1           0        1.187230   -0.552912    1.659451
     12          6           0        2.053468   -1.712049   -0.545472
     13          1           0        1.996265   -2.195862   -1.528822
     14          1           0        1.719554   -2.432521    0.208897
     15          8           0       -2.302985    0.490012   -1.269474
     16          8           0        3.412186   -1.380006   -0.203295
     17          1           0        3.837008   -1.036660   -1.005065
     18          8           0        0.564828    2.542790   -0.792670
     19          1           0        1.388164    2.346802   -0.309924
     20          8           0       -1.142690    0.435919    1.624521
     21          1           0       -0.876599    0.010839    2.454232
     22          8           0        2.362788    1.034769    0.999297
     23          1           0        3.107493    0.443969    0.774649
     24          8           0       -1.482278   -2.236404    0.467945
     25          1           0       -2.518145   -1.584223    0.537054
     26          1           0       -0.823976   -1.552376   -0.158463
     27          1           0       -1.642524   -3.025731   -0.074650
     28          8           0       -3.427654   -0.791995    0.476302
     29          1           0       -4.139742   -1.167196   -0.068490
     30          1           0       -2.941499   -0.059182   -0.182229
 ---------------------------------------------------------------------
                    Distance matrix (angstroms):
                    1          2          3          4          5
     1  C    0.000000
     2  C    2.544377   0.000000
     3  O    2.448671   2.660537   0.000000
     4  C    3.162776   1.555501   1.829202   0.000000
     5  C    1.546985   2.809958   1.406316   2.670113   0.000000
     6  C    1.542637   1.532793   2.774042   2.599696   2.564222
     7  H    3.661270   2.197535   2.187061   1.100400   2.836158
     8  H    2.136787   2.146998   3.843844   3.523820   3.429611
     9  H    3.481206   1.097727   3.556306   2.120616   3.880242
    10  H    2.139338   2.778529   2.035377   2.719215   1.101658
    11  H    1.103870   3.434653   2.924696   3.929750   2.181028
    12  C    2.543021   4.336308   2.425340   4.063422   1.530726
    13  H    3.496256   4.872759   2.643545   4.284834   2.169542
    14  H    2.781925   4.779196   2.755291   4.507335   2.171497
    15  O    4.108431   2.459795   2.517360   1.270456   3.678774
    16  O    2.936901   5.025294   3.680840   5.089226   2.442990
    17  H    3.474786   5.226911   3.987199   5.239731   2.770632
    18  O    2.926227   1.425200   3.374509   2.443446   3.077301
    19  H    2.441277   1.967048   3.513657   3.062300   2.824963
    20  O    2.465331   2.371290   2.999140   2.913107   3.279355
    21  H    2.615683   3.227579   3.555765   3.805587   3.641122
    22  O    1.431569   3.193192   3.635907   4.118692   2.443128
    23  H    1.929002   3.967552   3.862168   4.660213   2.499573
    24  O    3.653703   4.194345   2.445377   3.510643   3.340814
    25  H    4.140071   3.999636   2.919877   3.313816   3.997739
    26  H    2.874824   3.351061   1.309602   2.600546   2.301581
    27  H    4.411500   4.944989   2.857680   4.036409   3.831960
    28  O    4.747195   3.963975   3.579965   3.331750   4.716302
    29  H    5.590109   4.691747   4.114569   3.833094   5.375799
    30  H    4.276275   3.063057   2.984361   2.324392   4.145396
                    6          7          8          9         10
     6  C    0.000000
     7  H    3.388701   0.000000
     8  H    1.101490   4.233138   0.000000
     9  H    2.148845   2.817368   2.453546   0.000000
    10  H    2.966476   2.506589   3.676594   3.864336   0.000000
    11  H    2.154350   4.542560   2.643881   4.256790   3.030802
    12  C    3.886576   4.112736   4.664431   5.398488   2.138188
    13  H    4.695046   4.128168   5.554200   5.923891   2.507439
    14  H    4.067438   4.768389   4.851614   5.767370   3.057192
    15  O    3.340736   2.023087   4.254906   2.545556   3.909597
    16  O    4.452749   5.056694   4.959398   6.103035   2.652557
    17  H    4.903289   5.004271   5.392419   6.318042   2.596642
    18  O    2.427040   2.450477   2.651108   2.055179   2.542600
    19  H    2.333419   3.103090   2.388018   2.734720   2.288800
    20  O    1.418144   3.941569   2.082882   2.596699   3.962593
    21  H    1.958293   4.799229   2.353370   3.490143   4.446606
    22  O    2.394960   4.387353   2.382479   4.076334   2.480156
    23  H    3.226197   4.799166   3.334318   4.930024   2.515312
    24  O    3.721888   4.272972   4.718204   4.722789   4.315721
    25  H    3.726541   4.223894   4.672297   4.250704   4.846617
    26  H    3.066610   3.260274   4.140443   4.048594   3.211784
    27  H    4.610486   4.643337   5.636944   5.497060   4.759974
    28  O    3.954396   4.297485   4.794299   3.901590   5.412834
    29  H    4.851542   4.668111   5.717806   4.592881   6.027819
    30  H    3.395384   3.284875   4.276034   3.000476   4.671719
                   11         12         13         14         15
    11  H    0.000000
    12  C    2.637357   0.000000
    13  H    3.676807   1.097417   0.000000
    14  H    2.433188   1.095286   1.775456   0.000000
    15  O    4.674173   4.934768   5.075897   5.187254   0.000000
    16  O    3.017339   1.439949   2.104157   2.035361   6.107118
    17  H    3.788797   1.961732   2.237500   2.811715   6.332468
    18  O    3.997956   4.514511   5.004573   5.204829   3.558875
    19  H    3.511005   4.119755   4.742499   4.818809   4.241814
    20  O    2.531311   4.420188   5.169418   4.292363   3.118400
    21  H    2.282298   4.533416   5.384013   4.213259   4.016238
    22  O    2.082900   3.166544   4.118580   3.613943   5.216658
    23  H    2.337532   2.738996   3.675529   3.243554   5.783929
    24  O    3.373441   3.715301   4.011108   3.218275   3.335495
    25  H    4.006642   4.699771   5.002184   4.334212   2.759038
    26  H    2.889410   2.907741   3.200893   2.716460   2.755569
    27  H    4.138774   3.950670   4.005507   3.425765   3.771507
    28  O    4.770132   5.650949   5.950652   5.408935   2.440524
    29  H    5.633805   6.235401   6.390720   6.000778   2.749978
    30  H    4.547742   5.273861   5.546190   5.245106   1.375288
                   16         17         18         19         20
    16  O    0.000000
    17  H    0.970152   0.000000
    18  O    4.882944   4.854352   0.000000
    19  H    4.242303   4.234132   0.974339   0.000000
    20  O    5.233105   5.820705   3.632814   3.714670   0.000000
    21  H    5.233601   5.939872   4.362437   4.269243   0.969494
    22  O    2.894581   3.237531   2.952615   2.094130   3.610804
    23  H    2.091912   2.427311   3.650573   2.784450   4.334328
    24  O    5.013956   5.648358   5.349812   5.463542   2.931603
    25  H    5.979853   6.562463   5.320256   5.606209   2.674964
    26  H    4.239904   4.765236   4.370513   4.485543   2.689596
    27  H    5.317429   5.903164   6.032941   6.172887   3.888449
    28  O    6.898625   7.418195   5.354530   5.801922   2.836766
    29  H    7.556128   8.032606   6.035015   6.554710   3.797181
    30  H    6.489556   6.897875   4.408767   4.954901   2.597149
                   21         22         23         24         25
    21  H    0.000000
    22  O    3.695794   0.000000
    23  H    4.345295   0.976779   0.000000
    24  O    3.059785   5.076164   5.323952   0.000000
    25  H    2.985711   5.558444   5.984799   1.226025   0.000000
    26  H    3.045092   4.264879   4.506944   1.137384   1.831657
    27  H    4.025251   5.803753   5.943298   0.971146   1.794112
    28  O    3.326354   6.094244   6.657685   2.422989   1.207693
    29  H    4.289522   6.947785   7.471891   2.914289   1.780498
    30  H    3.349573   5.543302   6.144842   2.700435   1.738490
                   26         27         28         29         30
    26  H    0.000000
    27  H    1.687549   0.000000
    28  O    2.785722   2.912012   0.000000
    29  H    3.339276   3.112923   0.971928   0.000000
    30  H    2.591157   3.240266   1.098647   1.635976   0.000000
 Symmetry turned off by external request.
 Stoichiometry    C6H16O8
 Framework group  C1[X(C6H16O8)]
 Deg. of freedom    84
 Full point group                 C1      NOp   1
 Rotational constants (GHZ):      0.8574277      0.5179367      0.4256314
 Standard basis: 6-31G(d) (6D, 7F)
   242 basis functions,   456 primitive gaussians,   242 cartesian basis functions
    58 alpha electrons       58 beta electrons
       nuclear repulsion energy      1137.2105307694 Hartrees.
 NAtoms=   30 NActive=   30 NUniq=   30 SFac= 1.00D+00 NAtFMM=   60 NAOKFM=F Big=F
 Integral buffers will be    131072 words long.
 Raffenetti 2 integral format.
 Two-electron integral symmetry is turned off.
 One-electron integrals computed using PRISM.
 NBasis=   242 RedAO= T EigKep=  1.54D-03  NBF=   242
 NBsUse=   242 1.00D-06 EigRej= -1.00D+00 NBFU=   242
 ExpMin= 1.61D-01 ExpMax= 5.48D+03 ExpMxC= 8.25D+02 IAcc=1 IRadAn=         1 AccDes= 0.00D+00
 Harris functional with IExCor=  402 and IRadAn=       1 diagonalized for initial guess.
 HarFok:  IExCor=  402 AccDes= 0.00D+00 IRadAn=         1 IDoV= 1 UseB2=F ITyADJ=14
 ICtDFT=  3500011 ScaDFX=  1.000000  1.000000  1.000000  1.000000
 FoFCou: FMM=F IPFlag=           0 FMFlag=      100000 FMFlg1=           0
         NFxFlg=           0 DoJE=T BraDBF=F KetDBF=T FulRan=T
         wScrn=  0.000000 ICntrl=     500 IOpCl=  0 I1Cent=   200000004 NGrid=           0
         NMat0=    1 NMatS0=      1 NMatT0=    0 NMatD0=    1 NMtDS0=    0 NMtDT0=    0
 Symmetry not used in FoFCou.
 Requested convergence on RMS density matrix=1.00D-08 within 128 cycles.
 Requested convergence on MAX density matrix=1.00D-06.
 Requested convergence on             energy=1.00D-06.
 No special actions if energy rises.
 Integral accuracy reduced to 1.0D-05 until final iterations.
 Initial convergence to 1.0D-05 achieved.  Increase integral accuracy.
 SCF Done:  E(RB3LYP) =  -839.951914508     A.U. after   14 cycles
            NFock= 14  Conv=0.72D-08     -V/T= 2.0086
 DoSCS=F DFT=T ScalE2(SS,OS)=  1.000000  1.000000
 Range of M.O.s used for correlation:     1   242
 NBasis=   242 NAE=    58 NBE=    58 NFC=     0 NFV=     0
 NROrb=    242 NOA=    58 NOB=    58 NVA=   184 NVB=   184
 Symmetrizing basis deriv contribution to polar:
 IMax=3 JMax=2 DiffMx= 0.00D+00
 G2DrvN: will do    31 centers at a time, making    1 passes.
 Calling FoFCou, ICntrl=  3107 FMM=F I1Cent=   0 AccDes= 0.00D+00.
 End of G2Drv F.D. properties file   721 does not exist.
 End of G2Drv F.D. properties file   722 does not exist.
 End of G2Drv F.D. properties file   788 does not exist.
          IDoAtm=111111111111111111111111111111
          Differentiating once with respect to nuclear coordinates.
          There are    93 degrees of freedom in the 1st order CPHF.  IDoFFX=6 NUNeed=     0.
     87 vectors produced by pass  0 Test12= 1.15D-14 1.08D-09 XBig12= 1.30D-01 5.31D-02.
 AX will form    87 AO Fock derivatives at one time.
     87 vectors produced by pass  1 Test12= 1.15D-14 1.08D-09 XBig12= 1.80D-02 1.58D-02.
     87 vectors produced by pass  2 Test12= 1.15D-14 1.08D-09 XBig12= 1.27D-04 1.30D-03.
     87 vectors produced by pass  3 Test12= 1.15D-14 1.08D-09 XBig12= 2.89D-07 5.38D-05.
     87 vectors produced by pass  4 Test12= 1.15D-14 1.08D-09 XBig12= 3.81D-10 1.86D-06.
     67 vectors produced by pass  5 Test12= 1.15D-14 1.08D-09 XBig12= 3.07D-13 4.60D-08.
      3 vectors produced by pass  6 Test12= 1.15D-14 1.08D-09 XBig12= 2.62D-16 1.38D-09.
 InvSVY:  IOpt=1 It=  1 EMax= 3.89D-16
 Solved reduced A of dimension   505 with    93 vectors.
 End of Minotr F.D. properties file   721 does not exist.
 End of Minotr F.D. properties file   722 does not exist.
 End of Minotr F.D. properties file   788 does not exist.

 **********************************************************************

            Population analysis using the SCF density.

 **********************************************************************

 Alpha  occ. eigenvalues --  -19.17573 -19.16900 -19.16512 -19.15452 -19.15273
 Alpha  occ. eigenvalues --  -19.13296 -19.13245 -19.10034 -10.26502 -10.24442
 Alpha  occ. eigenvalues --  -10.23991 -10.23901 -10.23392 -10.22676  -1.04958
 Alpha  occ. eigenvalues --   -1.04365  -1.03415  -1.02040  -1.01057  -1.00860
 Alpha  occ. eigenvalues --   -0.99699  -0.97085  -0.76518  -0.74152  -0.68810
 Alpha  occ. eigenvalues --   -0.63859  -0.60566  -0.57479  -0.55536  -0.54607
 Alpha  occ. eigenvalues --   -0.53106  -0.51745  -0.51698  -0.49473  -0.48705
 Alpha  occ. eigenvalues --   -0.47280  -0.45933  -0.44975  -0.43425  -0.42270
 Alpha  occ. eigenvalues --   -0.41368  -0.40296  -0.39390  -0.39077  -0.37478
 Alpha  occ. eigenvalues --   -0.36819  -0.35621  -0.34533  -0.33900  -0.31800
 Alpha  occ. eigenvalues --   -0.31604  -0.29797  -0.29416  -0.27692  -0.27567
 Alpha  occ. eigenvalues --   -0.25232  -0.24410  -0.22367
 Alpha virt. eigenvalues --    0.03230   0.05051   0.05230   0.07564   0.08928
 Alpha virt. eigenvalues --    0.09785   0.11155   0.12060   0.13950   0.14870
 Alpha virt. eigenvalues --    0.15309   0.16556   0.17927   0.19230   0.20262
 Alpha virt. eigenvalues --    0.21553   0.22296   0.22835   0.24564   0.25217
 Alpha virt. eigenvalues --    0.25611   0.27411   0.29828   0.30336   0.31924
 Alpha virt. eigenvalues --    0.33190   0.33628   0.37592   0.51952   0.52607
 Alpha virt. eigenvalues --    0.55284   0.56422   0.58167   0.58483   0.59944
 Alpha virt. eigenvalues --    0.61572   0.62737   0.63568   0.64894   0.65902
 Alpha virt. eigenvalues --    0.66166   0.69058   0.69735   0.73419   0.74309
 Alpha virt. eigenvalues --    0.76515   0.77038   0.78685   0.79183   0.79754
 Alpha virt. eigenvalues --    0.81641   0.82414   0.83289   0.84991   0.85917
 Alpha virt. eigenvalues --    0.86882   0.87474   0.88046   0.88793   0.89819
 Alpha virt. eigenvalues --    0.91601   0.92733   0.93510   0.93613   0.95867
 Alpha virt. eigenvalues --    0.97172   0.97722   0.99518   1.01476   1.01870
 Alpha virt. eigenvalues --    1.03298   1.04869   1.06335   1.08657   1.09827
 Alpha virt. eigenvalues --    1.11830   1.13710   1.16578   1.17173   1.18955
 Alpha virt. eigenvalues --    1.20529   1.22883   1.25395   1.26332   1.28820
 Alpha virt. eigenvalues --    1.29057   1.32657   1.35588   1.36724   1.37022
 Alpha virt. eigenvalues --    1.43439   1.44772   1.45864   1.48207   1.49926
 Alpha virt. eigenvalues --    1.51368   1.54149   1.58249   1.60623   1.62032
 Alpha virt. eigenvalues --    1.64141   1.65074   1.66520   1.68535   1.69027
 Alpha virt. eigenvalues --    1.70355   1.70465   1.71471   1.72723   1.73941
 Alpha virt. eigenvalues --    1.75364   1.76089   1.77466   1.78420   1.79156
 Alpha virt. eigenvalues --    1.80529   1.82147   1.83249   1.84970   1.86457
 Alpha virt. eigenvalues --    1.88218   1.89404   1.93396   1.95214   1.97536
 Alpha virt. eigenvalues --    1.99519   2.01764   2.02536   2.03797   2.05507
 Alpha virt. eigenvalues --    2.08504   2.09949   2.12965   2.13809   2.17951
 Alpha virt. eigenvalues --    2.18926   2.22587   2.24296   2.27469   2.28941
 Alpha virt. eigenvalues --    2.33096   2.33260   2.36450   2.38897   2.41328
 Alpha virt. eigenvalues --    2.44292   2.46116   2.47912   2.48468   2.51268
 Alpha virt. eigenvalues --    2.53276   2.54599   2.57024   2.58750   2.59405
 Alpha virt. eigenvalues --    2.61514   2.66207   2.68492   2.72293   2.75995
 Alpha virt. eigenvalues --    2.77044   2.79035   2.81880   2.86744   2.88099
 Alpha virt. eigenvalues --    2.92209   2.95253   3.02920   3.04754   3.14567
 Alpha virt. eigenvalues --    3.73770   3.77624   3.78459   3.89018   3.90043
 Alpha virt. eigenvalues --    4.03696   4.10136   4.22113   4.31523   4.38521
 Alpha virt. eigenvalues --    4.49273   4.55986   4.69540   4.80787
          Condensed to atoms (all electrons):
               1          2          3          4          5          6
     1  C    5.155172  -0.031436  -0.039934  -0.021175   0.278793   0.297625
     2  C   -0.031436   5.047516  -0.023117   0.262213  -0.000967   0.329264
     3  O   -0.039934  -0.023117   8.592686   0.063756   0.151334  -0.002648
     4  C   -0.021175   0.262213   0.063756   4.732946  -0.003568  -0.019086
     5  C    0.278793  -0.000967   0.151334  -0.003568   5.016397  -0.030073
     6  C    0.297625   0.329264  -0.002648  -0.019086  -0.030073   4.945410
     7  H    0.001327  -0.090319  -0.028316   0.359231  -0.004162   0.003525
     8  H   -0.075134  -0.046053   0.000019   0.005381   0.006523   0.369215
     9  H    0.006897   0.359411   0.002341  -0.059162  -0.000020  -0.033218
    10  H   -0.062106  -0.000581  -0.033850  -0.007190   0.344001  -0.008234
    11  H    0.351389   0.004935   0.003994   0.000334  -0.052193  -0.056037
    12  C   -0.038171   0.000252  -0.032955   0.000479   0.327615   0.003235
    13  H    0.006601   0.000007   0.005496  -0.000045  -0.044016  -0.000116
    14  H   -0.012087   0.000018   0.002525  -0.000059  -0.040039  -0.000099
    15  O    0.000555  -0.045772  -0.038036   0.378110   0.000647  -0.000878
    16  O    0.004594  -0.000001   0.001464  -0.000009  -0.044423   0.000116
    17  H   -0.001627   0.000002  -0.000018  -0.000001   0.000139  -0.000011
    18  O    0.007076   0.217235   0.001153  -0.038718  -0.008441  -0.024699
    19  H   -0.005349  -0.028307  -0.000085   0.002615  -0.001109  -0.013553
    20  O   -0.033108  -0.048146  -0.001206   0.004707  -0.000914   0.203789
    21  H   -0.004425   0.006528   0.000267  -0.000041  -0.000375  -0.020343
    22  O    0.169803   0.000778   0.001858   0.000386  -0.030859  -0.034848
    23  H   -0.023208  -0.000211   0.000100  -0.000031  -0.005191   0.004982
    24  O    0.000311  -0.000192  -0.091597   0.002351   0.007474  -0.000038
    25  H   -0.000001  -0.000008   0.003164  -0.000487  -0.000120  -0.000032
    26  H   -0.001815  -0.000194   0.119878  -0.001183  -0.014132  -0.001594
    27  H   -0.000020  -0.000003   0.004767  -0.000097  -0.000492  -0.000005
    28  O   -0.000012   0.000026  -0.000572   0.009965  -0.000004   0.000147
    29  H    0.000001   0.000011  -0.000005  -0.000206   0.000001  -0.000016
    30  H    0.000151  -0.004873   0.001464  -0.020978  -0.000006  -0.000435
               7          8          9         10         11         12
     1  C    0.001327  -0.075134   0.006897  -0.062106   0.351389  -0.038171
     2  C   -0.090319  -0.046053   0.359411  -0.000581   0.004935   0.000252
     3  O   -0.028316   0.000019   0.002341  -0.033850   0.003994  -0.032955
     4  C    0.359231   0.005381  -0.059162  -0.007190   0.000334   0.000479
     5  C   -0.004162   0.006523  -0.000020   0.344001  -0.052193   0.327615
     6  C    0.003525   0.369215  -0.033218  -0.008234  -0.056037   0.003235
     7  H    0.637455  -0.000225   0.004174   0.007541   0.000017  -0.000194
     8  H   -0.000225   0.632115  -0.009819  -0.000407  -0.000977  -0.000186
     9  H    0.004174  -0.009819   0.600681   0.000253  -0.000173   0.000015
    10  H    0.007541  -0.000407   0.000253   0.652339   0.007152  -0.045783
    11  H    0.000017  -0.000977  -0.000173   0.007152   0.651885  -0.009166
    12  C   -0.000194  -0.000186   0.000015  -0.045783  -0.009166   4.974237
    13  H   -0.000003   0.000004  -0.000000  -0.006433   0.000057   0.359630
    14  H    0.000004  -0.000005  -0.000000   0.005952   0.006630   0.366754
    15  O   -0.038922  -0.000153   0.004869   0.000216   0.000008  -0.000037
    16  O    0.000003   0.000004  -0.000000   0.001031   0.000336   0.215869
    17  H   -0.000001  -0.000000  -0.000000   0.004266   0.000109  -0.027009
    18  O    0.011074   0.001344  -0.038694   0.011841  -0.000043   0.000303
    19  H   -0.000520   0.002443   0.002997   0.002773   0.000923  -0.000203
    20  O    0.000095  -0.032580   0.002432  -0.000089  -0.001013  -0.000113
    21  H    0.000015  -0.004600  -0.000271   0.000037   0.008496  -0.000025
    22  O   -0.000002   0.007388  -0.000155   0.003117  -0.031882   0.000041
    23  H   -0.000001   0.000017   0.000012   0.001080  -0.002827  -0.005400
    24  O   -0.000059  -0.000003   0.000009  -0.000201   0.000267  -0.000085
    25  H    0.000047   0.000010  -0.000009   0.000011   0.000010  -0.000012
    26  H    0.000823   0.000083  -0.000110   0.002502   0.000972  -0.003321
    27  H    0.000010   0.000001  -0.000001   0.000014   0.000008   0.000095
    28  O   -0.000230   0.000002  -0.000151  -0.000001   0.000000   0.000001
    29  H    0.000009   0.000001  -0.000002   0.000000  -0.000000  -0.000000
    30  H    0.002873  -0.000039   0.001594   0.000013  -0.000007   0.000002
              13         14         15         16         17         18
     1  C    0.006601  -0.012087   0.000555   0.004594  -0.001627   0.007076
     2  C    0.000007   0.000018  -0.045772  -0.000001   0.000002   0.217235
     3  O    0.005496   0.002525  -0.038036   0.001464  -0.000018   0.001153
     4  C   -0.000045  -0.000059   0.378110  -0.000009  -0.000001  -0.038718
     5  C   -0.044016  -0.040039   0.000647  -0.044423   0.000139  -0.008441
     6  C   -0.000116  -0.000099  -0.000878   0.000116  -0.000011  -0.024699
     7  H   -0.000003   0.000004  -0.038922   0.000003  -0.000001   0.011074
     8  H    0.000004  -0.000005  -0.000153   0.000004  -0.000000   0.001344
     9  H   -0.000000  -0.000000   0.004869  -0.000000  -0.000000  -0.038694
    10  H   -0.006433   0.005952   0.000216   0.001031   0.004266   0.011841
    11  H    0.000057   0.006630   0.000008   0.000336   0.000109  -0.000043
    12  C    0.359630   0.366754  -0.000037   0.215869  -0.027009   0.000303
    13  H    0.603923  -0.037679   0.000001  -0.025193  -0.009445  -0.000001
    14  H   -0.037679   0.574210   0.000001  -0.034542   0.006732  -0.000004
    15  O    0.000001   0.000001   8.294366   0.000000  -0.000000   0.001568
    16  O   -0.025193  -0.034542   0.000000   8.235506   0.233966  -0.000002
    17  H   -0.009445   0.006732  -0.000000   0.233966   0.390261  -0.000005
    18  O   -0.000001  -0.000004   0.001568  -0.000002  -0.000005   8.307343
    19  H    0.000006   0.000002  -0.000088   0.000010   0.000002   0.225519
    20  O    0.000003  -0.000028  -0.000387   0.000000   0.000000   0.001401
    21  H   -0.000000   0.000017   0.000109   0.000000   0.000000  -0.000102
    22  O   -0.000243   0.000060  -0.000001  -0.011862   0.001156  -0.010056
    23  H    0.000491   0.000204   0.000000   0.045420  -0.001813   0.000245
    24  O    0.000014   0.001417  -0.001867   0.000001  -0.000000   0.000000
    25  H   -0.000001   0.000001   0.005147   0.000000   0.000000  -0.000000
    26  H    0.000004   0.002387   0.005377   0.000034   0.000008  -0.000021
    27  H    0.000015   0.000073   0.000142   0.000000   0.000000  -0.000000
    28  O    0.000000   0.000001  -0.082146   0.000000  -0.000000  -0.000000
    29  H    0.000000  -0.000000   0.004973   0.000000   0.000000  -0.000000
    30  H   -0.000000  -0.000002   0.128347  -0.000000  -0.000000   0.000037
              19         20         21         22         23         24
     1  C   -0.005349  -0.033108  -0.004425   0.169803  -0.023208   0.000311
     2  C   -0.028307  -0.048146   0.006528   0.000778  -0.000211  -0.000192
     3  O   -0.000085  -0.001206   0.000267   0.001858   0.000100  -0.091597
     4  C    0.002615   0.004707  -0.000041   0.000386  -0.000031   0.002351
     5  C   -0.001109  -0.000914  -0.000375  -0.030859  -0.005191   0.007474
     6  C   -0.013553   0.203789  -0.020343  -0.034848   0.004982  -0.000038
     7  H   -0.000520   0.000095   0.000015  -0.000002  -0.000001  -0.000059
     8  H    0.002443  -0.032580  -0.004600   0.007388   0.000017  -0.000003
     9  H    0.002997   0.002432  -0.000271  -0.000155   0.000012   0.000009
    10  H    0.002773  -0.000089   0.000037   0.003117   0.001080  -0.000201
    11  H    0.000923  -0.001013   0.008496  -0.031882  -0.002827   0.000267
    12  C   -0.000203  -0.000113  -0.000025   0.000041  -0.005400  -0.000085
    13  H    0.000006   0.000003  -0.000000  -0.000243   0.000491   0.000014
    14  H    0.000002  -0.000028   0.000017   0.000060   0.000204   0.001417
    15  O   -0.000088  -0.000387   0.000109  -0.000001   0.000000  -0.001867
    16  O    0.000010   0.000000   0.000000  -0.011862   0.045420   0.000001
    17  H    0.000002   0.000000   0.000000   0.001156  -0.001813  -0.000000
    18  O    0.225519   0.001401  -0.000102  -0.010056   0.000245   0.000000
    19  H    0.355086   0.000220  -0.000004   0.041068  -0.000668  -0.000001
    20  O    0.000220   8.293225   0.228923   0.001229  -0.000089   0.000433
    21  H   -0.000004   0.228923   0.385363  -0.000010  -0.000022   0.000852
    22  O    0.041068   0.001229  -0.000010   8.331039   0.218965   0.000001
    23  H   -0.000668  -0.000089  -0.000022   0.218965   0.357813  -0.000000
    24  O   -0.000001   0.000433   0.000852   0.000001  -0.000000   8.528688
    25  H    0.000000   0.001324  -0.000036  -0.000000   0.000000   0.129091
    26  H    0.000020   0.003318  -0.000151  -0.000000   0.000009   0.120847
    27  H    0.000000   0.000301  -0.000033  -0.000000   0.000000   0.225514
    28  O   -0.000000  -0.000945   0.000253   0.000000  -0.000000  -0.100310
    29  H    0.000000   0.000332  -0.000031  -0.000000   0.000000   0.004635
    30  H   -0.000001   0.004482  -0.000056  -0.000000   0.000000   0.006210
              25         26         27         28         29         30
     1  C   -0.000001  -0.001815  -0.000020  -0.000012   0.000001   0.000151
     2  C   -0.000008  -0.000194  -0.000003   0.000026   0.000011  -0.004873
     3  O    0.003164   0.119878   0.004767  -0.000572  -0.000005   0.001464
     4  C   -0.000487  -0.001183  -0.000097   0.009965  -0.000206  -0.020978
     5  C   -0.000120  -0.014132  -0.000492  -0.000004   0.000001  -0.000006
     6  C   -0.000032  -0.001594  -0.000005   0.000147  -0.000016  -0.000435
     7  H    0.000047   0.000823   0.000010  -0.000230   0.000009   0.002873
     8  H    0.000010   0.000083   0.000001   0.000002   0.000001  -0.000039
     9  H   -0.000009  -0.000110  -0.000001  -0.000151  -0.000002   0.001594
    10  H    0.000011   0.002502   0.000014  -0.000001   0.000000   0.000013
    11  H    0.000010   0.000972   0.000008   0.000000  -0.000000  -0.000007
    12  C   -0.000012  -0.003321   0.000095   0.000001  -0.000000   0.000002
    13  H   -0.000001   0.000004   0.000015   0.000000   0.000000  -0.000000
    14  H    0.000001   0.002387   0.000073   0.000001  -0.000000  -0.000002
    15  O    0.005147   0.005377   0.000142  -0.082146   0.004973   0.128347
    16  O    0.000000   0.000034   0.000000   0.000000   0.000000  -0.000000
    17  H    0.000000   0.000008   0.000000  -0.000000   0.000000  -0.000000
    18  O   -0.000000  -0.000021  -0.000000  -0.000000  -0.000000   0.000037
    19  H    0.000000   0.000020   0.000000  -0.000000   0.000000  -0.000001
    20  O    0.001324   0.003318   0.000301  -0.000945   0.000332   0.004482
    21  H   -0.000036  -0.000151  -0.000033   0.000253  -0.000031  -0.000056
    22  O   -0.000000  -0.000000  -0.000000   0.000000  -0.000000  -0.000000
    23  H    0.000000   0.000009   0.000000  -0.000000   0.000000   0.000000
    24  O    0.129091   0.120847   0.225514  -0.100310   0.004635   0.006210
    25  H    0.280228  -0.005456  -0.005023   0.135909  -0.004601  -0.010262
    26  H   -0.005456   0.298809  -0.004819   0.005371  -0.000027  -0.000625
    27  H   -0.005023  -0.004819   0.377773   0.004736  -0.000216  -0.000229
    28  O    0.135909   0.005371   0.004736   8.465913   0.231630   0.130974
    29  H   -0.004601  -0.000027  -0.000216   0.231630   0.370026  -0.010364
    30  H   -0.010262  -0.000625  -0.000229   0.130974  -0.010364   0.300131
 Mulliken charges:
               1
     1  C    0.069314
     2  C    0.091984
     3  O   -0.663927
     4  C    0.349561
     5  C    0.148180
     6  C    0.088654
     7  H    0.134732
     8  H    0.145634
     9  H    0.156102
    10  H    0.120736
    11  H    0.116795
    12  C   -0.085869
    13  H    0.146924
    14  H    0.157556
    15  O   -0.616149
    16  O   -0.622321
    17  H    0.403289
    18  O   -0.665354
    19  H    0.416202
    20  O   -0.627593
    21  H    0.399665
    22  O   -0.656969
    23  H    0.410123
    24  O   -0.833763
    25  H    0.471105
    26  H    0.473005
    27  H    0.397488
    28  O   -0.800555
    29  H    0.403851
    30  H    0.471597
 Sum of Mulliken charges =  -0.00000
 Mulliken charges with hydrogens summed into heavy atoms:
               1
     1  C    0.186109
     2  C    0.248086
     3  O   -0.663927
     4  C    0.484293
     5  C    0.268917
     6  C    0.234288
    12  C    0.218612
    15  O   -0.616149
    16  O   -0.219031
    18  O   -0.249152
    20  O   -0.227928
    22  O   -0.246847
    24  O    0.036730
    28  O    0.545999
 APT charges:
               1
     1  C   -0.149544
     2  C   -0.351022
     3  O   -0.493415
     4  C   -0.408133
     5  C   -0.184952
     6  C   -0.439013
     7  H    0.418849
     8  H    0.495432
     9  H    0.523166
    10  H    0.320297
    11  H    0.346552
    12  C   -0.625033
    13  H    0.467733
    14  H    0.356679
    15  O   -0.245918
    16  O   -0.861052
    17  H    0.737010
    18  O   -0.599995
    19  H    0.467467
    20  O   -0.798672
    21  H    0.676274
    22  O   -0.835673
    23  H    0.635515
    24  O   -1.121781
    25  H    0.386921
    26  H    0.379659
    27  H    0.793358
    28  O   -1.153500
    29  H    0.921510
    30  H    0.341281
 Sum of APT charges =  -0.00000
 APT charges with hydrogens summed into heavy atoms:
               1
     1  C    0.197008
     2  C    0.172144
     3  O   -0.493415
     4  C    0.010717
     5  C    0.135346
     6  C    0.056418
    12  C    0.199379
    15  O   -0.245918
    16  O   -0.124041
    18  O   -0.132528
    20  O   -0.122399
    22  O   -0.200157
    24  O    0.051235
    28  O    0.496212
 Electronic spatial extent (au):  <R**2>=           2889.6797
 Charge=              0.0000 electrons
 Dipole moment (field-independent basis, Debye):
    X=              0.9288    Y=             -4.3316    Z=              0.0223  Tot=              4.4301
 Quadrupole moment (field-independent basis, Debye-Ang):
   XX=            -74.5808   YY=            -82.5244   ZZ=            -83.4703
   XY=              7.3585   XZ=             -4.8231   YZ=              5.7489
 Traceless Quadrupole moment (field-independent basis, Debye-Ang):
   XX=              5.6110   YY=             -2.3326   ZZ=             -3.2784
   XY=              7.3585   XZ=             -4.8231   YZ=              5.7489
 Octapole moment (field-independent basis, Debye-Ang**2):
  XXX=            -23.0482  YYY=            -49.7272  ZZZ=             18.6477  XYY=            -32.8072
  XXY=            -28.1846  XXZ=            -35.1147  XZZ=             11.5409  YZZ=             -8.4835
  YYZ=             -1.3568  XYZ=             -2.9282
 Hexadecapole moment (field-independent basis, Debye-Ang**3):
 XXXX=          -1515.4317 YYYY=           -984.0197 ZZZZ=           -477.7057 XXXY=            170.0709
 XXXZ=            -49.4327 YYYX=             70.9958 YYYZ=             49.9362 ZZZX=            -33.7724
 ZZZY=             -3.3478 XXYY=           -441.0538 XXZZ=           -405.5710 YYZZ=           -271.6033
 XXYZ=             32.9307 YYXZ=              5.2137 ZZXY=             -9.2490
 N-N= 1.137210530769D+03 E-N=-4.247665797637D+03  KE= 8.327797636547D+02
  Exact polarizability:   0.000   0.000   0.000   0.000   0.000   0.000
 Approx polarizability: 158.914   2.549 133.959  -2.096  -7.508 122.296
 Calling FoFJK, ICntrl=    100147 FMM=F ISym2X=0 I1Cent= 0 IOpClX= 0 NMat=1 NMatS=1 NMatT=0.
 -------------------------------------------------------------------
 Center     Atomic                   Forces (Hartrees/Bohr)
 Number     Number              X              Y              Z
 -------------------------------------------------------------------
      1        6          -0.000000155    0.000007807    0.000003476
      2        6          -0.000002318    0.000005047   -0.000018266
      3        8           0.000003687   -0.000005401    0.000005300
      4        6          -0.000002205   -0.000009079   -0.000009236
      5        6           0.000001120   -0.000004640    0.000006404
      6        6          -0.000000936    0.000010650   -0.000011931
      7        1          -0.000001761   -0.000007747    0.000001002
      8        1          -0.000001543    0.000005392   -0.000006024
      9        1           0.000003859   -0.000001390   -0.000009326
     10        1          -0.000000242   -0.000005904    0.000000790
     11        1           0.000000835    0.000010580   -0.000000894
     12        6          -0.000001229   -0.000002559    0.000018073
     13        1          -0.000000691   -0.000008036    0.000004720
     14        1          -0.000001861   -0.000000951    0.000012693
     15        8           0.000011627   -0.000006469   -0.000008238
     16        8           0.000000149   -0.000001304    0.000019481
     17        1           0.000000838   -0.000002871    0.000002640
     18        8           0.000071507   -0.000040780    0.000030965
     19        1          -0.000070012    0.000022810   -0.000057906
     20        8           0.000011107    0.000003966    0.000010696
     21        1          -0.000009142    0.000017432   -0.000015515
     22        8          -0.000014054    0.000008973   -0.000008366
     23        1           0.000005976   -0.000002313   -0.000002067
     24        8           0.000000700    0.000024709    0.000029051
     25        1          -0.000001230    0.000001014    0.000003306
     26        1           0.000001024    0.000002359    0.000006319
     27        1          -0.000006063   -0.000024995   -0.000006591
     28        8           0.000003152    0.000006914    0.000002305
     29        1          -0.000002731   -0.000002808   -0.000001837
     30        1           0.000000593   -0.000000405   -0.000001026
 -------------------------------------------------------------------
 Cartesian Forces:  Max     0.000071507 RMS     0.000015883
 IRC-IRC-IRC-IRC-IRC-IRC-IRC-IRC-IRC-IRC-IRC-IRC-IRC-IRC-IRC-IRC-IRC-IRC
          ******** Start new reaction path calculation ********
 Supplied step size of   0.1000 bohr.
    Integration on MW PES will use step size of   0.1069 sqrt(amu)*bohr.
 Point Number:   0          Path Number:   1
 Calculating another point on the path.
 IRC-IRC-IRC-IRC-IRC-IRC-IRC-IRC-IRC-IRC-IRC-IRC-IRC-IRC-IRC-IRC-IRC-IRC
                          Input orientation:                          
 ---------------------------------------------------------------------
 Center     Atomic      Atomic             Coordinates (Angstroms)
 Number     Number       Type             X           Y           Z
 ---------------------------------------------------------------------
      1          6           0        1.195309    0.194304    0.872366
      2          6           0       -0.492446    1.757836   -0.214004
      3          8           0       -0.138317   -0.775521   -0.937543
      4          6           0       -1.064200    0.761492   -1.262262
      5          6           0        1.171377   -0.485298   -0.517361
      6          6           0       -0.027118    1.108648    1.094267
      7          1           0       -0.591784    0.920294   -2.242604
      8          1           0        0.297861    1.910065    1.776460
      9          1           0       -1.324327    2.437438    0.012403
     10          1           0        1.604055    0.238480   -1.226881
     11          1           0        1.188308   -0.576876    1.662183
     12          6           0        2.054424   -1.735932   -0.542668
     13          1           0        1.997425   -2.219825   -1.525988
     14          1           0        1.720562   -2.456377    0.211722
     15          8           0       -2.303200    0.465069   -1.265498
     16          8           0        3.413353   -1.403932   -0.200457
     17          1           0        3.837938   -1.060327   -1.002232
     18          8           0        0.566013    2.518900   -0.789811
     19          1           0        1.389418    2.322425   -0.307278
     20          8           0       -1.141564    0.412047    1.627395
     21          1           0       -0.875097   -0.013577    2.456697
     22          8           0        2.364018    1.010907    1.002222
     23          1           0        3.108518    0.420031    0.777101
     24          8           0       -1.480446   -2.261303    0.470876
     25          1           0       -2.546941   -1.586960    0.541209
     26          1           0       -0.838759   -1.594609   -0.140101
     27          1           0       -1.637740   -3.050645   -0.072330
     28          8           0       -3.425261   -0.815831    0.478660
     29          1           0       -4.137059   -1.193831   -0.065016
     30          1           0       -2.927048   -0.074344   -0.196108
 ---------------------------------------------------------------------
                    Distance matrix (angstroms):
                    1          2          3          4          5
     1  C    0.000000
     2  C    2.544277   0.000000
     3  O    2.448446   2.658348   0.000000
     4  C    3.159702   1.555136   1.823489   0.000000
     5  C    1.547182   2.809266   1.405731   2.665927   0.000000
     6  C    1.542593   1.532823   2.773213   2.597938   2.564058
     7  H    3.663851   2.196944   2.187374   1.099757   2.839170
     8  H    2.136969   2.147023   3.842973   3.522537   3.429637
     9  H    3.481343   1.097791   3.554170   2.121611   3.879635
    10  H    2.139127   2.780230   2.036608   2.719260   1.102036
    11  H    1.103893   3.434515   2.925401   3.926501   2.181533
    12  C    2.542874   4.336009   2.426196   4.059650   1.531175
    13  H    3.496214   4.872632   2.644556   4.281513   2.169855
    14  H    2.781807   4.778936   2.757085   4.503578   2.172169
    15  O    4.108934   2.460837   2.516612   1.273970   3.679075
    16  O    2.936840   5.025159   3.681380   5.085762   2.443517
    17  H    3.474436   5.226430   3.986967   5.236181   2.770615
    18  O    2.926190   1.425169   3.372108   2.443212   3.076670
    19  H    2.440930   1.966945   3.511194   3.060841   2.824002
    20  O    2.465452   2.371340   2.999288   2.911737   3.279466
    21  H    2.615320   3.227533   3.555878   3.803571   3.640823
    22  O    1.431637   3.193195   3.635340   4.116160   2.443389
    23  H    1.928833   3.967235   3.861513   4.656949   2.499553
    24  O    3.653883   4.195078   2.447959   3.509177   3.341103
    25  H    4.157763   3.997369   2.940511   3.311534   4.019964
    26  H    2.891839   3.371095   1.340686   2.619406   2.326702
    27  H    4.410024   4.945024   2.858855   4.034511   3.830169
    28  O    4.746056   3.962948   3.579282   3.330672   4.714912
    29  H    5.589253   4.692306   4.114149   3.833947   5.374581
    30  H    4.267040   3.047047   2.969578   2.303370   4.131485
                    6          7          8          9         10
     6  C    0.000000
     7  H    3.389548   0.000000
     8  H    1.101485   4.233674   0.000000
     9  H    2.149154   2.814854   2.453877   0.000000
    10  H    2.967431   2.513617   3.677009   3.866091   0.000000
    11  H    2.154248   4.545065   2.644018   4.256901   3.030568
    12  C    3.886387   4.116762   4.664457   5.398247   2.137588
    13  H    4.695024   4.132540   5.554339   5.923748   2.507483
    14  H    4.067268   4.772061   4.851628   5.767192   3.057025
    15  O    3.341142   2.022601   4.255237   2.545872   3.914010
    16  O    4.452663   5.060979   4.959543   6.103036   2.650400
    17  H    4.902899   5.008374   5.392263   6.317660   2.593762
    18  O    2.427007   2.450846   2.651100   2.055132   2.543399
    19  H    2.333272   3.104291   2.388201   2.734929   2.287918
    20  O    1.418262   3.941759   2.082841   2.596885   3.964270
    21  H    1.958232   4.799564   2.353498   3.490538   4.447299
    22  O    2.394903   4.390202   2.382632   4.076594   2.478525
    23  H    3.225988   4.802199   3.334473   4.929991   2.512432
    24  O    3.722546   4.274957   4.718817   4.723636   4.318036
    25  H    3.731177   4.225941   4.674177   4.239127   4.867149
    26  H    3.080588   3.287287   4.153054   4.064042   3.241704
    27  H    4.610290   4.644618   5.636774   5.497678   4.760311
    28  O    3.953475   4.295114   4.793374   3.900652   5.414283
    29  H    4.851490   4.666946   5.717843   4.593862   6.030077
    30  H    3.387348   3.260508   4.269537   2.986845   4.657386
                   11         12         13         14         15
    11  H    0.000000
    12  C    2.637221   0.000000
    13  H    3.676736   1.097415   0.000000
    14  H    2.433034   1.095266   1.775457   0.000000
    15  O    4.674141   4.935157   5.076602   5.187262   0.000000
    16  O    3.017329   1.440147   2.104178   2.035454   6.107901
    17  H    3.788584   1.961776   2.237463   2.811746   6.333223
    18  O    3.997919   4.514425   5.004639   5.204750   3.560461
    19  H    3.510723   4.119212   4.742043   4.818295   4.243040
    20  O    2.531301   4.420104   5.169509   4.292289   3.117857
    21  H    2.281710   4.532636   5.383372   4.212437   4.015385
    22  O    2.083002   3.166647   4.118721   3.613998   5.217607
    23  H    2.337605   2.738810   3.675267   3.243423   5.784542
    24  O    3.373241   3.714645   4.010583   3.217401   3.335419
    25  H    4.028516   4.729644   5.032403   4.367611   2.744889
    26  H    2.897069   2.924472   3.217999   2.723333   2.766474
    27  H    4.136982   3.947374   4.002226   3.422285   3.771834
    28  O    4.768946   5.649481   5.949398   5.407600   2.437584
    29  H    5.632352   6.233497   6.388975   5.998527   2.748843
    30  H    4.543340   5.262702   5.533724   5.238385   1.350462
                   16         17         18         19         20
    16  O    0.000000
    17  H    0.970143   0.000000
    18  O    4.882959   4.854017   0.000000
    19  H    4.241870   4.233347   0.974390   0.000000
    20  O    5.233172   5.820503   3.632841   3.714616   0.000000
    21  H    5.233007   5.939071   4.362345   4.269016   0.969486
    22  O    2.894648   3.237326   2.952667   2.093971   3.610898
    23  H    2.091742   2.426837   3.650314   2.783934   4.334312
    24  O    5.013486   5.647795   5.350483   5.463717   2.932435
    25  H    6.009049   6.589858   5.321671   5.612321   2.674119
    26  H    4.256813   4.785417   4.395050   4.509532   2.691171
    27  H    5.314285   5.899926   6.032507   6.171610   3.889150
    28  O    6.897370   7.416662   5.353478   5.800646   2.835938
    29  H    7.554549   8.030988   6.035609   6.554746   3.796852
    30  H    6.478310   6.883823   4.390771   4.938496   2.598016
                   21         22         23         24         25
    21  H    0.000000
    22  O    3.695529   0.000000
    23  H    4.344910   0.976777   0.000000
    24  O    3.059771   5.076376   5.323712   0.000000
    25  H    2.989931   5.574851   6.005653   1.263763   0.000000
    26  H    3.040451   4.283853   4.525597   1.108844   1.839056
    27  H    4.025094   5.802149   5.940883   0.971018   1.829057
    28  O    3.325594   6.093180   6.656327   2.423171   1.170469
    29  H    4.288640   6.947220   7.470749   2.912777   1.746578
    30  H    3.354335   5.532553   6.133481   2.705608   1.725144
                   26         27         28         29         30
    26  H    0.000000
    27  H    1.662229   0.000000
    28  O    2.771165   2.914312   0.000000
    29  H    3.323409   3.113585   0.972175   0.000000
    30  H    2.583659   3.245921   1.119523   1.653651   0.000000
 Symmetry turned off by external request.
 Stoichiometry    C6H16O8
 Framework group  C1[X(C6H16O8)]
 Deg. of freedom    84
 Full point group                 C1      NOp   1
 Rotational constants (GHZ):      0.8575665      0.5179874      0.4256707
 Standard basis: 6-31G(d) (6D, 7F)
   242 basis functions,   456 primitive gaussians,   242 cartesian basis functions
    58 alpha electrons       58 beta electrons
       nuclear repulsion energy      1137.2327066955 Hartrees.
 NAtoms=   30 NActive=   30 NUniq=   30 SFac= 1.00D+00 NAtFMM=   60 NAOKFM=F Big=F
 Integral buffers will be    131072 words long.
 Raffenetti 2 integral format.
 Two-electron integral symmetry is turned off.
 One-electron integrals computed using PRISM.
 NBasis=   242 RedAO= T EigKep=  1.54D-03  NBF=   242
 NBsUse=   242 1.00D-06 EigRej= -1.00D+00 NBFU=   242
 Initial guess from the checkpoint file:  "/scratch/10461021.yak.local/Gau-21179.chk"
 B after Tr=     0.002055   -0.045120    0.005344
         Rot=    1.000000    0.000024    0.000020    0.000041 Ang=   0.01 deg.
 ExpMin= 1.61D-01 ExpMax= 5.48D+03 ExpMxC= 8.25D+02 IAcc=1 IRadAn=         1 AccDes= 0.00D+00
 Harris functional with IExCor=  402 and IRadAn=       1 diagonalized for initial guess.
 HarFok:  IExCor=  402 AccDes= 0.00D+00 IRadAn=         1 IDoV= 1 UseB2=F ITyADJ=14
 ICtDFT=  3500011 ScaDFX=  1.000000  1.000000  1.000000  1.000000
 FoFCou: FMM=F IPFlag=           0 FMFlag=      100000 FMFlg1=           0
         NFxFlg=           0 DoJE=T BraDBF=F KetDBF=T FulRan=T
         wScrn=  0.000000 ICntrl=     500 IOpCl=  0 I1Cent=   200000004 NGrid=           0
         NMat0=    1 NMatS0=      1 NMatT0=    0 NMatD0=    1 NMtDS0=    0 NMtDT0=    0
 Symmetry not used in FoFCou.
 Requested convergence on RMS density matrix=1.00D-08 within 128 cycles.
 Requested convergence on MAX density matrix=1.00D-06.
 Requested convergence on             energy=1.00D-06.
 No special actions if energy rises.
 Integral accuracy reduced to 1.0D-05 until final iterations.
 Initial convergence to 1.0D-05 achieved.  Increase integral accuracy.
 SCF Done:  E(RB3LYP) =  -839.952192365     A.U. after   11 cycles
            NFock= 11  Conv=0.10D-07     -V/T= 2.0086
 DoSCS=F DFT=T ScalE2(SS,OS)=  1.000000  1.000000
 Range of M.O.s used for correlation:     1   242
 NBasis=   242 NAE=    58 NBE=    58 NFC=     0 NFV=     0
 NROrb=    242 NOA=    58 NOB=    58 NVA=   184 NVB=   184
 Symmetrizing basis deriv contribution to polar:
 IMax=3 JMax=2 DiffMx= 0.00D+00
 Calling FoFJK, ICntrl=      2147 FMM=F ISym2X=0 I1Cent= 0 IOpClX= 0 NMat=1 NMatS=1 NMatT=0.
 -------------------------------------------------------------------
 Center     Atomic                   Forces (Hartrees/Bohr)
 Number     Number              X              Y              Z
 -------------------------------------------------------------------
      1        6          -0.000008832    0.000007729   -0.000088636
      2        6           0.000047216   -0.000109097   -0.000114526
      3        8           0.000118364    0.003870929   -0.001887495
      4        6           0.002945527   -0.002635660    0.001370009
      5        6          -0.000318728    0.000662416   -0.000638623
      6        6           0.000068078    0.000011364   -0.000006548
      7        1          -0.000384756    0.000234275   -0.000020173
      8        1          -0.000016619    0.000013826   -0.000006148
      9        1          -0.000014588   -0.000016912   -0.000056081
     10        1           0.000286592    0.000028528    0.000073289
     11        1          -0.000012034    0.000007373   -0.000013338
     12        6          -0.000298056    0.000029094   -0.000014840
     13        1          -0.000005195   -0.000012777    0.000004952
     14        1          -0.000022702    0.000006756    0.000010945
     15        8          -0.002251872   -0.001620459    0.001789638
     16        8          -0.000080944   -0.000007385    0.000025416
     17        1          -0.000024945    0.000021177    0.000002195
     18        8           0.000026905   -0.000000868    0.000069438
     19        1          -0.000066279   -0.000020176   -0.000074873
     20        8          -0.000112520    0.000083385    0.000066865
     21        1           0.000015421   -0.000033433   -0.000052845
     22        8           0.000010827    0.000092439    0.000126776
     23        1          -0.000010549   -0.000003306   -0.000036660
     24        8           0.000799908   -0.002381579    0.000615094
     25        1          -0.002680222    0.001799741    0.000244091
     26        1          -0.000983830   -0.001194824    0.001014888
     27        1           0.000349152   -0.000105907   -0.000015887
     28        8           0.000859072    0.000200173   -0.000442691
     29        1           0.000148762   -0.000233077    0.000093268
     30        1           0.001616849    0.001306254   -0.002037500
 -------------------------------------------------------------------
 Cartesian Forces:  Max     0.003870929 RMS     0.000934977
 IRC-IRC-IRC-IRC-IRC-IRC-IRC-IRC-IRC-IRC-IRC-IRC-IRC-IRC-IRC-IRC-IRC-IRC
 Pt  1 Step number   1 out of a maximum of  20
 Modified Bulirsch-Stoer Extrapolation Cycles:
    EPS =    0.000010000000000
 Maximum DWI energy   std dev =  0.000002134 at pt     1
 Maximum DWI gradient std dev =  0.118485449 at pt     1
 CORRECTOR INTEGRATION CONVERGENCE:
   Recorrection delta-x convergence threshold:    0.010000
   Delta-x Convergence Met
 Point Number:   1          Path Number:   1
   CHANGE IN THE REACTION COORDINATE =    0.10672
   NET REACTION COORDINATE UP TO THIS POINT =    0.10672
  # OF POINTS ALONG THE PATH =   1
  # OF STEPS =   1

 Calculating another point on the path.
 IRC-IRC-IRC-IRC-IRC-IRC-IRC-IRC-IRC-IRC-IRC-IRC-IRC-IRC-IRC-IRC-IRC-IRC
                          Input orientation:                          
 ---------------------------------------------------------------------
 Center     Atomic      Atomic             Coordinates (Angstroms)
 Number     Number       Type             X           Y           Z
 ---------------------------------------------------------------------
      1          6           0        1.195299    0.194326    0.872298
      2          6           0       -0.492373    1.757722   -0.214091
      3          8           0       -0.138326   -0.772818   -0.938885
      4          6           0       -1.061497    0.759050   -1.260894
      5          6           0        1.171193   -0.484675   -0.517880
      6          6           0       -0.027079    1.108652    1.094306
      7          1           0       -0.596217    0.922852   -2.243004
      8          1           0        0.297738    1.910263    1.776337
      9          1           0       -1.324552    2.437216    0.011709
     10          1           0        1.606974    0.238823   -1.226201
     11          1           0        1.188160   -0.576864    1.662041
     12          6           0        2.054151   -1.735937   -0.542677
     13          1           0        1.997364   -2.219983   -1.525915
     14          1           0        1.720269   -2.456242    0.211795
     15          8           0       -2.304776    0.463885   -1.264208
     16          8           0        3.413271   -1.403922   -0.200447
     17          1           0        3.837712   -1.060154   -1.002217
     18          8           0        0.565973    2.518897   -0.789803
     19          1           0        1.389426    2.322035   -0.307600
     20          8           0       -1.141618    0.412145    1.627405
     21          1           0       -0.874987   -0.014214    2.456227
     22          8           0        2.364024    1.010964    1.002286
     23          1           0        3.108392    0.420042    0.776816
     24          8           0       -1.479685   -2.262908    0.471255
     25          1           0       -2.576878   -1.566815    0.543568
     26          1           0       -0.851431   -1.609224   -0.127867
     27          1           0       -1.634121   -3.052067   -0.072628
     28          8           0       -3.424542   -0.815363    0.478162
     29          1           0       -4.135708   -1.196661   -0.064281
     30          1           0       -2.910797   -0.063371   -0.216906
 ---------------------------------------------------------------------
                    Distance matrix (angstroms):
                    1          2          3          4          5
     1  C    0.000000
     2  C    2.544147   0.000000
     3  O    2.448327   2.655995   0.000000
     4  C    3.156350   1.554684   1.817293   0.000000
     5  C    1.547326   2.808573   1.405387   2.661546   0.000000
     6  C    1.542558   1.532871   2.772395   2.595998   2.563921
     7  H    3.666795   2.196425   2.187621   1.099025   2.842696
     8  H    2.137133   2.146939   3.842070   3.521019   3.429589
     9  H    3.481496   1.097825   3.551771   2.122488   3.879002
    10  H    2.138961   2.781848   2.037656   2.718929   1.102304
    11  H    1.103847   3.434290   2.926222   3.922903   2.181935
    12  C    2.542773   4.335713   2.427248   4.055620   1.531628
    13  H    3.496230   4.872557   2.645764   4.278026   2.170251
    14  H    2.781612   4.778562   2.759050   4.499460   2.172783
    15  O    4.109482   2.462025   2.515705   1.277841   3.679556
    16  O    2.936763   5.024961   3.682041   5.081982   2.443909
    17  H    3.474173   5.226012   3.986910   5.232462   2.770574
    18  O    2.926134   1.425107   3.369518   2.442876   3.075984
    19  H    2.440695   1.966815   3.508655   3.059201   2.823024
    20  O    2.465525   2.371330   2.999429   2.910161   3.279578
    21  H    2.615034   3.227499   3.555972   3.801278   3.640536
    22  O    1.431682   3.193153   3.634801   4.113348   2.443498
    23  H    1.928727   3.966962   3.861052   4.653510   2.499498
    24  O    3.654364   4.196421   2.451144   3.508198   3.341804
    25  H    4.176002   3.996467   2.962200   3.310908   4.042986
    26  H    2.905550   3.387134   1.365958   2.633742   2.346855
    27  H    4.408806   4.945469   2.860556   4.032926   3.828778
    28  O    4.745286   3.962018   3.578972   3.329726   4.714046
    29  H    5.588529   4.693049   4.113835   3.835031   5.373628
    30  H    4.255913   3.027402   2.951468   2.277323   4.114697
                    6          7          8          9         10
     6  C    0.000000
     7  H    3.390587   0.000000
     8  H    1.101477   4.234293   0.000000
     9  H    2.149543   2.812028   2.454265   0.000000
    10  H    2.968414   2.521078   3.677369   3.867712   0.000000
    11  H    2.154087   4.547804   2.644184   4.256993   3.030296
    12  C    3.886247   4.121252   4.664502   5.397979   2.137019
    13  H    4.695076   4.137426   5.554505   5.923590   2.507581
    14  H    4.067004   4.776026   4.851571   5.766880   3.056803
    15  O    3.341589   2.021848   4.255584   2.546142   3.918403
    16  O    4.452574   5.065758   4.959641   6.102976   2.648300
    17  H    4.902625   5.013142   5.392138   6.317326   2.591081
    18  O    2.427008   2.451497   2.650936   2.055038   2.544182
    19  H    2.333265   3.105846   2.388332   2.735124   2.287121
    20  O    1.418279   3.941872   2.082855   2.597085   3.965838
    21  H    1.958215   4.799852   2.353964   3.491029   4.447970
    22  O    2.394866   4.393483   2.382736   4.076890   2.476990
    23  H    3.225858   4.805857   3.334602   4.930048   2.509815
    24  O    3.723664   4.277474   4.719939   4.725083   4.320588
    25  H    3.736698   4.229237   4.676880   4.228884   4.888459
    26  H    3.091943   3.309131   4.163336   4.076395   3.265788
    27  H    4.610413   4.646263   5.636973   5.498652   4.760818
    28  O    3.952749   4.292500   4.792667   3.899590   5.415931
    29  H    4.851559   4.665530   5.718067   4.594935   6.032335
    30  H    3.377684   3.230324   4.261801   2.970079   4.638993
                   11         12         13         14         15
    11  H    0.000000
    12  C    2.637076   0.000000
    13  H    3.676645   1.097398   0.000000
    14  H    2.432779   1.095237   1.775455   0.000000
    15  O    4.674044   4.935592   5.077406   5.187168   0.000000
    16  O    3.017284   1.440334   2.104189   2.035577   6.108711
    17  H    3.788399   1.961874   2.237486   2.811842   6.334153
    18  O    3.997798   4.514350   5.004770   5.204575   3.562209
    19  H    3.510499   4.118768   4.741709   4.817796   4.244402
    20  O    2.531245   4.420006   5.169597   4.292085   3.117217
    21  H    2.281202   4.531843   5.382683   4.211452   4.014288
    22  O    2.083058   3.166764   4.118890   3.613974   5.218619
    23  H    2.337677   2.738746   3.675144   3.243322   5.785334
    24  O    3.373146   3.713994   4.010038   3.216272   3.335867
    25  H    4.050493   4.759722   5.062912   4.400753   2.732368
    26  H    2.903354   2.937776   3.231594   2.728819   2.775115
    27  H    4.135333   3.944172   3.999012   3.418748   3.772473
    28  O    4.768172   5.648508   5.948643   5.406710   2.434379
    29  H    5.630977   6.231696   6.387342   5.996268   2.747644
    30  H    4.538234   5.249220   5.518563   5.230334   1.319887
                   16         17         18         19         20
    16  O    0.000000
    17  H    0.970135   0.000000
    18  O    4.882924   4.853761   0.000000
    19  H    4.241483   4.232705   0.974345   0.000000
    20  O    5.233178   5.820336   3.632791   3.714581   0.000000
    21  H    5.232433   5.938380   4.362308   4.269001   0.969443
    22  O    2.894677   3.237177   2.952699   2.093932   3.610940
    23  H    2.091611   2.426489   3.650121   2.783591   4.334299
    24  O    5.012989   5.647340   5.351695   5.464441   2.933748
    25  H    6.038375   6.617637   5.324325   5.619538   2.674127
    26  H    4.270257   4.801461   4.414586   4.528635   2.692790
    27  H    5.311204   5.896848   6.032445   6.170739   3.890172
    28  O    6.896564   7.415644   5.352498   5.799566   2.835361
    29  H    7.553051   8.029557   6.036353   6.554962   3.796660
    30  H    6.464610   6.866780   4.368552   4.918364   2.599537
                   21         22         23         24         25
    21  H    0.000000
    22  O    3.695420   0.000000
    23  H    4.344687   0.976785   0.000000
    24  O    3.059804   5.076843   5.323724   0.000000
    25  H    2.994206   5.591769   6.026964   1.301386   0.000000
    26  H    3.036800   4.299044   4.540546   1.086717   1.851969
    27  H    4.024916   5.800761   5.938731   0.970789   1.863990
    28  O    3.324878   6.092427   6.655421   2.424438   1.134678
    29  H    4.287592   6.946775   7.469816   2.911725   1.713606
    30  H    3.360444   5.519453   6.119788   2.712861   1.717606
                   26         27         28         29         30
    26  H    0.000000
    27  H    1.642392   0.000000
    28  O    2.760142   2.917502   0.000000
    29  H    3.310699   3.114569   0.972311   0.000000
    30  H    2.576544   3.253156   1.145663   1.675723   0.000000
 Symmetry turned off by external request.
 Stoichiometry    C6H16O8
 Framework group  C1[X(C6H16O8)]
 Deg. of freedom    84
 Full point group                 C1      NOp   1
 Rotational constants (GHZ):      0.8576759      0.5180241      0.4256930
 Standard basis: 6-31G(d) (6D, 7F)
   242 basis functions,   456 primitive gaussians,   242 cartesian basis functions
    58 alpha electrons       58 beta electrons
       nuclear repulsion energy      1137.2611262409 Hartrees.
 NAtoms=   30 NActive=   30 NUniq=   30 SFac= 1.00D+00 NAtFMM=   60 NAOKFM=F Big=F
 Integral buffers will be    131072 words long.
 Raffenetti 2 integral format.
 Two-electron integral symmetry is turned off.
 One-electron integrals computed using PRISM.
 NBasis=   242 RedAO= T EigKep=  1.54D-03  NBF=   242
 NBsUse=   242 1.00D-06 EigRej= -1.00D+00 NBFU=   242
 Initial guess from the checkpoint file:  "/scratch/10461021.yak.local/Gau-21179.chk"
 B after Tr=    -0.000193    0.000116   -0.000062
         Rot=    1.000000    0.000027    0.000026    0.000042 Ang=   0.01 deg.
 ExpMin= 1.61D-01 ExpMax= 5.48D+03 ExpMxC= 8.25D+02 IAcc=1 IRadAn=         1 AccDes= 0.00D+00
 Harris functional with IExCor=  402 and IRadAn=       1 diagonalized for initial guess.
 HarFok:  IExCor=  402 AccDes= 0.00D+00 IRadAn=         1 IDoV= 1 UseB2=F ITyADJ=14
 ICtDFT=  3500011 ScaDFX=  1.000000  1.000000  1.000000  1.000000
 FoFCou: FMM=F IPFlag=           0 FMFlag=      100000 FMFlg1=           0
         NFxFlg=           0 DoJE=T BraDBF=F KetDBF=T FulRan=T
         wScrn=  0.000000 ICntrl=     500 IOpCl=  0 I1Cent=   200000004 NGrid=           0
         NMat0=    1 NMatS0=      1 NMatT0=    0 NMatD0=    1 NMtDS0=    0 NMtDT0=    0
 Symmetry not used in FoFCou.
 Requested convergence on RMS density matrix=1.00D-08 within 128 cycles.
 Requested convergence on MAX density matrix=1.00D-06.
 Requested convergence on             energy=1.00D-06.
 No special actions if energy rises.
 Integral accuracy reduced to 1.0D-05 until final iterations.
 Initial convergence to 1.0D-05 achieved.  Increase integral accuracy.
 SCF Done:  E(RB3LYP) =  -839.952984351     A.U. after   11 cycles
            NFock= 11  Conv=0.87D-08     -V/T= 2.0086
 DoSCS=F DFT=T ScalE2(SS,OS)=  1.000000  1.000000
 Range of M.O.s used for correlation:     1   242
 NBasis=   242 NAE=    58 NBE=    58 NFC=     0 NFV=     0
 NROrb=    242 NOA=    58 NOB=    58 NVA=   184 NVB=   184
 Symmetrizing basis deriv contribution to polar:
 IMax=3 JMax=2 DiffMx= 0.00D+00
 Calling FoFJK, ICntrl=      2147 FMM=F ISym2X=0 I1Cent= 0 IOpClX= 0 NMat=1 NMatS=1 NMatT=0.
 -------------------------------------------------------------------
 Center     Atomic                   Forces (Hartrees/Bohr)
 Number     Number              X              Y              Z
 -------------------------------------------------------------------
      1        6          -0.000024059    0.000031120   -0.000142426
      2        6           0.000130262   -0.000230485   -0.000169207
      3        8          -0.000090109    0.007540193   -0.003736256
      4        6           0.005823739   -0.005123243    0.002819886
      5        6          -0.000416873    0.001326570   -0.001107781
      6        6           0.000084116    0.000005003    0.000085376
      7        1          -0.000785086    0.000453635   -0.000030548
      8        1          -0.000018840    0.000023565   -0.000009258
      9        1          -0.000039466   -0.000037310   -0.000098422
     10        1           0.000503109    0.000060752    0.000125246
     11        1          -0.000025185   -0.000008178   -0.000028687
     12        6          -0.000577257   -0.000006113   -0.000033312
     13        1          -0.000010416   -0.000017236   -0.000000112
     14        1          -0.000049036    0.000022656   -0.000003964
     15        8          -0.004481334   -0.003327156    0.003594905
     16        8          -0.000237375    0.000017692    0.000022438
     17        1          -0.000039466    0.000035857   -0.000006132
     18        8          -0.000111389    0.000019989    0.000016456
     19        1           0.000009016   -0.000075901   -0.000028994
     20        8          -0.000168238    0.000265842    0.000031540
     21        1           0.000025498   -0.000123152   -0.000078685
     22        8           0.000026880    0.000154882    0.000195196
     23        1          -0.000022144   -0.000000901   -0.000049085
     24        8           0.001877625   -0.005232948    0.001398709
     25        1          -0.004359380    0.002768598    0.000580835
     26        1          -0.001623034   -0.001965508    0.001622660
     27        1           0.000650728   -0.000205541   -0.000014960
     28        8           0.000187884    0.001132243   -0.000737603
     29        1           0.000270940   -0.000415021    0.000212134
     30        1           0.003488892    0.002910097   -0.004429950
 -------------------------------------------------------------------
 Cartesian Forces:  Max     0.007540193 RMS     0.001825471
 IRC-IRC-IRC-IRC-IRC-IRC-IRC-IRC-IRC-IRC-IRC-IRC-IRC-IRC-IRC-IRC-IRC-IRC
 Pt  2 Step number   1 out of a maximum of  20
 Modified Bulirsch-Stoer Extrapolation Cycles:
    EPS =    0.000010000000000
 Maximum DWI energy   std dev =  0.000005641 at pt    34
 Maximum DWI gradient std dev =  0.095622215 at pt    27
 CORRECTOR INTEGRATION CONVERGENCE:
   Recorrection delta-x convergence threshold:    0.010000
   Delta-x Convergence Met
 Point Number:   2          Path Number:   1
   CHANGE IN THE REACTION COORDINATE =    0.10668
   NET REACTION COORDINATE UP TO THIS POINT =    0.21339
  # OF POINTS ALONG THE PATH =   2
  # OF STEPS =   1

 Calculating another point on the path.
 IRC-IRC-IRC-IRC-IRC-IRC-IRC-IRC-IRC-IRC-IRC-IRC-IRC-IRC-IRC-IRC-IRC-IRC
                          Input orientation:                          
 ---------------------------------------------------------------------
 Center     Atomic      Atomic             Coordinates (Angstroms)
 Number     Number       Type             X           Y           Z
 ---------------------------------------------------------------------
      1          6           0        1.195286    0.194351    0.872242
      2          6           0       -0.492289    1.757601   -0.214153
      3          8           0       -0.138461   -0.769998   -0.940299
      4          6           0       -1.058556    0.756491   -1.259379
      5          6           0        1.171089   -0.483995   -0.518368
      6          6           0       -0.027059    1.108642    1.094397
      7          1           0       -0.601271    0.925610   -2.243380
      8          1           0        0.297685    1.910446    1.776216
      9          1           0       -1.324818    2.436913    0.011042
     10          1           0        1.609784    0.239175   -1.225527
     11          1           0        1.188006   -0.576918    1.661814
     12          6           0        2.053871   -1.735959   -0.542706
     13          1           0        1.997310   -2.220076   -1.525911
     14          1           0        1.719922   -2.456118    0.211765
     15          8           0       -2.306481    0.462581   -1.262833
     16          8           0        3.413159   -1.403900   -0.200447
     17          1           0        3.837498   -1.059986   -1.002227
     18          8           0        0.565923    2.518888   -0.789808
     19          1           0        1.389449    2.321634   -0.307734
     20          8           0       -1.141648    0.412269    1.627395
     21          1           0       -0.874971   -0.015084    2.455678
     22          8           0        2.364030    1.011015    1.002338
     23          1           0        3.108306    0.420063    0.776612
     24          8           0       -1.478817   -2.264940    0.471804
     25          1           0       -2.603461   -1.550078    0.546971
     26          1           0       -0.861451   -1.620845   -0.118289
     27          1           0       -1.630497   -3.053687   -0.072869
     28          8           0       -3.424474   -0.814589    0.477751
     29          1           0       -4.134570   -1.199392   -0.063425
     30          1           0       -2.890760   -0.048839   -0.242711
 ---------------------------------------------------------------------
                    Distance matrix (angstroms):
                    1          2          3          4          5
     1  C    0.000000
     2  C    2.543996   0.000000
     3  O    2.448296   2.653533   0.000000
     4  C    3.152715   1.554148   1.810678   0.000000
     5  C    1.547428   2.807868   1.405256   2.656919   0.000000
     6  C    1.542533   1.532935   2.771586   2.593889   2.563798
     7  H    3.670075   2.195870   2.187989   1.098166   2.846737
     8  H    2.137250   2.146856   3.841153   3.519353   3.429474
     9  H    3.481619   1.097853   3.549192   2.123366   3.878340
    10  H    2.138797   2.783381   2.038663   2.718235   1.102497
    11  H    1.103781   3.434039   2.927078   3.918978   2.182227
    12  C    2.542704   4.335417   2.428474   4.051313   1.532094
    13  H    3.496261   4.872446   2.647110   4.274261   2.170660
    14  H    2.781449   4.778149   2.761130   4.495003   2.173380
    15  O    4.110093   2.463351   2.514675   1.282073   3.680180
    16  O    2.936670   5.024719   3.682828   5.077880   2.444213
    17  H    3.473943   5.225602   3.987002   5.228486   2.770492
    18  O    2.926086   1.425044   3.366835   2.442432   3.075258
    19  H    2.440364   1.966680   3.506114   3.057455   2.821985
    20  O    2.465563   2.371262   2.999531   2.908411   3.279686
    21  H    2.614784   3.227516   3.555981   3.798773   3.640218
    22  O    1.431722   3.193086   3.634323   4.110261   2.443503
    23  H    1.928663   3.966726   3.860768   4.649859   2.499421
    24  O    3.655035   4.198167   2.454677   3.507514   3.342784
    25  H    4.192769   3.997136   2.982737   3.312082   4.064321
    26  H    2.916548   3.399907   1.386490   2.644364   2.362988
    27  H    4.407724   4.946106   2.862488   4.031423   3.827620
    28  O    4.745078   3.961389   3.579209   3.329186   4.713889
    29  H    5.587965   4.693904   4.113657   3.836358   5.372968
    30  H    4.242409   3.002782   2.929479   2.244803   4.094382
                    6          7          8          9         10
     6  C    0.000000
     7  H    3.391751   0.000000
     8  H    1.101465   4.234994   0.000000
     9  H    2.149916   2.808909   2.454694   0.000000
    10  H    2.969390   2.529028   3.677664   3.869243   0.000000
    11  H    2.153940   4.550785   2.644378   4.257054   3.029957
    12  C    3.886147   4.126260   4.664532   5.397688   2.136495
    13  H    4.695152   4.142792   5.554636   5.923369   2.507652
    14  H    4.066755   4.780350   4.851509   5.766496   3.056557
    15  O    3.342109   2.020794   4.256032   2.546449   3.922809
    16  O    4.452482   5.071079   4.959663   6.102868   2.646251
    17  H    4.902406   5.018538   5.391983   6.317002   2.588511
    18  O    2.427066   2.452295   2.650780   2.054990   2.544915
    19  H    2.333199   3.107824   2.388278   2.735352   2.286379
    20  O    1.418213   3.941880   2.082873   2.597177   3.967304
    21  H    1.958265   4.800100   2.354667   3.491546   4.448587
    22  O    2.394851   4.397156   2.382780   4.077186   2.475481
    23  H    3.225778   4.810082   3.334672   4.930149   2.507359
    24  O    3.725088   4.280411   4.721365   4.726884   4.323306
    25  H    3.742501   4.233656   4.680055   4.221166   4.908626
    26  H    3.101116   3.326881   4.171661   4.086176   3.285217
    27  H    4.610695   4.648142   5.637341   5.499742   4.761405
    28  O    3.952404   4.289909   4.792316   3.898543   5.418056
    29  H    4.851723   4.663908   5.718414   4.595972   6.034696
    30  H    3.365770   3.192802   4.252182   2.948818   4.615602
                   11         12         13         14         15
    11  H    0.000000
    12  C    2.636856   0.000000
    13  H    3.676484   1.097388   0.000000
    14  H    2.432482   1.095160   1.775438   0.000000
    15  O    4.673923   4.936075   5.078236   5.187018   0.000000
    16  O    3.017155   1.440510   2.104192   2.035715   6.109558
    17  H    3.788176   1.961995   2.237486   2.811955   6.335188
    18  O    3.997681   4.514286   5.004847   5.204377   3.564107
    19  H    3.510171   4.118341   4.741369   4.817261   4.245961
    20  O    2.531198   4.419906   5.169684   4.291879   3.116534
[...]
 Alpha  occ. eigenvalues --  -19.13805 -19.13782 -19.13051 -10.28807 -10.24995
 Alpha  occ. eigenvalues --  -10.24449 -10.24339 -10.24086 -10.23886  -1.05424
 Alpha  occ. eigenvalues --   -1.04591  -1.03510  -1.02363  -1.01438  -1.01004
 Alpha  occ. eigenvalues --   -0.99568  -0.97320  -0.77041  -0.75297  -0.70021
 Alpha  occ. eigenvalues --   -0.65092  -0.62300  -0.58534  -0.55102  -0.53900
 Alpha  occ. eigenvalues --   -0.53414  -0.51968  -0.51585  -0.50060  -0.49208
 Alpha  occ. eigenvalues --   -0.47385  -0.46599  -0.45582  -0.43232  -0.42409
 Alpha  occ. eigenvalues --   -0.41546  -0.40277  -0.39903  -0.39331  -0.37319
 Alpha  occ. eigenvalues --   -0.36067  -0.35389  -0.34651  -0.33859  -0.32260
 Alpha  occ. eigenvalues --   -0.30302  -0.29916  -0.29396  -0.28999  -0.28005
 Alpha  occ. eigenvalues --   -0.27280  -0.25782  -0.24381
 Alpha virt. eigenvalues --    0.02672   0.04780   0.06066   0.07961   0.09120
 Alpha virt. eigenvalues --    0.10208   0.11217   0.12101   0.13472   0.14136
 Alpha virt. eigenvalues --    0.14751   0.15857   0.17342   0.18580   0.19524
 Alpha virt. eigenvalues --    0.20883   0.21385   0.22196   0.23872   0.24444
 Alpha virt. eigenvalues --    0.25541   0.27856   0.30102   0.30445   0.31614
 Alpha virt. eigenvalues --    0.32560   0.33933   0.36914   0.51487   0.53188
 Alpha virt. eigenvalues --    0.54193   0.56442   0.57300   0.57928   0.58727
 Alpha virt. eigenvalues --    0.59466   0.62561   0.62943   0.64791   0.65496
 Alpha virt. eigenvalues --    0.68643   0.68806   0.71582   0.73542   0.74170
 Alpha virt. eigenvalues --    0.76922   0.77396   0.78485   0.78627   0.80165
 Alpha virt. eigenvalues --    0.81698   0.82169   0.84080   0.84641   0.85661
 Alpha virt. eigenvalues --    0.87150   0.87743   0.88289   0.88946   0.89996
 Alpha virt. eigenvalues --    0.90827   0.92657   0.93163   0.93555   0.96189
 Alpha virt. eigenvalues --    0.96404   0.97935   0.99371   1.00788   1.01540
 Alpha virt. eigenvalues --    1.04758   1.05033   1.07634   1.09003   1.09517
 Alpha virt. eigenvalues --    1.11684   1.13651   1.15863   1.17481   1.18589
 Alpha virt. eigenvalues --    1.19972   1.23295   1.25839   1.26322   1.28043
 Alpha virt. eigenvalues --    1.29002   1.32208   1.34983   1.35443   1.37033
 Alpha virt. eigenvalues --    1.42230   1.44708   1.45473   1.47806   1.50294
 Alpha virt. eigenvalues --    1.50946   1.52721   1.57411   1.60143   1.61183
 Alpha virt. eigenvalues --    1.62847   1.64768   1.66854   1.68556   1.69236
 Alpha virt. eigenvalues --    1.71999   1.72141   1.72520   1.73899   1.74342
 Alpha virt. eigenvalues --    1.75304   1.75623   1.76914   1.77826   1.79296
 Alpha virt. eigenvalues --    1.80904   1.81757   1.83213   1.84230   1.85624
 Alpha virt. eigenvalues --    1.87670   1.89632   1.92012   1.93975   1.95954
 Alpha virt. eigenvalues --    1.98641   2.00862   2.01899   2.02752   2.04559
 Alpha virt. eigenvalues --    2.06667   2.08971   2.11642   2.12343   2.17443
 Alpha virt. eigenvalues --    2.18370   2.21650   2.23315   2.26134   2.27867
 Alpha virt. eigenvalues --    2.29875   2.33322   2.37010   2.39907   2.42286
 Alpha virt. eigenvalues --    2.43459   2.44064   2.46832   2.48251   2.50090
 Alpha virt. eigenvalues --    2.51959   2.53649   2.55113   2.57741   2.59051
 Alpha virt. eigenvalues --    2.61078   2.66113   2.70544   2.73886   2.74658
 Alpha virt. eigenvalues --    2.78080   2.80038   2.81875   2.87577   2.88097
 Alpha virt. eigenvalues --    2.91369   2.92342   3.01609   3.03724   3.13554
 Alpha virt. eigenvalues --    3.73645   3.77807   3.79208   3.89303   3.90786
 Alpha virt. eigenvalues --    4.02760   4.10027   4.20968   4.30817   4.37553
 Alpha virt. eigenvalues --    4.48619   4.55511   4.68117   4.79731
          Condensed to atoms (all electrons):
               1          2          3          4          5          6
     1  C    5.158688  -0.025473  -0.039835  -0.024543   0.274786   0.296648
     2  C   -0.025473   5.010424  -0.026712   0.268098  -0.004343   0.326597
     3  O   -0.039835  -0.026712   8.521504   0.112168   0.143810  -0.003745
     4  C   -0.024543   0.268098   0.112168   4.733172  -0.004315  -0.021178
     5  C    0.274786  -0.004343   0.143810  -0.004315   5.030602  -0.030171
     6  C    0.296648   0.326597  -0.003745  -0.021178  -0.030171   4.944638
     7  H    0.000589  -0.071211  -0.029392   0.370852  -0.003707   0.004047
     8  H   -0.074306  -0.048182  -0.000004   0.006036   0.006462   0.370509
     9  H    0.006610   0.365253   0.002575  -0.061280   0.000106  -0.034005
    10  H   -0.066289   0.000313  -0.031427  -0.009801   0.341965  -0.007335
    11  H    0.353805   0.004766   0.003978   0.000402  -0.051267  -0.055098
    12  C   -0.035867   0.000222  -0.031436   0.001152   0.326798   0.002913
    13  H    0.006511   0.000011   0.005020  -0.000066  -0.043661  -0.000114
    14  H   -0.012146   0.000013   0.002438  -0.000079  -0.039153  -0.000079
    15  O    0.000475  -0.035946  -0.035003   0.341619   0.000960  -0.000674
    16  O    0.004434   0.000001   0.001312  -0.000019  -0.043663   0.000124
    17  H   -0.001635   0.000002  -0.000015  -0.000002   0.000104  -0.000011
    18  O    0.006391   0.226280   0.001309  -0.042088  -0.007398  -0.025444
    19  H   -0.005258  -0.028964  -0.000055   0.002712  -0.001322  -0.013360
    20  O   -0.033951  -0.049540  -0.001729   0.006231  -0.000557   0.205589
    21  H   -0.004519   0.006528   0.000278  -0.000098  -0.000366  -0.019512
    22  O    0.169579   0.000598   0.001826   0.000481  -0.031593  -0.034704
    23  H   -0.023121  -0.000209   0.000100  -0.000038  -0.004968   0.004975
    24  O    0.000276  -0.000152  -0.069303   0.002333   0.006852  -0.000149
    25  H    0.000035  -0.000057   0.001299  -0.000514  -0.000029  -0.000043
    26  H   -0.001728  -0.000295   0.089996  -0.001681  -0.011635  -0.000957
    27  H   -0.000026  -0.000003   0.003507  -0.000084  -0.000465   0.000003
    28  O   -0.000015  -0.000054  -0.000446   0.006204  -0.000004   0.000240
    29  H    0.000001   0.000004   0.000007  -0.000037   0.000000  -0.000019
    30  H    0.000159  -0.007001   0.002783  -0.019660  -0.000055  -0.000118
               7          8          9         10         11         12
     1  C    0.000589  -0.074306   0.006610  -0.066289   0.353805  -0.035867
     2  C   -0.071211  -0.048182   0.365253   0.000313   0.004766   0.000222
     3  O   -0.029392  -0.000004   0.002575  -0.031427   0.003978  -0.031436
     4  C    0.370852   0.006036  -0.061280  -0.009801   0.000402   0.001152
     5  C   -0.003707   0.006462   0.000106   0.341965  -0.051267   0.326798
     6  C    0.004047   0.370509  -0.034005  -0.007335  -0.055098   0.002913
     7  H    0.585470  -0.000176   0.002659   0.006652   0.000023  -0.000163
     8  H   -0.000176   0.627100  -0.009310  -0.000387  -0.001045  -0.000184
     9  H    0.002659  -0.009310   0.591241   0.000224  -0.000168   0.000017
    10  H    0.006652  -0.000387   0.000224   0.660787   0.007149  -0.044648
    11  H    0.000023  -0.001045  -0.000168   0.007149   0.640992  -0.009027
    12  C   -0.000163  -0.000184   0.000017  -0.044648  -0.009027   4.964728
    13  H   -0.000019   0.000004  -0.000000  -0.006379   0.000073   0.359876
    14  H    0.000006  -0.000005  -0.000000   0.005969   0.006484   0.366541
    15  O   -0.040160  -0.000134   0.004254   0.000119   0.000008  -0.000034
    16  O    0.000002   0.000004  -0.000000   0.000617   0.000349   0.220832
    17  H   -0.000000  -0.000000  -0.000000   0.004590   0.000107  -0.026835
    18  O    0.008289   0.001644  -0.037984   0.010798  -0.000044   0.000311
    19  H   -0.000364   0.002391   0.003003   0.002929   0.000926  -0.000191
    20  O    0.000079  -0.031772   0.002443  -0.000103  -0.001089  -0.000113
    21  H    0.000013  -0.004292  -0.000272   0.000036   0.008354  -0.000028
    22  O    0.000008   0.007353  -0.000153   0.003401  -0.031660  -0.000072
    23  H   -0.000001   0.000028   0.000012   0.001213  -0.002791  -0.005370
    24  O   -0.000058  -0.000003   0.000007  -0.000153   0.000429  -0.000325
    25  H    0.000063   0.000007  -0.000005   0.000004  -0.000004  -0.000006
    26  H    0.000586   0.000079  -0.000093   0.001749   0.000805  -0.002515
    27  H    0.000007   0.000001  -0.000001   0.000009   0.000000   0.000133
    28  O   -0.000174  -0.000000  -0.000090  -0.000001   0.000001   0.000000
    29  H    0.000009   0.000001  -0.000002   0.000000  -0.000000  -0.000000
    30  H    0.003607  -0.000034   0.001858   0.000012  -0.000006   0.000005
              13         14         15         16         17         18
     1  C    0.006511  -0.012146   0.000475   0.004434  -0.001635   0.006391
     2  C    0.000011   0.000013  -0.035946   0.000001   0.000002   0.226280
     3  O    0.005020   0.002438  -0.035003   0.001312  -0.000015   0.001309
     4  C   -0.000066  -0.000079   0.341619  -0.000019  -0.000002  -0.042088
     5  C   -0.043661  -0.039153   0.000960  -0.043663   0.000104  -0.007398
     6  C   -0.000114  -0.000079  -0.000674   0.000124  -0.000011  -0.025444
     7  H   -0.000019   0.000006  -0.040160   0.000002  -0.000000   0.008289
     8  H    0.000004  -0.000005  -0.000134   0.000004  -0.000000   0.001644
     9  H   -0.000000  -0.000000   0.004254  -0.000000  -0.000000  -0.037984
    10  H   -0.006379   0.005969   0.000119   0.000617   0.004590   0.010798
    11  H    0.000073   0.006484   0.000008   0.000349   0.000107  -0.000044
    12  C    0.359876   0.366541  -0.000034   0.220832  -0.026835   0.000311
    13  H    0.600947  -0.036819   0.000001  -0.025408  -0.009329  -0.000001
    14  H   -0.036819   0.563838   0.000001  -0.033979   0.006582  -0.000004
    15  O    0.000001   0.000001   8.284463   0.000000  -0.000000   0.001548
    16  O   -0.025408  -0.033979   0.000000   8.229217   0.233687  -0.000002
    17  H   -0.009329   0.006582  -0.000000   0.233687   0.389240  -0.000006
    18  O   -0.000001  -0.000004   0.001548  -0.000002  -0.000006   8.301318
    19  H    0.000006   0.000001  -0.000088   0.000008   0.000002   0.225769
    20  O    0.000003  -0.000028  -0.000527   0.000000   0.000000   0.001401
    21  H   -0.000000   0.000018   0.000080   0.000000   0.000000  -0.000103
    22  O   -0.000240   0.000068  -0.000001  -0.011847   0.001145  -0.010048
    23  H    0.000484   0.000198  -0.000000   0.045134  -0.001799   0.000242
    24  O    0.000007   0.002255  -0.001557   0.000002  -0.000000   0.000000
    25  H   -0.000000  -0.000008   0.007901  -0.000000   0.000000   0.000000
    26  H    0.000003   0.002156   0.003918   0.000022   0.000006  -0.000014
    27  H    0.000014   0.000078   0.000063   0.000000   0.000000  -0.000000
    28  O    0.000000   0.000001  -0.078498   0.000000  -0.000000  -0.000000
    29  H    0.000000  -0.000000   0.005566  -0.000000   0.000000  -0.000000
    30  H   -0.000001  -0.000002   0.159778  -0.000000  -0.000000   0.000052
              19         20         21         22         23         24
     1  C   -0.005258  -0.033951  -0.004519   0.169579  -0.023121   0.000276
     2  C   -0.028964  -0.049540   0.006528   0.000598  -0.000209  -0.000152
     3  O   -0.000055  -0.001729   0.000278   0.001826   0.000100  -0.069303
     4  C    0.002712   0.006231  -0.000098   0.000481  -0.000038   0.002333
     5  C   -0.001322  -0.000557  -0.000366  -0.031593  -0.004968   0.006852
     6  C   -0.013360   0.205589  -0.019512  -0.034704   0.004975  -0.000149
     7  H   -0.000364   0.000079   0.000013   0.000008  -0.000001  -0.000058
     8  H    0.002391  -0.031772  -0.004292   0.007353   0.000028  -0.000003
     9  H    0.003003   0.002443  -0.000272  -0.000153   0.000012   0.000007
    10  H    0.002929  -0.000103   0.000036   0.003401   0.001213  -0.000153
    11  H    0.000926  -0.001089   0.008354  -0.031660  -0.002791   0.000429
    12  C   -0.000191  -0.000113  -0.000028  -0.000072  -0.005370  -0.000325
    13  H    0.000006   0.000003  -0.000000  -0.000240   0.000484   0.000007
    14  H    0.000001  -0.000028   0.000018   0.000068   0.000198   0.002255
    15  O   -0.000088  -0.000527   0.000080  -0.000001  -0.000000  -0.001557
    16  O    0.000008   0.000000   0.000000  -0.011847   0.045134   0.000002
    17  H    0.000002   0.000000   0.000000   0.001145  -0.001799  -0.000000
    18  O    0.225769   0.001401  -0.000103  -0.010048   0.000242   0.000000
    19  H    0.351936   0.000225  -0.000003   0.041618  -0.000705  -0.000000
    20  O    0.000225   8.283706   0.230408   0.001229  -0.000089   0.000298
    21  H   -0.000003   0.230408   0.379342  -0.000002  -0.000022   0.001081
    22  O    0.041618   0.001229  -0.000002   8.330187   0.219072   0.000001
    23  H   -0.000705  -0.000089  -0.000022   0.219072   0.356820  -0.000000
    24  O   -0.000000   0.000298   0.001081   0.000001  -0.000000   8.478942
    25  H    0.000000   0.001218  -0.000029  -0.000000   0.000000   0.093455
    26  H    0.000014   0.003311  -0.000226   0.000002   0.000006   0.162829
    27  H    0.000000   0.000262  -0.000042  -0.000000   0.000000   0.230838
    28  O   -0.000000  -0.001159   0.000290  -0.000000  -0.000000  -0.076441
    29  H    0.000000   0.000317  -0.000034  -0.000000   0.000000   0.003945
    30  H   -0.000003   0.004958  -0.000108  -0.000001   0.000000   0.004072
              25         26         27         28         29         30
     1  C    0.000035  -0.001728  -0.000026  -0.000015   0.000001   0.000159
     2  C   -0.000057  -0.000295  -0.000003  -0.000054   0.000004  -0.007001
     3  O    0.001299   0.089996   0.003507  -0.000446   0.000007   0.002783
     4  C   -0.000514  -0.001681  -0.000084   0.006204  -0.000037  -0.019660
     5  C   -0.000029  -0.011635  -0.000465  -0.000004   0.000000  -0.000055
     6  C   -0.000043  -0.000957   0.000003   0.000240  -0.000019  -0.000118
     7  H    0.000063   0.000586   0.000007  -0.000174   0.000009   0.003607
     8  H    0.000007   0.000079   0.000001  -0.000000   0.000001  -0.000034
     9  H   -0.000005  -0.000093  -0.000001  -0.000090  -0.000002   0.001858
    10  H    0.000004   0.001749   0.000009  -0.000001   0.000000   0.000012
    11  H   -0.000004   0.000805   0.000000   0.000001  -0.000000  -0.000006
    12  C   -0.000006  -0.002515   0.000133   0.000000  -0.000000   0.000005
    13  H   -0.000000   0.000003   0.000014   0.000000   0.000000  -0.000001
    14  H   -0.000008   0.002156   0.000078   0.000001  -0.000000  -0.000002
    15  O    0.007901   0.003918   0.000063  -0.078498   0.005566   0.159778
    16  O   -0.000000   0.000022   0.000000   0.000000  -0.000000  -0.000000
    17  H    0.000000   0.000006   0.000000  -0.000000   0.000000  -0.000000
    18  O    0.000000  -0.000014  -0.000000  -0.000000  -0.000000   0.000052
    19  H    0.000000   0.000014   0.000000  -0.000000   0.000000  -0.000003
    20  O    0.001218   0.003311   0.000262  -0.001159   0.000317   0.004958
    21  H   -0.000029  -0.000226  -0.000042   0.000290  -0.000034  -0.000108
    22  O   -0.000000   0.000002  -0.000000  -0.000000  -0.000000  -0.000001
    23  H    0.000000   0.000006   0.000000  -0.000000   0.000000   0.000000
    24  O    0.093455   0.162829   0.230838  -0.076441   0.003945   0.004072
    25  H    0.299757  -0.005984  -0.005592   0.177623  -0.007103  -0.010825
    26  H   -0.005984   0.303224  -0.008372   0.006664  -0.000040  -0.000610
    27  H   -0.005592  -0.008372   0.391002   0.004086  -0.000160  -0.000106
    28  O    0.177623   0.006664   0.004086   8.439603   0.229541   0.109692
    29  H   -0.007103  -0.000040  -0.000160   0.229541   0.392506  -0.010256
    30  H   -0.010825  -0.000610  -0.000106   0.109692  -0.010256   0.289985
 Mulliken charges:
               1
     1  C    0.069723
     2  C    0.089030
     3  O   -0.624810
     4  C    0.334022
     5  C    0.146228
     6  C    0.090432
     7  H    0.162463
     8  H    0.148216
     9  H    0.163101
    10  H    0.117988
    11  H    0.123546
    12  C   -0.086714
    13  H    0.149076
    14  H    0.165658
    15  O   -0.618133
    16  O   -0.620829
    17  H    0.404167
    18  O   -0.662217
    19  H    0.418773
    20  O   -0.621021
    21  H    0.403224
    22  O   -0.656247
    23  H    0.410828
    24  O   -0.839480
    25  H    0.448836
    26  H    0.458779
    27  H    0.384845
    28  O   -0.817063
    29  H    0.385754
    30  H    0.471822
 Sum of Mulliken charges =  -0.00000
 Mulliken charges with hydrogens summed into heavy atoms:
               1
     1  C    0.193269
     2  C    0.252131
     3  O   -0.624810
     4  C    0.496485
     5  C    0.264215
     6  C    0.238649
    12  C    0.228021
    15  O   -0.146311
    16  O   -0.216662
    18  O   -0.243444
    20  O   -0.217797
    22  O   -0.245419
    24  O    0.004145
    28  O    0.017527
 APT charges:
               1
     1  C   -0.150458
     2  C   -0.365195
     3  O   -0.493349
     4  C   -0.350358
     5  C   -0.185532
     6  C   -0.439604
     7  H    0.475682
     8  H    0.497433
     9  H    0.532594
    10  H    0.317200
    11  H    0.355577
    12  C   -0.631591
    13  H    0.473266
    14  H    0.364410
    15  O   -0.290572
    16  O   -0.851578
    17  H    0.737699
    18  O   -0.600130
    19  H    0.469977
    20  O   -0.796829
    21  H    0.682367
    22  O   -0.838582
    23  H    0.638713
    24  O   -1.065853
    25  H    0.260258
    26  H    0.281997
    27  H    0.789367
    28  O   -1.179773
    29  H    0.881507
    30  H    0.481355
 Sum of APT charges =  -0.00000
 APT charges with hydrogens summed into heavy atoms:
               1
     1  C    0.205120
     2  C    0.167399
     3  O   -0.493349
     4  C    0.125324
     5  C    0.131668
     6  C    0.057829
    12  C    0.206085
    15  O    0.190783
    16  O   -0.113879
    18  O   -0.130153
    20  O   -0.114462
    22  O   -0.199869
    24  O    0.005512
    28  O   -0.038007
 Electronic spatial extent (au):  <R**2>=           2894.1819
 Charge=             -0.0000 electrons
 Dipole moment (field-independent basis, Debye):
    X=              2.0076    Y=             -3.2781    Z=             -0.7720  Tot=              3.9207
 Quadrupole moment (field-independent basis, Debye-Ang):
   XX=            -78.2561   YY=            -83.0861   ZZ=            -82.1430
   XY=              4.6357   XZ=             -3.2508   YZ=              5.6949
 Traceless Quadrupole moment (field-independent basis, Debye-Ang):
   XX=              2.9056   YY=             -1.9243   ZZ=             -0.9813
   XY=              4.6357   XZ=             -3.2508   YZ=              5.6949
 Octapole moment (field-independent basis, Debye-Ang**2):
  XXX=             -4.3054  YYY=            -39.7457  ZZZ=             15.7376  XYY=            -29.8299
  XXY=            -20.3580  XXZ=            -39.1729  XZZ=             10.2882  YZZ=             -5.7491
  YYZ=             -3.0256  XYZ=             -2.6211
 Hexadecapole moment (field-independent basis, Debye-Ang**3):
 XXXX=          -1584.3227 YYYY=           -983.6215 ZZZZ=           -470.0693 XXXY=            146.9245
 XXXZ=            -37.6919 YYYX=             63.4096 YYYZ=             52.0004 ZZZX=            -29.8144
 ZZZY=             -5.4794 XXYY=           -444.7547 XXZZ=           -403.8191 YYZZ=           -270.2598
 XXYZ=             33.7292 YYXZ=              6.2471 ZZXY=            -11.2956
 N-N= 1.137304724235D+03 E-N=-4.247532550897D+03  KE= 8.329045657103D+02
  Exact polarizability:   0.000   0.000   0.000   0.000   0.000   0.000
 Approx polarizability: 151.595   1.009 132.651  -0.682  -6.480 120.124

 This type of calculation cannot be archived.


 NOTHING RESEMBLES A NEW PHENOMENON AS MUCH AS A MISTAKE.

                               -- ENRICO FERMI (?)
 Job cpu time:       0 days  1 hours  7 minutes 17.7 seconds.
 File lengths (MBytes):  RWF=    220 Int=      0 D2E=      0 Chk=      9 Scr=      1
 Normal termination of Gaussian 09 at Sat Jan 14 00:52:58 2017.
