 Entering Gaussian System, Link 0=g09
 Initial command:
 /global/software/gaussian/g09.e01/l1.exe "/scratch/10461022.yak.local/Gau-18111.inp" -scrdir="/scratch/10461022.yak.local/"
 Entering Link 1 = /global/software/gaussian/g09.e01/l1.exe PID=     18112.
  
 Copyright (c) 1988,1990,1992,1993,1995,1998,2003,2009,2015,
            Gaussian, Inc.  All Rights Reserved.
  
 This is part of the Gaussian(R) 09 program.  It is based on
 the Gaussian(R) 03 system (copyright 2003, Gaussian, Inc.),
 the Gaussian(R) 98 system (copyright 1998, Gaussian, Inc.),
 the Gaussian(R) 94 system (copyright 1995, Gaussian, Inc.),
 the Gaussian 92(TM) system (copyright 1992, Gaussian, Inc.),
 the Gaussian 90(TM) system (copyright 1990, Gaussian, Inc.),
 the Gaussian 88(TM) system (copyright 1988, Gaussian, Inc.),
 the Gaussian 86(TM) system (copyright 1986, Carnegie Mellon
 University), and the Gaussian 82(TM) system (copyright 1983,
 Carnegie Mellon University). Gaussian is a federally registered
 trademark of Gaussian, Inc.
  
 This software contains proprietary and confidential information,
 including trade secrets, belonging to Gaussian, Inc.
  
 This software is provided under written license and may be
 used, copied, transmitted, or stored only in accord with that
 written license.
  
 The following legend is applicable only to US Government
 contracts under FAR:
  
                    RESTRICTED RIGHTS LEGEND
  
 Use, reproduction and disclosure by the US Government is
 subject to restrictions as set forth in subparagraphs (a)
 and (c) of the Commercial Computer Software - Restricted
 Rights clause in FAR 52.227-19.
  
 Gaussian, Inc.
 340 Quinnipiac St., Bldg. 40, Wallingford CT 06492
  
  
 ---------------------------------------------------------------
 Warning -- This program may not be used in any manner that
 competes with the business of Gaussian, Inc. or will provide
 assistance to any competitor of Gaussian, Inc.  The licensee
 of this program is prohibited from giving any competitor of
 Gaussian, Inc. access to this program.  By using this program,
 the user acknowledges that Gaussian, Inc. is engaged in the
 business of creating and licensing software in the field of
 computational chemistry and represents and warrants to the
 licensee that it is not a competitor of Gaussian, Inc. and that
 it will not use this program in any manner prohibited above.
 ---------------------------------------------------------------
  

 Cite this work as:
 Gaussian 09, Revision E.01,
 M. J. Frisch, G. W. Trucks, H. B. Schlegel, G. E. Scuseria, 
 M. A. Robb, J. R. Cheeseman, G. Scalmani, V. Barone, B. Mennucci, 
 G. A. Petersson, H. Nakatsuji, M. Caricato, X. Li, H. P. Hratchian, 
 A. F. Izmaylov, J. Bloino, G. Zheng, J. L. Sonnenberg, M. Hada, 
 M. Ehara, K. Toyota, R. Fukuda, J. Hasegawa, M. Ishida, T. Nakajima, 
 Y. Honda, O. Kitao, H. Nakai, T. Vreven, J. A. Montgomery, Jr., 
 J. E. Peralta, F. Ogliaro, M. Bearpark, J. J. Heyd, E. Brothers, 
 K. N. Kudin, V. N. Staroverov, T. Keith, R. Kobayashi, J. Normand, 
 K. Raghavachari, A. Rendell, J. C. Burant, S. S. Iyengar, J. Tomasi, 
 M. Cossi, N. Rega, J. M. Millam, M. Klene, J. E. Knox, J. B. Cross, 
 V. Bakken, C. Adamo, J. Jaramillo, R. Gomperts, R. E. Stratmann, 
 O. Yazyev, A. J. Austin, R. Cammi, C. Pomelli, J. W. Ochterski, 
 R. L. Martin, K. Morokuma, V. G. Zakrzewski, G. A. Voth, 
 P. Salvador, J. J. Dannenberg, S. Dapprich, A. D. Daniels, 
 O. Farkas, J. B. Foresman, J. V. Ortiz, J. Cioslowski, 
 and D. J. Fox, Gaussian, Inc., Wallingford CT, 2013.
 
 ******************************************
 Gaussian 09:  ES64L-G09RevE.01 30-Nov-2015
                13-Jan-2017 
 ******************************************
 -------------------------------------
 # b3lyp/6-31g(d) irc=(calcfc,reverse)
 -------------------------------------
 1/10=4,14=-1,18=10,22=2,26=3,38=1,44=3/1,23;
 2/12=2,17=6,18=5,29=1,40=1/2;
 3/5=1,6=6,7=1,11=2,16=1,25=1,30=1,71=2,74=-5,140=1/1,2,3;
 4//1;
 5/5=2,38=5/2;
 8/6=4,10=90,11=11/1;
 11/6=1,8=1,9=11,15=111,16=1/1,2,10;
 10/6=1,13=1/2;
 6/7=2,8=2,9=2,10=2,28=1/1;
 7/10=1,18=20,25=1/1,2,3,16;
 1/10=4,14=-1,18=10,22=2,26=3,44=3/23(2);
 2/29=1/2;
 99/5=20/99;
 2/29=1/2;
 3/5=1,6=6,7=1,11=2,16=1,25=1,30=1,71=2,74=-5,140=1/1,2,3;
 4/5=5,16=3,69=1/1;
 5/5=2,38=5/2;
 8/6=4,10=90,11=11/1;
 11/6=1,8=1,9=11,15=111,16=1/1,2,10;
 10/6=1,13=1/2;
 7/10=1,18=20,25=1/1,2,3,16;
 1/14=-1,18=10,22=2,26=3,44=3/23(-8);
 2/29=1/2;
 6/7=2,8=2,9=2,10=2,19=2,28=1/1;
 99/5=20,9=1/99;
 ---------------------------------
 glo_2w_alpha_ts_boat3_B3LYP_631Gd
 ---------------------------------
 Symbolic Z-matrix:
 Charge =  0 Multiplicity = 1
 6                     1.03472   0.20689   1.09805 
 6                     0.48356  -1.52273  -0.7455 
 8                    -0.52196   0.68862  -0.78341 
 6                    -0.9036   -0.89479  -0.63203 
 6                     0.52909   1.23103   0.06901 
 6                     1.36316  -1.17367   0.46521 
 1                     1.17851  -1.9212    1.24761 
 1                     0.96208  -1.09423  -1.63807 
 1                     0.08074   2.0584    0.63624 
 1                     1.9569    0.62593   1.51808 
 6                     1.63562   1.78857  -0.84059 
 1                     1.17345   2.39206  -1.63649 
 1                     2.19087   0.97363  -1.31009 
 8                     2.59602   2.53246  -0.1006 
 1                     2.15357   3.31945   0.25513 
 8                     0.31847  -2.92292  -0.90361 
 1                     1.21121  -3.28753  -1.01596 
 8                     2.70636  -1.27536  -0.02316 
 1                     3.30834  -1.17497   0.73117 
 8                     0.12929   0.06669   2.1765 
 1                    -0.63405  -0.43411   1.80319 
 1                    -1.46374  -0.98588  -1.57588 
 8                    -1.58044  -1.13741   0.46091 
 8                    -2.62463   1.86217  -0.53291 
 1                    -1.57928   1.33235  -0.6819 
 1                    -2.98289   2.09384  -1.40517 
 8                    -3.79273  -0.07762   0.33501 
 1                    -2.86201  -0.66388   0.40926 
 1                    -3.27552   1.02624  -0.09484 
 1                    -4.11658   0.03497   1.24301 
 
 IRC-IRC-IRC-IRC-IRC-IRC-IRC-IRC-IRC-IRC-IRC-IRC-IRC-IRC-IRC-IRC-IRC-IRC
 ------------------------------------------------------------------------
 INPUT DATA FOR L123
 ------------------------------------------------------------------------
 GENERAL PARAMETERS:
 Rxn path following direction = Reverse
 Maximum points per path      =  10
 Step size                    =   0.100 bohr
 Integration scheme           = HPC                                 
    Redo corrector integration= Yes                                 
    DWI Weight Power          =  2
    DWI will use Hessian update vectors when possible.
    Max correction cycles     =  20
 Initial Hessian              = CalcFC
 Hessian evaluation           = All updating
 Hessian updating method      = Bofill                              
 ------------------------------------------------------------------------
 IRC-IRC-IRC-IRC-IRC-IRC-IRC-IRC-IRC-IRC-IRC-IRC-IRC-IRC-IRC-IRC-IRC-IRC
                          Input orientation:                          
 ---------------------------------------------------------------------
 Center     Atomic      Atomic             Coordinates (Angstroms)
 Number     Number       Type             X           Y           Z
 ---------------------------------------------------------------------
      1          6           0        1.034724    0.206886    1.098052
      2          6           0        0.483562   -1.522733   -0.745496
      3          8           0       -0.521962    0.688624   -0.783413
      4          6           0       -0.903596   -0.894787   -0.632031
      5          6           0        0.529088    1.231026    0.069013
      6          6           0        1.363158   -1.173674    0.465207
      7          1           0        1.178512   -1.921196    1.247609
      8          1           0        0.962075   -1.094232   -1.638071
      9          1           0        0.080736    2.058404    0.636239
     10          1           0        1.956898    0.625927    1.518077
     11          6           0        1.635621    1.788574   -0.840591
     12          1           0        1.173447    2.392059   -1.636486
     13          1           0        2.190874    0.973631   -1.310086
     14          8           0        2.596022    2.532462   -0.100604
     15          1           0        2.153571    3.319453    0.255128
     16          8           0        0.318468   -2.922923   -0.903611
     17          1           0        1.211205   -3.287530   -1.015959
     18          8           0        2.706361   -1.275356   -0.023159
     19          1           0        3.308340   -1.174972    0.731173
     20          8           0        0.129294    0.066691    2.176495
     21          1           0       -0.634053   -0.434106    1.803191
     22          1           0       -1.463736   -0.985882   -1.575884
     23          8           0       -1.580444   -1.137409    0.460913
     24          8           0       -2.624630    1.862174   -0.532907
     25          1           0       -1.579279    1.332349   -0.681900
     26          1           0       -2.982893    2.093841   -1.405169
     27          8           0       -3.792726   -0.077618    0.335009
     28          1           0       -2.862007   -0.663879    0.409260
     29          1           0       -3.275517    1.026243   -0.094837
     30          1           0       -4.116575    0.034973    1.243014
 ---------------------------------------------------------------------
                    Distance matrix (angstroms):
                    1          2          3          4          5
     1  C    0.000000
     2  C    2.587282   0.000000
     3  O    2.489027   2.429530   0.000000
     4  C    2.822048   1.526892   1.635772   0.000000
     5  C    1.537352   2.872053   1.457922   2.657654   0.000000
     6  C    1.553804   1.536663   2.929314   2.533749   2.575893
     7  H    2.138171   2.148068   3.718578   2.986927   3.427440
     8  H    3.030603   1.099672   2.472121   2.128996   2.916923
     9  H    2.133421   3.859534   2.062754   3.361362   1.098781
    10  H    1.096550   3.451264   3.383125   3.888182   2.122398
    11  C    2.573160   3.507283   2.422462   3.700209   1.537093
    12  H    3.503130   4.073745   2.550262   4.015768   2.161463
    13  H    2.779156   3.076607   2.778146   3.677838   2.174787
    14  O    3.046758   4.617681   3.686162   4.927045   2.448412
    15  H    3.413270   5.218903   3.893367   5.281396   2.652378
    16  O    3.783567   1.418728   3.709992   2.383387   4.271493
    17  H    4.087925   1.927984   4.343702   3.216365   4.696786
    18  O    2.499705   2.350277   3.854513   3.680672   3.321290
    19  H    2.685789   3.206378   4.520860   4.435903   3.735174
    20  O    1.415096   3.345117   3.093863   3.143107   2.440695
    21  H    1.921694   2.988307   2.821986   2.493028   2.670755
    22  H    3.849017   2.183969   2.078201   1.101324   3.404661
    23  O    3.008684   2.421573   2.450128   1.308249   3.195809
    24  O    4.334845   4.600396   2.420989   3.251556   3.272093
    25  H    3.356770   3.522904   1.242017   2.327911   2.240390
    26  H    5.095877   5.052830   2.901275   3.721977   3.905339
    27  O    4.895656   4.641389   3.540606   3.154363   4.523426
    28  H    4.051812   3.641967   2.954242   2.230018   3.899482
    29  H    4.546703   4.588171   2.858354   3.099184   3.813634
    30  H    5.156205   5.248036   4.177907   3.834512   4.938725
                    6          7          8          9         10
     6  C    0.000000
     7  H    1.097741   0.000000
     8  H    2.142652   3.009628   0.000000
     9  H    3.481406   4.173260   3.986020   0.000000
    10  H    2.167862   2.677102   3.729596   2.519844   0.000000
    11  C    3.248732   4.281579   3.065976   2.161366   2.649204
    12  H    4.143375   5.188661   3.492693   2.543742   3.699228
    13  H    2.906492   3.993332   2.427669   3.068810   2.859047
    14  O    3.946586   4.864369   4.264563   2.663519   2.581372
    15  H    4.566955   5.422191   4.948180   2.456041   2.981410
    16  O    2.454570   2.524060   2.073107   5.219317   4.598191
    17  H    2.585600   2.644178   2.293392   5.708479   4.721498
    18  O    1.432842   2.089565   2.383963   4.294493   2.559684
    19  H    1.963281   2.315108   3.335385   4.569591   2.385131
    20  O    2.447332   2.432156   4.073350   2.518267   2.021484
    21  H    2.515157   2.409461   3.850412   2.843467   2.813892
    22  H    3.491797   3.978492   2.429026   4.067746   4.885822
    23  O    2.943829   2.974063   3.297272   3.606034   4.091422
    24  O    5.110289   5.652258   4.777675   2.953712   5.169646
    25  H    4.031618   4.681236   3.641571   2.240602   4.224154
    26  H    5.750054   6.362000   5.077482   3.681633   5.924667
    27  O    5.272706   5.380040   5.247350   4.433626   5.912089
    28  H    4.256177   4.313869   4.358942   4.015231   5.110276
    29  H    5.164358   5.507080   4.983490   3.586678   5.489983
    30  H    5.665094   5.644871   5.947137   4.698922   6.108352
                   11         12         13         14         15
    11  C    0.000000
    12  H    1.100567   0.000000
    13  H    1.092183   1.775847   0.000000
    14  O    1.422435   2.098182   2.014186   0.000000
    15  H    1.952553   2.323555   2.820313   0.970393   0.000000
    16  O    4.892552   5.432967   4.342149   5.966012   6.608898
    17  H    5.096834   5.713511   4.382209   6.052099   6.793816
    18  O    3.346991   4.289823   2.641941   3.810203   4.636301
    19  H    3.748471   4.784066   3.167327   3.865788   4.664758
    20  O    3.786385   4.586547   4.150771   4.165328   4.286002
    21  H    4.132954   4.804752   4.433332   4.781040   4.925094
    22  H    4.224249   4.285895   4.155300   5.571071   5.913833
    23  O    4.538542   4.943697   4.670735   5.588034   5.817975
    24  O    4.271981   3.990495   4.958084   5.281229   5.057259
    25  H    3.250985   3.100277   3.838926   4.383071   4.331371
    26  H    4.662897   4.173440   5.294504   5.746179   5.535519
    27  O    5.859322   5.886338   6.294039   6.915083   6.848717
    28  H    5.273074   5.459737   5.582938   6.345600   6.406771
    29  H    5.025592   4.902593   5.600092   6.061658   5.903921
    30  H    6.364298   6.467744   6.869011   7.287093   7.146920
                   16         17         18         19         20
    16  O    0.000000
    17  H    0.970845   0.000000
    18  O    3.031783   2.696291   0.000000
    19  H    3.829776   3.451572   0.970295   0.000000
    20  O    4.296584   4.755323   3.644289   3.706348   0.000000
    21  H    3.798458   4.415270   3.898926   4.152176   0.986333
    22  H    2.716676   3.573011   4.459199   5.303864   4.210226
    23  O    2.942083   3.820664   4.316254   4.896393   2.704863
    24  O    5.629956   6.439443   6.206722   6.783973   4.260131
    25  H    4.664541   5.407558   5.059721   5.672059   3.562518
    26  H    6.026480   6.833820   6.754928   7.404641   5.159783
    27  O    5.150908   6.096554   6.618232   7.196268   4.335220
    28  H    4.116106   5.050332   5.618506   6.199841   3.550315
    29  H    5.400625   6.291882   6.409786   6.991052   4.203859
    30  H    5.746891   6.672872   7.062054   7.540246   4.347390
                   21         22         23         24         25
    21  H    0.000000
    22  H    3.522922   0.000000
    23  O    1.786617   2.045757   0.000000
    24  O    3.833100   3.247599   3.327987   0.000000
    25  H    3.192098   2.487318   2.721347   1.181386   0.000000
    26  H    4.711808   3.438266   3.986239   0.971011   1.753032
    27  O    3.501408   3.146530   2.456257   2.424978   2.814509
    28  H    2.638109   2.449417   1.367224   2.706468   2.611694
    29  H    3.565454   3.086211   2.804197   1.146447   1.820870
    30  H    3.558341   4.003234   2.901400   2.952704   3.438946
                   26         27         28         29         30
    26  H    0.000000
    27  O    2.898152   0.000000
    28  H    3.303299   1.102476   0.000000
    29  H    1.715332   1.292587   1.811523   0.000000
    30  H    3.540769   0.970581   1.660566   1.865433   0.000000
 Symmetry turned off by external request.
 Stoichiometry    C6H16O8
 Framework group  C1[X(C6H16O8)]
 Deg. of freedom    84
 Full point group                 C1      NOp   1
 Rotational constants (GHZ):      0.7462384      0.5358444      0.3938602
 Standard basis: 6-31G(d) (6D, 7F)
   242 basis functions,   456 primitive gaussians,   242 cartesian basis functions
    58 alpha electrons       58 beta electrons
       nuclear repulsion energy      1123.1972074783 Hartrees.
 NAtoms=   30 NActive=   30 NUniq=   30 SFac= 1.00D+00 NAtFMM=   60 NAOKFM=F Big=F
 Integral buffers will be    131072 words long.
 Raffenetti 2 integral format.
 Two-electron integral symmetry is turned off.
 One-electron integrals computed using PRISM.
 NBasis=   242 RedAO= T EigKep=  1.13D-03  NBF=   242
 NBsUse=   242 1.00D-06 EigRej= -1.00D+00 NBFU=   242
 ExpMin= 1.61D-01 ExpMax= 5.48D+03 ExpMxC= 8.25D+02 IAcc=1 IRadAn=         1 AccDes= 0.00D+00
 Harris functional with IExCor=  402 and IRadAn=       1 diagonalized for initial guess.
 HarFok:  IExCor=  402 AccDes= 0.00D+00 IRadAn=         1 IDoV= 1 UseB2=F ITyADJ=14
 ICtDFT=  3500011 ScaDFX=  1.000000  1.000000  1.000000  1.000000
 FoFCou: FMM=F IPFlag=           0 FMFlag=      100000 FMFlg1=           0
         NFxFlg=           0 DoJE=T BraDBF=F KetDBF=T FulRan=T
         wScrn=  0.000000 ICntrl=     500 IOpCl=  0 I1Cent=   200000004 NGrid=           0
         NMat0=    1 NMatS0=      1 NMatT0=    0 NMatD0=    1 NMtDS0=    0 NMtDT0=    0
 Symmetry not used in FoFCou.
 Requested convergence on RMS density matrix=1.00D-08 within 128 cycles.
 Requested convergence on MAX density matrix=1.00D-06.
 Requested convergence on             energy=1.00D-06.
 No special actions if energy rises.
 Integral accuracy reduced to 1.0D-05 until final iterations.
 Initial convergence to 1.0D-05 achieved.  Increase integral accuracy.
 SCF Done:  E(RB3LYP) =  -839.961356260     A.U. after   14 cycles
            NFock= 14  Conv=0.57D-08     -V/T= 2.0086
 DoSCS=F DFT=T ScalE2(SS,OS)=  1.000000  1.000000
 Range of M.O.s used for correlation:     1   242
 NBasis=   242 NAE=    58 NBE=    58 NFC=     0 NFV=     0
 NROrb=    242 NOA=    58 NOB=    58 NVA=   184 NVB=   184
 Symmetrizing basis deriv contribution to polar:
 IMax=3 JMax=2 DiffMx= 0.00D+00
 G2DrvN: will do    31 centers at a time, making    1 passes.
 Calling FoFCou, ICntrl=  3107 FMM=F I1Cent=   0 AccDes= 0.00D+00.
 End of G2Drv F.D. properties file   721 does not exist.
 End of G2Drv F.D. properties file   722 does not exist.
 End of G2Drv F.D. properties file   788 does not exist.
          IDoAtm=111111111111111111111111111111
          Differentiating once with respect to nuclear coordinates.
          There are    93 degrees of freedom in the 1st order CPHF.  IDoFFX=6 NUNeed=     0.
     87 vectors produced by pass  0 Test12= 1.15D-14 1.08D-09 XBig12= 1.22D-01 8.93D-02.
 AX will form    87 AO Fock derivatives at one time.
     87 vectors produced by pass  1 Test12= 1.15D-14 1.08D-09 XBig12= 1.19D-02 1.27D-02.
     87 vectors produced by pass  2 Test12= 1.15D-14 1.08D-09 XBig12= 1.37D-04 2.40D-03.
     87 vectors produced by pass  3 Test12= 1.15D-14 1.08D-09 XBig12= 3.00D-07 7.00D-05.
     87 vectors produced by pass  4 Test12= 1.15D-14 1.08D-09 XBig12= 4.98D-10 2.18D-06.
     67 vectors produced by pass  5 Test12= 1.15D-14 1.08D-09 XBig12= 4.15D-13 4.79D-08.
      2 vectors produced by pass  6 Test12= 1.15D-14 1.08D-09 XBig12= 3.18D-16 1.63D-09.
 InvSVY:  IOpt=1 It=  1 EMax= 4.72D-16
 Solved reduced A of dimension   504 with    93 vectors.
 End of Minotr F.D. properties file   721 does not exist.
 End of Minotr F.D. properties file   722 does not exist.
 End of Minotr F.D. properties file   788 does not exist.

 **********************************************************************

            Population analysis using the SCF density.

 **********************************************************************

 Alpha  occ. eigenvalues --  -19.18632 -19.17973 -19.16098 -19.15387 -19.15368
 Alpha  occ. eigenvalues --  -19.14138 -19.11660 -19.11034 -10.28595 -10.24449
 Alpha  occ. eigenvalues --  -10.23421 -10.23273 -10.23237 -10.23062  -1.06547
 Alpha  occ. eigenvalues --   -1.03935  -1.02716  -1.02302  -1.01471  -1.00996
 Alpha  occ. eigenvalues --   -0.99373  -0.97565  -0.77132  -0.75335  -0.68127
 Alpha  occ. eigenvalues --   -0.64464  -0.62015  -0.57373  -0.55854  -0.54874
 Alpha  occ. eigenvalues --   -0.54214  -0.53151  -0.51109  -0.50348  -0.48494
 Alpha  occ. eigenvalues --   -0.46452  -0.46286  -0.44894  -0.44400  -0.43362
 Alpha  occ. eigenvalues --   -0.41131  -0.40795  -0.39541  -0.38638  -0.37438
 Alpha  occ. eigenvalues --   -0.36355  -0.35322  -0.34798  -0.34383  -0.32584
 Alpha  occ. eigenvalues --   -0.31787  -0.30644  -0.28677  -0.27763  -0.27163
 Alpha  occ. eigenvalues --   -0.25757  -0.25049  -0.23796
 Alpha virt. eigenvalues --    0.04299   0.05458   0.06751   0.07060   0.08498
 Alpha virt. eigenvalues --    0.10392   0.11786   0.12220   0.12711   0.15063
 Alpha virt. eigenvalues --    0.15246   0.16626   0.17476   0.18822   0.20275
 Alpha virt. eigenvalues --    0.20570   0.22358   0.23869   0.24557   0.25093
 Alpha virt. eigenvalues --    0.26554   0.27561   0.28866   0.30605   0.32051
 Alpha virt. eigenvalues --    0.32409   0.33614   0.37765   0.52702   0.54289
 Alpha virt. eigenvalues --    0.54709   0.56599   0.57322   0.58538   0.59754
 Alpha virt. eigenvalues --    0.59977   0.61331   0.63076   0.64225   0.65390
 Alpha virt. eigenvalues --    0.67609   0.69129   0.69389   0.69799   0.74227
 Alpha virt. eigenvalues --    0.74948   0.76592   0.78705   0.79717   0.81357
 Alpha virt. eigenvalues --    0.81907   0.82155   0.82836   0.83836   0.85314
 Alpha virt. eigenvalues --    0.85733   0.87769   0.88081   0.88453   0.89879
 Alpha virt. eigenvalues --    0.90527   0.91343   0.92118   0.95070   0.96913
 Alpha virt. eigenvalues --    0.97653   0.99462   1.00102   1.01672   1.02908
 Alpha virt. eigenvalues --    1.03698   1.04834   1.05279   1.06657   1.07588
 Alpha virt. eigenvalues --    1.08508   1.12341   1.13328   1.15303   1.17427
 Alpha virt. eigenvalues --    1.18598   1.19328   1.23113   1.27144   1.27970
 Alpha virt. eigenvalues --    1.29191   1.32516   1.34548   1.35157   1.40132
 Alpha virt. eigenvalues --    1.42306   1.45381   1.47270   1.50866   1.51952
 Alpha virt. eigenvalues --    1.53857   1.55359   1.57517   1.58459   1.60484
 Alpha virt. eigenvalues --    1.62573   1.64772   1.66654   1.66888   1.67920
 Alpha virt. eigenvalues --    1.68758   1.70954   1.72455   1.73610   1.75082
 Alpha virt. eigenvalues --    1.76231   1.77485   1.78504   1.79594   1.80312
 Alpha virt. eigenvalues --    1.81205   1.84050   1.84884   1.85198   1.86305
 Alpha virt. eigenvalues --    1.88384   1.89893   1.90606   1.93390   1.96094
 Alpha virt. eigenvalues --    1.97794   1.98628   2.01328   2.05479   2.06888
 Alpha virt. eigenvalues --    2.07932   2.10115   2.10275   2.15632   2.17153
 Alpha virt. eigenvalues --    2.19699   2.24264   2.26039   2.27630   2.31937
 Alpha virt. eigenvalues --    2.33732   2.35787   2.36709   2.39068   2.40800
 Alpha virt. eigenvalues --    2.43203   2.44796   2.48820   2.50219   2.52869
 Alpha virt. eigenvalues --    2.53899   2.55141   2.58628   2.59770   2.60998
 Alpha virt. eigenvalues --    2.64730   2.66726   2.67870   2.70876   2.75874
 Alpha virt. eigenvalues --    2.80764   2.82923   2.84727   2.90962   2.91212
 Alpha virt. eigenvalues --    2.93727   2.98721   3.03793   3.08101   3.12989
 Alpha virt. eigenvalues --    3.70108   3.75898   3.81028   3.88023   3.90089
 Alpha virt. eigenvalues --    3.98583   4.05756   4.16082   4.25754   4.37662
 Alpha virt. eigenvalues --    4.55491   4.59318   4.64424   4.93219
          Condensed to atoms (all electrons):
               1          2          3          4          5          6
     1  C    4.973604  -0.025613  -0.026613   0.006143   0.304808   0.254942
     2  C   -0.025613   4.948419  -0.024295   0.304590  -0.019395   0.293734
     3  O   -0.026613  -0.024295   8.643303   0.066136   0.115238  -0.010847
     4  C    0.006143   0.304590   0.066136   4.778565  -0.009724  -0.021995
     5  C    0.304808  -0.019395   0.115238  -0.009724   5.108140  -0.019111
     6  C    0.254942   0.293734  -0.010847  -0.021995  -0.019111   5.096047
     7  H   -0.056535  -0.037063   0.000255  -0.005784   0.006374   0.349359
     8  H    0.000262   0.344888   0.005324  -0.049254  -0.000008  -0.054251
     9  H   -0.041383   0.000120  -0.032993   0.000934   0.357677   0.005027
    10  H    0.363360   0.004235   0.003227  -0.000074  -0.053414  -0.041734
    11  C   -0.033492  -0.000948  -0.032747   0.000722   0.287158  -0.002192
    12  H    0.005095   0.000025   0.006138  -0.000027  -0.047869  -0.000285
    13  H   -0.009668  -0.002014   0.001879   0.000145  -0.035957   0.001452
    14  O   -0.004541   0.000051   0.001466  -0.000009  -0.039447  -0.000187
    15  H   -0.000864   0.000001   0.000002  -0.000001  -0.002865   0.000018
    16  O    0.003703   0.246180   0.000876  -0.041277  -0.000022  -0.039920
    17  H    0.000367  -0.027505  -0.000088   0.007646  -0.000031  -0.004882
    18  O   -0.032548  -0.040668  -0.000003   0.002518   0.000150   0.185957
    19  H   -0.003354   0.007069   0.000007  -0.000287  -0.000158  -0.023652
    20  O    0.243469   0.001619   0.001182   0.005173  -0.043573  -0.037583
    21  H   -0.040110  -0.003788  -0.000561  -0.005887  -0.000221  -0.000787
    22  H   -0.000490  -0.062899  -0.042948   0.369315   0.004258   0.006857
    23  O    0.004242  -0.049009  -0.054144   0.275204   0.000137  -0.001917
    24  O   -0.000286   0.000050  -0.098251   0.006456   0.004165   0.000000
    25  H    0.002497   0.001839   0.114686  -0.003682  -0.007370  -0.000171
    26  H    0.000008   0.000008   0.004139  -0.000053  -0.000102  -0.000000
    27  O   -0.000008  -0.000172  -0.000868   0.007853  -0.000034   0.000007
    28  H   -0.000102   0.002400   0.002598  -0.012706  -0.000068  -0.000125
    29  H    0.000015   0.000084   0.004461  -0.000194  -0.000036  -0.000003
    30  H   -0.000002   0.000005  -0.000011  -0.000260   0.000006  -0.000000
               7          8          9         10         11         12
     1  C   -0.056535   0.000262  -0.041383   0.363360  -0.033492   0.005095
     2  C   -0.037063   0.344888   0.000120   0.004235  -0.000948   0.000025
     3  O    0.000255   0.005324  -0.032993   0.003227  -0.032747   0.006138
     4  C   -0.005784  -0.049254   0.000934  -0.000074   0.000722  -0.000027
     5  C    0.006374  -0.000008   0.357677  -0.053414   0.287158  -0.047869
     6  C    0.349359  -0.054251   0.005027  -0.041734  -0.002192  -0.000285
     7  H    0.609270   0.007072  -0.000250  -0.001466  -0.000051   0.000010
     8  H    0.007072   0.651720   0.000078  -0.000334  -0.000198   0.000154
     9  H   -0.000250   0.000078   0.616674  -0.001312  -0.051923  -0.005493
    10  H   -0.001466  -0.000334  -0.001312   0.597783  -0.003354   0.000534
    11  C   -0.000051  -0.000198  -0.051923  -0.003354   4.962734   0.346693
    12  H    0.000010   0.000154  -0.005493   0.000534   0.346693   0.642618
    13  H    0.000153   0.004536   0.004940  -0.000146   0.373138  -0.037355
    14  O   -0.000006   0.000012   0.001279   0.015951   0.237870  -0.030283
    15  H   -0.000001   0.000002   0.006393  -0.000130  -0.032715  -0.006963
    16  O    0.001937  -0.038689   0.000003  -0.000054   0.000010  -0.000001
    17  H   -0.000509  -0.004703  -0.000000  -0.000005   0.000002  -0.000000
    18  O   -0.033374  -0.001552  -0.000139   0.000507  -0.001477   0.000146
    19  H   -0.004647  -0.000009   0.000003   0.005776   0.000153  -0.000009
    20  O    0.007659  -0.000071   0.003926  -0.036745   0.003781  -0.000073
    21  H    0.000844   0.000069  -0.000637   0.005797  -0.000040   0.000004
    22  H   -0.000153  -0.001844  -0.000131   0.000001  -0.000136  -0.000001
    23  O    0.002778   0.004051  -0.000227  -0.000017   0.000010   0.000006
    24  O    0.000000  -0.000001   0.003853   0.000003  -0.000185  -0.000008
    25  H    0.000007   0.000111  -0.004241  -0.000062  -0.000234   0.000902
    26  H    0.000000  -0.000001  -0.000188  -0.000000   0.000002   0.000008
    27  O    0.000001   0.000005   0.000017  -0.000000  -0.000000   0.000000
    28  H   -0.000016  -0.000093  -0.000010   0.000001   0.000004  -0.000001
    29  H   -0.000000  -0.000004  -0.000098  -0.000000   0.000011  -0.000001
    30  H   -0.000000  -0.000000  -0.000004   0.000000   0.000000  -0.000000
              13         14         15         16         17         18
     1  C   -0.009668  -0.004541  -0.000864   0.003703   0.000367  -0.032548
     2  C   -0.002014   0.000051   0.000001   0.246180  -0.027505  -0.040668
     3  O    0.001879   0.001466   0.000002   0.000876  -0.000088  -0.000003
     4  C    0.000145  -0.000009  -0.000001  -0.041277   0.007646   0.002518
     5  C   -0.035957  -0.039447  -0.002865  -0.000022  -0.000031   0.000150
     6  C    0.001452  -0.000187   0.000018  -0.039920  -0.004882   0.185957
     7  H    0.000153  -0.000006  -0.000001   0.001937  -0.000509  -0.033374
     8  H    0.004536   0.000012   0.000002  -0.038689  -0.004703  -0.001552
     9  H    0.004940   0.001279   0.006393   0.000003  -0.000000  -0.000139
    10  H   -0.000146   0.015951  -0.000130  -0.000054  -0.000005   0.000507
    11  C    0.373138   0.237870  -0.032715   0.000010   0.000002  -0.001477
    12  H   -0.037355  -0.030283  -0.006963  -0.000001  -0.000000   0.000146
    13  H    0.537663  -0.034357   0.007004   0.000005  -0.000006   0.010973
    14  O   -0.034357   8.228111   0.234151   0.000000  -0.000000  -0.000098
    15  H    0.007004   0.234151   0.404635   0.000000   0.000000  -0.000012
    16  O    0.000005   0.000000   0.000000   8.261773   0.235378  -0.000453
    17  H   -0.000006  -0.000000   0.000000   0.235378   0.386384   0.007664
    18  O    0.010973  -0.000098  -0.000012  -0.000453   0.007664   8.312223
    19  H   -0.000404  -0.000015   0.000003  -0.000159  -0.000414   0.231949
    20  O    0.000027  -0.000002  -0.000035  -0.000011  -0.000004   0.001623
    21  H    0.000005  -0.000001   0.000001  -0.000064  -0.000014  -0.000026
    22  H   -0.000021   0.000001  -0.000000   0.002695  -0.000495  -0.000063
    23  O    0.000007   0.000000  -0.000000   0.001699  -0.000078   0.000027
    24  O    0.000002   0.000000  -0.000000   0.000000  -0.000000   0.000000
    25  H   -0.000060   0.000010  -0.000004  -0.000014   0.000001  -0.000001
    26  H    0.000000  -0.000000   0.000000  -0.000000   0.000000  -0.000000
    27  O    0.000000   0.000000  -0.000000   0.000000  -0.000000   0.000000
    28  H    0.000000  -0.000000   0.000000  -0.000057   0.000007   0.000000
    29  H   -0.000000  -0.000000  -0.000000  -0.000000   0.000000  -0.000000
    30  H   -0.000000   0.000000   0.000000  -0.000000   0.000000  -0.000000
              19         20         21         22         23         24
     1  C   -0.003354   0.243469  -0.040110  -0.000490   0.004242  -0.000286
     2  C    0.007069   0.001619  -0.003788  -0.062899  -0.049009   0.000050
     3  O    0.000007   0.001182  -0.000561  -0.042948  -0.054144  -0.098251
     4  C   -0.000287   0.005173  -0.005887   0.369315   0.275204   0.006456
     5  C   -0.000158  -0.043573  -0.000221   0.004258   0.000137   0.004165
     6  C   -0.023652  -0.037583  -0.000787   0.006857  -0.001917   0.000000
     7  H   -0.004647   0.007659   0.000844  -0.000153   0.002778   0.000000
     8  H   -0.000009  -0.000071   0.000069  -0.001844   0.004051  -0.000001
     9  H    0.000003   0.003926  -0.000637  -0.000131  -0.000227   0.003853
    10  H    0.005776  -0.036745   0.005797   0.000001  -0.000017   0.000003
    11  C    0.000153   0.003781  -0.000040  -0.000136   0.000010  -0.000185
    12  H   -0.000009  -0.000073   0.000004  -0.000001   0.000006  -0.000008
    13  H   -0.000404   0.000027   0.000005  -0.000021   0.000007   0.000002
    14  O   -0.000015  -0.000002  -0.000001   0.000001   0.000000   0.000000
    15  H    0.000003  -0.000035   0.000001  -0.000000  -0.000000  -0.000000
    16  O   -0.000159  -0.000011  -0.000064   0.002695   0.001699   0.000000
    17  H   -0.000414  -0.000004  -0.000014  -0.000495  -0.000078  -0.000000
    18  O    0.231949   0.001623  -0.000026  -0.000063   0.000027   0.000000
    19  H    0.388783  -0.000009   0.000042   0.000006   0.000004   0.000000
    20  O   -0.000009   8.342520   0.212785  -0.000159  -0.031335   0.000007
    21  H    0.000042   0.212785   0.339676   0.001441   0.071807   0.000002
    22  H    0.000006  -0.000159   0.001441   0.649858  -0.049393   0.000715
    23  O    0.000004  -0.031335   0.071807  -0.049393   8.426278  -0.002274
    24  O    0.000000   0.000007   0.000002   0.000715  -0.002274   8.502826
    25  H   -0.000000  -0.000316   0.000109  -0.000931   0.006468   0.134090
    26  H   -0.000000  -0.000000   0.000000   0.000161   0.000033   0.234554
    27  O    0.000000  -0.000043   0.000736   0.002386  -0.086778  -0.098359
    28  H   -0.000000   0.000618  -0.001009  -0.005962   0.122869   0.006371
    29  H   -0.000000   0.000028   0.000011  -0.000429   0.005367   0.130729
    30  H   -0.000000   0.000010  -0.000003  -0.000072   0.004313   0.003928
              25         26         27         28         29         30
     1  C    0.002497   0.000008  -0.000008  -0.000102   0.000015  -0.000002
     2  C    0.001839   0.000008  -0.000172   0.002400   0.000084   0.000005
     3  O    0.114686   0.004139  -0.000868   0.002598   0.004461  -0.000011
     4  C   -0.003682  -0.000053   0.007853  -0.012706  -0.000194  -0.000260
     5  C   -0.007370  -0.000102  -0.000034  -0.000068  -0.000036   0.000006
     6  C   -0.000171  -0.000000   0.000007  -0.000125  -0.000003  -0.000000
     7  H    0.000007   0.000000   0.000001  -0.000016  -0.000000  -0.000000
     8  H    0.000111  -0.000001   0.000005  -0.000093  -0.000004  -0.000000
     9  H   -0.004241  -0.000188   0.000017  -0.000010  -0.000098  -0.000004
    10  H   -0.000062  -0.000000  -0.000000   0.000001  -0.000000   0.000000
    11  C   -0.000234   0.000002  -0.000000   0.000004   0.000011   0.000000
    12  H    0.000902   0.000008   0.000000  -0.000001  -0.000001  -0.000000
    13  H   -0.000060   0.000000   0.000000   0.000000  -0.000000  -0.000000
    14  O    0.000010  -0.000000   0.000000  -0.000000  -0.000000   0.000000
    15  H   -0.000004   0.000000  -0.000000   0.000000  -0.000000   0.000000
    16  O   -0.000014  -0.000000   0.000000  -0.000057  -0.000000  -0.000000
    17  H    0.000001   0.000000  -0.000000   0.000007   0.000000   0.000000
    18  O   -0.000001  -0.000000   0.000000   0.000000  -0.000000  -0.000000
    19  H   -0.000000  -0.000000   0.000000  -0.000000  -0.000000  -0.000000
    20  O   -0.000316  -0.000000  -0.000043   0.000618   0.000028   0.000010
    21  H    0.000109   0.000000   0.000736  -0.001009   0.000011  -0.000003
    22  H   -0.000931   0.000161   0.002386  -0.005962  -0.000429  -0.000072
    23  O    0.006468   0.000033  -0.086778   0.122869   0.005367   0.004313
    24  O    0.134090   0.234554  -0.098359   0.006371   0.130729   0.003928
    25  H    0.279008  -0.004890   0.004807  -0.000632  -0.006163  -0.000027
    26  H   -0.004890   0.352900   0.004166  -0.000246  -0.006175  -0.000133
    27  O    0.004807   0.004166   8.494752   0.137545   0.137470   0.232770
    28  H   -0.000632  -0.000246   0.137545   0.301256  -0.011631  -0.005654
    29  H   -0.006163  -0.006175   0.137470  -0.011631   0.290025  -0.006027
    30  H   -0.000027  -0.000133   0.232770  -0.005654  -0.006027   0.362720
 Mulliken charges:
               1
     1  C    0.113094
     2  C    0.138050
     3  O   -0.646545
     4  C    0.319817
     5  C    0.091291
     6  C    0.066241
     7  H    0.154138
     8  H    0.132729
     9  H    0.138104
    10  H    0.141673
    11  C   -0.052597
    12  H    0.126035
    13  H    0.178060
    14  O   -0.609956
    15  H    0.391380
    16  O   -0.633537
    17  H    0.401287
    18  O   -0.643324
    19  H    0.399321
    20  O   -0.674467
    21  H    0.419819
    22  H    0.128435
    23  O   -0.650127
    24  O   -0.828386
    25  H    0.484262
    26  H    0.415810
    27  O   -0.836252
    28  H    0.464642
    29  H    0.462561
    30  H    0.408442
 Sum of Mulliken charges =  -0.00000
 Mulliken charges with hydrogens summed into heavy atoms:
               1
     1  C    0.254767
     2  C    0.270778
     3  O   -0.646545
     4  C    0.448251
     5  C    0.229395
     6  C    0.220379
    11  C    0.251498
    14  O   -0.218576
    16  O   -0.232250
    18  O   -0.244003
    20  O   -0.254648
    23  O   -0.650127
    24  O    0.534247
    27  O    0.036833
 APT charges:
               1
     1  C   -0.370575
     2  C   -0.160733
     3  O   -0.389807
     4  C   -0.292687
     5  C   -0.263439
     6  C   -0.249010
     7  H    0.421738
     8  H    0.332656
     9  H    0.393126
    10  H    0.477376
    11  C   -0.591013
    12  H    0.420373
    13  H    0.332896
    14  O   -0.761107
    15  H    0.679243
    16  O   -0.884265
    17  H    0.764324
    18  O   -0.924878
    19  H    0.770713
    20  O   -0.534714
    21  H    0.390485
    22  H    0.453493
    23  O   -0.495015
    24  O   -1.161925
    25  H    0.399259
    26  H    0.844934
    27  O   -1.091421
    28  H    0.299457
    29  H    0.395885
    30  H    0.794631
 Sum of APT charges =  -0.00000
 APT charges with hydrogens summed into heavy atoms:
               1
     1  C    0.106801
     2  C    0.171923
     3  O   -0.389807
     4  C    0.160806
     5  C    0.129687
     6  C    0.172728
    11  C    0.162256
    14  O   -0.081865
    16  O   -0.119940
    18  O   -0.154166
    20  O   -0.144229
    23  O   -0.495015
    24  O    0.478153
    27  O    0.002667
 Electronic spatial extent (au):  <R**2>=           3039.0340
 Charge=             -0.0000 electrons
 Dipole moment (field-independent basis, Debye):
    X=             -1.0768    Y=              2.9646    Z=             -1.3004  Tot=              3.4117
 Quadrupole moment (field-independent basis, Debye-Ang):
   XX=            -77.9571   YY=            -80.8228   ZZ=            -83.1049
   XY=            -11.6731   XZ=              2.9851   YZ=             -3.3572
 Traceless Quadrupole moment (field-independent basis, Debye-Ang):
   XX=              2.6712   YY=             -0.1945   ZZ=             -2.4767
   XY=            -11.6731   XZ=              2.9851   YZ=             -3.3572
 Octapole moment (field-independent basis, Debye-Ang**2):
  XXX=            -47.0012  YYY=             33.8138  ZZZ=            -17.7613  XYY=             12.5275
  XXY=             -2.9239  XXZ=             27.5971  XZZ=            -21.1192  YZZ=              3.3335
  YYZ=             -1.1888  XYZ=             11.5745
 Hexadecapole moment (field-independent basis, Debye-Ang**3):
 XXXX=          -1736.0331 YYYY=          -1118.4126 ZZZZ=           -514.9710 XXXY=           -163.3097
 XXXZ=            -10.1359 YYYX=            -42.8416 YYYZ=              7.8029 ZZZX=             -7.5139
 ZZZY=            -17.3319 XXYY=           -499.8190 XXZZ=           -281.6341 YYZZ=           -265.1186
 XXYZ=            -33.0498 YYXZ=             28.1963 ZZXY=            -30.2570
 N-N= 1.123197207478D+03 E-N=-4.219373527900D+03  KE= 8.328222574787D+02
  Exact polarizability:   0.000   0.000   0.000   0.000   0.000   0.000
 Approx polarizability: 140.548   3.001 131.643  -3.243  -1.258 128.457
 Calling FoFJK, ICntrl=    100147 FMM=F ISym2X=0 I1Cent= 0 IOpClX= 0 NMat=1 NMatS=1 NMatT=0.
 -------------------------------------------------------------------
 Center     Atomic                   Forces (Hartrees/Bohr)
 Number     Number              X              Y              Z
 -------------------------------------------------------------------
      1        6           0.000001198   -0.000001045   -0.000001356
      2        6           0.000001369    0.000002247   -0.000004132
      3        8          -0.000003223    0.000001853    0.000003250
      4        6           0.000000204    0.000000116   -0.000001065
      5        6          -0.000000703   -0.000000145    0.000001228
      6        6           0.000002930    0.000000258   -0.000005691
      7        1           0.000002113   -0.000000433   -0.000003282
      8        1          -0.000000366    0.000002233   -0.000001513
      9        1          -0.000000008   -0.000000464    0.000001023
     10        1           0.000000504   -0.000000381   -0.000000088
     11        6          -0.000003105    0.000001341    0.000002827
     12        1          -0.000002857    0.000003362   -0.000000207
     13        1          -0.000002681    0.000000925   -0.000000330
     14        8          -0.000015833    0.000024822    0.000010256
     15        1           0.000010258   -0.000017757   -0.000005956
     16        8           0.000002239    0.000004352   -0.000009249
     17        1           0.000002863    0.000000987   -0.000004402
     18        8          -0.000003898    0.000005006   -0.000014013
     19        1           0.000005873    0.000000860    0.000003254
     20        8           0.000003413   -0.000006105   -0.000000562
     21        1           0.000000781   -0.000002479   -0.000000553
     22        1          -0.000000277    0.000000753   -0.000000378
     23        8           0.000003901   -0.000004317   -0.000001696
     24        8          -0.000013940    0.000011563   -0.000014492
     25        1          -0.000000405    0.000000419    0.000003113
     26        1           0.000009951   -0.000011532    0.000028348
     27        8          -0.000013823   -0.000005305    0.000042485
     28        1          -0.000000649   -0.000002289    0.000001099
     29        1          -0.000001007   -0.000001309    0.000005650
     30        1           0.000015179   -0.000007535   -0.000033570
 -------------------------------------------------------------------
 Cartesian Forces:  Max     0.000042485 RMS     0.000008928
 IRC-IRC-IRC-IRC-IRC-IRC-IRC-IRC-IRC-IRC-IRC-IRC-IRC-IRC-IRC-IRC-IRC-IRC
          ******** Start new reaction path calculation ********
 Supplied step size of   0.1000 bohr.
    Integration on MW PES will use step size of   0.1078 sqrt(amu)*bohr.
 Point Number:   0          Path Number:   1
 Calculating another point on the path.
 IRC-IRC-IRC-IRC-IRC-IRC-IRC-IRC-IRC-IRC-IRC-IRC-IRC-IRC-IRC-IRC-IRC-IRC
                          Input orientation:                          
 ---------------------------------------------------------------------
 Center     Atomic      Atomic             Coordinates (Angstroms)
 Number     Number       Type             X           Y           Z
 ---------------------------------------------------------------------
      1          6           0        1.022028    0.226486    1.091110
      2          6           0        0.471390   -1.502826   -0.752662
      3          8           0       -0.535021    0.710540   -0.790586
      4          6           0       -0.917587   -0.878684   -0.637812
      5          6           0        0.517024    1.251647    0.062491
      6          6           0        1.350708   -1.153986    0.458201
      7          1           0        1.165925   -1.901379    1.240608
      8          1           0        0.950111   -1.074456   -1.645321
      9          1           0        0.068393    2.078499    0.629582
     10          1           0        1.944240    0.645973    1.510631
     11          6           0        1.623254    1.808428   -0.847597
     12          1           0        1.161112    2.411883   -1.643498
     13          1           0        2.178361    0.993298   -1.316939
     14          8           0        2.583540    2.552122   -0.107536
     15          1           0        2.141366    3.339384    0.247981
     16          8           0        0.306037   -2.903091   -0.910589
     17          1           0        1.198718   -3.267790   -1.023140
     18          8           0        2.693913   -1.255594   -0.030082
     19          1           0        3.295957   -1.155544    0.724257
     20          8           0        0.116833    0.086446    2.169474
     21          1           0       -0.646302   -0.415178    1.795994
     22          1           0       -1.476807   -0.965727   -1.583078
     23          8           0       -1.590842   -1.118066    0.453505
     24          8           0       -2.637219    1.882348   -0.539926
     25          1           0       -1.562066    1.334314   -0.690280
     26          1           0       -2.997824    2.113128   -1.411378
     27          8           0       -3.806924   -0.059227    0.328830
     28          1           0       -2.896175   -0.637725    0.402929
     29          1           0       -3.273785    1.072268   -0.113752
     30          1           0       -4.130164    0.051928    1.236911
 ---------------------------------------------------------------------
                    Distance matrix (angstroms):
                    1          2          3          4          5
     1  C    0.000000
     2  C    2.587125   0.000000
     3  O    2.489877   2.431726   0.000000
     4  C    2.823592   1.527089   1.641746   0.000000
     5  C    1.537544   2.872922   1.458539   2.662113   0.000000
     6  C    1.553804   1.536580   2.931194   2.534205   2.576565
     7  H    2.137958   2.148103   3.720361   2.985864   3.427916
     8  H    3.030788   1.099779   2.474348   2.131125   2.918038
     9  H    2.133630   3.859909   2.062110   3.365022   1.098428
    10  H    1.096560   3.450959   3.383268   3.889786   2.121532
    11  C    2.573441   3.507165   2.422139   3.704113   1.536883
    12  H    3.503339   4.073605   2.549293   4.019978   2.161342
    13  H    2.779173   3.076166   2.778388   3.681090   2.174767
    14  O    3.046909   4.617355   3.685566   4.930467   2.447577
    15  H    3.413783   5.218918   3.892619   5.285254   2.651704
    16  O    3.783344   1.418810   3.712156   2.381152   4.272382
    17  H    4.087938   1.928020   4.345922   3.214818   4.697724
    18  O    2.499767   2.350076   3.856172   3.681621   3.321698
    19  H    2.686139   3.206255   4.522544   4.436872   3.735635
    20  O    1.414871   3.345202   3.094570   3.143621   2.440743
    21  H    1.921437   2.987953   2.823123   2.492357   2.671454
    22  H    3.849263   2.184843   2.079634   1.101741   3.405879
    23  O    3.006901   2.419851   2.450780   1.304434   3.195549
    24  O    4.335002   4.600881   2.419752   3.254229   3.272605
    25  H    3.328389   3.491161   1.205810   2.305529   2.212717
    26  H    5.097163   5.054154   2.901385   3.725148   3.907505
    27  O    4.897088   4.643013   3.542737   3.155023   4.526130
    28  H    4.070966   3.663916   2.969401   2.248558   3.916063
    29  H    4.541041   4.589733   2.844254   3.103630   3.799141
    30  H    5.157210   5.248806   4.179662   3.834225   4.941148
                    6          7          8          9         10
     6  C    0.000000
     7  H    1.097679   0.000000
     8  H    2.142804   3.009811   0.000000
     9  H    3.481761   4.173411   3.986694   0.000000
    10  H    2.167889   2.677254   3.729370   2.519361   0.000000
    11  C    3.248891   4.281637   3.066025   2.161616   2.648693
    12  H    4.143490   5.188672   3.492719   2.544027   3.698684
    13  H    2.906366   3.993148   2.427353   3.068968   2.858426
    14  O    3.946540   4.864237   4.264380   2.663386   2.580809
    15  H    4.567243   5.422397   4.948299   2.456149   2.981209
    16  O    2.454443   2.523981   2.073299   5.219659   4.598029
    17  H    2.585660   2.644373   2.293388   5.708934   4.721582
    18  O    1.432811   2.089603   2.383832   4.294728   2.559641
    19  H    1.963360   2.315151   3.335336   4.570029   2.385578
    20  O    2.447360   2.432043   4.073660   2.518311   2.021525
    21  H    2.514672   2.408612   3.850432   2.844246   2.813962
    22  H    3.492435   3.979030   2.430150   4.068270   4.885916
    23  O    2.941773   2.972015   3.295969   3.605842   4.089763
    24  O    5.110689   5.652503   4.778443   2.954076   5.169447
    25  H    3.999363   4.651878   3.609059   2.225813   4.196666
    26  H    5.751442   6.362869   5.079528   3.683532   5.925764
    27  O    5.274125   5.380900   5.249508   4.436035   5.913531
    28  H    4.278503   4.335802   4.379495   4.027146   5.128791
    29  H    5.164230   5.512521   4.979500   3.568642   5.481618
    30  H    5.665737   5.644819   5.948546   4.701460   6.109517
                   11         12         13         14         15
    11  C    0.000000
    12  H    1.100541   0.000000
    13  H    1.092182   1.775899   0.000000
    14  O    1.422294   2.098129   2.014139   0.000000
    15  H    1.952577   2.323542   2.820365   0.970408   0.000000
    16  O    4.892590   5.432978   4.341954   5.965841   6.609024
    17  H    5.096963   5.713575   4.382110   6.052060   6.794047
    18  O    3.347070   4.289869   2.641839   3.810103   4.636426
    19  H    3.748839   4.784387   3.167495   3.866032   4.665221
    20  O    3.786456   4.586604   4.150585   4.165211   4.286313
    21  H    4.133265   4.805115   4.433157   4.781232   4.925868
    22  H    4.224601   4.286085   4.155583   5.571257   5.914215
    23  O    4.537361   4.942795   4.668964   5.586637   5.817257
    24  O    4.272207   3.990690   4.958222   5.281277   5.057532
    25  H    3.224251   3.079851   3.807859   4.359896   4.314632
    26  H    4.665303   4.176109   5.296775   5.748421   5.537910
    27  O    5.861650   5.888790   6.296030   6.917195   6.851222
    28  H    5.288924   5.472618   5.600812   6.361051   6.420142
    29  H    5.006141   4.878833   5.583887   6.041379   5.881711
    30  H    6.366497   6.470221   6.870649   7.289193   7.149646
                   16         17         18         19         20
    16  O    0.000000
    17  H    0.970852   0.000000
    18  O    3.031747   2.696424   0.000000
    19  H    3.829656   3.451578   0.970306   0.000000
    20  O    4.296500   4.755435   3.644237   3.706484   0.000000
    21  H    3.797664   4.414636   3.898448   4.151887   0.986656
    22  H    2.717380   3.573718   4.459903   5.304630   4.210512
    23  O    2.940274   3.818827   4.314151   4.894437   2.703989
    24  O    5.630325   6.439862   6.207060   6.784506   4.260390
    25  H    4.636156   5.376996   5.025619   5.639211   3.543173
    26  H    6.027332   6.834908   6.756637   7.406539   5.160527
    27  O    5.151715   6.097471   6.619743   7.197860   4.336480
    28  H    4.136589   5.071397   5.640776   6.222048   3.566977
    29  H    5.408655   6.298124   6.406198   6.987626   4.204909
    30  H    5.746632   6.672732   7.062784   7.541093   4.348316
                   21         22         23         24         25
    21  H    0.000000
    22  H    3.522921   0.000000
    23  O    1.785633   2.045453   0.000000
    24  O    3.833914   3.247499   3.329308   0.000000
    25  H    3.175044   2.468714   2.706149   1.216100   0.000000
    26  H    4.712666   3.438360   3.987230   0.970940   1.785478
    27  O    3.502685   3.147472   2.459207   2.427480   2.831948
    28  H    2.655576   2.463009   1.391826   2.703109   2.619902
    29  H    3.572575   3.088927   2.819865   1.114930   1.825112
    30  H    3.559222   4.003531   2.903579   2.955752   3.457413
                   26         27         28         29         30
    26  H    0.000000
    27  O    2.898637   0.000000
    28  H    3.296852   1.081487   0.000000
    29  H    1.686232   1.326799   1.825821   0.000000
    30  H    3.541775   0.970284   1.641304   1.897042   0.000000
 Symmetry turned off by external request.
 Stoichiometry    C6H16O8
 Framework group  C1[X(C6H16O8)]
 Deg. of freedom    84
 Full point group                 C1      NOp   1
 Rotational constants (GHZ):      0.7460474      0.5357689      0.3937644
 Standard basis: 6-31G(d) (6D, 7F)
   242 basis functions,   456 primitive gaussians,   242 cartesian basis functions
    58 alpha electrons       58 beta electrons
       nuclear repulsion energy      1123.1813291201 Hartrees.
 NAtoms=   30 NActive=   30 NUniq=   30 SFac= 1.00D+00 NAtFMM=   60 NAOKFM=F Big=F
 Integral buffers will be    131072 words long.
 Raffenetti 2 integral format.
 Two-electron integral symmetry is turned off.
 One-electron integrals computed using PRISM.
 NBasis=   242 RedAO= T EigKep=  1.13D-03  NBF=   242
 NBsUse=   242 1.00D-06 EigRej= -1.00D+00 NBFU=   242
 Initial guess from the checkpoint file:  "/scratch/10461022.yak.local/Gau-18112.chk"
 B after Tr=    -0.023385    0.037356   -0.013218
         Rot=    1.000000    0.000013    0.000029    0.000045 Ang=   0.01 deg.
 ExpMin= 1.61D-01 ExpMax= 5.48D+03 ExpMxC= 8.25D+02 IAcc=1 IRadAn=         1 AccDes= 0.00D+00
 Harris functional with IExCor=  402 and IRadAn=       1 diagonalized for initial guess.
 HarFok:  IExCor=  402 AccDes= 0.00D+00 IRadAn=         1 IDoV= 1 UseB2=F ITyADJ=14
 ICtDFT=  3500011 ScaDFX=  1.000000  1.000000  1.000000  1.000000
 FoFCou: FMM=F IPFlag=           0 FMFlag=      100000 FMFlg1=           0
         NFxFlg=           0 DoJE=T BraDBF=F KetDBF=T FulRan=T
         wScrn=  0.000000 ICntrl=     500 IOpCl=  0 I1Cent=   200000004 NGrid=           0
         NMat0=    1 NMatS0=      1 NMatT0=    0 NMatD0=    1 NMtDS0=    0 NMtDT0=    0
 Symmetry not used in FoFCou.
 Requested convergence on RMS density matrix=1.00D-08 within 128 cycles.
 Requested convergence on MAX density matrix=1.00D-06.
 Requested convergence on             energy=1.00D-06.
 No special actions if energy rises.
 Integral accuracy reduced to 1.0D-05 until final iterations.
 Initial convergence to 1.0D-05 achieved.  Increase integral accuracy.
 SCF Done:  E(RB3LYP) =  -839.961600697     A.U. after   11 cycles
            NFock= 11  Conv=0.78D-08     -V/T= 2.0085
 DoSCS=F DFT=T ScalE2(SS,OS)=  1.000000  1.000000
 Range of M.O.s used for correlation:     1   242
 NBasis=   242 NAE=    58 NBE=    58 NFC=     0 NFV=     0
 NROrb=    242 NOA=    58 NOB=    58 NVA=   184 NVB=   184
 Symmetrizing basis deriv contribution to polar:
 IMax=3 JMax=2 DiffMx= 0.00D+00
 Calling FoFJK, ICntrl=      2147 FMM=F ISym2X=0 I1Cent= 0 IOpClX= 0 NMat=1 NMatS=1 NMatT=0.
 -------------------------------------------------------------------
 Center     Atomic                   Forces (Hartrees/Bohr)
 Number     Number              X              Y              Z
 -------------------------------------------------------------------
      1        6          -0.000250546   -0.000120212   -0.000007441
      2        6           0.000296151    0.000198887   -0.000233657
      3        8          -0.000395798    0.002830157   -0.000368457
      4        6          -0.001593501   -0.003845474    0.001168559
      5        6           0.000416007    0.000958600    0.000450343
      6        6           0.000012687   -0.000027937   -0.000075065
      7        1          -0.000009264    0.000007791   -0.000008078
      8        1           0.000039169    0.000009016   -0.000028279
      9        1           0.000003713    0.000033440    0.000022509
     10        1          -0.000018193    0.000029106   -0.000045031
     11        6           0.000090215    0.000150514   -0.000070704
     12        1           0.000007409    0.000012433   -0.000005685
     13        1          -0.000007181   -0.000003210    0.000007498
     14        8          -0.000057903   -0.000053856    0.000020969
     15        1           0.000032405    0.000002243   -0.000024907
     16        8           0.000040150    0.000168491   -0.000061188
     17        1           0.000000435    0.000001687   -0.000026092
     18        8           0.000005291    0.000072479    0.000010939
     19        1           0.000012769   -0.000024576    0.000005241
     20        8          -0.000012854    0.000042028   -0.000118907
     21        1           0.000028860   -0.000062948   -0.000009165
     22        1          -0.000057387    0.000040874   -0.000010596
     23        8           0.002803854   -0.000506027   -0.000636765
     24        8          -0.000212001    0.001736379   -0.000555059
     25        1           0.002790298   -0.001573553   -0.000142024
     26        1          -0.000194964   -0.000025893    0.000137734
     27        8          -0.003112933   -0.001551179    0.001131814
     28        1          -0.001221932    0.000127760    0.000091315
     29        1           0.000662608    0.001615403   -0.000638598
     30        1          -0.000097565   -0.000242421    0.000018778
 -------------------------------------------------------------------
 Cartesian Forces:  Max     0.003845474 RMS     0.000877654
 IRC-IRC-IRC-IRC-IRC-IRC-IRC-IRC-IRC-IRC-IRC-IRC-IRC-IRC-IRC-IRC-IRC-IRC
 Pt  1 Step number   1 out of a maximum of  20
 Modified Bulirsch-Stoer Extrapolation Cycles:
    EPS =    0.000010000000000
 Maximum DWI energy   std dev =  0.000002921 at pt     1
 Maximum DWI gradient std dev =  0.133857616 at pt     1
 CORRECTOR INTEGRATION CONVERGENCE:
   Recorrection delta-x convergence threshold:    0.010000
   Delta-x Convergence Met
 Point Number:   1          Path Number:   1
   CHANGE IN THE REACTION COORDINATE =    0.10755
   NET REACTION COORDINATE UP TO THIS POINT =    0.10755
  # OF POINTS ALONG THE PATH =   1
  # OF STEPS =   1

 Calculating another point on the path.
 IRC-IRC-IRC-IRC-IRC-IRC-IRC-IRC-IRC-IRC-IRC-IRC-IRC-IRC-IRC-IRC-IRC-IRC
                          Input orientation:                          
 ---------------------------------------------------------------------
 Center     Atomic      Atomic             Coordinates (Angstroms)
 Number     Number       Type             X           Y           Z
 ---------------------------------------------------------------------
      1          6           0        1.021749    0.226370    1.091090
      2          6           0        0.471706   -1.502647   -0.752907
      3          8           0       -0.535237    0.712853   -0.790924
      4          6           0       -0.919323   -0.883010   -0.636690
      5          6           0        0.517550    1.252781    0.063043
      6          6           0        1.350735   -1.154003    0.458123
      7          1           0        1.165798   -1.901291    1.240506
      8          1           0        0.950449   -1.074253   -1.645661
      9          1           0        0.068316    2.078951    0.629844
     10          1           0        1.943995    0.646322    1.510071
     11          6           0        1.623366    1.808628   -0.847675
     12          1           0        1.161203    2.412042   -1.643537
     13          1           0        2.178275    0.993269   -1.316850
     14          8           0        2.583501    2.552060   -0.107519
     15          1           0        2.141699    3.339678    0.247666
     16          8           0        0.306087   -2.902950   -0.910645
     17          1           0        1.198681   -3.267798   -1.023542
     18          8           0        2.693908   -1.255531   -0.030074
     19          1           0        3.296074   -1.155896    0.724243
     20          8           0        0.116843    0.086486    2.169387
     21          1           0       -0.646036   -0.415972    1.796142
     22          1           0       -1.477776   -0.965322   -1.583153
     23          8           0       -1.588683   -1.118532    0.453074
     24          8           0       -2.637353    1.883666   -0.540249
     25          1           0       -1.528437    1.314883   -0.692275
     26          1           0       -3.000733    2.113070   -1.410605
     27          8           0       -3.809318   -0.060698    0.329758
     28          1           0       -2.914099   -0.633630    0.403704
     29          1           0       -3.262961    1.095308   -0.123543
     30          1           0       -4.131829    0.048970    1.237912
 ---------------------------------------------------------------------
                    Distance matrix (angstroms):
                    1          2          3          4          5
     1  C    0.000000
     2  C    2.586962   0.000000
     3  O    2.490552   2.433890   0.000000
     4  C    2.825546   1.527225   1.648663   0.000000
     5  C    1.537731   2.874066   1.459158   2.667551   0.000000
     6  C    1.553805   1.536502   2.932944   2.534801   2.577381
     7  H    2.137760   2.148110   3.722093   2.984709   3.428529
     8  H    3.030926   1.099876   2.476204   2.133223   2.919272
     9  H    2.133973   3.860384   2.061330   3.369384   1.098013
    10  H    1.096559   3.450619   3.383134   3.891790   2.120478
    11  C    2.573770   3.507113   2.421469   3.708733   1.536620
    12  H    3.503540   4.073502   2.547959   4.024884   2.161155
    13  H    2.779183   3.075712   2.778196   3.684854   2.174731
    14  O    3.047058   4.617017   3.684596   4.934521   2.446501
    15  H    3.414430   5.219016   3.891640   5.289899   2.650865
    16  O    3.783089   1.418859   3.714323   2.378411   4.273509
    17  H    4.088055   1.928081   4.348122   3.212912   4.698961
    18  O    2.499831   2.349837   3.857564   3.682687   3.322172
    19  H    2.686594   3.206129   4.524035   4.438037   3.736188
    20  O    1.414619   3.345306   3.095317   3.144460   2.440798
    21  H    1.921252   2.987952   2.824790   2.492285   2.672508
    22  H    3.849589   2.185979   2.081413   1.102015   3.407531
    23  O    3.005027   2.418085   2.451786   1.300423   3.195539
    24  O    4.335542   4.602019   2.419201   3.258132   3.273437
    25  H    3.296772   3.455824   1.165598   2.281412   2.181840
    26  H    5.098870   5.056067   2.902289   3.729304   3.910250
    27  O    4.899107   4.645271   3.545972   3.156310   4.529697
    28  H    4.086930   3.681930   2.983142   2.263568   3.930752
    29  H    4.537525   4.592734   2.834105   3.109615   3.788387
    30  H    5.158721   5.250086   4.182391   3.834438   4.944311
                    6          7          8          9         10
     6  C    0.000000
     7  H    1.097617   0.000000
     8  H    2.143011   3.010037   0.000000
     9  H    3.482253   4.173692   3.987327   0.000000
    10  H    2.167884   2.677422   3.729095   2.519008   0.000000
    11  C    3.249096   4.281748   3.066040   2.162017   2.648155
    12  H    4.143619   5.188696   3.492660   2.544329   3.698077
    13  H    2.906222   3.992950   2.426997   3.069243   2.857751
    14  O    3.946463   4.864092   4.264139   2.663399   2.580194
    15  H    4.567613   5.422718   4.948388   2.456504   2.981094
    16  O    2.454309   2.523861   2.073544   5.220056   4.597819
    17  H    2.585842   2.644680   2.293533   5.709566   4.721761
    18  O    1.432745   2.089617   2.383827   4.295113   2.559582
    19  H    1.963458   2.315214   3.335426   4.570730   2.386133
    20  O    2.447392   2.431951   4.073917   2.518425   2.021533
    21  H    2.514374   2.407830   3.850728   2.845205   2.813994
    22  H    3.493263   3.979644   2.431470   4.068827   4.886097
    23  O    2.939636   2.969836   3.294517   3.605661   4.088003
    24  O    5.111656   5.653401   4.779491   2.954301   5.169486
    25  H    3.963388   4.619342   3.572364   2.209393   4.165944
    26  H    5.753363   6.364233   5.081941   3.685601   5.927228
    27  O    5.276167   5.382287   5.252138   4.438940   5.915541
    28  H    4.296808   4.353476   4.396450   4.037825   5.144259
    29  H    5.165649   5.518527   4.977616   3.554230   5.475644
    30  H    5.666897   5.645208   5.950309   4.704443   6.111182
                   11         12         13         14         15
    11  C    0.000000
    12  H    1.100500   0.000000
    13  H    1.092181   1.775973   0.000000
    14  O    1.422104   2.098068   2.014080   0.000000
    15  H    1.952576   2.323473   2.820404   0.970406   0.000000
    16  O    4.892664   5.433000   4.341729   5.965631   6.609202
    17  H    5.097195   5.713701   4.382046   6.052072   6.794409
    18  O    3.347178   4.289934   2.641735   3.809978   4.636595
    19  H    3.749304   4.784792   3.167719   3.866332   4.665821
    20  O    3.786561   4.586642   4.150373   4.165063   4.286759
    21  H    4.133860   4.805743   4.433216   4.781531   4.926880
    22  H    4.225259   4.286542   4.156164   5.571664   5.914856
    23  O    4.536240   4.941923   4.667152   5.585215   5.816664
    24  O    4.272455   3.990671   4.958446   5.281223   5.057679
    25  H    3.194025   3.056603   3.772697   4.333657   4.295717
    26  H    4.668176   4.179157   5.299516   5.751036   5.540671
    27  O    5.864707   5.891894   6.298685   6.919960   6.854480
    28  H    5.302750   5.484104   5.615992   6.374446   6.432154
    29  H    4.990931   4.859773   5.571485   6.025239   5.863902
    30  H    6.369328   6.473256   6.872839   7.291865   7.153076
                   16         17         18         19         20
    16  O    0.000000
    17  H    0.970867   0.000000
    18  O    3.031680   2.696647   0.000000
    19  H    3.829501   3.451658   0.970322   0.000000
    20  O    4.296410   4.755669   3.644159   3.706678   0.000000
    21  H    3.797144   4.414353   3.898095   4.151708   0.986793
    22  H    2.718241   3.574630   4.460854   5.305661   4.210780
    23  O    2.938372   3.816954   4.311935   4.892420   2.703076
    24  O    5.631405   6.440986   6.207831   6.785531   4.261171
    25  H    4.604702   5.343021   4.987357   5.602426   3.522076
    26  H    6.028721   6.836566   6.758866   7.409014   5.161653
    27  O    5.153014   6.098931   6.621861   7.200116   4.338276
    28  H    4.152942   5.088303   5.659033   6.240332   3.580896
    29  H    5.416983   6.304993   6.404644   6.986244   4.206938
    30  H    5.746759   6.673040   7.064007   7.542500   4.349744
                   21         22         23         24         25
    21  H    0.000000
    22  H    3.523240   0.000000
    23  O    1.784939   2.044993   0.000000
    24  O    3.835675   3.247922   3.331605   0.000000
    25  H    3.157010   2.448584   2.690160   1.255516   0.000000
    26  H    4.714221   3.438848   3.988789   0.970665   1.822294
    27  O    3.504691   3.148597   2.462811   2.431248   2.852927
    28  H    2.670275   2.473994   1.412195   2.702667   2.630196
    29  H    3.580148   3.092498   2.834922   1.089283   1.838544
    30  H    3.560695   4.003898   2.906308   2.959970   3.479340
                   26         27         28         29         30
    26  H    0.000000
    27  O    2.899645   0.000000
    28  H    3.292959   1.065428   0.000000
    29  H    1.661665   1.356590   1.840902   0.000000
    30  H    3.543237   0.969940   1.626257   1.924400   0.000000
 Symmetry turned off by external request.
 Stoichiometry    C6H16O8
 Framework group  C1[X(C6H16O8)]
 Deg. of freedom    84
 Full point group                 C1      NOp   1
 Rotational constants (GHZ):      0.7457602      0.5356455      0.3936232
 Standard basis: 6-31G(d) (6D, 7F)
   242 basis functions,   456 primitive gaussians,   242 cartesian basis functions
    58 alpha electrons       58 beta electrons
       nuclear repulsion energy      1123.1375327278 Hartrees.
 NAtoms=   30 NActive=   30 NUniq=   30 SFac= 1.00D+00 NAtFMM=   60 NAOKFM=F Big=F
 Integral buffers will be    131072 words long.
 Raffenetti 2 integral format.
 Two-electron integral symmetry is turned off.
 One-electron integrals computed using PRISM.
 NBasis=   242 RedAO= T EigKep=  1.13D-03  NBF=   242
 NBsUse=   242 1.00D-06 EigRej= -1.00D+00 NBFU=   242
 Initial guess from the checkpoint file:  "/scratch/10461022.yak.local/Gau-18112.chk"
 B after Tr=     0.000173    0.000044   -0.000085
         Rot=    1.000000    0.000010    0.000024    0.000037 Ang=   0.01 deg.
 ExpMin= 1.61D-01 ExpMax= 5.48D+03 ExpMxC= 8.25D+02 IAcc=1 IRadAn=         1 AccDes= 0.00D+00
 Harris functional with IExCor=  402 and IRadAn=       1 diagonalized for initial guess.
 HarFok:  IExCor=  402 AccDes= 0.00D+00 IRadAn=         1 IDoV= 1 UseB2=F ITyADJ=14
 ICtDFT=  3500011 ScaDFX=  1.000000  1.000000  1.000000  1.000000
 FoFCou: FMM=F IPFlag=           0 FMFlag=      100000 FMFlg1=           0
         NFxFlg=           0 DoJE=T BraDBF=F KetDBF=T FulRan=T
         wScrn=  0.000000 ICntrl=     500 IOpCl=  0 I1Cent=   200000004 NGrid=           0
         NMat0=    1 NMatS0=      1 NMatT0=    0 NMatD0=    1 NMtDS0=    0 NMtDT0=    0
 Symmetry not used in FoFCou.
 Requested convergence on RMS density matrix=1.00D-08 within 128 cycles.
 Requested convergence on MAX density matrix=1.00D-06.
 Requested convergence on             energy=1.00D-06.
 No special actions if energy rises.
 Integral accuracy reduced to 1.0D-05 until final iterations.
 Initial convergence to 1.0D-05 achieved.  Increase integral accuracy.
 SCF Done:  E(RB3LYP) =  -839.962228995     A.U. after   11 cycles
            NFock= 11  Conv=0.76D-08     -V/T= 2.0085
 DoSCS=F DFT=T ScalE2(SS,OS)=  1.000000  1.000000
 Range of M.O.s used for correlation:     1   242
 NBasis=   242 NAE=    58 NBE=    58 NFC=     0 NFV=     0
 NROrb=    242 NOA=    58 NOB=    58 NVA=   184 NVB=   184
 Symmetrizing basis deriv contribution to polar:
 IMax=3 JMax=2 DiffMx= 0.00D+00
 Calling FoFJK, ICntrl=      2147 FMM=F ISym2X=0 I1Cent= 0 IOpClX= 0 NMat=1 NMatS=1 NMatT=0.
 -------------------------------------------------------------------
 Center     Atomic                   Forces (Hartrees/Bohr)
 Number     Number              X              Y              Z
 -------------------------------------------------------------------
      1        6          -0.000463333   -0.000191330   -0.000031475
      2        6           0.000521060    0.000301742   -0.000410478
      3        8           0.000734554    0.004513132   -0.000883353
      4        6          -0.002914478   -0.007359331    0.001906694
      5        6           0.000864150    0.001875404    0.000901074
      6        6           0.000034689   -0.000030644   -0.000132937
      7        1          -0.000020769    0.000013049   -0.000007826
      8        1           0.000047354    0.000022394   -0.000044493
      9        1          -0.000014352    0.000070085    0.000033314
     10        1          -0.000034534    0.000048540   -0.000075934
     11        6           0.000194468    0.000333218   -0.000128307
     12        1           0.000016943    0.000018152   -0.000007203
     13        1          -0.000008592   -0.000007730    0.000013728
     14        8          -0.000070084   -0.000145056    0.000038238
     15        1           0.000046611    0.000041326   -0.000045992
     16        8           0.000116169    0.000300631   -0.000121337
     17        1          -0.000006728   -0.000005776   -0.000048979
     18        8          -0.000009461    0.000135287    0.000027241
     19        1           0.000013464   -0.000049794    0.000003103
     20        8           0.000003781    0.000088764   -0.000198944
     21        1           0.000051522   -0.000098547    0.000024955
     22        1          -0.000130277    0.000059048    0.000002368
     23        8           0.004825393   -0.001005147   -0.000988531
     24        8          -0.000543754    0.004277854   -0.001263133
     25        1           0.004430257   -0.002387632   -0.000230426
     26        1          -0.000388211    0.000028712    0.000186674
     27        8          -0.005939587   -0.002889896    0.002042104
     28        1          -0.001879075    0.000124253    0.000157684
     29        1           0.000760159    0.002317568   -0.000830753
     30        1          -0.000237339   -0.000398280    0.000112926
 -------------------------------------------------------------------
 Cartesian Forces:  Max     0.007359331 RMS     0.001576107
 IRC-IRC-IRC-IRC-IRC-IRC-IRC-IRC-IRC-IRC-IRC-IRC-IRC-IRC-IRC-IRC-IRC-IRC
 Pt  2 Step number   1 out of a maximum of  20
 Modified Bulirsch-Stoer Extrapolation Cycles:
    EPS =    0.000010000000000
 Maximum DWI energy   std dev =  0.000007392 at pt    37
 Maximum DWI gradient std dev =  0.081797694 at pt    27
 CORRECTOR INTEGRATION CONVERGENCE:
   Recorrection delta-x convergence threshold:    0.010000
   Delta-x Convergence Met
 Point Number:   2          Path Number:   1
   CHANGE IN THE REACTION COORDINATE =    0.10756
   NET REACTION COORDINATE UP TO THIS POINT =    0.21511
  # OF POINTS ALONG THE PATH =   2
  # OF STEPS =   1

 Calculating another point on the path.
 IRC-IRC-IRC-IRC-IRC-IRC-IRC-IRC-IRC-IRC-IRC-IRC-IRC-IRC-IRC-IRC-IRC-IRC
                          Input orientation:                          
 ---------------------------------------------------------------------
 Center     Atomic      Atomic             Coordinates (Angstroms)
 Number     Number       Type             X           Y           Z
 ---------------------------------------------------------------------
      1          6           0        1.021439    0.226270    1.091055
      2          6           0        0.472060   -1.502494   -0.753190
      3          8           0       -0.534532    0.715165   -0.791466
      4          6           0       -0.921317   -0.888355   -0.635524
      5          6           0        0.518228    1.254162    0.063715
      6          6           0        1.350763   -1.154005    0.458029
      7          1           0        1.165628   -1.901183    1.240411
      8          1           0        0.950634   -1.073955   -1.646035
      9          1           0        0.068137    2.079591    0.630124
     10          1           0        1.943717    0.646652    1.509514
     11          6           0        1.623528    1.808898   -0.847748
     12          1           0        1.161332    2.412204   -1.643590
     13          1           0        2.178178    0.993218   -1.316708
     14          8           0        2.583479    2.551988   -0.107493
     15          1           0        2.142115    3.340092    0.247195
     16          8           0        0.306178   -2.902803   -0.910721
     17          1           0        1.198622   -3.267928   -1.023990
     18          8           0        2.693892   -1.255455   -0.030062
     19          1           0        3.296167   -1.156342    0.724253
     20          8           0        0.116860    0.086536    2.169295
     21          1           0       -0.645672   -0.416780    1.796598
     22          1           0       -1.479128   -0.965005   -1.583051
     23          8           0       -1.586284   -1.119145    0.452684
     24          8           0       -2.637707    1.886071   -0.540854
     25          1           0       -1.493875    1.296124   -0.694480
     26          1           0       -3.004256    2.113690   -1.409901
     27          8           0       -3.812498   -0.062327    0.330874
     28          1           0       -2.929904   -0.631541    0.404650
     29          1           0       -3.255771    1.114867   -0.130925
     30          1           0       -4.134220    0.045752    1.239196
 ---------------------------------------------------------------------
                    Distance matrix (angstroms):
                    1          2          3          4          5
     1  C    0.000000
     2  C    2.586828   0.000000
     3  O    2.490772   2.435714   0.000000
     4  C    2.828031   1.527256   1.656864   0.000000
     5  C    1.537924   2.875520   1.459505   2.674248   0.000000
     6  C    1.553813   1.536430   2.934174   2.535504   2.578346
     7  H    2.137558   2.148124   3.723485   2.983336   3.429277
     8  H    3.031049   1.099932   2.477288   2.135365   2.920676
     9  H    2.134488   3.861093   2.060530   3.374845   1.097603
    10  H    1.096552   3.450280   3.382443   3.894336   2.119298
    11  C    2.574137   3.507154   2.420050   3.714357   1.536289
    12  H    3.503736   4.073422   2.545979   4.030796   2.160911
    13  H    2.779132   3.075219   2.777047   3.689336   2.174648
    14  O    3.047204   4.616692   3.682897   4.939471   2.445185
    15  H    3.415246   5.219242   3.890179   5.295618   2.649864
    16  O    3.782830   1.418873   3.716276   2.374970   4.274910
    17  H    4.088304   1.928207   4.350048   3.210517   4.700568
    18  O    2.499903   2.349571   3.858212   3.683896   3.322723
    19  H    2.687108   3.205970   4.524842   4.439368   3.736815
    20  O    1.414351   3.345460   3.096060   3.145668   2.440884
    21  H    1.921084   2.988230   2.826964   2.492705   2.673873
    22  H    3.850041   2.187395   2.083709   1.102197   3.409688
    23  O    3.002978   2.416167   2.453321   1.296009   3.195755
    24  O    4.336751   4.604140   2.420160   3.263800   3.274865
    25  H    3.264893   3.420615   1.125726   2.259036   2.150623
    26  H    5.101309   5.058935   2.904801   3.735046   3.913850
    27  O    4.901847   4.648302   3.550944   3.158350   4.534281
    28  H    4.101232   3.697636   2.997019   2.276474   3.944836
    29  H    4.536228   4.597229   2.828642   3.117241   3.781581
    30  H    5.160945   5.252093   4.186820   3.835345   4.948463
                    6          7          8          9         10
     6  C    0.000000
     7  H    1.097575   0.000000
     8  H    2.143268   3.010332   0.000000
     9  H    3.482943   4.174146   3.988051   0.000000
    10  H    2.167852   2.677555   3.728832   2.518818   0.000000
    11  C    3.249346   4.281913   3.066086   2.162550   2.647644
    12  H    4.143735   5.188718   3.492521   2.544697   3.697482
    13  H    2.906007   3.992702   2.426628   3.069630   2.857028
    14  O    3.946364   4.863937   4.263890   2.663491   2.579595
    15  H    4.568107   5.423188   4.948510   2.457007   2.981180
    16  O    2.454166   2.523741   2.073812   5.220643   4.597576
    17  H    2.586155   2.645107   2.293895   5.710520   4.722049
    18  O    1.432662   2.089655   2.383959   4.295692   2.559506
    19  H    1.963537   2.315255   3.335652   4.571684   2.386743
    20  O    2.447425   2.431824   4.074145   2.518668   2.021497
    21  H    2.514164   2.406990   3.851206   2.846411   2.813937
    22  H    3.494284   3.980340   2.433019   4.069611   4.886438
    23  O    2.937259   2.967341   3.292812   3.605621   4.086054
    24  O    5.113485   5.655224   4.781147   2.954696   5.170069
    25  H    3.927261   4.586887   3.535302   2.192778   4.134785
    26  H    5.756144   6.366419   5.085076   3.688151   5.929386
    27  O    5.278940   5.384272   5.255378   4.442599   5.918265
    28  H    4.312764   4.368509   4.411305   4.048373   5.158167
    29  H    5.168637   5.525024   4.977986   3.543762   5.472197
    30  H    5.668746   5.646144   5.952650   4.708214   6.113549
                   11         12         13         14         15
    11  C    0.000000
    12  H    1.100440   0.000000
    13  H    1.092196   1.776049   0.000000
    14  O    1.421854   2.098009   2.014009   0.000000
    15  H    1.952534   2.323355   2.820444   0.970419   0.000000
    16  O    4.892801   5.433018   4.341451   5.965403   6.609476
    17  H    5.097623   5.713947   4.382075   6.052208   6.794999
    18  O    3.347319   4.289981   2.641581   3.809831   4.636850
    19  H    3.749874   4.785261   3.167969   3.866709   4.666620
    20  O    3.786704   4.586692   4.150099   4.164904   4.287395
[...]
 Alpha  occ. eigenvalues --  -10.23721 -10.23707 -10.23689 -10.23522  -1.07155
 Alpha  occ. eigenvalues --   -1.03662  -1.02988  -1.02522  -1.01962  -1.01104
 Alpha  occ. eigenvalues --   -0.99859  -0.98780  -0.77940  -0.75581  -0.68637
 Alpha  occ. eigenvalues --   -0.65014  -0.62379  -0.57010  -0.55380  -0.54730
 Alpha  occ. eigenvalues --   -0.54572  -0.53200  -0.51634  -0.50137  -0.48994
 Alpha  occ. eigenvalues --   -0.46760  -0.46040  -0.45059  -0.44500  -0.43152
 Alpha  occ. eigenvalues --   -0.41555  -0.41346  -0.39841  -0.38496  -0.37249
 Alpha  occ. eigenvalues --   -0.36289  -0.36100  -0.35104  -0.34575  -0.32445
 Alpha  occ. eigenvalues --   -0.31622  -0.31000  -0.29071  -0.28653  -0.27808
 Alpha  occ. eigenvalues --   -0.26264  -0.25142  -0.24214
 Alpha virt. eigenvalues --    0.03375   0.05306   0.06071   0.06698   0.09165
 Alpha virt. eigenvalues --    0.10169   0.11103   0.11833   0.12358   0.14602
 Alpha virt. eigenvalues --    0.14806   0.16250   0.17142   0.17851   0.20140
 Alpha virt. eigenvalues --    0.20187   0.22180   0.23758   0.24498   0.24873
 Alpha virt. eigenvalues --    0.26752   0.27611   0.28475   0.30944   0.31733
 Alpha virt. eigenvalues --    0.32213   0.33233   0.38114   0.52650   0.53926
 Alpha virt. eigenvalues --    0.54666   0.56275   0.57804   0.59371   0.59599
 Alpha virt. eigenvalues --    0.60467   0.61093   0.63360   0.64250   0.67562
 Alpha virt. eigenvalues --    0.68468   0.69148   0.70223   0.72273   0.74631
 Alpha virt. eigenvalues --    0.76670   0.77278   0.79368   0.79594   0.81361
 Alpha virt. eigenvalues --    0.81968   0.82150   0.83174   0.84210   0.85315
 Alpha virt. eigenvalues --    0.85631   0.87308   0.87781   0.89051   0.89748
 Alpha virt. eigenvalues --    0.90196   0.91087   0.92351   0.94973   0.96288
 Alpha virt. eigenvalues --    0.98138   0.99523   1.00292   1.01220   1.03163
 Alpha virt. eigenvalues --    1.03774   1.04695   1.05506   1.06301   1.08107
 Alpha virt. eigenvalues --    1.08700   1.12007   1.13394   1.15661   1.16887
 Alpha virt. eigenvalues --    1.18154   1.19243   1.22453   1.26799   1.27838
 Alpha virt. eigenvalues --    1.29456   1.31855   1.33546   1.34807   1.39183
 Alpha virt. eigenvalues --    1.41073   1.44911   1.46118   1.48964   1.50830
 Alpha virt. eigenvalues --    1.51820   1.53565   1.56078   1.56649   1.59897
 Alpha virt. eigenvalues --    1.60740   1.64160   1.66018   1.66795   1.68815
 Alpha virt. eigenvalues --    1.70300   1.71285   1.71793   1.73975   1.75388
 Alpha virt. eigenvalues --    1.75809   1.77274   1.78357   1.79351   1.80444
 Alpha virt. eigenvalues --    1.80755   1.83561   1.84277   1.84622   1.85228
 Alpha virt. eigenvalues --    1.87960   1.88734   1.90307   1.92633   1.95186
 Alpha virt. eigenvalues --    1.96752   1.98157   2.00997   2.04749   2.06604
 Alpha virt. eigenvalues --    2.07478   2.09964   2.10145   2.15214   2.16664
 Alpha virt. eigenvalues --    2.19147   2.23687   2.26201   2.28164   2.31170
 Alpha virt. eigenvalues --    2.34364   2.35924   2.36700   2.39424   2.40321
 Alpha virt. eigenvalues --    2.42651   2.44483   2.48631   2.49404   2.52388
 Alpha virt. eigenvalues --    2.53960   2.54852   2.57869   2.59167   2.61145
 Alpha virt. eigenvalues --    2.64979   2.66677   2.68056   2.71203   2.74865
 Alpha virt. eigenvalues --    2.80592   2.81836   2.82782   2.87795   2.90159
 Alpha virt. eigenvalues --    2.93482   2.99075   3.03696   3.07068   3.10128
 Alpha virt. eigenvalues --    3.70162   3.76645   3.81127   3.86724   3.90004
 Alpha virt. eigenvalues --    3.97509   4.05811   4.15764   4.25078   4.37673
 Alpha virt. eigenvalues --    4.54756   4.57874   4.63230   4.87816
          Condensed to atoms (all electrons):
               1          2          3          4          5          6
     1  C    4.977170  -0.026109  -0.030719   0.007535   0.304468   0.255206
     2  C   -0.026109   4.974820  -0.024148   0.298544  -0.018366   0.292066
     3  O   -0.030719  -0.024148   8.609095   0.041287   0.126263  -0.009251
     4  C    0.007535   0.298544   0.041287   4.770869  -0.009301  -0.022779
     5  C    0.304468  -0.018366   0.126263  -0.009301   5.118099  -0.018992
     6  C    0.255206   0.292066  -0.009251  -0.022779  -0.018992   5.091605
     7  H   -0.057095  -0.036734   0.000211  -0.005869   0.006358   0.349769
     8  H   -0.000105   0.341655   0.004794  -0.046391   0.000291  -0.053301
     9  H   -0.040959   0.000127  -0.029668   0.000453   0.359580   0.004868
    10  H    0.363706   0.004202   0.003295  -0.000046  -0.054871  -0.040971
    11  C   -0.035210  -0.000966  -0.036094   0.000774   0.288049  -0.002002
    12  H    0.005074   0.000029   0.006678  -0.000012  -0.048715  -0.000290
    13  H   -0.009646  -0.001989   0.001900   0.000094  -0.036341   0.001415
    14  O   -0.004121   0.000053   0.001601  -0.000009  -0.041085  -0.000225
    15  H   -0.000872   0.000001  -0.000011  -0.000002  -0.002864   0.000018
    16  O    0.003677   0.246794   0.000748  -0.043009  -0.000020  -0.039481
    17  H    0.000365  -0.028205  -0.000074   0.007783  -0.000029  -0.004789
    18  O   -0.033032  -0.040402  -0.000010   0.002481   0.000195   0.186919
    19  H   -0.003409   0.006995   0.000006  -0.000270  -0.000169  -0.023496
    20  O    0.243329   0.001586   0.001517   0.004889  -0.043169  -0.037173
    21  H   -0.039617  -0.003534  -0.000319  -0.006191  -0.000659  -0.000968
    22  H   -0.000350  -0.072329  -0.033986   0.364544   0.003356   0.006654
    23  O    0.004835  -0.051158  -0.051344   0.323185   0.000329  -0.001253
    24  O   -0.000198   0.000063  -0.080450   0.003120   0.001344  -0.000001
    25  H    0.002902   0.002384   0.136715  -0.001160  -0.006382  -0.000287
    26  H    0.000005   0.000006   0.003670   0.000040  -0.000018   0.000000
    27  O   -0.000008  -0.000127  -0.000588   0.006346  -0.000017   0.000006
    28  H   -0.000067   0.001891   0.001437  -0.009410  -0.000046  -0.000099
    29  H    0.000009   0.000057   0.005233   0.000350   0.000010  -0.000002
    30  H   -0.000002   0.000000  -0.000013  -0.000261   0.000004  -0.000000
               7          8          9         10         11         12
     1  C   -0.057095  -0.000105  -0.040959   0.363706  -0.035210   0.005074
     2  C   -0.036734   0.341655   0.000127   0.004202  -0.000966   0.000029
     3  O    0.000211   0.004794  -0.029668   0.003295  -0.036094   0.006678
     4  C   -0.005869  -0.046391   0.000453  -0.000046   0.000774  -0.000012
     5  C    0.006358   0.000291   0.359580  -0.054871   0.288049  -0.048715
     6  C    0.349769  -0.053301   0.004868  -0.040971  -0.002002  -0.000290
     7  H    0.607739   0.007032  -0.000239  -0.001562  -0.000058   0.000009
     8  H    0.007032   0.647821   0.000074  -0.000316  -0.000224   0.000137
     9  H   -0.000239   0.000074   0.597398  -0.001530  -0.048081  -0.005446
    10  H   -0.001562  -0.000316  -0.001530   0.595367  -0.002622   0.000536
    11  C   -0.000058  -0.000224  -0.048081  -0.002622   4.956278   0.347880
    12  H    0.000009   0.000137  -0.005446   0.000536   0.347880   0.637506
    13  H    0.000156   0.004534   0.004773  -0.000163   0.373454  -0.037151
    14  O   -0.000006   0.000009   0.000873   0.015796   0.239870  -0.029772
    15  H   -0.000001   0.000002   0.006203  -0.000143  -0.032539  -0.007131
    16  O    0.001984  -0.038379   0.000003  -0.000056   0.000011  -0.000000
    17  H   -0.000561  -0.004778  -0.000000  -0.000004   0.000002  -0.000000
    18  O   -0.033088  -0.001416  -0.000135   0.000528  -0.001511   0.000145
    19  H   -0.004677  -0.000013   0.000003   0.005720   0.000167  -0.000009
    20  O    0.007610  -0.000073   0.003988  -0.036689   0.003742  -0.000073
    21  H    0.000905   0.000069  -0.000550   0.005828  -0.000056   0.000005
    22  H   -0.000130  -0.000209  -0.000092  -0.000000  -0.000149   0.000002
    23  O    0.002990   0.004037  -0.000298  -0.000002   0.000004   0.000005
    24  O    0.000000  -0.000000   0.003510   0.000002  -0.000129   0.000000
    25  H    0.000013   0.000181  -0.003896  -0.000070  -0.000407   0.001013
    26  H   -0.000000  -0.000000  -0.000162  -0.000000  -0.000002   0.000006
    27  O    0.000001   0.000004   0.000014  -0.000000  -0.000000   0.000000
    28  H   -0.000013  -0.000072  -0.000006   0.000000   0.000002  -0.000000
    29  H   -0.000000  -0.000002  -0.000111  -0.000000   0.000012  -0.000001
    30  H   -0.000000  -0.000000  -0.000003   0.000000   0.000000  -0.000000
              13         14         15         16         17         18
     1  C   -0.009646  -0.004121  -0.000872   0.003677   0.000365  -0.033032
     2  C   -0.001989   0.000053   0.000001   0.246794  -0.028205  -0.040402
     3  O    0.001900   0.001601  -0.000011   0.000748  -0.000074  -0.000010
     4  C    0.000094  -0.000009  -0.000002  -0.043009   0.007783   0.002481
     5  C   -0.036341  -0.041085  -0.002864  -0.000020  -0.000029   0.000195
     6  C    0.001415  -0.000225   0.000018  -0.039481  -0.004789   0.186919
     7  H    0.000156  -0.000006  -0.000001   0.001984  -0.000561  -0.033088
     8  H    0.004534   0.000009   0.000002  -0.038379  -0.004778  -0.001416
     9  H    0.004773   0.000873   0.006203   0.000003  -0.000000  -0.000135
    10  H   -0.000163   0.015796  -0.000143  -0.000056  -0.000004   0.000528
    11  C    0.373454   0.239870  -0.032539   0.000011   0.000002  -0.001511
    12  H   -0.037151  -0.029772  -0.007131  -0.000000  -0.000000   0.000145
    13  H    0.537242  -0.034316   0.006997   0.000004  -0.000005   0.011011
    14  O   -0.034316   8.225876   0.234943   0.000000  -0.000000  -0.000096
    15  H    0.006997   0.234943   0.403016   0.000000   0.000000  -0.000012
    16  O    0.000004   0.000000   0.000000   8.263244   0.236122  -0.000430
    17  H   -0.000005  -0.000000   0.000000   0.236122   0.385008   0.007619
    18  O    0.011011  -0.000096  -0.000012  -0.000430   0.007619   8.309964
    19  H   -0.000407  -0.000017   0.000003  -0.000160  -0.000412   0.232451
    20  O    0.000029  -0.000003  -0.000032  -0.000012  -0.000004   0.001616
    21  H    0.000006  -0.000001   0.000001  -0.000052  -0.000014  -0.000017
    22  H   -0.000013   0.000001  -0.000000   0.003066  -0.000546  -0.000058
    23  O    0.000006   0.000000  -0.000000   0.000810  -0.000064   0.000036
    24  O    0.000001   0.000000  -0.000001   0.000000  -0.000000   0.000000
    25  H   -0.000079   0.000023  -0.000005  -0.000015   0.000001  -0.000002
    26  H    0.000000  -0.000000   0.000000  -0.000000   0.000000  -0.000000
    27  O    0.000000   0.000000  -0.000000   0.000000  -0.000000   0.000000
    28  H    0.000000  -0.000000   0.000000  -0.000043   0.000005   0.000000
    29  H   -0.000000  -0.000000  -0.000000  -0.000000   0.000000  -0.000000
    30  H    0.000000   0.000000   0.000000  -0.000000   0.000000  -0.000000
              19         20         21         22         23         24
     1  C   -0.003409   0.243329  -0.039617  -0.000350   0.004835  -0.000198
     2  C    0.006995   0.001586  -0.003534  -0.072329  -0.051158   0.000063
     3  O    0.000006   0.001517  -0.000319  -0.033986  -0.051344  -0.080450
     4  C   -0.000270   0.004889  -0.006191   0.364544   0.323185   0.003120
     5  C   -0.000169  -0.043169  -0.000659   0.003356   0.000329   0.001344
     6  C   -0.023496  -0.037173  -0.000968   0.006654  -0.001253  -0.000001
     7  H   -0.004677   0.007610   0.000905  -0.000130   0.002990   0.000000
     8  H   -0.000013  -0.000073   0.000069  -0.000209   0.004037  -0.000000
     9  H    0.000003   0.003988  -0.000550  -0.000092  -0.000298   0.003510
    10  H    0.005720  -0.036689   0.005828  -0.000000  -0.000002   0.000002
    11  C    0.000167   0.003742  -0.000056  -0.000149   0.000004  -0.000129
    12  H   -0.000009  -0.000073   0.000005   0.000002   0.000005   0.000000
    13  H   -0.000407   0.000029   0.000006  -0.000013   0.000006   0.000001
    14  O   -0.000017  -0.000003  -0.000001   0.000001   0.000000   0.000000
    15  H    0.000003  -0.000032   0.000001  -0.000000  -0.000000  -0.000001
    16  O   -0.000160  -0.000012  -0.000052   0.003066   0.000810   0.000000
    17  H   -0.000412  -0.000004  -0.000014  -0.000546  -0.000064  -0.000000
    18  O    0.232451   0.001616  -0.000017  -0.000058   0.000036   0.000000
    19  H    0.387050  -0.000011   0.000042   0.000006   0.000005   0.000000
    20  O   -0.000011   8.334010   0.216647  -0.000162  -0.030398   0.000003
    21  H    0.000042   0.216647   0.336421   0.001346   0.067858   0.000006
    22  H    0.000006  -0.000162   0.001346   0.651149  -0.050056   0.000705
    23  O    0.000005  -0.030398   0.067858  -0.050056   8.336148  -0.001603
    24  O    0.000000   0.000003   0.000006   0.000705  -0.001603   8.435787
    25  H   -0.000001  -0.000348   0.000099  -0.000764   0.006373   0.125547
    26  H   -0.000000  -0.000000  -0.000001   0.000154   0.000027   0.238226
    27  O    0.000000  -0.000032   0.000588   0.002406  -0.062492  -0.071123
    28  H   -0.000000   0.000383  -0.000678  -0.005833   0.097189   0.006057
    29  H   -0.000000   0.000026   0.000025  -0.000326   0.002762   0.165782
    30  H   -0.000000   0.000007   0.000015  -0.000073   0.003073   0.002988
              25         26         27         28         29         30
     1  C    0.002902   0.000005  -0.000008  -0.000067   0.000009  -0.000002
     2  C    0.002384   0.000006  -0.000127   0.001891   0.000057   0.000000
     3  O    0.136715   0.003670  -0.000588   0.001437   0.005233  -0.000013
     4  C   -0.001160   0.000040   0.006346  -0.009410   0.000350  -0.000261
     5  C   -0.006382  -0.000018  -0.000017  -0.000046   0.000010   0.000004
     6  C   -0.000287   0.000000   0.000006  -0.000099  -0.000002  -0.000000
     7  H    0.000013  -0.000000   0.000001  -0.000013  -0.000000  -0.000000
     8  H    0.000181  -0.000000   0.000004  -0.000072  -0.000002  -0.000000
     9  H   -0.003896  -0.000162   0.000014  -0.000006  -0.000111  -0.000003
    10  H   -0.000070  -0.000000  -0.000000   0.000000  -0.000000   0.000000
    11  C   -0.000407  -0.000002  -0.000000   0.000002   0.000012   0.000000
    12  H    0.001013   0.000006   0.000000  -0.000000  -0.000001  -0.000000
    13  H   -0.000079   0.000000   0.000000   0.000000  -0.000000   0.000000
    14  O    0.000023  -0.000000   0.000000  -0.000000  -0.000000   0.000000
    15  H   -0.000005   0.000000  -0.000000   0.000000  -0.000000   0.000000
    16  O   -0.000015  -0.000000   0.000000  -0.000043  -0.000000  -0.000000
    17  H    0.000001   0.000000  -0.000000   0.000005   0.000000   0.000000
    18  O   -0.000002  -0.000000   0.000000   0.000000  -0.000000  -0.000000
    19  H   -0.000001  -0.000000   0.000000  -0.000000  -0.000000  -0.000000
    20  O   -0.000348  -0.000000  -0.000032   0.000383   0.000026   0.000007
    21  H    0.000099  -0.000001   0.000588  -0.000678   0.000025   0.000015
    22  H   -0.000764   0.000154   0.002406  -0.005833  -0.000326  -0.000073
    23  O    0.006373   0.000027  -0.062492   0.097189   0.002762   0.003073
    24  O    0.125547   0.238226  -0.071123   0.006057   0.165782   0.002988
    25  H    0.274953  -0.006586   0.002522  -0.000279  -0.007498   0.000028
    26  H   -0.006586   0.364249   0.003047  -0.000230  -0.008849  -0.000106
    27  O    0.002522   0.003047   8.433016   0.169099   0.114276   0.236904
    28  H   -0.000279  -0.000230   0.169099   0.307506  -0.010672  -0.008760
    29  H   -0.007498  -0.008849   0.114276  -0.010672   0.298042  -0.005774
    30  H    0.000028  -0.000106   0.236904  -0.008760  -0.005774   0.371597
 Mulliken charges:
               1
     1  C    0.113234
     2  C    0.132792
     3  O   -0.647773
     4  C    0.312415
     5  C    0.072699
     6  C    0.066835
     7  H    0.155253
     8  H    0.134640
     9  H    0.149311
    10  H    0.144066
    11  C   -0.050197
    12  H    0.129574
    13  H    0.178486
    14  O   -0.609394
    15  H    0.392428
    16  O   -0.634805
    17  H    0.402579
    18  O   -0.642757
    19  H    0.400604
    20  O   -0.671203
    21  H    0.422795
    22  H    0.131689
    23  O   -0.601006
    24  O   -0.829636
    25  H    0.475024
    26  H    0.406523
    27  O   -0.833842
    28  H    0.452639
    29  H    0.446653
    30  H    0.400375
 Sum of Mulliken charges =  -0.00000
 Mulliken charges with hydrogens summed into heavy atoms:
               1
     1  C    0.257300
     2  C    0.267432
     3  O   -0.172749
     4  C    0.444103
     5  C    0.222009
     6  C    0.222088
    11  C    0.257864
    14  O   -0.216965
    16  O   -0.232226
    18  O   -0.242153
    20  O   -0.248408
    23  O   -0.601006
    24  O    0.023540
    27  O    0.019171
 APT charges:
               1
     1  C   -0.368707
     2  C   -0.156258
     3  O   -0.443732
     4  C   -0.292637
     5  C   -0.284834
     6  C   -0.252794
     7  H    0.421205
     8  H    0.333460
     9  H    0.408275
    10  H    0.479196
    11  C   -0.596789
    12  H    0.426422
    13  H    0.329295
    14  O   -0.768773
    15  H    0.686099
    16  O   -0.894653
    17  H    0.766396
    18  O   -0.924959
    19  H    0.772256
    20  O   -0.535020
    21  H    0.395163
    22  H    0.449884
    23  O   -0.445596
    24  O   -1.254885
    25  H    0.524479
    26  H    0.832828
    27  O   -1.011252
    28  H    0.193493
    29  H    0.420837
    30  H    0.791602
 Sum of APT charges =  -0.00000
 APT charges with hydrogens summed into heavy atoms:
               1
     1  C    0.110489
     2  C    0.177202
     3  O    0.080747
     4  C    0.157247
     5  C    0.123441
     6  C    0.168411
    11  C    0.158928
    14  O   -0.082674
    16  O   -0.128257
    18  O   -0.152703
    20  O   -0.139858
    23  O   -0.445596
    24  O   -0.001220
    27  O   -0.026157
 Electronic spatial extent (au):  <R**2>=           3067.9855
 Charge=             -0.0000 electrons
 Dipole moment (field-independent basis, Debye):
    X=             -0.2220    Y=              2.4243    Z=             -1.2342  Tot=              2.7295
 Quadrupole moment (field-independent basis, Debye-Ang):
   XX=            -80.4532   YY=            -80.3637   ZZ=            -82.6794
   XY=            -10.1829   XZ=              2.7789   YZ=             -3.1429
 Traceless Quadrupole moment (field-independent basis, Debye-Ang):
   XX=              0.7122   YY=              0.8018   ZZ=             -1.5140
   XY=            -10.1829   XZ=              2.7789   YZ=             -3.1429
 Octapole moment (field-independent basis, Debye-Ang**2):
  XXX=            -33.4823  YYY=             26.8756  ZZZ=            -15.6118  XYY=             15.1247
  XXY=             -7.7800  XXZ=             28.4737  XZZ=            -19.9507  YZZ=              1.1563
  YYZ=             -0.5284  XYZ=             11.3318
 Hexadecapole moment (field-independent basis, Debye-Ang**3):
 XXXX=          -1783.5361 YYYY=          -1127.7094 ZZZZ=           -513.9994 XXXY=           -157.2335
 XXXZ=            -11.0820 YYYX=            -36.0924 YYYZ=              9.8956 ZZZX=             -6.7331
 ZZZY=            -17.1616 XXYY=           -506.7814 XXZZ=           -283.2232 YYZZ=           -266.8178
 XXYZ=            -32.6337 YYXZ=             27.1594 ZZXY=            -30.0434
 N-N= 1.119430376537D+03 E-N=-4.211762314449D+03  KE= 8.330252043244D+02
  Exact polarizability:   0.000   0.000   0.000   0.000   0.000   0.000
 Approx polarizability: 137.584   3.951 130.059  -4.073  -1.757 129.697

 This type of calculation cannot be archived.


 EVERYTHING'S GOT A MORAL, IF ONLY YOU CAN FIND IT.

                                    -- LEWIS CARROL, ALICE IN WONDERLAND
 Job cpu time:       0 days  1 hours 13 minutes 20.3 seconds.
 File lengths (MBytes):  RWF=    220 Int=      0 D2E=      0 Chk=      9 Scr=      1
 Normal termination of Gaussian 09 at Sat Jan 14 00:59:02 2017.
