 Entering Gaussian System, Link 0=g09
 Initial command:
 /global/software/gaussian/g09.e01/l1.exe "/scratch/10464853.yak.local/Gau-25004.inp" -scrdir="/scratch/10464853.yak.local/"
 Entering Link 1 = /global/software/gaussian/g09.e01/l1.exe PID=     25005.
  
 Copyright (c) 1988,1990,1992,1993,1995,1998,2003,2009,2015,
            Gaussian, Inc.  All Rights Reserved.
  
 This is part of the Gaussian(R) 09 program.  It is based on
 the Gaussian(R) 03 system (copyright 2003, Gaussian, Inc.),
 the Gaussian(R) 98 system (copyright 1998, Gaussian, Inc.),
 the Gaussian(R) 94 system (copyright 1995, Gaussian, Inc.),
 the Gaussian 92(TM) system (copyright 1992, Gaussian, Inc.),
 the Gaussian 90(TM) system (copyright 1990, Gaussian, Inc.),
 the Gaussian 88(TM) system (copyright 1988, Gaussian, Inc.),
 the Gaussian 86(TM) system (copyright 1986, Carnegie Mellon
 University), and the Gaussian 82(TM) system (copyright 1983,
 Carnegie Mellon University). Gaussian is a federally registered
 trademark of Gaussian, Inc.
  
 This software contains proprietary and confidential information,
 including trade secrets, belonging to Gaussian, Inc.
  
 This software is provided under written license and may be
 used, copied, transmitted, or stored only in accord with that
 written license.
  
 The following legend is applicable only to US Government
 contracts under FAR:
  
                    RESTRICTED RIGHTS LEGEND
  
 Use, reproduction and disclosure by the US Government is
 subject to restrictions as set forth in subparagraphs (a)
 and (c) of the Commercial Computer Software - Restricted
 Rights clause in FAR 52.227-19.
  
 Gaussian, Inc.
 340 Quinnipiac St., Bldg. 40, Wallingford CT 06492
  
  
 ---------------------------------------------------------------
 Warning -- This program may not be used in any manner that
 competes with the business of Gaussian, Inc. or will provide
 assistance to any competitor of Gaussian, Inc.  The licensee
 of this program is prohibited from giving any competitor of
 Gaussian, Inc. access to this program.  By using this program,
 the user acknowledges that Gaussian, Inc. is engaged in the
 business of creating and licensing software in the field of
 computational chemistry and represents and warrants to the
 licensee that it is not a competitor of Gaussian, Inc. and that
 it will not use this program in any manner prohibited above.
 ---------------------------------------------------------------
  

 Cite this work as:
 Gaussian 09, Revision E.01,
 M. J. Frisch, G. W. Trucks, H. B. Schlegel, G. E. Scuseria, 
 M. A. Robb, J. R. Cheeseman, G. Scalmani, V. Barone, B. Mennucci, 
 G. A. Petersson, H. Nakatsuji, M. Caricato, X. Li, H. P. Hratchian, 
 A. F. Izmaylov, J. Bloino, G. Zheng, J. L. Sonnenberg, M. Hada, 
 M. Ehara, K. Toyota, R. Fukuda, J. Hasegawa, M. Ishida, T. Nakajima, 
 Y. Honda, O. Kitao, H. Nakai, T. Vreven, J. A. Montgomery, Jr., 
 J. E. Peralta, F. Ogliaro, M. Bearpark, J. J. Heyd, E. Brothers, 
 K. N. Kudin, V. N. Staroverov, T. Keith, R. Kobayashi, J. Normand, 
 K. Raghavachari, A. Rendell, J. C. Burant, S. S. Iyengar, J. Tomasi, 
 M. Cossi, N. Rega, J. M. Millam, M. Klene, J. E. Knox, J. B. Cross, 
 V. Bakken, C. Adamo, J. Jaramillo, R. Gomperts, R. E. Stratmann, 
 O. Yazyev, A. J. Austin, R. Cammi, C. Pomelli, J. W. Ochterski, 
 R. L. Martin, K. Morokuma, V. G. Zakrzewski, G. A. Voth, 
 P. Salvador, J. J. Dannenberg, S. Dapprich, A. D. Daniels, 
 O. Farkas, J. B. Foresman, J. V. Ortiz, J. Cioslowski, 
 and D. J. Fox, Gaussian, Inc., Wallingford CT, 2013.
 
 ******************************************
 Gaussian 09:  ES64L-G09RevE.01 30-Nov-2015
                15-Jan-2017 
 ******************************************
 -------------------------
 # b3lyp/6-31g(d) opt freq
 -------------------------
 1/14=-1,18=20,19=15,26=3,38=1/1,3;
 2/9=110,12=2,17=6,18=5,40=1/2;
 3/5=1,6=6,7=1,11=2,16=1,25=1,30=1,71=1,74=-5/1,2,3;
 4//1;
 5/5=2,38=5/2;
 6/7=2,8=2,9=2,10=2,28=1/1;
 7//1,2,3,16;
 1/14=-1,18=20,19=15,26=3/3(2);
 2/9=110/2;
 99//99;
 2/9=110/2;
 3/5=1,6=6,7=1,11=2,16=1,25=1,30=1,71=1,74=-5/1,2,3;
 4/5=5,16=3,69=1/1;
 5/5=2,38=5/2;
 7//1,2,3,16;
 1/14=-1,18=20,19=15,26=3/3(-5);
 2/9=110/2;
 6/7=2,8=2,9=2,10=2,19=2,28=1/1;
 99/9=1/99;
 -----------------------------------
 glo_2w_alpha_ircf_boat5_B3LYP_631Gd
 -----------------------------------
 Symbolic Z-matrix:
 Charge =  0 Multiplicity = 1
 8                     0.22695  -0.73043  -1.15136 
 6                    -0.7646   -0.12692   1.05354 
 6                    -0.25992   1.78006  -0.60508 
 6                    -1.16761   1.26283   0.54268 
 6                     0.9768    0.94032  -0.99333 
 6                    -0.6365   -1.15414  -0.08277 
 1                    -1.06869   1.97338   1.37338 
 1                    -0.17706  -2.05017   0.36772 
 1                    -1.56923  -0.49691   1.70796 
 1                    -0.90221   1.882    -1.48558 
 6                    -1.9676   -1.57425  -0.72012 
 1                    -1.77512  -2.399    -1.42133 
 1                    -2.38802  -0.73945  -1.27974 
 8                    -2.93887  -1.93589   0.25892 
 1                    -2.70017  -2.80549   0.61491 
 8                     0.28162   3.06098  -0.31884 
 1                     1.14402   2.87722   0.09844 
 8                    -2.5157    1.25104   0.05024 
 1                    -3.07306   0.78965   0.69823 
 8                     0.4404    0.00674   1.8009 
 1                     0.72106  -0.86777   2.11128 
 1                     1.1514    0.93843  -2.08162 
 8                     1.98348   0.98644  -0.24089 
 1                     2.63785  -1.71918  -0.01124 
 8                     2.11441  -2.20365  -0.75723 
 1                     1.87257  -3.08643  -0.44611 
 1                     1.05273  -1.36845  -1.10434 
 8                     3.16374  -0.79668   0.92988 
 1                     4.11172  -0.65331   0.79073 
 1                     2.69804   0.03053   0.58009 
 
 Add virtual bond connecting atoms H27        and O25        Dist= 2.64D+00.
 Add virtual bond connecting atoms O28        and H24        Dist= 2.68D+00.
 Add virtual bond connecting atoms H30        and O23        Dist= 2.74D+00.

 GradGradGradGradGradGradGradGradGradGradGradGradGradGradGradGradGradGrad
 Berny optimization.
 Initialization pass.
                           ----------------------------
                           !    Initial Parameters    !
                           ! (Angstroms and Degrees)  !
 --------------------------                            --------------------------
 ! Name  Definition              Value          Derivative Info.                !
 --------------------------------------------------------------------------------
 ! R1    R(1,6)                  1.4377         estimate D2E/DX2                !
 ! R2    R(1,27)                 1.0446         estimate D2E/DX2                !
 ! R3    R(2,4)                  1.5345         estimate D2E/DX2                !
 ! R4    R(2,6)                  1.5371         estimate D2E/DX2                !
 ! R5    R(2,9)                  1.1012         estimate D2E/DX2                !
 ! R6    R(2,20)                 1.4242         estimate D2E/DX2                !
 ! R7    R(3,4)                  1.552          estimate D2E/DX2                !
 ! R8    R(3,5)                  1.5445         estimate D2E/DX2                !
 ! R9    R(3,10)                 1.0946         estimate D2E/DX2                !
 ! R10   R(3,16)                 1.4198         estimate D2E/DX2                !
 ! R11   R(4,7)                  1.0976         estimate D2E/DX2                !
 ! R12   R(4,18)                 1.4353         estimate D2E/DX2                !
 ! R13   R(5,22)                 1.1022         estimate D2E/DX2                !
 ! R14   R(5,23)                 1.2577         estimate D2E/DX2                !
 ! R15   R(6,8)                  1.1031         estimate D2E/DX2                !
 ! R16   R(6,11)                 1.5344         estimate D2E/DX2                !
 ! R17   R(11,12)                1.0995         estimate D2E/DX2                !
 ! R18   R(11,13)                1.0894         estimate D2E/DX2                !
 ! R19   R(11,14)                1.4257         estimate D2E/DX2                !
 ! R20   R(14,15)                0.9695         estimate D2E/DX2                !
 ! R21   R(16,17)                0.9755         estimate D2E/DX2                !
 ! R22   R(18,19)                0.9713         estimate D2E/DX2                !
 ! R23   R(20,21)                0.9695         estimate D2E/DX2                !
 ! R24   R(23,30)                1.4486         estimate D2E/DX2                !
 ! R25   R(24,25)                1.0321         estimate D2E/DX2                !
 ! R26   R(24,28)                1.4189         estimate D2E/DX2                !
 ! R27   R(25,26)                0.9667         estimate D2E/DX2                !
 ! R28   R(25,27)                1.3947         estimate D2E/DX2                !
 ! R29   R(28,29)                0.9688         estimate D2E/DX2                !
 ! R30   R(28,30)                1.0117         estimate D2E/DX2                !
 ! A1    A(6,1,27)             105.1478         estimate D2E/DX2                !
 ! A2    A(4,2,6)              112.3957         estimate D2E/DX2                !
 ! A3    A(4,2,9)              108.0735         estimate D2E/DX2                !
 ! A4    A(4,2,20)             108.174          estimate D2E/DX2                !
 ! A5    A(6,2,9)              106.0026         estimate D2E/DX2                !
 ! A6    A(6,2,20)             112.341          estimate D2E/DX2                !
 ! A7    A(9,2,20)             109.7493         estimate D2E/DX2                !
 ! A8    A(4,3,5)              118.2303         estimate D2E/DX2                !
 ! A9    A(4,3,10)             106.4231         estimate D2E/DX2                !
 ! A10   A(4,3,16)             112.0017         estimate D2E/DX2                !
 ! A11   A(5,3,10)             108.5582         estimate D2E/DX2                !
 ! A12   A(5,3,16)             103.6378         estimate D2E/DX2                !
 ! A13   A(10,3,16)            107.5743         estimate D2E/DX2                !
 ! A14   A(2,4,3)              113.2296         estimate D2E/DX2                !
 ! A15   A(2,4,7)              108.0992         estimate D2E/DX2                !
 ! A16   A(2,4,18)             110.6994         estimate D2E/DX2                !
 ! A17   A(3,4,7)              106.932          estimate D2E/DX2                !
 ! A18   A(3,4,18)             107.3571         estimate D2E/DX2                !
 ! A19   A(7,4,18)             110.4651         estimate D2E/DX2                !
 ! A20   A(3,5,22)             112.0856         estimate D2E/DX2                !
 ! A21   A(3,5,23)             118.0734         estimate D2E/DX2                !
 ! A22   A(22,5,23)            117.6454         estimate D2E/DX2                !
 ! A23   A(1,6,2)              113.7379         estimate D2E/DX2                !
 ! A24   A(1,6,8)              107.0244         estimate D2E/DX2                !
 ! A25   A(1,6,11)             107.0349         estimate D2E/DX2                !
 ! A26   A(2,6,8)              105.9995         estimate D2E/DX2                !
 ! A27   A(2,6,11)             114.6908         estimate D2E/DX2                !
 ! A28   A(8,6,11)             107.971          estimate D2E/DX2                !
 ! A29   A(6,11,12)            108.5662         estimate D2E/DX2                !
 ! A30   A(6,11,13)            109.776          estimate D2E/DX2                !
 ! A31   A(6,11,14)            112.0359         estimate D2E/DX2                !
 ! A32   A(12,11,13)           108.3456         estimate D2E/DX2                !
 ! A33   A(12,11,14)           111.526          estimate D2E/DX2                !
 ! A34   A(13,11,14)           106.5121         estimate D2E/DX2                !
 ! A35   A(11,14,15)           108.1761         estimate D2E/DX2                !
 ! A36   A(3,16,17)            104.683          estimate D2E/DX2                !
 ! A37   A(4,18,19)            108.2993         estimate D2E/DX2                !
 ! A38   A(2,20,21)            109.1644         estimate D2E/DX2                !
 ! A39   A(5,23,30)            135.2124         estimate D2E/DX2                !
 ! A40   A(24,25,26)           108.8383         estimate D2E/DX2                !
 ! A41   A(24,25,27)           106.5499         estimate D2E/DX2                !
 ! A42   A(26,25,27)           115.8805         estimate D2E/DX2                !
 ! A43   A(24,28,29)           111.3216         estimate D2E/DX2                !
 ! A44   A(24,28,30)            97.5657         estimate D2E/DX2                !
 ! A45   A(29,28,30)           106.2463         estimate D2E/DX2                !
 ! A46   A(23,30,28)           164.2791         estimate D2E/DX2                !
 ! A47   L(25,24,28,2,-1)      169.8704         estimate D2E/DX2                !
 ! A48   L(1,27,25,8,-1)       170.6372         estimate D2E/DX2                !
 ! A49   L(25,24,28,2,-2)      188.8658         estimate D2E/DX2                !
 ! A50   L(1,27,25,8,-2)       187.3527         estimate D2E/DX2                !
 ! D1    D(27,1,6,2)           112.3199         estimate D2E/DX2                !
 ! D2    D(27,1,6,8)            -4.3951         estimate D2E/DX2                !
 ! D3    D(27,1,6,11)         -119.9452         estimate D2E/DX2                !
 ! D4    D(6,1,25,24)          -82.08           estimate D2E/DX2                !
 ! D5    D(6,1,25,26)           35.9055         estimate D2E/DX2                !
 ! D6    D(6,2,4,3)            -52.0081         estimate D2E/DX2                !
 ! D7    D(6,2,4,7)           -170.2834         estimate D2E/DX2                !
 ! D8    D(6,2,4,18)            68.6043         estimate D2E/DX2                !
 ! D9    D(9,2,4,3)           -168.6316         estimate D2E/DX2                !
 ! D10   D(9,2,4,7)             73.0931         estimate D2E/DX2                !
 ! D11   D(9,2,4,18)           -48.0192         estimate D2E/DX2                !
 ! D12   D(20,2,4,3)            72.6023         estimate D2E/DX2                !
 ! D13   D(20,2,4,7)           -45.673          estimate D2E/DX2                !
 ! D14   D(20,2,4,18)         -166.7853         estimate D2E/DX2                !
 ! D15   D(4,2,6,1)             52.9454         estimate D2E/DX2                !
 ! D16   D(4,2,6,8)            170.2565         estimate D2E/DX2                !
 ! D17   D(4,2,6,11)           -70.7249         estimate D2E/DX2                !
 ! D18   D(9,2,6,1)            170.8018         estimate D2E/DX2                !
 ! D19   D(9,2,6,8)            -71.8872         estimate D2E/DX2                !
 ! D20   D(9,2,6,11)            47.1315         estimate D2E/DX2                !
 ! D21   D(20,2,6,1)           -69.3359         estimate D2E/DX2                !
 ! D22   D(20,2,6,8)            47.9752         estimate D2E/DX2                !
 ! D23   D(20,2,6,11)          166.9938         estimate D2E/DX2                !
 ! D24   D(4,2,20,21)         -178.52           estimate D2E/DX2                !
 ! D25   D(6,2,20,21)          -53.877          estimate D2E/DX2                !
 ! D26   D(9,2,20,21)           63.7832         estimate D2E/DX2                !
 ! D27   D(5,3,4,2)             -5.7304         estimate D2E/DX2                !
 ! D28   D(5,3,4,7)            113.2201         estimate D2E/DX2                !
 ! D29   D(5,3,4,18)          -128.2204         estimate D2E/DX2                !
 ! D30   D(10,3,4,2)           116.6032         estimate D2E/DX2                !
 ! D31   D(10,3,4,7)          -124.4463         estimate D2E/DX2                !
 ! D32   D(10,3,4,18)           -5.8868         estimate D2E/DX2                !
 ! D33   D(16,3,4,2)          -126.0994         estimate D2E/DX2                !
 ! D34   D(16,3,4,7)            -7.1488         estimate D2E/DX2                !
 ! D35   D(16,3,4,18)          111.4106         estimate D2E/DX2                !
 ! D36   D(4,3,5,22)           142.1224         estimate D2E/DX2                !
 ! D37   D(4,3,5,23)           -76.256          estimate D2E/DX2                !
 ! D38   D(10,3,5,22)           20.8744         estimate D2E/DX2                !
 ! D39   D(10,3,5,23)          162.496          estimate D2E/DX2                !
 ! D40   D(16,3,5,22)          -93.2802         estimate D2E/DX2                !
 ! D41   D(16,3,5,23)           48.3414         estimate D2E/DX2                !
 ! D42   D(4,3,16,17)           92.7454         estimate D2E/DX2                !
 ! D43   D(5,3,16,17)          -35.7907         estimate D2E/DX2                !
 ! D44   D(10,3,16,17)        -150.6494         estimate D2E/DX2                !
 ! D45   D(2,4,18,19)           46.3915         estimate D2E/DX2                !
 ! D46   D(3,4,18,19)          170.4371         estimate D2E/DX2                !
 ! D47   D(7,4,18,19)          -73.3102         estimate D2E/DX2                !
 ! D48   D(3,5,23,30)          116.4956         estimate D2E/DX2                !
 ! D49   D(22,5,23,30)        -104.0037         estimate D2E/DX2                !
 ! D50   D(1,6,11,12)           60.1335         estimate D2E/DX2                !
 ! D51   D(1,6,11,13)          -58.1349         estimate D2E/DX2                !
 ! D52   D(1,6,11,14)         -176.2577         estimate D2E/DX2                !
 ! D53   D(2,6,11,12)         -172.6911         estimate D2E/DX2                !
 ! D54   D(2,6,11,13)           69.0405         estimate D2E/DX2                !
 ! D55   D(2,6,11,14)          -49.0823         estimate D2E/DX2                !
 ! D56   D(8,6,11,12)          -54.7834         estimate D2E/DX2                !
 ! D57   D(8,6,11,13)         -173.0518         estimate D2E/DX2                !
 ! D58   D(8,6,11,14)           68.8255         estimate D2E/DX2                !
 ! D59   D(6,11,14,15)         -74.3513         estimate D2E/DX2                !
 ! D60   D(12,11,14,15)         47.5796         estimate D2E/DX2                !
 ! D61   D(13,11,14,15)        165.6027         estimate D2E/DX2                !
 ! D62   D(5,23,30,28)          43.7698         estimate D2E/DX2                !
 ! D63   D(26,25,28,29)        108.0655         estimate D2E/DX2                !
 ! D64   D(26,25,28,30)       -143.1504         estimate D2E/DX2                !
 ! D65   D(27,25,28,29)       -128.1687         estimate D2E/DX2                !
 ! D66   D(27,25,28,30)        -19.3846         estimate D2E/DX2                !
 ! D67   D(24,28,30,23)        -17.3021         estimate D2E/DX2                !
 ! D68   D(29,28,30,23)         97.5802         estimate D2E/DX2                !
 --------------------------------------------------------------------------------
 Trust Radius=3.00D-01 FncErr=1.00D-07 GrdErr=1.00D-06
 Number of steps in this run=    158 maximum allowed number of steps=    180.
 GradGradGradGradGradGradGradGradGradGradGradGradGradGradGradGradGradGrad

                          Input orientation:                          
 ---------------------------------------------------------------------
 Center     Atomic      Atomic             Coordinates (Angstroms)
 Number     Number       Type             X           Y           Z
 ---------------------------------------------------------------------
      1          8           0        0.226950   -0.730434   -1.151363
      2          6           0       -0.764602   -0.126919    1.053544
      3          6           0       -0.259917    1.780059   -0.605076
      4          6           0       -1.167613    1.262825    0.542682
      5          6           0        0.976797    0.940320   -0.993334
      6          6           0       -0.636504   -1.154143   -0.082772
      7          1           0       -1.068690    1.973383    1.373383
      8          1           0       -0.177059   -2.050174    0.367721
      9          1           0       -1.569231   -0.496909    1.707964
     10          1           0       -0.902209    1.881998   -1.485581
     11          6           0       -1.967599   -1.574249   -0.720122
     12          1           0       -1.775121   -2.399003   -1.421327
     13          1           0       -2.388019   -0.739451   -1.279743
     14          8           0       -2.938871   -1.935888    0.258918
     15          1           0       -2.700173   -2.805490    0.614905
     16          8           0        0.281618    3.060980   -0.318840
     17          1           0        1.144019    2.877218    0.098442
     18          8           0       -2.515695    1.251042    0.050240
     19          1           0       -3.073060    0.789653    0.698233
     20          8           0        0.440403    0.006741    1.800904
     21          1           0        0.721061   -0.867767    2.111283
     22          1           0        1.151399    0.938431   -2.081618
     23          8           0        1.983482    0.986442   -0.240886
     24          1           0        2.637851   -1.719182   -0.011242
     25          8           0        2.114408   -2.203652   -0.757233
     26          1           0        1.872568   -3.086427   -0.446112
     27          1           0        1.052726   -1.368445   -1.104336
     28          8           0        3.163738   -0.796676    0.929883
     29          1           0        4.111725   -0.653308    0.790725
     30          1           0        2.698035    0.030532    0.580093
 ---------------------------------------------------------------------
                    Distance matrix (angstroms):
                    1          2          3          4          5
     1  O    0.000000
     2  C    2.491791   0.000000
     3  C    2.614965   2.577265   0.000000
     4  C    2.964401   1.534531   1.552028   0.000000
     5  C    1.838114   2.891570   1.544463   2.657414   0.000000
     6  C    1.437696   1.537144   3.004024   2.552451   2.796183
     7  H    3.919649   2.146168   2.146110   1.097608   3.294326
     8  H    2.052451   2.124728   3.952706   3.462336   3.482371
     9  H    3.384753   1.101175   3.499863   2.148451   3.980565
    10  H    2.865572   3.240654   1.094632   2.137210   2.158640
    11  C    2.390405   2.586089   3.765740   3.206812   3.881645
    12  H    2.620170   3.508347   4.519587   4.199450   4.348254
    13  H    2.618134   2.907732   3.366292   2.969804   3.771690
    14  O    3.669392   2.937898   4.661710   3.667375   5.017286
    15  H    3.999201   3.333704   5.335772   4.348005   5.489775
    16  O    3.882126   3.625012   1.419841   2.464924   2.331398
    17  H    3.926599   3.685091   1.915654   2.854340   2.229689
    18  O    3.590571   2.443711   2.407869   1.435257   3.658291
    19  H    4.076976   2.509049   3.254734   1.969471   4.391519
    20  O    3.050388   1.424236   3.069828   2.397204   2.994504
    21  H    3.302706   1.968467   3.918151   3.250695   3.601837
    22  H    2.122520   3.825607   2.209146   3.517101   1.102203
    23  O    2.619549   3.235288   2.407343   3.258798   1.257664
    24  H    2.844282   3.904582   4.581963   4.866287   3.285811
    25  O    2.426563   3.985026   4.640100   4.947515   3.351785
    26  H    2.959078   4.238198   5.315585   5.397815   4.161316
    27  H    1.044593   3.082290   3.447516   3.816563   2.312679
    28  O    3.600097   3.986944   4.551601   4.811660   3.390963
    29  H    4.343861   4.911693   5.194304   5.621788   3.943386
    30  H    3.111795   3.498400   3.635237   4.057484   2.503207
                    6          7          8          9         10
     6  C    0.000000
     7  H    3.476865   0.000000
     8  H    1.103134   4.242095   0.000000
     9  H    2.123363   2.542603   2.479320   0.000000
    10  H    3.355089   2.865265   4.407102   4.037678   0.000000
    11  C    1.534444   4.216218   2.148474   2.686068   3.696840
    12  H    2.153568   5.237099   2.424083   3.667808   4.369562
    13  H    2.161600   4.017359   3.052946   3.107352   3.020264
    14  O    2.455356   4.474596   2.766316   2.458924   4.665568
    15  H    2.733575   5.106335   2.645318   2.793448   5.442174
    16  O    4.320409   2.422771   5.177417   4.493568   2.037825
    17  H    4.410779   2.708962   5.108517   4.619201   2.772479
    18  O    3.055154   2.089571   4.058083   2.588277   2.315208
    19  H    3.213272   2.423746   4.069481   2.221779   3.267240
    20  O    2.460816   2.515515   2.581893   2.073868   4.014994
    21  H    2.595934   3.437999   2.290134   2.354918   4.809745
    22  H    3.401595   4.235204   4.086052   4.880877   2.337281
    23  O    3.386950   3.591054   3.776159   4.315103   3.267797
    24  H    3.323520   5.412085   2.859526   4.706289   5.260627
    25  O    3.020577   5.667386   2.557322   4.749670   5.130595
    26  H    3.187661   6.128886   2.436620   4.815769   5.784905
    27  H    1.985703   4.669830   2.035701   3.942495   3.812151
    28  O    3.949062   5.077732   3.612230   4.805857   5.435226
    29  H    4.853814   5.837439   4.530324   5.756653   6.062085
    30  H    3.600277   4.311867   3.555363   4.445205   4.544963
                   11         12         13         14         15
    11  C    0.000000
    12  H    1.099525   0.000000
    13  H    1.089411   1.774768   0.000000
    14  O    1.425718   2.095713   2.025433   0.000000
    15  H    1.958294   2.273146   2.820576   0.969490   0.000000
    16  O    5.167722   5.937766   4.742739   5.972775   6.646685
    17  H    5.492520   6.218487   5.239750   6.313615   6.880241
    18  O    2.979284   4.004596   2.397336   3.221668   4.099796
    19  H    2.970153   4.042859   2.592263   2.763979   3.615390
    20  O    3.827999   4.591179   4.248195   4.191780   4.379321
    21  H    3.967980   4.588566   4.602380   4.238778   4.206989
    22  H    4.230293   4.487646   3.998221   5.519975   6.010224
    23  O    4.732636   5.194398   4.813310   5.746249   6.086686
    24  H    4.661940   4.682394   5.275257   5.587466   5.483304
    25  O    4.130412   3.950648   4.763271   5.161384   5.042337
    26  H    4.136260   3.837868   4.935163   4.997074   4.702621
    27  H    3.051612   3.026426   3.502160   4.255972   4.370943
    28  O    5.445893   5.699822   5.975594   6.244184   6.206448
    29  H    6.331585   6.526529   6.822091   7.186010   7.145961
    30  H    5.102355   5.469684   5.469900   5.978685   6.097941
                   16         17         18         19         20
    16  O    0.000000
    17  H    0.975514   0.000000
    18  O    3.352172   4.005032   0.000000
    19  H    4.176988   4.743567   0.971303   0.000000
    20  O    3.721143   3.410732   3.653988   3.764739   0.000000
    21  H    4.640438   4.272626   4.383359   4.374826   0.969468
    22  H    2.892943   2.917467   4.253248   5.059225   4.055557
    23  O    2.684423   2.096396   4.516344   5.146774   2.740404
    24  H    5.338202   4.834300   5.948533   6.277907   3.330385
    25  O    5.591749   5.243002   5.833076   6.163447   3.772558
    26  H    6.351215   6.032610   6.190061   6.386921   4.082630
    27  H    4.564145   4.413690   4.574755   4.992870   3.272078
    28  O    4.974679   4.274115   6.101056   6.439546   2.969968
    29  H    5.449476   4.663813   6.935241   7.328835   3.864548
    30  H    3.978790   3.278807   5.380834   5.822006   2.566680
                   21         22         23         24         25
    21  H    0.000000
    22  H    4.585625   0.000000
    23  O    3.250307   2.020634   0.000000
    24  H    2.983974   3.682242   2.793087   0.000000
    25  O    3.457512   3.543172   3.234263   1.032088   0.000000
    26  H    3.576128   4.403913   4.079544   1.626078   0.966734
    27  H    3.271221   2.507288   2.675322   1.957164   1.394711
    28  O    2.714301   4.016123   2.437871   1.418905   2.434550
    29  H    3.645061   4.421257   2.877919   1.987849   2.964627
    30  H    2.657049   3.209528   1.448570   1.847917   2.668453
                   26         27         28         29         30
    26  H    0.000000
    27  H    2.014165   0.000000
    28  O    2.967059   2.986861   0.000000
    29  H    3.530391   3.668808   0.968813   0.000000
    30  H    3.383774   2.738883   1.011684   1.584463   0.000000
 Stoichiometry    C6H16O8
 Framework group  C1[X(C6H16O8)]
 Deg. of freedom    84
 Full point group                 C1      NOp   1
 Largest Abelian subgroup         C1      NOp   1
 Largest concise Abelian subgroup C1      NOp   1
                         Standard orientation:                         
 ---------------------------------------------------------------------
 Center     Atomic      Atomic             Coordinates (Angstroms)
 Number     Number       Type             X           Y           Z
 ---------------------------------------------------------------------
      1          8           0        0.224425   -0.696828   -1.153023
      2          6           0       -0.773189   -0.097274    1.050229
      3          6           0       -0.274937    1.811535   -0.608230
      4          6           0       -1.181912    1.290424    0.538344
      5          6           0        0.966248    0.977448   -0.994400
      6          6           0       -0.638627   -1.124232   -0.085580
      7          1           0       -1.087529    2.001685    1.368971
      8          1           0       -0.175681   -2.017978    0.365868
      9          1           0       -1.577054   -0.470811    1.703572
     10          1           0       -0.916392    1.910216   -1.489715
     11          6           0       -1.966806   -1.550725   -0.724768
     12          1           0       -1.769451   -2.374785   -1.425434
     13          1           0       -2.390280   -0.718063   -1.285267
     14          8           0       -2.937831   -1.916590    0.252946
     15          1           0       -2.695613   -2.784963    0.609553
     16          8           0        0.260203    3.095050   -0.321588
     17          1           0        1.122832    2.915433    0.097026
     18          8           0       -2.529194    1.272214    0.043912
     19          1           0       -3.085363    0.808429    0.691223
     20          8           0        0.430073    0.042222    1.799329
     21          1           0        0.714341   -0.830876    2.110392
     22          1           0        1.142468    0.976045   -2.082424
     23          8           0        1.971593    1.028485   -0.240478
     24          1           0        2.638215   -1.673992   -0.009034
     25          8           0        2.118139   -2.161120   -0.755649
     26          1           0        1.879952   -3.044918   -0.444614
     27          1           0        1.053093   -1.330971   -1.104579
     28          8           0        3.158406   -0.748764    0.932584
     29          1           0        4.105920   -0.601024    0.794783
     30          1           0        2.689374    0.076161    0.581851
 ---------------------------------------------------------------------
 Rotational constants (GHZ):      0.7493879      0.5892098      0.4184341
 Standard basis: 6-31G(d) (6D, 7F)
 There are   242 symmetry adapted cartesian basis functions of A   symmetry.
 There are   242 symmetry adapted basis functions of A   symmetry.
   242 basis functions,   456 primitive gaussians,   242 cartesian basis functions
    58 alpha electrons       58 beta electrons
       nuclear repulsion energy      1136.1474599826 Hartrees.
 NAtoms=   30 NActive=   30 NUniq=   30 SFac= 1.00D+00 NAtFMM=   60 NAOKFM=F Big=F
 Integral buffers will be    131072 words long.
 Raffenetti 2 integral format.
 Two-electron integral symmetry is turned on.
 One-electron integrals computed using PRISM.
 NBasis=   242 RedAO= T EigKep=  1.44D-03  NBF=   242
 NBsUse=   242 1.00D-06 EigRej= -1.00D+00 NBFU=   242
 ExpMin= 1.61D-01 ExpMax= 5.48D+03 ExpMxC= 8.25D+02 IAcc=1 IRadAn=         1 AccDes= 0.00D+00
 Harris functional with IExCor=  402 and IRadAn=       1 diagonalized for initial guess.
 HarFok:  IExCor=  402 AccDes= 0.00D+00 IRadAn=         1 IDoV= 1 UseB2=F ITyADJ=14
 ICtDFT=  3500011 ScaDFX=  1.000000  1.000000  1.000000  1.000000
 FoFCou: FMM=F IPFlag=           0 FMFlag=      100000 FMFlg1=           0
         NFxFlg=           0 DoJE=T BraDBF=F KetDBF=T FulRan=T
         wScrn=  0.000000 ICntrl=     500 IOpCl=  0 I1Cent=   200000004 NGrid=           0
         NMat0=    1 NMatS0=      1 NMatT0=    0 NMatD0=    1 NMtDS0=    0 NMtDT0=    0
 Petite list used in FoFCou.
 Requested convergence on RMS density matrix=1.00D-08 within 128 cycles.
 Requested convergence on MAX density matrix=1.00D-06.
 Requested convergence on             energy=1.00D-06.
 No special actions if energy rises.
 Integral accuracy reduced to 1.0D-05 until final iterations.
 Initial convergence to 1.0D-05 achieved.  Increase integral accuracy.
 SCF Done:  E(RB3LYP) =  -839.943629193     A.U. after   14 cycles
            NFock= 14  Conv=0.69D-08     -V/T= 2.0083

 **********************************************************************

            Population analysis using the SCF density.

 **********************************************************************

 Orbital symmetries:
       Occupied  (A) (A) (A) (A) (A) (A) (A) (A) (A) (A) (A) (A)
                 (A) (A) (A) (A) (A) (A) (A) (A) (A) (A) (A) (A)
                 (A) (A) (A) (A) (A) (A) (A) (A) (A) (A) (A) (A)
                 (A) (A) (A) (A) (A) (A) (A) (A) (A) (A) (A) (A)
                 (A) (A) (A) (A) (A) (A) (A) (A) (A) (A)
       Virtual   (A) (A) (A) (A) (A) (A) (A) (A) (A) (A) (A) (A)
                 (A) (A) (A) (A) (A) (A) (A) (A) (A) (A) (A) (A)
                 (A) (A) (A) (A) (A) (A) (A) (A) (A) (A) (A) (A)
                 (A) (A) (A) (A) (A) (A) (A) (A) (A) (A) (A) (A)
                 (A) (A) (A) (A) (A) (A) (A) (A) (A) (A) (A) (A)
                 (A) (A) (A) (A) (A) (A) (A) (A) (A) (A) (A) (A)
                 (A) (A) (A) (A) (A) (A) (A) (A) (A) (A) (A) (A)
                 (A) (A) (A) (A) (A) (A) (A) (A) (A) (A) (A) (A)
                 (A) (A) (A) (A) (A) (A) (A) (A) (A) (A) (A) (A)
                 (A) (A) (A) (A) (A) (A) (A) (A) (A) (A) (A) (A)
                 (A) (A) (A) (A) (A) (A) (A) (A) (A) (A) (A) (A)
                 (A) (A) (A) (A) (A) (A) (A) (A) (A) (A) (A) (A)
                 (A) (A) (A) (A) (A) (A) (A) (A) (A) (A) (A) (A)
                 (A) (A) (A) (A) (A) (A) (A) (A) (A) (A) (A) (A)
                 (A) (A) (A) (A) (A) (A) (A) (A) (A) (A) (A) (A)
                 (A) (A) (A) (A)
 The electronic state is 1-A.
 Alpha  occ. eigenvalues --  -19.17818 -19.16477 -19.15873 -19.15067 -19.14983
 Alpha  occ. eigenvalues --  -19.14731 -19.12690 -19.10710 -10.27725 -10.25398
 Alpha  occ. eigenvalues --  -10.24381 -10.23935 -10.23322 -10.22500  -1.06329
 Alpha  occ. eigenvalues --   -1.03561  -1.02969  -1.02485  -1.02079  -1.01455
 Alpha  occ. eigenvalues --   -0.99858  -0.98154  -0.77985  -0.74475  -0.68831
 Alpha  occ. eigenvalues --   -0.64174  -0.62080  -0.56732  -0.55888  -0.55251
 Alpha  occ. eigenvalues --   -0.54010  -0.52765  -0.51238  -0.50052  -0.49088
 Alpha  occ. eigenvalues --   -0.46841  -0.45946  -0.45102  -0.44183  -0.43066
 Alpha  occ. eigenvalues --   -0.42217  -0.40322  -0.39840  -0.38479  -0.36535
 Alpha  occ. eigenvalues --   -0.35999  -0.34813  -0.34089  -0.33930  -0.32030
 Alpha  occ. eigenvalues --   -0.31534  -0.31381  -0.29634  -0.29340  -0.27198
 Alpha  occ. eigenvalues --   -0.25781  -0.25178  -0.22740
 Alpha virt. eigenvalues --    0.02578   0.03634   0.04933   0.07352   0.08716
 Alpha virt. eigenvalues --    0.09131   0.11735   0.12695   0.13530   0.14076
 Alpha virt. eigenvalues --    0.15259   0.16847   0.17413   0.17886   0.19992
 Alpha virt. eigenvalues --    0.20591   0.21879   0.23295   0.24317   0.24747
 Alpha virt. eigenvalues --    0.26228   0.27096   0.28302   0.30453   0.32018
 Alpha virt. eigenvalues --    0.32213   0.35687   0.37651   0.52590   0.53727
 Alpha virt. eigenvalues --    0.53892   0.55550   0.57351   0.58310   0.59467
 Alpha virt. eigenvalues --    0.60638   0.62454   0.64030   0.66377   0.66956
 Alpha virt. eigenvalues --    0.67711   0.68712   0.69917   0.71586   0.73631
 Alpha virt. eigenvalues --    0.74628   0.77302   0.78210   0.80267   0.80519
 Alpha virt. eigenvalues --    0.82006   0.82207   0.83902   0.84949   0.85134
 Alpha virt. eigenvalues --    0.85834   0.87291   0.88213   0.89782   0.90568
 Alpha virt. eigenvalues --    0.91211   0.91947   0.92456   0.95258   0.96306
 Alpha virt. eigenvalues --    0.96866   0.97983   0.99943   1.02258   1.02566
 Alpha virt. eigenvalues --    1.03932   1.03984   1.06159   1.08717   1.08976
 Alpha virt. eigenvalues --    1.10052   1.11898   1.13971   1.15475   1.16511
 Alpha virt. eigenvalues --    1.19498   1.20651   1.23863   1.24710   1.28928
 Alpha virt. eigenvalues --    1.29517   1.33389   1.37052   1.37209   1.38397
 Alpha virt. eigenvalues --    1.39677   1.42315   1.43242   1.47073   1.48611
 Alpha virt. eigenvalues --    1.51665   1.52876   1.55275   1.56608   1.58843
 Alpha virt. eigenvalues --    1.61254   1.62691   1.65804   1.68026   1.68649
 Alpha virt. eigenvalues --    1.70675   1.71024   1.71258   1.71930   1.73809
 Alpha virt. eigenvalues --    1.75209   1.77033   1.78321   1.79530   1.80374
 Alpha virt. eigenvalues --    1.82133   1.83423   1.84781   1.86166   1.86546
 Alpha virt. eigenvalues --    1.88083   1.90492   1.92078   1.92926   1.94998
 Alpha virt. eigenvalues --    1.97821   1.99623   2.02891   2.03250   2.05570
 Alpha virt. eigenvalues --    2.06697   2.07677   2.12533   2.13489   2.17080
 Alpha virt. eigenvalues --    2.20693   2.23956   2.24851   2.28603   2.32331
 Alpha virt. eigenvalues --    2.33724   2.35900   2.39150   2.40915   2.41778
 Alpha virt. eigenvalues --    2.43541   2.44882   2.45419   2.48771   2.49391
 Alpha virt. eigenvalues --    2.53496   2.53628   2.55234   2.56921   2.61452
 Alpha virt. eigenvalues --    2.63046   2.66581   2.71847   2.74052   2.75785
 Alpha virt. eigenvalues --    2.78116   2.81823   2.85127   2.86820   2.90970
 Alpha virt. eigenvalues --    2.92470   2.96404   3.00305   3.03425   3.10074
 Alpha virt. eigenvalues --    3.71918   3.76696   3.78889   3.84311   3.89776
 Alpha virt. eigenvalues --    3.95330   4.07885   4.11396   4.25576   4.31169
 Alpha virt. eigenvalues --    4.50838   4.58344   4.71639   4.83049
          Condensed to atoms (all electrons):
               1          2          3          4          5          6
     1  O    8.528173  -0.034514  -0.009380  -0.005427   0.041804   0.154022
     2  C   -0.034514   5.043832  -0.015346   0.286098  -0.001150   0.298630
     3  C   -0.009380  -0.015346   5.012368   0.276288   0.298311  -0.024509
     4  C   -0.005427   0.286098   0.276288   4.993653  -0.025602  -0.021436
     5  C    0.041804  -0.001150   0.298311  -0.025602   4.737210  -0.007864
     6  C    0.154022   0.298630  -0.024509  -0.021436  -0.007864   5.126193
     7  H   -0.000080  -0.051374  -0.049825   0.357674   0.002340   0.006153
     8  H   -0.038577  -0.054263   0.000329   0.005191   0.000645   0.331776
     9  H    0.003315   0.352010   0.005227  -0.044127   0.000327  -0.064087
    10  H    0.001319   0.002974   0.345934  -0.059997  -0.029398   0.001367
    11  C   -0.036154  -0.039251   0.000060  -0.004359   0.000659   0.294845
    12  H    0.005095   0.005514  -0.000033  -0.000303  -0.000061  -0.045749
    13  H    0.003268  -0.008951  -0.000849   0.001134   0.000160  -0.039059
    14  O    0.001549  -0.005843   0.000011  -0.001110  -0.000002  -0.043395
    15  H   -0.000015  -0.001186   0.000003   0.000116  -0.000001  -0.002295
    16  O    0.000509   0.002189   0.266313  -0.047849  -0.025875   0.000091
    17  H    0.000377  -0.000480  -0.043281   0.000245  -0.017092   0.000088
    18  O   -0.000258  -0.030788  -0.035908   0.211155   0.001430  -0.002398
    19  H    0.000038  -0.004577   0.006302  -0.024539  -0.000225  -0.001743
    20  O    0.001261   0.187432   0.001925  -0.042280   0.003578  -0.032230
    21  H   -0.000271  -0.017136  -0.000368   0.005920  -0.000107  -0.005376
    22  H   -0.033328  -0.000085  -0.080741   0.005628   0.359218   0.003361
    23  O   -0.033978   0.004168  -0.058251  -0.002213   0.376762   0.000613
    24  H    0.005345  -0.000071   0.000052  -0.000007   0.000267   0.000261
    25  O   -0.085471  -0.001113  -0.000020   0.000008   0.001358   0.003449
    26  H    0.004085   0.000043  -0.000000  -0.000000   0.000012  -0.000024
    27  H    0.162510   0.005005   0.001605  -0.000107  -0.003167  -0.014545
    28  O   -0.000310  -0.000288  -0.000175   0.000013   0.004543   0.000149
    29  H   -0.000013  -0.000000   0.000011  -0.000000   0.000004  -0.000000
    30  H    0.000469  -0.000634   0.000824  -0.000103  -0.012708   0.000304
               7          8          9         10         11         12
     1  O   -0.000080  -0.038577   0.003315   0.001319  -0.036154   0.005095
     2  C   -0.051374  -0.054263   0.352010   0.002974  -0.039251   0.005514
     3  C   -0.049825   0.000329   0.005227   0.345934   0.000060  -0.000033
     4  C    0.357674   0.005191  -0.044127  -0.059997  -0.004359  -0.000303
     5  C    0.002340   0.000645   0.000327  -0.029398   0.000659  -0.000061
     6  C    0.006153   0.331776  -0.064087   0.001367   0.294845  -0.045749
     7  H    0.606638  -0.000226  -0.006469   0.004665   0.000064   0.000011
     8  H   -0.000226   0.706767  -0.000993   0.000033  -0.047474  -0.008852
     9  H   -0.006469  -0.000993   0.649678  -0.000342  -0.001675   0.000255
    10  H    0.004665   0.000033  -0.000342   0.602666  -0.000119   0.000002
    11  C    0.000064  -0.047474  -0.001675  -0.000119   4.972259   0.347224
    12  H    0.000011  -0.008852   0.000255   0.000002   0.347224   0.636830
    13  H    0.000167   0.005894  -0.000095   0.001363   0.371504  -0.032930
    14  O   -0.000016   0.003172   0.017045   0.000001   0.227409  -0.029524
    15  H   -0.000001   0.004078   0.000460   0.000000  -0.028576  -0.008663
    16  O    0.007229   0.000003  -0.000082  -0.040835   0.000002   0.000000
    17  H    0.000292   0.000002   0.000001   0.007433   0.000001  -0.000000
    18  O   -0.031730  -0.000072  -0.002337   0.004566  -0.002216   0.000517
    19  H   -0.003417  -0.000048   0.009078  -0.000202   0.000056   0.000062
    20  O    0.005511  -0.003017  -0.033480   0.000030   0.003522  -0.000051
    21  H   -0.000305   0.008100  -0.004876   0.000013  -0.000059  -0.000008
    22  H   -0.000196  -0.000139  -0.000001  -0.000185  -0.000104   0.000011
    23  O    0.000035  -0.000280  -0.000049   0.003844  -0.000015   0.000002
    24  H   -0.000000  -0.001205   0.000005  -0.000001   0.000038  -0.000007
    25  O    0.000000   0.015845  -0.000003   0.000001   0.000133   0.000078
    26  H   -0.000000   0.001062  -0.000004  -0.000000  -0.000001   0.000028
    27  H    0.000011  -0.008896  -0.000147  -0.000035  -0.000559   0.000705
    28  O   -0.000000   0.000131  -0.000004   0.000001   0.000001   0.000000
    29  H   -0.000000   0.000003   0.000000  -0.000000   0.000000  -0.000000
    30  H    0.000004  -0.000155   0.000050  -0.000017   0.000006   0.000000
              13         14         15         16         17         18
     1  O    0.003268   0.001549  -0.000015   0.000509   0.000377  -0.000258
     2  C   -0.008951  -0.005843  -0.001186   0.002189  -0.000480  -0.030788
     3  C   -0.000849   0.000011   0.000003   0.266313  -0.043281  -0.035908
     4  C    0.001134  -0.001110   0.000116  -0.047849   0.000245   0.211155
     5  C    0.000160  -0.000002  -0.000001  -0.025875  -0.017092   0.001430
     6  C   -0.039059  -0.043395  -0.002295   0.000091   0.000088  -0.002398
     7  H    0.000167  -0.000016  -0.000001   0.007229   0.000292  -0.031730
     8  H    0.005894   0.003172   0.004078   0.000003   0.000002  -0.000072
     9  H   -0.000095   0.017045   0.000460  -0.000082   0.000001  -0.002337
    10  H    0.001363   0.000001   0.000000  -0.040835   0.007433   0.004566
    11  C    0.371504   0.227409  -0.028576   0.000002   0.000001  -0.002216
    12  H   -0.032930  -0.029524  -0.008663   0.000000  -0.000000   0.000517
    13  H    0.516367  -0.032802   0.006706   0.000005   0.000000   0.017142
    14  O   -0.032802   8.242488   0.233040   0.000000  -0.000000  -0.000996
    15  H    0.006706   0.233040   0.405238  -0.000000   0.000000   0.000011
    16  O    0.000005   0.000000  -0.000000   8.264102   0.228919   0.001285
    17  H    0.000000  -0.000000   0.000000   0.228919   0.376355  -0.000081
    18  O    0.017142  -0.000996   0.000011   0.001285  -0.000081   8.278632
    19  H   -0.002725   0.004948  -0.000128  -0.000147   0.000017   0.230217
    20  O   -0.000013   0.000038  -0.000025  -0.000035   0.000548   0.001364
    21  H    0.000014   0.000029  -0.000010   0.000013  -0.000007  -0.000104
    22  H   -0.000068   0.000001  -0.000000   0.002187   0.002856  -0.000080
    23  O    0.000003   0.000000  -0.000000  -0.018320   0.038962   0.000001
    24  H   -0.000000  -0.000000   0.000000   0.000000  -0.000002  -0.000000
    25  O   -0.000000   0.000000  -0.000002   0.000000   0.000001   0.000000
    26  H   -0.000001  -0.000002  -0.000001   0.000000  -0.000000  -0.000000
    27  H   -0.000078   0.000022   0.000003  -0.000008  -0.000029  -0.000015
    28  O    0.000000  -0.000000  -0.000000  -0.000001   0.000001  -0.000000
    29  H    0.000000   0.000000   0.000000   0.000000  -0.000007  -0.000000
    30  H   -0.000000  -0.000000   0.000000  -0.000014   0.000270   0.000001
              19         20         21         22         23         24
     1  O    0.000038   0.001261  -0.000271  -0.033328  -0.033978   0.005345
     2  C   -0.004577   0.187432  -0.017136  -0.000085   0.004168  -0.000071
     3  C    0.006302   0.001925  -0.000368  -0.080741  -0.058251   0.000052
     4  C   -0.024539  -0.042280   0.005920   0.005628  -0.002213  -0.000007
     5  C   -0.000225   0.003578  -0.000107   0.359218   0.376762   0.000267
     6  C   -0.001743  -0.032230  -0.005376   0.003361   0.000613   0.000261
     7  H   -0.003417   0.005511  -0.000305  -0.000196   0.000035  -0.000000
     8  H   -0.000048  -0.003017   0.008100  -0.000139  -0.000280  -0.001205
     9  H    0.009078  -0.033480  -0.004876  -0.000001  -0.000049   0.000005
    10  H   -0.000202   0.000030   0.000013  -0.000185   0.003844  -0.000001
    11  C    0.000056   0.003522  -0.000059  -0.000104  -0.000015   0.000038
    12  H    0.000062  -0.000051  -0.000008   0.000011   0.000002  -0.000007
    13  H   -0.002725  -0.000013   0.000014  -0.000068   0.000003  -0.000000
    14  O    0.004948   0.000038   0.000029   0.000001   0.000000  -0.000000
    15  H   -0.000128  -0.000025  -0.000010  -0.000000  -0.000000   0.000000
    16  O   -0.000147  -0.000035   0.000013   0.002187  -0.018320   0.000000
    17  H    0.000017   0.000548  -0.000007   0.002856   0.038962  -0.000002
    18  O    0.230217   0.001364  -0.000104  -0.000080   0.000001  -0.000000
    19  H    0.384278   0.000004  -0.000014   0.000011   0.000002  -0.000000
    20  O    0.000004   8.304552   0.223194   0.000032  -0.008685   0.000921
    21  H   -0.000014   0.223194   0.392283   0.000011   0.000996   0.000248
    22  H    0.000011   0.000032   0.000011   0.668422  -0.052988  -0.000051
    23  O    0.000002  -0.008685   0.000996  -0.052988   8.308211   0.003376
    24  H   -0.000000   0.000921   0.000248  -0.000051   0.003376   0.297795
    25  O   -0.000000  -0.000071   0.000471  -0.000004  -0.001422   0.159475
    26  H   -0.000000  -0.000007  -0.000024  -0.000003   0.000072  -0.004436
    27  H   -0.000002  -0.000579  -0.000184  -0.000798   0.005984  -0.006293
    28  O    0.000000  -0.000837   0.005003  -0.000121  -0.063661   0.116089
    29  H   -0.000000   0.000191  -0.000117  -0.000002   0.003184  -0.005865
    30  H    0.000000   0.006267  -0.001493   0.001225   0.078919  -0.012111
              25         26         27         28         29         30
     1  O   -0.085471   0.004085   0.162510  -0.000310  -0.000013   0.000469
     2  C   -0.001113   0.000043   0.005005  -0.000288  -0.000000  -0.000634
     3  C   -0.000020  -0.000000   0.001605  -0.000175   0.000011   0.000824
     4  C    0.000008  -0.000000  -0.000107   0.000013  -0.000000  -0.000103
     5  C    0.001358   0.000012  -0.003167   0.004543   0.000004  -0.012708
     6  C    0.003449  -0.000024  -0.014545   0.000149  -0.000000   0.000304
     7  H    0.000000  -0.000000   0.000011  -0.000000  -0.000000   0.000004
     8  H    0.015845   0.001062  -0.008896   0.000131   0.000003  -0.000155
     9  H   -0.000003  -0.000004  -0.000147  -0.000004   0.000000   0.000050
    10  H    0.000001  -0.000000  -0.000035   0.000001  -0.000000  -0.000017
    11  C    0.000133  -0.000001  -0.000559   0.000001   0.000000   0.000006
    12  H    0.000078   0.000028   0.000705   0.000000  -0.000000   0.000000
    13  H   -0.000000  -0.000001  -0.000078   0.000000   0.000000  -0.000000
    14  O    0.000000  -0.000002   0.000022  -0.000000   0.000000  -0.000000
    15  H   -0.000002  -0.000001   0.000003  -0.000000   0.000000   0.000000
    16  O    0.000000   0.000000  -0.000008  -0.000001   0.000000  -0.000014
    17  H    0.000001  -0.000000  -0.000029   0.000001  -0.000007   0.000270
    18  O    0.000000  -0.000000  -0.000015  -0.000000  -0.000000   0.000001
    19  H   -0.000000  -0.000000  -0.000002   0.000000  -0.000000   0.000000
    20  O   -0.000071  -0.000007  -0.000579  -0.000837   0.000191   0.006267
    21  H    0.000471  -0.000024  -0.000184   0.005003  -0.000117  -0.001493
    22  H   -0.000004  -0.000003  -0.000798  -0.000121  -0.000002   0.001225
    23  O   -0.001422   0.000072   0.005984  -0.063661   0.003184   0.078919
    24  H    0.159475  -0.004436  -0.006293   0.116089  -0.005865  -0.012111
    25  O    8.480287   0.235668   0.106878  -0.087432   0.003639   0.007426
    26  H    0.235668   0.370150  -0.008602   0.003541  -0.000144  -0.000220
    27  H    0.106878  -0.008602   0.271820   0.002375  -0.000041  -0.000611
    28  O   -0.087432   0.003541   0.002375   8.431496   0.237152   0.182525
    29  H    0.003639  -0.000144  -0.000041   0.237152   0.367117  -0.007720
    30  H    0.007426  -0.000220  -0.000611   0.182525  -0.007720   0.280809
 Mulliken charges:
               1
     1  O   -0.635362
     2  C    0.079154
     3  C    0.103127
     4  C    0.136334
     5  C    0.294626
     6  C    0.083410
     7  H    0.152845
     8  H    0.081166
     9  H    0.121320
    10  H    0.154919
    11  C   -0.057220
    12  H    0.129848
    13  H    0.193846
    14  O   -0.616063
    15  H    0.391249
    16  O   -0.639682
    17  H    0.404610
    18  O   -0.639337
    19  H    0.402756
    20  O   -0.619059
    21  H    0.394164
    22  H    0.125929
    23  O   -0.585271
    24  H    0.446178
    25  O   -0.839180
    26  H    0.398810
    27  H    0.487776
    28  O   -0.830190
    29  H    0.402610
    30  H    0.476690
 Sum of Mulliken charges =  -0.00000
 Mulliken charges with hydrogens summed into heavy atoms:
               1
     1  O   -0.147586
     2  C    0.200473
     3  C    0.258046
     4  C    0.289179
     5  C    0.420555
     6  C    0.164577
    11  C    0.266474
    14  O   -0.224814
    16  O   -0.235072
    18  O   -0.236582
    20  O   -0.224895
    23  O   -0.585271
    25  O    0.005808
    28  O    0.049109
 Electronic spatial extent (au):  <R**2>=           2881.3229
 Charge=             -0.0000 electrons
 Dipole moment (field-independent basis, Debye):
    X=              1.0174    Y=             -6.2860    Z=              1.6841  Tot=              6.5868
 Quadrupole moment (field-independent basis, Debye-Ang):
   XX=            -80.4127   YY=            -79.6608   ZZ=            -84.0505
   XY=              1.5245   XZ=             -1.7433   YZ=             -2.3907
 Traceless Quadrupole moment (field-independent basis, Debye-Ang):
   XX=              0.9620   YY=              1.7139   ZZ=             -2.6759
   XY=              1.5245   XZ=             -1.7433   YZ=             -2.3907
 Octapole moment (field-independent basis, Debye-Ang**2):
  XXX=             78.8926  YYY=            -90.7831  ZZZ=              3.2916  XYY=             10.5089
  XXY=             -5.8422  XXZ=             19.9285  XZZ=             -7.2740  YZZ=             -2.0963
  YYZ=             18.2409  XYZ=             -3.5455
 Hexadecapole moment (field-independent basis, Debye-Ang**3):
 XXXX=          -1417.9076 YYYY=          -1202.8092 ZZZZ=           -465.3208 XXXY=            -46.9866
 XXXZ=             15.5158 YYYX=             36.3922 YYYZ=              9.9718 ZZZX=             -4.3747
 ZZZY=            -21.0606 XXYY=           -461.3248 XXZZ=           -350.0062 YYZZ=           -280.2305
 XXYZ=             -3.2126 YYXZ=              0.9579 ZZXY=              6.6625
 N-N= 1.136147459983D+03 E-N=-4.245431317125D+03  KE= 8.330473100930D+02
 Calling FoFJK, ICntrl=      2127 FMM=F ISym2X=0 I1Cent= 0 IOpClX= 0 NMat=1 NMatS=1 NMatT=0.
 ***** Axes restored to original set *****
 -------------------------------------------------------------------
 Center     Atomic                   Forces (Hartrees/Bohr)
 Number     Number              X              Y              Z
 -------------------------------------------------------------------
      1        8          -0.011639625   -0.000454162    0.005622876
      2        6          -0.002813708   -0.003331766   -0.000098660
      3        6           0.001086614    0.002502044   -0.001646364
      4        6           0.003519825   -0.000709050    0.001717499
      5        6           0.005615488    0.015706023   -0.007314686
      6        6          -0.001441826   -0.005984858    0.002212476
      7        1           0.000521426   -0.000165666    0.000215687
      8        1          -0.000104928   -0.000494434    0.000161050
      9        1          -0.000427255   -0.000223922   -0.000201657
     10        1          -0.000175463    0.000216872    0.000082553
     11        6          -0.001036993   -0.001005402    0.000284915
     12        1          -0.000246244    0.000231863   -0.000385803
     13        1           0.000064964    0.000294437    0.000492900
     14        8          -0.001988073   -0.000476897   -0.000774089
     15        1          -0.000158446    0.000072221    0.000220916
     16        8          -0.002156921    0.003381832   -0.000076439
     17        1          -0.001242960    0.000215531    0.001891387
     18        8           0.005597707    0.000108970    0.000179568
     19        1           0.000181398    0.000365754    0.000116388
     20        8          -0.005917689    0.001940444    0.000616984
     21        1           0.000472923    0.000303434   -0.000275883
     22        1          -0.000440877   -0.001858311   -0.000561636
     23        8          -0.005641129    0.009705314   -0.010149570
     24        1           0.000340843   -0.001716427   -0.001319355
     25        8           0.006301357   -0.015567958   -0.009039403
     26        1           0.000982721   -0.000844675    0.000213304
     27        1          -0.001303790    0.001102496   -0.001119760
     28        8           0.011587040   -0.003677865    0.017399330
     29        1           0.000228755    0.000977509   -0.000248110
     30        1           0.000234868   -0.000613349    0.001783583
 -------------------------------------------------------------------
 Cartesian Forces:  Max     0.017399330 RMS     0.004410209

 GradGradGradGradGradGradGradGradGradGradGradGradGradGradGradGradGradGrad
 Berny optimization.
 FormGI is forming the generalized inverse of G from B-inverse, IUseBI=4.
 Internal  Forces:  Max     0.024859972 RMS     0.006215452
 Search for a local minimum.
 Step number   1 out of a maximum of  158
 All quantities printed in internal units (Hartrees-Bohrs-Radians)
 Mixed Optimization -- RFO/linear search
 Second derivative matrix not updated -- first step.
 ITU=  0
     Eigenvalues ---    0.00230   0.00230   0.00230   0.00254   0.00286
     Eigenvalues ---    0.00310   0.00644   0.00876   0.01150   0.01225
     Eigenvalues ---    0.01352   0.01371   0.01429   0.01565   0.02664
     Eigenvalues ---    0.03187   0.03775   0.03793   0.04230   0.04328
     Eigenvalues ---    0.04627   0.04710   0.04864   0.04889   0.05089
     Eigenvalues ---    0.05541   0.05862   0.06437   0.06743   0.07145
     Eigenvalues ---    0.07467   0.08242   0.08866   0.09799   0.10514
     Eigenvalues ---    0.11174   0.11535   0.12952   0.13851   0.13914
     Eigenvalues ---    0.14425   0.14643   0.15243   0.16000   0.16000
     Eigenvalues ---    0.16000   0.16000   0.16022   0.16841   0.16956
     Eigenvalues ---    0.18142   0.18921   0.19277   0.19945   0.21016
     Eigenvalues ---    0.22068   0.22949   0.27116   0.27683   0.28501
     Eigenvalues ---    0.28764   0.29017   0.33338   0.33440   0.33553
     Eigenvalues ---    0.33735   0.33948   0.34283   0.34881   0.39278
     Eigenvalues ---    0.39949   0.40243   0.41611   0.41829   0.41897
     Eigenvalues ---    0.42484   0.45038   0.52266   0.53111   0.53481
     Eigenvalues ---    0.53486   0.53620   0.54050   0.79042
 RFO step:  Lambda=-3.47568766D-02 EMin= 2.30000000D-03
 Linear search not attempted -- first point.
 Maximum step size (   0.300) exceeded in Quadratic search.
    -- Step size scaled by   0.727
 Iteration  1 RMS(Cart)=  0.17754916 RMS(Int)=  0.00630714
 Iteration  2 RMS(Cart)=  0.00978551 RMS(Int)=  0.00178344
 Iteration  3 RMS(Cart)=  0.00012012 RMS(Int)=  0.00178308
 Iteration  4 RMS(Cart)=  0.00000080 RMS(Int)=  0.00178308
 Variable       Old X    -DE/DX   Delta X   Delta X   Delta X     New X
                                 (Linear)    (Quad)   (Total)
    R1        2.71685  -0.00010   0.00000  -0.00433  -0.00489   2.71197
    R2        1.97400   0.01211   0.00000   0.01928   0.02079   1.99478
    R3        2.89984   0.00870   0.00000   0.02180   0.02288   2.92272
    R4        2.90478   0.00498   0.00000   0.00883   0.00752   2.91230
    R5        2.08092   0.00027   0.00000   0.00052   0.00052   2.08144
    R6        2.69142  -0.00421   0.00000  -0.00676  -0.00676   2.68466
    R7        2.93291   0.00889   0.00000   0.02673   0.02728   2.96018
    R8        2.91861   0.00151   0.00000   0.00599   0.00528   2.92390
    R9        2.06856   0.00006   0.00000   0.00011   0.00011   2.06867
   R10        2.68311   0.00231   0.00000   0.00366   0.00366   2.68677
   R11        2.07418   0.00010   0.00000   0.00020   0.00020   2.07438
   R12        2.71224  -0.00554   0.00000  -0.00920  -0.00920   2.70304
   R13        2.08286   0.00049   0.00000   0.00096   0.00096   2.08383
   R14        2.37664   0.00076   0.00000   0.00052  -0.00201   2.37463
   R15        2.08462   0.00039   0.00000   0.00079   0.00075   2.08537
   R16        2.89968   0.00322   0.00000   0.00721   0.00721   2.90689
   R17        2.07780   0.00003   0.00000   0.00006   0.00006   2.07786
   R18        2.05869  -0.00006   0.00000  -0.00010  -0.00010   2.05858
   R19        2.69422   0.00119   0.00000   0.00192   0.00192   2.69613
   R20        1.83207  -0.00002   0.00000  -0.00002  -0.00002   1.83205
   R21        1.84345  -0.00033   0.00000  -0.00043  -0.00043   1.84302
   R22        1.83550  -0.00020   0.00000  -0.00025  -0.00025   1.83524
   R23        1.83203  -0.00023   0.00000  -0.00029  -0.00029   1.83174
   R24        2.73740   0.02123   0.00000   0.09035   0.08844   2.82584
   R25        1.95036   0.01304   0.00000   0.02134   0.02344   1.97380
   R26        2.68134   0.01582   0.00000   0.06837   0.07026   2.75160
   R27        1.82686   0.00059   0.00000   0.00075   0.00075   1.82761
   R28        2.63562   0.01263   0.00000   0.05085   0.05255   2.68817
   R29        1.83079   0.00041   0.00000   0.00052   0.00052   1.83131
   R30        1.91181   0.01974   0.00000   0.02808   0.02664   1.93845
    A1        1.83517   0.02486   0.00000   0.06885   0.06900   1.90418
    A2        1.96167   0.01668   0.00000   0.06666   0.06847   2.03014
    A3        1.88624  -0.00114   0.00000  -0.01452  -0.01531   1.87092
    A4        1.88799  -0.01162   0.00000  -0.02566  -0.02660   1.86139
    A5        1.85010  -0.00819   0.00000  -0.03582  -0.03400   1.81610
    A6        1.96072   0.00172   0.00000   0.01414   0.01127   1.97199
    A7        1.91549   0.00261   0.00000  -0.00670  -0.00684   1.90865
    A8        2.06351   0.00663   0.00000   0.05376   0.05324   2.11675
    A9        1.85743  -0.00028   0.00000  -0.01029  -0.00978   1.84765
   A10        1.95480  -0.00680   0.00000  -0.02783  -0.02898   1.92582
   A11        1.89470  -0.00275   0.00000  -0.01390  -0.01551   1.87919
   A12        1.80882   0.00221   0.00000   0.00271   0.00509   1.81391
   A13        1.87753   0.00064   0.00000  -0.00892  -0.00939   1.86814
   A14        1.97623   0.02420   0.00000   0.11362   0.11488   2.09111
   A15        1.88669  -0.00563   0.00000  -0.02677  -0.02821   1.85848
   A16        1.93207  -0.00747   0.00000  -0.02241  -0.02149   1.91058
   A17        1.86632  -0.00842   0.00000  -0.04059  -0.03896   1.82735
   A18        1.87373  -0.00732   0.00000  -0.02237  -0.02563   1.84811
   A19        1.92798   0.00476   0.00000  -0.00252  -0.00366   1.92432
   A20        1.95626   0.00131   0.00000   0.00699   0.00528   1.96154
   A21        2.06077   0.00528   0.00000   0.02065   0.02470   2.08547
   A22        2.05330  -0.00222   0.00000   0.00321   0.00155   2.05485
   A23        1.98510   0.00434   0.00000   0.00792   0.00356   1.98866
   A24        1.86793   0.00145   0.00000   0.00764   0.00770   1.87563
   A25        1.86811  -0.00468   0.00000  -0.01118  -0.00843   1.85968
   A26        1.85004  -0.00109   0.00000  -0.00164  -0.00141   1.84863
   A27        2.00173  -0.00090   0.00000  -0.00369  -0.00176   1.99997
   A28        1.88445   0.00109   0.00000   0.00198   0.00128   1.88573
   A29        1.89484  -0.00047   0.00000   0.00034   0.00032   1.89515
   A30        1.91595  -0.00132   0.00000  -0.00528  -0.00527   1.91069
   A31        1.95539   0.00366   0.00000   0.01094   0.01093   1.96632
   A32        1.89099   0.00035   0.00000  -0.00080  -0.00081   1.89018
   A33        1.94650  -0.00110   0.00000  -0.00120  -0.00123   1.94527
   A34        1.85899  -0.00124   0.00000  -0.00454  -0.00452   1.85447
   A35        1.88803   0.00048   0.00000   0.00179   0.00179   1.88982
   A36        1.82706   0.00035   0.00000   0.00132   0.00132   1.82838
   A37        1.89018  -0.00030   0.00000  -0.00110  -0.00110   1.88908
   A38        1.90528   0.00070   0.00000   0.00261   0.00261   1.90788
   A39        2.35990   0.00622   0.00000   0.02434   0.01369   2.37359
   A40        1.89959   0.00380   0.00000   0.00318   0.00082   1.90041
   A41        1.85965  -0.00458   0.00000  -0.01558  -0.01013   1.84951
   A42        2.02250  -0.00272   0.00000  -0.01494  -0.01405   2.00845
   A43        1.94293   0.00317   0.00000   0.00768   0.00789   1.95082
   A44        1.70284   0.01371   0.00000   0.05140   0.05114   1.75399
   A45        1.85435  -0.00916   0.00000  -0.03486  -0.03456   1.81978
   A46        2.86721   0.01442   0.00000   0.03643   0.03408   2.90130
   A47        2.96480  -0.00009   0.00000   0.03608   0.03877   3.00357
   A48        2.97818   0.00852   0.00000   0.13726   0.13948   3.11766
   A49        3.29633  -0.00265   0.00000  -0.09084  -0.09514   3.20119
   A50        3.26992   0.00406   0.00000   0.05496   0.05297   3.32289
    D1        1.96035  -0.00116   0.00000  -0.02430  -0.02564   1.93471
    D2       -0.07671  -0.00321   0.00000  -0.03169  -0.03096  -0.10767
    D3       -2.09344  -0.00290   0.00000  -0.03225  -0.03204  -2.12547
    D4       -1.43257  -0.00684   0.00000  -0.06555  -0.06253  -1.49509
    D5        0.62667  -0.00534   0.00000  -0.05924  -0.05666   0.57001
    D6       -0.90771  -0.00476   0.00000  -0.06699  -0.06341  -0.97112
    D7       -2.97201  -0.00512   0.00000  -0.06716  -0.06434  -3.03635
    D8        1.19737  -0.00283   0.00000  -0.03330  -0.03058   1.16679
    D9       -2.94318  -0.00357   0.00000  -0.05221  -0.05066  -2.99383
   D10        1.27572  -0.00393   0.00000  -0.05238  -0.05158   1.22413
   D11       -0.83809  -0.00163   0.00000  -0.01852  -0.01783  -0.85592
   D12        1.26715   0.00039   0.00000  -0.02202  -0.02064   1.24651
   D13       -0.79714   0.00003   0.00000  -0.02219  -0.02156  -0.81871
   D14       -2.91095   0.00232   0.00000   0.01167   0.01219  -2.89876
   D15        0.92407  -0.00567   0.00000  -0.01775  -0.01534   0.90874
   D16        2.97154  -0.00221   0.00000  -0.00510  -0.00484   2.96669
   D17       -1.23438  -0.00212   0.00000  -0.00592  -0.00524  -1.23962
   D18        2.98105  -0.00307   0.00000  -0.02130  -0.01920   2.96185
   D19       -1.25467   0.00039   0.00000  -0.00865  -0.00870  -1.26337
   D20        0.82260   0.00048   0.00000  -0.00947  -0.00910   0.81350
   D21       -1.21014  -0.00414   0.00000  -0.04435  -0.04275  -1.25289
   D22        0.83732  -0.00068   0.00000  -0.03170  -0.03226   0.80507
   D23        2.91459  -0.00060   0.00000  -0.03252  -0.03265   2.88194
   D24       -3.11576  -0.00664   0.00000  -0.03356  -0.03376   3.13367
   D25       -0.94033   0.00743   0.00000   0.04271   0.04257  -0.89776
   D26        1.11323  -0.00001   0.00000   0.00245   0.00278   1.11601
   D27       -0.10001  -0.00032   0.00000  -0.00207   0.00175  -0.09826
   D28        1.97606   0.00134   0.00000   0.00462   0.00671   1.98277
   D29       -2.23787  -0.00128   0.00000  -0.03105  -0.02856  -2.26642
   D30        2.03511   0.00036   0.00000   0.00805   0.01006   2.04517
   D31       -2.17200   0.00202   0.00000   0.01474   0.01502  -2.15698
   D32       -0.10274  -0.00060   0.00000  -0.02093  -0.02024  -0.12299
   D33       -2.20085  -0.00272   0.00000  -0.02399  -0.02168  -2.22253
   D34       -0.12477  -0.00105   0.00000  -0.01730  -0.01673  -0.14150
   D35        1.94448  -0.00367   0.00000  -0.05297  -0.05199   1.89250
   D36        2.48050  -0.00064   0.00000  -0.01434  -0.01513   2.46537
   D37       -1.33092   0.00430   0.00000   0.02824   0.03003  -1.30089
   D38        0.36433  -0.00274   0.00000  -0.02758  -0.02740   0.33692
   D39        2.83609   0.00220   0.00000   0.01500   0.01776   2.85385
   D40       -1.62805  -0.00337   0.00000  -0.01298  -0.01277  -1.64082
   D41        0.84372   0.00157   0.00000   0.02960   0.03239   0.87610
   D42        1.61871   0.00177   0.00000   0.00859   0.00831   1.62702
   D43       -0.62467  -0.00379   0.00000  -0.04295  -0.04325  -0.66792
   D44       -2.62933  -0.00197   0.00000  -0.02484  -0.02426  -2.65359
   D45        0.80969  -0.00954   0.00000  -0.05080  -0.05100   0.75869
   D46        2.97469   0.01091   0.00000   0.06123   0.06088   3.03557
   D47       -1.27950  -0.00078   0.00000  -0.00128  -0.00074  -1.28024
   D48        2.03323  -0.00918   0.00000  -0.04425  -0.04640   1.98683
   D49       -1.81521  -0.00241   0.00000   0.00265   0.00320  -1.81200
   D50        1.04953  -0.00097   0.00000  -0.00250  -0.00145   1.04808
   D51       -1.01465  -0.00037   0.00000   0.00130   0.00235  -1.01230
   D52       -3.07628  -0.00024   0.00000   0.00356   0.00463  -3.07164
   D53       -3.01403   0.00032   0.00000  -0.00378  -0.00481  -3.01884
   D54        1.20498   0.00093   0.00000   0.00002  -0.00101   1.20398
   D55       -0.85665   0.00105   0.00000   0.00229   0.00127  -0.85537
   D56       -0.95615  -0.00085   0.00000  -0.00673  -0.00678  -0.96293
   D57       -3.02032  -0.00024   0.00000  -0.00293  -0.00297  -3.02330
   D58        1.20123  -0.00012   0.00000  -0.00067  -0.00069   1.20054
   D59       -1.29767  -0.00045   0.00000  -0.00257  -0.00258  -1.30025
   D60        0.83042   0.00078   0.00000   0.00484   0.00484   0.83526
   D61        2.89031  -0.00015   0.00000   0.00048   0.00049   2.89080
   D62        0.76393  -0.00981   0.00000  -0.06224  -0.06321   0.70072
   D63        1.88610  -0.00179   0.00000  -0.06427  -0.06470   1.82140
   D64       -2.49845  -0.00440   0.00000  -0.05806  -0.05579  -2.55423
   D65       -2.23697  -0.00588   0.00000  -0.08415  -0.08350  -2.32047
   D66       -0.33832  -0.00849   0.00000  -0.07794  -0.07460  -0.41292
   D67       -0.30198  -0.01004   0.00000  -0.06668  -0.06594  -0.36792
   D68        1.70310  -0.00395   0.00000  -0.04853  -0.04867   1.65443
         Item               Value     Threshold  Converged?
 Maximum Force            0.024860     0.000450     NO 
 RMS     Force            0.006215     0.000300     NO 
 Maximum Displacement     0.653363     0.001800     NO 
 RMS     Displacement     0.178426     0.001200     NO 
 Predicted change in Energy=-1.893071D-02
 GradGradGradGradGradGradGradGradGradGradGradGradGradGradGradGradGradGrad

                          Input orientation:                          
 ---------------------------------------------------------------------
 Center     Atomic      Atomic             Coordinates (Angstroms)
 Number     Number       Type             X           Y           Z
 ---------------------------------------------------------------------
      1          8           0        0.171745   -0.996356   -1.101331
      2          6           0       -0.840233   -0.173734    1.026769
      3          6           0       -0.194427    1.886329   -0.583798
      4          6           0       -1.133144    1.249287    0.496383
      5          6           0        1.100105    1.174495   -1.043677
      6          6           0       -0.738348   -1.289712   -0.031185
      7          1           0       -1.062720    1.923963    1.359418
      8          1           0       -0.350431   -2.175810    0.499975
      9          1           0       -1.698674   -0.472487    1.648879
     10          1           0       -0.819659    2.043131   -1.468586
     11          6           0       -2.075791   -1.674602   -0.686427
     12          1           0       -1.912887   -2.555296   -1.324283
     13          1           0       -2.420777   -0.855332   -1.316091
     14          8           0       -3.109526   -1.906387    0.269207
     15          1           0       -2.944832   -2.762272    0.693733
     16          8           0        0.252237    3.166909   -0.157117
     17          1           0        1.104274    2.997821    0.286303
     18          8           0       -2.451332    1.289654   -0.057472
     19          1           0       -3.048278    0.814996    0.543797
     20          8           0        0.319465   -0.073854    1.841260
     21          1           0        0.534503   -0.947703    2.201426
     22          1           0        1.277756    1.284176   -2.126444
     23          8           0        2.101807    1.161569   -0.285079
     24          1           0        2.766081   -1.715832   -0.107924
     25          8           0        2.219437   -2.330473   -0.751632
     26          1           0        2.107717   -3.197126   -0.337178
     27          1           0        1.010364   -1.632993   -1.025896
     28          8           0        3.355550   -0.724935    0.781365
     29          1           0        4.285445   -0.556962    0.566404
     30          1           0        2.866991    0.121041    0.468535
 ---------------------------------------------------------------------
                    Distance matrix (angstroms):
                    1          2          3          4          5
     1  O    0.000000
     2  C    2.495920   0.000000
     3  C    2.951575   2.693482   0.000000
     4  C    3.049318   1.546639   1.566462   0.000000
     5  C    2.361731   3.141556   1.547259   2.713813   0.000000
     6  C    1.435110   1.541121   3.269322   2.623111   3.236876
     7  H    4.013410   2.135530   2.128718   1.097714   3.318792
     8  H    2.056201   2.127376   4.207122   3.513395   3.963769
     9  H    3.366982   1.101453   3.579332   2.147691   4.218480
    10  H    3.218111   3.337919   1.094691   2.142327   2.149551
    11  C    2.384027   2.591187   4.028684   3.291923   4.281507
    12  H    2.612603   3.514238   4.819694   4.289251   4.802937
    13  H    2.605222   2.907179   3.606881   3.061452   4.073208
    14  O    3.670595   2.953926   4.859023   3.730412   5.379265
    15  H    4.006716   3.352728   5.550342   4.406106   5.905781
    16  O    4.269754   3.708769   1.421778   2.454306   2.339782
    17  H    4.329964   3.793172   1.918103   2.847375   2.256852
    18  O    3.632632   2.431609   2.393044   1.430386   3.687623
    19  H    4.044255   2.467045   3.250183   1.964331   4.456276
    20  O    3.087341   1.420658   3.160271   2.381064   3.238925
    21  H    3.322976   1.966913   4.039870   3.242681   3.918459
    22  H    2.734034   4.068676   2.215777   3.562707   1.102713
    23  O    3.007997   3.487058   2.426356   3.329157   1.256601
    24  H    2.869683   4.083024   4.686857   4.935693   3.464837
    25  O    2.468845   4.144371   4.861720   5.060832   3.690934
    26  H    3.029076   4.437528   5.585893   5.564943   4.541530
    27  H    1.055593   3.125312   3.746011   3.901217   2.808978
    28  O    3.708749   4.238943   4.613535   4.911938   3.467801
    29  H    4.460598   5.160559   5.230860   5.712140   3.966951
    30  H    3.313217   3.760588   3.687266   4.156295   2.553123
                    6          7          8          9         10
     6  C    0.000000
     7  H    3.516632   0.000000
     8  H    1.103531   4.249017   0.000000
     9  H    2.100643   2.496236   2.457449   0.000000
    10  H    3.630506   2.840930   4.679195   4.101169   0.000000
    11  C    1.538258   4.261627   2.153051   2.653480   4.001398
    12  H    2.157162   5.290444   2.431707   3.636437   4.728795
    13  H    2.161074   4.089884   3.054193   3.075558   3.314804
    14  O    2.468402   4.477673   2.781807   2.439276   4.884885
    15  H    2.750002   5.093749   2.666908   2.776388   5.681890
    16  O    4.567121   2.360912   5.416607   4.506981   2.032680
    17  H    4.677499   2.645867   5.378502   4.664351   2.773551
    18  O    3.096471   2.082827   4.090718   2.565788   2.285022
    19  H    3.177448   2.416089   4.028055   2.168006   3.244186
    20  O    2.470492   2.476667   2.581865   2.066108   4.090759
    21  H    2.592619   3.392133   2.277344   2.349090   4.924208
    22  H    3.883257   4.247163   4.639027   5.118405   2.325497
    23  O    3.760282   3.646896   4.215197   4.566617   3.273042
    24  H    3.531074   5.482784   3.208390   4.956441   5.370170
    25  O    3.217253   5.773155   2.862632   4.956427   5.373875
    26  H    3.439759   6.257449   2.790412   5.084948   6.108183
    27  H    2.040903   4.758081   2.115347   3.979960   4.130235
    28  O    4.211794   5.183813   3.989801   5.134344   5.491523
    29  H    5.111999   5.948675   4.910848   6.081824   6.079782
    30  H    3.903641   4.414389   3.953267   4.752977   4.586747
                   11         12         13         14         15
    11  C    0.000000
    12  H    1.099554   0.000000
    13  H    1.089356   1.774231   0.000000
    14  O    1.426733   2.095766   2.022933   0.000000
    15  H    1.960382   2.275992   2.819653   0.969477   0.000000
    16  O    5.398159   6.228456   4.966553   6.100945   6.789726
    17  H    5.735029   6.521837   5.462641   6.465884   7.052654
    18  O    3.053429   4.083916   2.487171   3.279423   4.150416
    19  H    2.942326   4.017176   2.577390   2.735887   3.581903
    20  O    3.832603   4.600175   4.253058   4.193746   4.381785
    21  H    3.960015   4.583089   4.595122   4.234560   4.203757
    22  H    4.698329   5.056205   4.348944   5.930183   6.492872
    23  O    5.065301   5.568914   5.058127   6.072691   6.467084
    24  H    4.876483   4.906829   5.394777   5.890780   5.861076
    25  O    4.345504   4.177868   4.901657   5.442408   5.380075
    26  H    4.465624   4.189461   5.191294   5.408635   5.174952
    27  H    3.105048   3.079785   3.530113   4.327300   4.458247
    28  O    5.705764   5.961577   6.146729   6.592066   6.622177
    29  H    6.579061   6.781399   6.971817   7.522956   7.560193
    30  H    5.384178   5.764045   5.665571   6.314186   6.491648
                   16         17         18         19         20
    16  O    0.000000
    17  H    0.975285   0.000000
    18  O    3.292916   3.959589   0.000000
    19  H    4.112928   4.698374   0.971169   0.000000
    20  O    3.807962   3.531148   3.625142   3.716875   0.000000
    21  H    4.751045   4.422612   4.361605   4.323328   0.969316
    22  H    2.911120   2.964461   4.264595   5.105378   4.301772
    23  O    2.731057   2.166419   4.560623   5.227861   3.037159
    24  H    5.492084   5.013536   6.021369   6.374684   3.532894
    25  O    5.868946   5.541806   5.950064   6.270641   3.927508
    26  H    6.631453   6.306583   6.402683   6.592232   4.206931
    27  H    4.936455   4.814055   4.632822   4.992911   3.335991
    28  O    5.065348   4.378612   6.203393   6.590663   3.281021
    29  H    5.536919   4.778576   7.013086   7.460984   4.193764
    30  H    4.062719   3.378793   5.470548   5.956311   2.900387
                   21         22         23         24         25
    21  H    0.000000
    22  H    4.925867   0.000000
    23  O    3.617759   2.021069   0.000000
    24  H    3.301978   3.910189   2.958391   0.000000
    25  O    3.670369   3.980271   3.525034   1.044492   0.000000
    26  H    3.738906   4.896159   4.359010   1.637141   0.967130
    27  H    3.333418   3.129309   3.090248   1.982946   1.422518
    28  O    3.166150   4.099891   2.503611   1.456085   2.493709
    29  H    4.110419   4.437050   2.906312   2.026368   3.025054
    30  H    3.096066   3.257678   1.495372   1.927846   2.813904
                   26         27         28         29         30
    26  H    0.000000
    27  H    2.031017   0.000000
    28  O    2.986628   3.096878   0.000000
    29  H    3.539693   3.797291   0.969087   0.000000
    30  H    3.497986   2.959227   1.025782   1.575208   0.000000
 Stoichiometry    C6H16O8
 Framework group  C1[X(C6H16O8)]
 Deg. of freedom    84
 Full point group                 C1      NOp   1
 Largest Abelian subgroup         C1      NOp   1
 Largest concise Abelian subgroup C1      NOp   1
                         Standard orientation:                         
 ---------------------------------------------------------------------
 Center     Atomic      Atomic             Coordinates (Angstroms)
 Number     Number       Type             X           Y           Z
 ---------------------------------------------------------------------
      1          8           0        0.091934   -0.981849   -1.091328
      2          6           0       -0.880766   -0.051230    1.010438
      3          6           0       -0.013560    1.926517   -0.599319
      4          6           0       -1.028904    1.388566    0.465334
      5          6           0        1.217683    1.093354   -1.028143
      6          6           0       -0.862616   -1.180375   -0.038255
      7          1           0       -0.912891    2.060698    1.325424
      8          1           0       -0.569769   -2.094460    0.506235
      9          1           0       -1.775524   -0.263573    1.616669
     10          1           0       -0.603748    2.133778   -1.497690
     11          6           0       -2.216911   -1.444146   -0.718364
     12          1           0       -2.124370   -2.341329   -1.347267
     13          1           0       -2.471312   -0.601397   -1.360042
     14          8           0       -3.286516   -1.570766    0.217306
[...]
 0000273,0.00003580,0.00053733,-0.00047036,-0.00012085,-0.00049524,-0.0
 0069148,-0.00002423,-0.00009112,0.00038076,0.00014333,0.00105155,-0.00
 400800,-0.00025477,-0.00268850,0.00686079,0.00239659,0.00152079,0.0003
 7202,0.00073005,-0.00519271,0.00112721,-0.00132620,0.15638046,0.220364
 29,-0.00065979,0.00128513,-0.00116993,0.00080002,-0.00009308,0.0005999
 5,-0.00014209,-0.00033646,-0.00007599,-0.00020743,-0.00030268,0.000154
 17,0.00007206,0.00089079,0.00107702,-0.00007336,0.00018764,0.00017739,
 0.00003968,-0.00001471,-0.00005230,0.00011943,-0.00001137,-0.00002991,
 -0.00022223,0.00004269,-0.00005826,-0.00003509,0.00001825,-0.00001331,
 0.00004858,-0.00006078,-0.00003749,-0.00004213,-0.00002046,-0.00002819
 ,-0.00002825,0.00000479,0.00000471,-0.00001443,-0.00002195,-0.00008119
 ,0.00003413,0.00002036,0.00002650,0.00026521,-0.00009286,-0.00010060,-
 0.00010155,0.00008050,0.00007436,-0.00005329,0.00019610,-0.00011666,0.
 00007130,-0.00002925,0.00000859,-0.00165206,-0.00010870,-0.00097626,0.
 00380739,0.00178103,0.00007846,-0.00070567,0.00031358,-0.00018831,0.00
 020050,-0.00056485,-0.00062599,0.00489946,-0.01268577,0.03182826,-0.00
 789206,0.00534473,-0.00414047,0.00295181,0.00027053,0.00178873,0.00031
 896,-0.00067010,-0.00016147,-0.00074355,-0.00133655,0.00030955,-0.0037
 2158,-0.00236518,-0.00043658,0.00143471,-0.00068833,-0.00251393,0.0000
 9576,0.00011785,-0.00006958,0.00002170,0.00037984,-0.00013693,-0.00057
 168,0.00024970,0.00006011,0.00005045,-0.00008029,0.00007258,0.00085804
 ,0.00017269,0.00018392,-0.00008376,-0.00007153,-0.00007802,-0.00014654
 ,-0.00005341,0.00000355,-0.00124690,0.00003673,0.00016910,0.00034737,0
 .00012500,0.00002068,0.00061029,0.00075332,-0.00005180,-0.00035993,0.0
 0009955,0.00006822,-0.00030809,0.00103466,-0.00019727,0.00036525,-0.00
 036254,-0.00012726,-0.00656676,0.00914266,0.00246992,-0.00135022,-0.00
 416860,0.00110811,-0.00099403,0.00026589,-0.00024018,0.00476182,-0.000
 03319,0.00118131,-0.24030176,-0.13394582,-0.01965907,0.39671616,0.0044
 8283,0.00333922,0.00268789,-0.00256257,-0.00074925,-0.00231227,0.00020
 809,0.00002256,-0.00046967,-0.00032741,-0.00009207,0.00045324,-0.00152
 423,0.00128294,-0.00008702,-0.00006867,-0.00212443,0.00085075,0.000020
 60,0.00026731,-0.00002455,0.00066290,0.00094235,-0.00065124,0.00087881
 ,0.00006541,0.00016492,0.00004435,-0.00012148,0.00005436,0.00017461,0.
 00037573,-0.00051958,0.00012542,0.00009717,0.00016612,-0.00021756,-0.0
 0002367,-0.00013958,0.00023913,0.00025859,0.00029796,-0.00003950,-0.00
 011697,-0.00003752,0.00057263,-0.00047114,0.00000670,-0.00033938,0.000
 41390,0.00006944,0.00093969,-0.00002097,0.00032794,-0.00021148,-0.0002
 8414,-0.00013053,0.00964762,-0.00273340,-0.00345411,-0.00401125,-0.006
 76701,0.00120020,-0.00017409,-0.00100423,0.00004232,0.00182633,-0.0013
 2130,0.00028058,-0.18764362,-0.19980465,0.00244340,0.01482172,0.599625
 02,-0.00787299,0.00257515,0.00165008,-0.00386028,-0.00136880,-0.002492
 61,0.00016628,0.00032898,-0.00011312,0.00070087,0.00064972,-0.00006477
 ,0.00022664,-0.00057075,-0.00155843,0.00271457,0.00058357,-0.00457895,
 -0.00008572,0.00023794,0.00010927,-0.00023319,-0.00053985,0.00062490,0
 .00060683,0.00008124,0.00036712,0.00009159,-0.00014118,0.00011424,0.00
 001307,-0.00005499,0.00058963,0.00022396,0.00009521,0.00012422,0.00019
 128,-0.00009250,0.00006604,-0.00067538,0.00018752,0.00050965,-0.000071
 35,-0.00002431,-0.00012778,-0.00023001,0.00000501,0.00023172,0.0000777
 1,-0.00000249,-0.00008571,0.00063334,-0.00048978,0.00057249,-0.0002579
 4,-0.00018302,-0.00013119,0.00789150,-0.00500826,0.00362707,-0.0041295
 3,0.00341402,-0.00782663,-0.00022517,0.00017825,0.00003618,-0.00016109
 ,0.00046706,0.00072827,-0.00383980,0.01575297,-0.02181491,0.08867458,-
 0.15227938,0.09217039,-0.00222103,-0.00004930,-0.00108127,0.00033233,-
 0.00011896,0.00019265,0.00000050,-0.00002057,-0.00000106,0.00000868,-0
 .00001183,-0.00006675,0.00004386,-0.00018818,-0.00005177,0.00083214,0.
 00084251,-0.00110363,-0.00000153,-0.00003723,0.00000512,-0.00019585,-0
 .00037863,0.00033051,-0.00013508,0.00004111,0.00004451,0.00000704,-0.0
 0000390,0.00000816,-0.00004332,-0.00015132,0.00020267,-0.00001029,-0.0
 0000457,-0.00004709,0.00008300,-0.00002180,0.00005419,-0.00012408,-0.0
 0004100,0.00000068,-0.00002967,0.00003407,-0.00000843,-0.00003483,0.00
 000076,0.00001611,0.00002102,-0.00001035,-0.00000239,-0.00006603,-0.00
 001711,-0.00001635,0.00001318,0.00004075,0.00000955,-0.00094196,0.0003
 7900,0.00139768,0.00045974,0.00105512,-0.00286082,-0.00014914,-0.00000
 294,0.00000036,-0.00002147,0.00010045,0.00004943,0.01762624,-0.0279324
 1,0.01222856,-0.12875575,0.18204366,-0.08174241,0.11464533,-0.00221934
 ,0.00047134,-0.00069789,0.00049778,0.00000169,0.00019494,-0.00008054,-
 0.00009487,0.00002586,0.00006354,-0.00004090,-0.00005153,0.00019759,0.
 00003002,0.00012408,0.00023235,0.00020163,-0.00045568,-0.00000473,-0.0
 0001809,-0.00000387,-0.00002148,-0.00003981,0.00010369,-0.00005385,-0.
 00000298,0.00005198,-0.00000106,0.00000834,0.00000269,0.00011697,0.000
 05819,0.00007765,-0.00003478,-0.00002402,-0.00003578,0.00000256,-0.000
 00417,0.00000688,-0.00016957,-0.00005068,-0.00001936,0.00004230,0.0000
 3992,0.00001482,-0.00002942,0.00008328,-0.00001434,0.00003844,-0.00005
 469,0.00000226,-0.00017459,0.00005244,-0.00004917,0.00005638,0.0000204
 5,0.00001043,-0.00091925,0.00084044,-0.00005564,0.00173117,-0.00191708
 ,-0.00027733,0.00009206,-0.00021611,0.00002902,-0.00024616,0.00015088,
 -0.00009216,0.02123132,-0.02352506,0.01190017,0.13317963,-0.36756805,0
 .13542231,-0.15560113,0.39158563,-0.00139103,0.00003297,-0.00045497,-0
 .00024212,-0.00007647,-0.00024202,0.00002439,0.00002048,0.00001830,0.0
 0003905,0.00001066,0.00001320,-0.00011565,-0.00006672,-0.00008578,-0.0
 0005054,-0.00000323,-0.00034104,0.00000042,0.00000813,-0.00000375,-0.0
 0002627,0.00003069,0.00010488,0.00015183,-0.00000202,0.00003210,-0.000
 00551,-0.00000871,-0.00000199,-0.00001901,0.00005983,0.00019809,-0.000
 00949,-0.00002858,-0.00002097,0.00001240,-0.00000348,0.00000387,-0.000
 08309,-0.00002042,-0.00004744,0.00001482,0.00001401,0.00002900,0.00000
 585,0.00001125,-0.00002263,-0.00000314,-0.00000045,0.00001911,0.000009
 48,-0.00001033,-0.00000193,-0.00000214,-0.00000714,0.00000739,0.001953
 13,-0.00124975,-0.00178331,-0.00224694,-0.00035017,0.00336816,0.000005
 52,-0.00007914,-0.00005100,0.00014298,0.00004969,0.00001562,-0.0018802
 3,-0.00036569,-0.00040040,-0.06869042,0.14866165,-0.06302715,0.0704877
 3,-0.14761540,0.06210176,-0.30900539,0.15926221,-0.08618672,0.00300996
 ,0.00059988,0.00052540,0.00005262,0.00076826,0.00059616,-0.00020412,0.
 00073871,-0.00030196,0.00125081,-0.00076259,0.00016885,-0.03015033,0.0
 1193936,-0.00374820,0.00000388,-0.00042417,-0.00000099,0.00307142,0.00
 058955,-0.00279693,-0.00027444,-0.00061039,-0.00083037,-0.00013435,0.0
 0032976,-0.00024135,-0.00257944,-0.00029005,0.00448258,0.00003393,-0.0
 0015333,-0.00022871,0.00021178,0.00013515,0.00013764,0.00004758,-0.000
 10620,-0.00084481,-0.00038472,-0.00000839,-0.00003654,-0.00060096,-0.0
 0035088,-0.00009894,0.00026030,-0.00016594,-0.00005497,-0.00020406,-0.
 00037501,-0.00029148,-0.00017324,0.00031201,0.00016081,-0.00289822,0.0
 0102093,-0.00027705,0.00456778,-0.00230759,-0.00133171,0.00120924,-0.0
 0075087,0.00006094,-0.00147225,0.00038924,-0.00036957,-0.00321377,-0.0
 0462014,0.00018046,-0.00381357,-0.00139821,0.00070533,0.00166446,0.003
 27688,0.00204020,0.33794412,0.18469493,-0.11454026,0.07088425,0.001824
 19,-0.00071796,-0.00027761,0.00024203,0.00005863,0.00061109,0.00045977
 ,0.00008161,-0.00016681,0.00000245,-0.00329339,-0.00161087,-0.00812813
 ,0.00028874,-0.00016628,-0.00002767,-0.00000131,0.00004402,-0.00175190
 ,0.00105166,0.00048448,-0.00016466,0.00020043,0.00015817,0.00000263,0.
 00009634,-0.00010368,-0.00077366,0.00004406,0.00256099,0.00010727,-0.0
 0008840,-0.00014678,0.00005815,0.00012830,-0.00015983,-0.00263135,0.00
 044331,0.00009461,0.00019515,0.00019393,-0.00005217,-0.00048165,0.0006
 0405,-0.00001007,0.00020137,-0.00029405,-0.00007081,-0.00041171,0.0000
 3179,-0.00004561,0.00005631,-0.00005624,-0.00000066,-0.00013037,-0.000
 83940,0.00122951,-0.00148691,0.00238638,-0.00153518,-0.00195362,-0.002
 29994,-0.00032736,0.00123606,0.00199689,0.00129957,-0.00007624,0.00390
 561,-0.00294913,-0.00309387,-0.00923905,-0.00002219,0.00137866,-0.0002
 5478,0.00116741,-0.16826630,0.12111592,-0.12735445,0.08850459,-0.08759
 234,0.00537027,0.00009935,0.00003073,-0.00011774,-0.00005932,0.0002657
 7,0.00012608,0.00015511,0.00004169,0.00033364,-0.00044641,0.00029004,0
 .03126729,-0.01738286,0.00777609,-0.00000364,-0.00014791,-0.00004040,0
 .00083411,0.00130765,-0.00034683,-0.00037636,-0.00013392,-0.00060355,-
 0.00005538,0.00001987,-0.00005501,0.00063937,0.00068158,-0.00454036,-0
 .00007660,0.00001595,-0.00002718,-0.00017608,-0.00029658,0.00001864,0.
 00228630,-0.00029914,-0.00001078,-0.00010579,-0.00009068,0.00018610,-0
 .00010094,0.00008769,-0.00009410,0.00005996,-0.00009394,0.00001869,-0.
 00049106,-0.00006695,-0.00027246,0.00007783,0.00032753,0.00010964,-0.0
 0290976,0.00143302,0.00032132,0.00108476,-0.00229743,-0.00529351,0.000
 13905,-0.00032598,0.00059542,-0.00040205,0.00021566,-0.00023134,-0.001
 18990,-0.00414066,0.00190451,-0.00082408,0.00095770,-0.00490794,0.0022
 6437,0.00172744,0.00083376,0.08840551,-0.07103019,0.09173555,-0.001296
 24,-0.00032900,-0.00023787,0.00088783,0.00009687,0.00031296,-0.0006989
 1,-0.00013418,0.00084307,0.00093291,0.00043969,-0.00062783,0.00350685,
 0.00189805,0.00072256,0.00055473,0.00020196,-0.00050041,-0.00006761,-0
 .00006123,0.00011609,-0.00002043,-0.00006293,0.00006312,-0.00029570,-0
 .00010600,0.00009258,-0.00008694,0.00009151,-0.00001605,0.00040328,0.0
 0008279,0.00005820,-0.00006563,-0.00008183,-0.00005570,0.00000466,0.00
 002551,0.00005235,-0.00057841,-0.00014662,-0.00002627,0.00020953,0.000
 07037,0.00000872,-0.00109401,0.00101738,-0.00002995,0.00065450,-0.0010
 7302,-0.00021949,-0.00103417,-0.00007105,-0.00003230,0.00017757,0.0001
 1091,0.00005150,-0.00153427,-0.00016062,0.00074519,0.00128449,-0.00008
 640,-0.00099999,0.00070452,0.00099291,0.00051810,-0.00978165,0.0093418
 3,-0.00188158,-0.01032548,0.00737639,-0.00099543,-0.00466708,-0.015191
 53,0.00099510,-0.00334665,-0.00143378,0.00002399,0.00117224,0.00013792
 ,0.00091513,0.27331233,-0.00136851,0.00167006,0.00005254,0.00060156,-0
 .00040276,0.00026174,0.00230319,0.00066614,0.00001111,-0.00128634,-0.0
 0144494,0.00087892,-0.00855206,-0.00895921,-0.00426477,0.00051503,-0.0
 0054812,-0.00072650,0.00012102,0.00021022,-0.00014557,0.00008494,0.000
 31320,-0.00003080,-0.00001213,0.00029156,0.00001797,0.00033715,-0.0002
 4238,0.00009318,0.00024204,-0.00007709,-0.00003458,0.00002412,0.000071
 78,0.00003058,-0.00008502,-0.00004311,-0.00009349,-0.00021558,0.000247
 37,0.00018370,0.00002292,-0.00000787,-0.00000867,0.00113122,0.00047887
 ,0.00016793,-0.00122541,0.00107693,0.00015652,0.00093821,0.00077338,-0
 .00001559,0.00003854,-0.00041985,-0.00016399,-0.00112526,0.00261637,-0
 .00038600,0.00256065,-0.00257326,-0.00140393,-0.00028504,0.00059970,0.
 00084054,0.02089958,-0.00705213,0.00330412,0.00767547,-0.00029252,-0.0
 0752390,-0.01982274,-0.01379076,0.00311247,-0.00120482,0.00041312,-0.0
 0071641,0.00252614,-0.00153516,0.00152933,-0.14834510,0.40884678,-0.00
 048739,-0.00010571,0.00050961,-0.00044764,0.00014139,-0.00025369,0.000
 63244,0.00075879,-0.00029798,0.00017962,-0.00001006,-0.00009713,-0.001
 01770,-0.00222616,-0.00168643,0.00042715,-0.00005472,-0.00044198,-0.00
 003839,0.00004083,0.00005454,-0.00005973,-0.00005010,0.00007569,0.0000
 6921,-0.00001468,0.00006070,0.00000681,-0.00000098,0.00004487,0.000067
 92,0.00002504,0.00000837,0.00002672,0.00001550,0.00001824,0.00002404,-
 0.00001381,0.00000191,-0.00011954,0.00001986,0.00010088,0.00000766,-0.
 00000382,-0.00002459,-0.00036747,0.00042307,0.00016702,0.00000898,-0.0
 0011282,-0.00013293,0.00004603,-0.00002994,0.00010149,-0.00000790,-0.0
 0002503,-0.00002510,0.00073147,0.00000264,0.00068456,-0.00049168,-0.00
 048163,-0.00046223,0.00086163,0.00092199,0.00038606,0.00122414,-0.0005
 7936,0.00539452,0.00136139,-0.00328273,-0.01138320,0.00161106,0.002561
 17,0.00615277,-0.00029343,-0.00020520,-0.00040054,0.00040878,0.0003193
 8,-0.00033961,-0.24804305,-0.02890958,0.42929920,0.00042156,0.00019410
 ,-0.00017306,-0.00006009,-0.00005606,0.00001142,0.00004592,-0.00008697
 ,-0.00006968,-0.00032483,-0.00014201,0.00016701,-0.00089487,0.00077964
 ,0.00053911,-0.00022986,-0.00005128,0.00024075,0.00003072,0.00001555,-
 0.00004397,0.00003532,0.00004762,-0.00005219,0.00004107,0.00003360,-0.
 00004277,0.00000126,-0.00003116,-0.00000897,-0.00011304,-0.00002553,-0
 .00001905,0.00000861,0.00001687,0.00001008,-0.00001488,-0.00000231,-0.
 00001535,0.00017271,0.00003721,-0.00001691,-0.00005405,-0.00001815,0.0
 0000216,0.00028331,-0.00033572,-0.00005113,-0.00014577,0.00022845,0.00
 005688,0.00025580,0.00003886,-0.00000954,-0.00004341,-0.00003051,-0.00
 000962,0.00008551,0.00013329,-0.00026625,0.00001473,0.00002369,0.00015
 002,-0.00051105,-0.00040635,-0.00001743,0.00068247,-0.00004488,-0.0010
 3967,-0.00126177,0.00033268,0.00380734,-0.00013149,-0.00057648,-0.0012
 2008,0.00002016,-0.00018212,-0.00003608,-0.00026579,-0.00024088,0.0001
 0087,-0.12434844,-0.00678738,0.19350206,0.13693294,0.00004686,-0.00010
 789,-0.00018595,0.00007842,0.00003008,0.00004008,-0.00007710,0.0001015
 3,-0.00021672,0.00013495,0.00005534,-0.00003128,0.00056896,0.00044688,
 0.00018315,-0.00005335,0.00004557,0.00009212,-0.00001106,-0.00001958,0
 .00000667,0.00001194,-0.00001062,-0.00000796,-0.00002486,-0.00002604,-
 0.00000503,-0.00004120,0.00003890,-0.00000554,-0.00000310,0.00002378,0
 .00000624,-0.00001198,-0.00001607,-0.00001042,0.00000048,0.00000631,0.
 00000874,0.00000102,-0.00003460,-0.00003297,0.00000968,0.00000740,0.00
 000713,-0.00007065,-0.00005191,0.00002158,0.00006657,-0.00000807,-0.00
 003086,-0.00008856,-0.00004068,-0.00002166,0.00001630,0.00003804,0.000
 01686,-0.00010233,-0.00012052,-0.00000060,0.00010809,0.00011369,0.0000
 4117,0.00000357,0.00001771,0.00005507,-0.00023048,-0.00155236,0.001305
 02,0.00137027,0.00437870,0.00561918,-0.00151166,-0.00290598,-0.0021465
 4,-0.00038211,-0.00007562,0.00038018,-0.00012653,-0.00000123,0.0002021
 3,-0.03386755,-0.05724325,0.08232795,0.01373442,0.04945983,0.00004697,
 -0.00000290,-0.00017924,0.00009074,0.00000729,0.00003970,-0.00003405,-
 0.00008687,0.00002715,0.00002600,0.00003112,-0.00002320,0.00039268,0.0
 0044280,0.00046148,-0.00005477,0.00001074,0.00008321,0.00000249,-0.000
 00872,-0.00000695,0.00001642,0.00001224,-0.00002130,-0.00001568,-0.000
 00781,-0.00000823,-0.00003504,0.00000873,-0.00001214,-0.00000801,0.000
 00422,0.00001342,-0.00000748,-0.00000992,-0.00000514,-0.00000686,0.000
 00697,0.00000401,0.00001263,-0.00001211,-0.00003104,0.00000384,0.00000
 218,0.00000636,-0.00003744,-0.00001712,-0.00005547,0.00004927,-0.00003
 264,0.00002407,-0.00004668,-0.00001015,-0.00002344,0.00000436,0.000014
 85,0.00001100,-0.00012832,0.00000449,-0.00000921,0.00011133,-0.0000125
 3,-0.00004748,0.00002440,-0.00007292,0.00009840,-0.00107843,0.00023007
 ,-0.00020882,0.00121065,0.00290321,0.00055597,-0.00141754,-0.00179780,
 -0.00033005,-0.00000543,-0.00009107,0.00003290,0.00001770,-0.00004817,
 0.00020066,0.21837462,0.04013174,-0.37757318,-0.21893318,-0.04887235,0
 .38514460,0.00007168,0.00133238,0.00029629,-0.00040753,-0.00024974,-0.
 00013909,0.00280007,0.00094297,-0.00143380,-0.00150928,-0.00140068,0.0
 0113611,-0.01655847,-0.00427668,-0.00558246,-0.00002738,-0.00049655,-0
 .00014607,0.00012374,0.00019135,-0.00019994,0.00005977,0.00022964,-0.0
 0005237,0.00025133,0.00026432,-0.00003978,0.00016018,-0.00020825,0.000
 06300,-0.00014725,-0.00009059,-0.00005221,0.00006723,0.00010394,0.0000
 6021,-0.00005144,-0.00004765,-0.00009710,0.00028607,0.00026016,0.00014
 254,-0.00014300,-0.00005398,-0.00001088,0.00142426,-0.00055374,0.00014
 178,-0.00136725,0.00163346,0.00027363,0.00143269,0.00055434,0.00002080
 ,-0.00009945,-0.00034629,-0.00014330,0.00062359,0.00189777,-0.00085392
 ,0.00085888,-0.00165675,-0.00014777,-0.00073567,-0.00003891,0.00053162
 ,0.00697395,-0.00416934,0.00551800,0.01050761,0.00271108,-0.00198225,-
 0.00687756,-0.00240241,0.00069227,0.00031900,0.00041282,-0.00011009,0.
 00087452,-0.00097795,0.00027931,-0.12456382,0.15029361,0.05017682,-0.0
 1063277,0.02045098,0.00142481,0.13628630,0.00038996,-0.00100639,-0.000
 21538,-0.00059425,0.00051781,-0.00035297,-0.00365302,-0.00174811,-0.00
 035295,0.00131654,0.00157651,-0.00108188,0.00860554,0.01176338,0.00495
 294,-0.00008088,0.00028765,0.00034168,-0.00012554,-0.00018006,0.000199
 69,-0.00002914,-0.00020183,-0.00000364,0.00003646,-0.00026897,0.000039
 52,-0.00047551,0.00029812,-0.00007664,-0.00005833,0.00013120,0.0000476
 5,-0.00001710,-0.00007523,-0.00002225,0.00005448,0.00003955,0.00008839
 ,-0.00002540,-0.00022252,-0.00011222,0.00004286,0.00001408,-0.00000042
 ,-0.00080206,-0.00056348,-0.00020912,0.00141230,-0.00120161,-0.0000871
 8,-0.00108431,-0.00071918,0.00007568,-0.00001889,0.00036761,0.00014410
 ,0.00118550,-0.00182211,0.00084616,-0.00192684,0.00048335,0.00053493,-
 0.00146310,-0.00170686,-0.00186945,-0.01061958,-0.00559691,-0.00537659
 ,-0.00172882,-0.00808004,0.00003231,0.00220932,0.00244836,-0.00016738,
 0.00026205,-0.00007050,0.00015714,-0.00117149,0.00053352,-0.00045263,0
 .17926675,-0.32364311,-0.05145128,-0.00659822,0.00745066,0.00727242,-0
 .16430929,0.32119509,0.00048313,0.00014395,-0.00021480,0.00037783,-0.0
 0017810,0.00019463,-0.00065360,-0.00116981,0.00155812,-0.00024298,0.00
 012894,0.00003600,-0.00295856,0.00175651,0.00091844,-0.00037060,0.0000
 4670,0.00031475,0.00003793,-0.00004670,-0.00004710,0.00003448,0.000030
 28,-0.00004931,-0.00005545,0.00002944,-0.00004743,0.00021102,-0.000078
 14,-0.00007195,-0.00005230,-0.00003914,-0.00000709,-0.00001997,-0.0000
 0663,-0.00001464,-0.00001727,0.00000815,-0.00000402,0.00009184,-0.0000
 0964,-0.00007266,-0.00000796,0.00000327,0.00001676,0.00059169,-0.00028
 641,-0.00007888,-0.00029458,0.00033621,0.00011664,-0.00008187,-0.00000
 111,-0.00009131,-0.00000770,0.00003476,0.00001666,-0.00060263,0.000007
 99,-0.00068371,0.00013652,0.00041493,0.00042635,-0.00104669,-0.0002025
 5,-0.00118571,0.00227532,-0.00152316,-0.00869369,-0.00203300,-0.001922
 11,0.00066298,0.00102317,0.00067691,-0.00061481,-0.00001145,-0.0000297
 9,0.00010676,-0.00025004,-0.00013006,0.00002679,0.02977264,-0.00634860
 ,-0.04994183,0.02343723,-0.03874542,-0.00816802,-0.04976617,0.04709934
 ,0.06559207\\0.00000701,-0.00001481,0.00000593,-0.00001672,0.00000308,
 -0.00000446,0.00003018,0.00005954,-0.00001117,-0.00004343,-0.00002683,
 0.00000902,-0.00000662,-0.00000298,-0.00001461,0.00002955,0.00000282,-
 0.00000734,0.00000098,0.00000135,-0.00000141,-0.00000205,-0.00000361,0
 .00000101,-0.00000202,0.00000275,-0.00000020,-0.00000249,-0.00000991,0
 .00000253,0.00000331,-0.00000567,-0.00000941,0.00000373,-0.00000331,0.
 00000380,-0.00000173,-0.00000294,-0.00000143,-0.00000235,0.00000532,0.
 00001281,-0.00000039,-0.00000480,-0.00000465,-0.00000420,-0.00003207,0
 .00000789,-0.00000217,0.00000437,-0.00000974,0.00001565,-0.00000451,-0
 .00000289,0.00000130,-0.00000637,0.00000168,0.00001057,0.00000367,0.00
 000451,0.00000568,0.00000266,-0.00001132,0.00000328,0.00000608,0.00000
 452,-0.00003525,0.00001328,0.00000492,0.00001410,0.00002527,-0.0000045
 8,0.00001797,0.00000792,0.00001957,-0.00001071,-0.00000025,-0.00000757
 ,-0.00001446,0.00000410,0.00000588,-0.00004786,0.00000534,0.00002513,-
 0.00000076,-0.00000552,-0.00000743,0.00004988,-0.00002398,-0.00001098\
 \\@


 KNOWLEDGE IS CHIMERA - FOR BEYOND IT LIES OTHER KNOWLEDGE,
 AND THE INCOMPLETENESS OF WHAT IS KNOWN RENDERS THE KNOWING FALSE.
     -- THE THOMAS COVENANT CHRONICLES
 Job cpu time:       0 days  0 hours 33 minutes 17.0 seconds.
 File lengths (MBytes):  RWF=    220 Int=      0 D2E=      0 Chk=      6 Scr=      1
 Normal termination of Gaussian 09 at Sun Jan 15 23:01:11 2017.
