 Entering Gaussian System, Link 0=g09
 Initial command:
 /global/software/gaussian/g09.e01/l1.exe "/scratch/10464851.yak.local/Gau-20992.inp" -scrdir="/scratch/10464851.yak.local/"
 Entering Link 1 = /global/software/gaussian/g09.e01/l1.exe PID=     20993.
  
 Copyright (c) 1988,1990,1992,1993,1995,1998,2003,2009,2015,
            Gaussian, Inc.  All Rights Reserved.
  
 This is part of the Gaussian(R) 09 program.  It is based on
 the Gaussian(R) 03 system (copyright 2003, Gaussian, Inc.),
 the Gaussian(R) 98 system (copyright 1998, Gaussian, Inc.),
 the Gaussian(R) 94 system (copyright 1995, Gaussian, Inc.),
 the Gaussian 92(TM) system (copyright 1992, Gaussian, Inc.),
 the Gaussian 90(TM) system (copyright 1990, Gaussian, Inc.),
 the Gaussian 88(TM) system (copyright 1988, Gaussian, Inc.),
 the Gaussian 86(TM) system (copyright 1986, Carnegie Mellon
 University), and the Gaussian 82(TM) system (copyright 1983,
 Carnegie Mellon University). Gaussian is a federally registered
 trademark of Gaussian, Inc.
  
 This software contains proprietary and confidential information,
 including trade secrets, belonging to Gaussian, Inc.
  
 This software is provided under written license and may be
 used, copied, transmitted, or stored only in accord with that
 written license.
  
 The following legend is applicable only to US Government
 contracts under FAR:
  
                    RESTRICTED RIGHTS LEGEND
  
 Use, reproduction and disclosure by the US Government is
 subject to restrictions as set forth in subparagraphs (a)
 and (c) of the Commercial Computer Software - Restricted
 Rights clause in FAR 52.227-19.
  
 Gaussian, Inc.
 340 Quinnipiac St., Bldg. 40, Wallingford CT 06492
  
  
 ---------------------------------------------------------------
 Warning -- This program may not be used in any manner that
 competes with the business of Gaussian, Inc. or will provide
 assistance to any competitor of Gaussian, Inc.  The licensee
 of this program is prohibited from giving any competitor of
 Gaussian, Inc. access to this program.  By using this program,
 the user acknowledges that Gaussian, Inc. is engaged in the
 business of creating and licensing software in the field of
 computational chemistry and represents and warrants to the
 licensee that it is not a competitor of Gaussian, Inc. and that
 it will not use this program in any manner prohibited above.
 ---------------------------------------------------------------
  

 Cite this work as:
 Gaussian 09, Revision E.01,
 M. J. Frisch, G. W. Trucks, H. B. Schlegel, G. E. Scuseria, 
 M. A. Robb, J. R. Cheeseman, G. Scalmani, V. Barone, B. Mennucci, 
 G. A. Petersson, H. Nakatsuji, M. Caricato, X. Li, H. P. Hratchian, 
 A. F. Izmaylov, J. Bloino, G. Zheng, J. L. Sonnenberg, M. Hada, 
 M. Ehara, K. Toyota, R. Fukuda, J. Hasegawa, M. Ishida, T. Nakajima, 
 Y. Honda, O. Kitao, H. Nakai, T. Vreven, J. A. Montgomery, Jr., 
 J. E. Peralta, F. Ogliaro, M. Bearpark, J. J. Heyd, E. Brothers, 
 K. N. Kudin, V. N. Staroverov, T. Keith, R. Kobayashi, J. Normand, 
 K. Raghavachari, A. Rendell, J. C. Burant, S. S. Iyengar, J. Tomasi, 
 M. Cossi, N. Rega, J. M. Millam, M. Klene, J. E. Knox, J. B. Cross, 
 V. Bakken, C. Adamo, J. Jaramillo, R. Gomperts, R. E. Stratmann, 
 O. Yazyev, A. J. Austin, R. Cammi, C. Pomelli, J. W. Ochterski, 
 R. L. Martin, K. Morokuma, V. G. Zakrzewski, G. A. Voth, 
 P. Salvador, J. J. Dannenberg, S. Dapprich, A. D. Daniels, 
 O. Farkas, J. B. Foresman, J. V. Ortiz, J. Cioslowski, 
 and D. J. Fox, Gaussian, Inc., Wallingford CT, 2013.
 
 ******************************************
 Gaussian 09:  ES64L-G09RevE.01 30-Nov-2015
                15-Jan-2017 
 ******************************************
 -------------------------
 # b3lyp/6-31g(d) opt freq
 -------------------------
 1/14=-1,18=20,19=15,26=3,38=1/1,3;
 2/9=110,12=2,17=6,18=5,40=1/2;
 3/5=1,6=6,7=1,11=2,16=1,25=1,30=1,71=1,74=-5/1,2,3;
 4//1;
 5/5=2,38=5/2;
 6/7=2,8=2,9=2,10=2,28=1/1;
 7//1,2,3,16;
 1/14=-1,18=20,19=15,26=3/3(2);
 2/9=110/2;
 99//99;
 2/9=110/2;
 3/5=1,6=6,7=1,11=2,16=1,25=1,30=1,71=1,74=-5/1,2,3;
 4/5=5,16=3,69=1/1;
 5/5=2,38=5/2;
 7//1,2,3,16;
 1/14=-1,18=20,19=15,26=3/3(-5);
 2/9=110/2;
 6/7=2,8=2,9=2,10=2,19=2,28=1/1;
 99/9=1/99;
 ----------------------------------
 glo_1w_beta_ircr_boat5_B3LYP_631Gd
 ----------------------------------
 Symbolic Z-matrix:
 Charge =  0 Multiplicity = 1
 8                     1.21048   0.6675   -0.52272 
 6                     0.53317  -1.06839   1.02386 
 6                    -1.26795   0.58656   0.00115 
 6                    -0.91631  -0.8284    0.54287 
 6                    -0.23272   1.66382   0.29464 
 6                     1.62475  -0.53865   0.08342 
 1                    -1.57065  -0.99028   1.41377 
 1                     2.52146  -0.37898   0.70058 
 1                     0.694    -2.15522   1.114 
 1                    -1.32554   0.51625  -1.09354 
 6                     1.94125  -1.5072   -1.0615 
 1                     2.68177  -1.03469  -1.72369 
 1                     1.03391  -1.68162  -1.644 
 1                     0.23286   1.62337   1.29048 
 8                    -0.23532   2.71411  -0.3665 
 8                     2.37535  -2.77874  -0.60026 
 1                     3.23983  -2.6628   -0.17571 
 8                    -2.47542   1.05838   0.56169 
 1                    -3.19385   0.53926   0.13585 
 8                    -1.27927  -1.76154  -0.49891 
 1                    -1.12073  -2.66387  -0.17511 
 8                     0.74134  -0.44349   2.29164 
 1                     0.04863  -0.74587   2.90075 
 8                     2.21459   2.89501  -0.49654 
 1                     1.87796   1.43954  -0.51214 
 1                     2.438     3.18182  -1.39538 
 1                     1.24228   3.14334  -0.38252 
 8                    -3.92003  -0.84539  -0.89013 
 1                    -3.08026  -1.35206  -0.9041 
 1                    -4.03093  -0.52978  -1.79982 
 
 Add virtual bond connecting atoms O15        and H27        Dist= 2.91D+00.
 Add virtual bond connecting atoms H25        and O24        Dist= 2.82D+00.
 Add virtual bond connecting atoms O28        and H19        Dist= 3.53D+00.
 Add virtual bond connecting atoms H29        and O20        Dist= 3.57D+00.

 GradGradGradGradGradGradGradGradGradGradGradGradGradGradGradGradGradGrad
 Berny optimization.
 Initialization pass.
                           ----------------------------
                           !    Initial Parameters    !
                           ! (Angstroms and Degrees)  !
 --------------------------                            --------------------------
 ! Name  Definition              Value          Derivative Info.                !
 --------------------------------------------------------------------------------
 ! R1    R(1,6)                  1.412          estimate D2E/DX2                !
 ! R2    R(1,25)                 1.0206         estimate D2E/DX2                !
 ! R3    R(2,4)                  1.5459         estimate D2E/DX2                !
 ! R4    R(2,6)                  1.5351         estimate D2E/DX2                !
 ! R5    R(2,9)                  1.1024         estimate D2E/DX2                !
 ! R6    R(2,22)                 1.4287         estimate D2E/DX2                !
 ! R7    R(3,4)                  1.5554         estimate D2E/DX2                !
 ! R8    R(3,5)                  1.5226         estimate D2E/DX2                !
 ! R9    R(3,10)                 1.0985         estimate D2E/DX2                !
 ! R10   R(3,18)                 1.4124         estimate D2E/DX2                !
 ! R11   R(4,7)                  1.1013         estimate D2E/DX2                !
 ! R12   R(4,20)                 1.4449         estimate D2E/DX2                !
 ! R13   R(5,14)                 1.1            estimate D2E/DX2                !
 ! R14   R(5,15)                 1.2411         estimate D2E/DX2                !
 ! R15   R(6,8)                  1.1002         estimate D2E/DX2                !
 ! R16   R(6,11)                 1.5327         estimate D2E/DX2                !
 ! R17   R(11,12)                1.1001         estimate D2E/DX2                !
 ! R18   R(11,13)                1.0922         estimate D2E/DX2                !
 ! R19   R(11,16)                1.4206         estimate D2E/DX2                !
 ! R20   R(15,27)                1.5388         estimate D2E/DX2                !
 ! R21   R(16,17)                0.9701         estimate D2E/DX2                !
 ! R22   R(18,19)                0.9833         estimate D2E/DX2                !
 ! R23   R(19,28)                1.8701         estimate D2E/DX2                !
 ! R24   R(20,21)                0.9717         estimate D2E/DX2                !
 ! R25   R(20,29)                1.8909         estimate D2E/DX2                !
 ! R26   R(22,23)                0.9707         estimate D2E/DX2                !
 ! R27   R(24,25)                1.494          estimate D2E/DX2                !
 ! R28   R(24,26)                0.9696         estimate D2E/DX2                !
 ! R29   R(24,27)                1.01           estimate D2E/DX2                !
 ! R30   R(28,29)                0.9809         estimate D2E/DX2                !
 ! R31   R(28,30)                0.9692         estimate D2E/DX2                !
 ! A1    A(6,1,25)             116.733          estimate D2E/DX2                !
 ! A2    A(4,2,6)              114.9946         estimate D2E/DX2                !
 ! A3    A(4,2,9)              108.3784         estimate D2E/DX2                !
 ! A4    A(4,2,22)             110.1701         estimate D2E/DX2                !
 ! A5    A(6,2,9)              106.6525         estimate D2E/DX2                !
 ! A6    A(6,2,22)             106.8027         estimate D2E/DX2                !
 ! A7    A(9,2,22)             109.7194         estimate D2E/DX2                !
 ! A8    A(4,3,5)              115.0109         estimate D2E/DX2                !
 ! A9    A(4,3,10)             107.5012         estimate D2E/DX2                !
 ! A10   A(4,3,18)             111.036          estimate D2E/DX2                !
 ! A11   A(5,3,10)             105.8443         estimate D2E/DX2                !
 ! A12   A(5,3,18)             105.5697         estimate D2E/DX2                !
 ! A13   A(10,3,18)            111.8434         estimate D2E/DX2                !
 ! A14   A(2,4,3)              117.4878         estimate D2E/DX2                !
 ! A15   A(2,4,7)              106.7521         estimate D2E/DX2                !
 ! A16   A(2,4,20)             111.0749         estimate D2E/DX2                !
 ! A17   A(3,4,7)              105.9517         estimate D2E/DX2                !
 ! A18   A(3,4,20)             106.2361         estimate D2E/DX2                !
 ! A19   A(7,4,20)             109.0247         estimate D2E/DX2                !
 ! A20   A(3,5,14)             115.8642         estimate D2E/DX2                !
 ! A21   A(3,5,15)             119.6471         estimate D2E/DX2                !
 ! A22   A(14,5,15)            120.948          estimate D2E/DX2                !
 ! A23   A(1,6,2)              110.4337         estimate D2E/DX2                !
 ! A24   A(1,6,8)              110.8513         estimate D2E/DX2                !
 ! A25   A(1,6,11)             106.2434         estimate D2E/DX2                !
 ! A26   A(2,6,8)              106.6178         estimate D2E/DX2                !
 ! A27   A(2,6,11)             112.7305         estimate D2E/DX2                !
 ! A28   A(8,6,11)             110.0252         estimate D2E/DX2                !
 ! A29   A(6,11,12)            108.4963         estimate D2E/DX2                !
 ! A30   A(6,11,13)            109.1324         estimate D2E/DX2                !
 ! A31   A(6,11,16)            112.7185         estimate D2E/DX2                !
 ! A32   A(12,11,13)           107.8643         estimate D2E/DX2                !
 ! A33   A(12,11,16)           111.9756         estimate D2E/DX2                !
 ! A34   A(13,11,16)           106.5035         estimate D2E/DX2                !
 ! A35   A(5,15,27)            103.8634         estimate D2E/DX2                !
 ! A36   A(11,16,17)           107.9052         estimate D2E/DX2                !
 ! A37   A(3,18,19)            106.0444         estimate D2E/DX2                !
 ! A38   A(18,19,28)           155.8057         estimate D2E/DX2                !
 ! A39   A(4,20,21)            108.5699         estimate D2E/DX2                !
 ! A40   A(4,20,29)            104.7083         estimate D2E/DX2                !
 ! A41   A(21,20,29)           115.3351         estimate D2E/DX2                !
 ! A42   A(2,22,23)            108.4564         estimate D2E/DX2                !
 ! A43   A(25,24,26)           109.2944         estimate D2E/DX2                !
 ! A44   A(25,24,27)            91.3635         estimate D2E/DX2                !
 ! A45   A(26,24,27)           104.699          estimate D2E/DX2                !
 ! A46   A(1,25,24)            152.1794         estimate D2E/DX2                !
 ! A47   A(15,27,24)           148.984          estimate D2E/DX2                !
 ! A48   A(19,28,29)            93.3147         estimate D2E/DX2                !
 ! A49   A(19,28,30)           108.5568         estimate D2E/DX2                !
 ! A50   A(29,28,30)           104.6427         estimate D2E/DX2                !
 ! A51   A(20,29,28)           157.5561         estimate D2E/DX2                !
 ! D1    D(25,1,6,2)           132.2451         estimate D2E/DX2                !
 ! D2    D(25,1,6,8)            14.3092         estimate D2E/DX2                !
 ! D3    D(25,1,6,11)         -105.2049         estimate D2E/DX2                !
 ! D4    D(6,1,25,24)         -150.7724         estimate D2E/DX2                !
 ! D5    D(6,2,4,3)            -45.699          estimate D2E/DX2                !
 ! D6    D(6,2,4,7)           -164.3937         estimate D2E/DX2                !
 ! D7    D(6,2,4,20)            76.8671         estimate D2E/DX2                !
 ! D8    D(9,2,4,3)           -164.912          estimate D2E/DX2                !
 ! D9    D(9,2,4,7)             76.3933         estimate D2E/DX2                !
 ! D10   D(9,2,4,20)           -42.3458         estimate D2E/DX2                !
 ! D11   D(22,2,4,3)            75.0337         estimate D2E/DX2                !
 ! D12   D(22,2,4,7)           -43.661          estimate D2E/DX2                !
 ! D13   D(22,2,4,20)         -162.4001         estimate D2E/DX2                !
 ! D14   D(4,2,6,1)             35.8109         estimate D2E/DX2                !
 ! D15   D(4,2,6,8)            156.3146         estimate D2E/DX2                !
 ! D16   D(4,2,6,11)           -82.856          estimate D2E/DX2                !
 ! D17   D(9,2,6,1)            155.9792         estimate D2E/DX2                !
 ! D18   D(9,2,6,8)            -83.5171         estimate D2E/DX2                !
 ! D19   D(9,2,6,11)            37.3122         estimate D2E/DX2                !
 ! D20   D(22,2,6,1)           -86.7489         estimate D2E/DX2                !
 ! D21   D(22,2,6,8)            33.7547         estimate D2E/DX2                !
 ! D22   D(22,2,6,11)          154.5841         estimate D2E/DX2                !
 ! D23   D(4,2,22,23)           53.0966         estimate D2E/DX2                !
 ! D24   D(6,2,22,23)          178.6272         estimate D2E/DX2                !
 ! D25   D(9,2,22,23)          -66.1441         estimate D2E/DX2                !
 ! D26   D(5,3,4,2)            -13.1759         estimate D2E/DX2                !
 ! D27   D(5,3,4,7)            105.9441         estimate D2E/DX2                !
 ! D28   D(5,3,4,20)          -138.1846         estimate D2E/DX2                !
 ! D29   D(10,3,4,2)           104.4055         estimate D2E/DX2                !
 ! D30   D(10,3,4,7)          -136.4745         estimate D2E/DX2                !
 ! D31   D(10,3,4,20)          -20.6032         estimate D2E/DX2                !
 ! D32   D(18,3,4,2)          -132.9615         estimate D2E/DX2                !
 ! D33   D(18,3,4,7)           -13.8416         estimate D2E/DX2                !
 ! D34   D(18,3,4,20)          102.0297         estimate D2E/DX2                !
 ! D35   D(4,3,5,14)           -39.5387         estimate D2E/DX2                !
 ! D36   D(4,3,5,15)           161.4698         estimate D2E/DX2                !
 ! D37   D(10,3,5,14)         -158.0515         estimate D2E/DX2                !
 ! D38   D(10,3,5,15)           42.9569         estimate D2E/DX2                !
 ! D39   D(18,3,5,14)           83.2253         estimate D2E/DX2                !
 ! D40   D(18,3,5,15)          -75.7662         estimate D2E/DX2                !
 ! D41   D(4,3,18,19)          -72.9199         estimate D2E/DX2                !
 ! D42   D(5,3,18,19)          161.8127         estimate D2E/DX2                !
 ! D43   D(10,3,18,19)          47.165          estimate D2E/DX2                !
 ! D44   D(2,4,20,21)           54.3659         estimate D2E/DX2                !
 ! D45   D(2,4,20,29)          178.0694         estimate D2E/DX2                !
 ! D46   D(3,4,20,21)         -176.7744         estimate D2E/DX2                !
 ! D47   D(3,4,20,29)          -53.071          estimate D2E/DX2                !
 ! D48   D(7,4,20,21)          -62.9965         estimate D2E/DX2                !
 ! D49   D(7,4,20,29)           60.707          estimate D2E/DX2                !
 ! D50   D(3,5,15,27)         -149.8617         estimate D2E/DX2                !
 ! D51   D(14,5,15,27)          52.2334         estimate D2E/DX2                !
 ! D52   D(1,6,11,12)           55.4358         estimate D2E/DX2                !
 ! D53   D(1,6,11,13)          -61.8504         estimate D2E/DX2                !
 ! D54   D(1,6,11,16)         -179.964          estimate D2E/DX2                !
 ! D55   D(2,6,11,12)          176.5213         estimate D2E/DX2                !
 ! D56   D(2,6,11,13)           59.235          estimate D2E/DX2                !
 ! D57   D(2,6,11,16)          -58.8786         estimate D2E/DX2                !
 ! D58   D(8,6,11,12)          -64.6162         estimate D2E/DX2                !
 ! D59   D(8,6,11,13)          178.0975         estimate D2E/DX2                !
 ! D60   D(8,6,11,16)           59.9839         estimate D2E/DX2                !
 ! D61   D(6,11,16,17)         -67.4104         estimate D2E/DX2                !
 ! D62   D(12,11,16,17)         55.2614         estimate D2E/DX2                !
 ! D63   D(13,11,16,17)        172.9439         estimate D2E/DX2                !
 ! D64   D(5,15,27,24)          44.746          estimate D2E/DX2                !
 ! D65   D(3,18,19,28)          12.0345         estimate D2E/DX2                !
 ! D66   D(18,19,28,29)         12.5418         estimate D2E/DX2                !
 ! D67   D(18,19,28,30)        -94.1094         estimate D2E/DX2                !
 ! D68   D(4,20,29,28)          10.1744         estimate D2E/DX2                !
 ! D69   D(21,20,29,28)        129.4209         estimate D2E/DX2                !
 ! D70   D(26,24,25,1)         -99.4878         estimate D2E/DX2                !
 ! D71   D(27,24,25,1)           6.6084         estimate D2E/DX2                !
 ! D72   D(25,24,27,15)         -9.2614         estimate D2E/DX2                !
 ! D73   D(26,24,27,15)        101.1001         estimate D2E/DX2                !
 ! D74   D(19,28,29,20)          3.2873         estimate D2E/DX2                !
 ! D75   D(30,28,29,20)        113.4454         estimate D2E/DX2                !
 --------------------------------------------------------------------------------
 Trust Radius=3.00D-01 FncErr=1.00D-07 GrdErr=1.00D-06
 Number of steps in this run=    167 maximum allowed number of steps=    180.
 GradGradGradGradGradGradGradGradGradGradGradGradGradGradGradGradGradGrad

                          Input orientation:                          
 ---------------------------------------------------------------------
 Center     Atomic      Atomic             Coordinates (Angstroms)
 Number     Number       Type             X           Y           Z
 ---------------------------------------------------------------------
      1          8           0        1.210484    0.667502   -0.522720
      2          6           0        0.533166   -1.068387    1.023857
      3          6           0       -1.267947    0.586555    0.001148
      4          6           0       -0.916309   -0.828396    0.542873
      5          6           0       -0.232724    1.663819    0.294635
      6          6           0        1.624750   -0.538651    0.083417
      7          1           0       -1.570654   -0.990283    1.413768
      8          1           0        2.521463   -0.378978    0.700576
      9          1           0        0.694000   -2.155222    1.114001
     10          1           0       -1.325540    0.516250   -1.093542
     11          6           0        1.941249   -1.507199   -1.061495
     12          1           0        2.681770   -1.034693   -1.723687
     13          1           0        1.033909   -1.681615   -1.643999
     14          1           0        0.232857    1.623370    1.290478
     15          8           0       -0.235318    2.714108   -0.366499
     16          8           0        2.375345   -2.778741   -0.600257
     17          1           0        3.239832   -2.662802   -0.175707
     18          8           0       -2.475422    1.058380    0.561687
     19          1           0       -3.193850    0.539264    0.135851
     20          8           0       -1.279269   -1.761543   -0.498910
     21          1           0       -1.120729   -2.663867   -0.175107
     22          8           0        0.741342   -0.443486    2.291641
     23          1           0        0.048633   -0.745874    2.900750
     24          8           0        2.214591    2.895008   -0.496536
     25          1           0        1.877955    1.439544   -0.512141
     26          1           0        2.437995    3.181823   -1.395383
     27          1           0        1.242275    3.143342   -0.382516
     28          8           0       -3.920032   -0.845392   -0.890131
     29          1           0       -3.080264   -1.352057   -0.904097
     30          1           0       -4.030928   -0.529783   -1.799818
 ---------------------------------------------------------------------
                    Distance matrix (angstroms):
                    1          2          3          4          5
     1  O    0.000000
     2  C    2.421564   0.000000
     3  C    2.534484   2.651184   0.000000
     4  C    2.810062   1.545936   1.555378   0.000000
     5  C    1.934830   2.929727   1.522603   2.596160   0.000000
     6  C    1.412028   1.535123   3.104924   2.598467   2.888892
     7  H    3.772660   2.141072   2.138585   1.101287   3.175968
     8  H    2.076112   2.129113   3.972541   3.470608   3.453021
     9  H    3.303541   1.102363   3.550355   2.163273   4.014381
    10  H    2.603869   3.232529   1.098456   2.157173   2.106703
    11  C    2.356612   2.554202   3.976425   3.346701   4.076837
    12  H    2.550387   3.488070   4.604755   4.257467   4.455319
    13  H    2.608984   2.782849   3.626244   3.051842   4.068733
    14  H    2.270930   2.721549   2.233779   2.809030   1.100048
    15  O    2.510646   4.102551   2.393318   3.720221   1.241053
    16  O    3.638613   2.992771   4.996047   3.993191   5.228690
    17  H    3.915303   3.362611   5.559647   4.599447   5.567721
    18  O    3.861946   3.713266   1.412380   2.447675   2.338283
    19  H    4.455145   4.154966   1.931187   2.687630   3.171451
    20  O    3.478462   2.466618   2.400781   1.444927   3.668525
    21  H    4.080859   2.591995   3.258525   1.981473   4.442756
    22  O    3.061865   1.428676   3.216300   2.440113   3.062282
    23  H    3.881710   1.965074   3.452020   2.549021   3.560564
    24  O    2.443501   4.565883   4.207697   4.974600   2.851513
    25  H    1.020626   3.233800   3.299660   3.750269   2.270716
    26  H    2.930893   5.248369   4.734947   5.575845   3.506171
    27  H    2.480010   4.496597   3.603550   4.614166   2.196166
    28  O    5.361533   4.852221   3.142993   3.328084   4.614764
    29  H    4.757582   4.105405   2.803958   2.655305   4.317517
    30  H    5.526018   5.393903   3.481918   3.908737   4.860553
                    6          7          8          9         10
     6  C    0.000000
     7  H    3.490618   0.000000
     8  H    1.100216   4.198542   0.000000
     9  H    2.131127   2.564293   2.581779   0.000000
    10  H    3.346978   2.935358   4.338171   4.011054   0.000000
    11  C    1.532671   4.327539   2.171273   2.590048   3.842822
    12  H    2.151505   5.284762   2.516488   3.641331   4.342930
    13  H    2.153933   4.075736   3.067036   2.818937   3.271179
    14  H    2.840545   3.177898   3.097596   3.810716   3.055792
    15  O    3.773953   4.321456   4.278513   5.173576   2.558858
    16  O    2.459432   4.777634   2.733565   2.480802   4.979643
    17  H    2.680980   5.335216   2.549466   2.898663   5.638388
    18  O    4.426134   2.396178   5.201360   4.547255   2.087083
    19  H    4.937971   2.570477   5.816088   4.830363   2.236631
    20  O    3.204356   2.082807   4.218509   2.578809   2.354585
    21  H    3.481527   2.351136   4.387836   2.283366   3.316416
    22  O    2.380277   2.532780   2.388405   2.078249   4.080755
    23  H    3.234880   2.211999   3.330205   2.365424   4.408591
    24  O    3.531894   5.750898   3.499462   5.514603   4.306673
    25  H    2.081360   4.637466   2.278554   4.119275   3.384210
    26  H    4.085357   6.431723   4.132713   6.150006   4.621751
    27  H    3.731012   5.312820   3.900788   5.533078   3.741770
    28  O    5.637951   3.293709   6.651372   5.198220   2.937147
    29  H    4.875856   2.789678   5.907724   4.354637   2.570120
    30  H    5.960985   4.073345   7.014880   5.784232   2.985320
                   11         12         13         14         15
    11  C    0.000000
    12  H    1.100060   0.000000
    13  H    1.092244   1.772090   0.000000
    14  H    4.272100   4.706131   4.491744   0.000000
    15  O    4.799989   4.940129   4.750297   2.038252   0.000000
    16  O    1.420563   2.097068   2.023001   5.248211   6.086181
    17  H    1.950989   2.314825   2.825722   5.437175   6.405016
    18  O    5.359468   6.016687   4.968705   2.860966   2.936159
    19  H    5.656049   6.360671   5.096481   3.775019   3.706105
    20  O    3.279166   4.209302   2.582326   4.116561   4.597697
    21  H    3.391058   4.417160   2.786562   4.728693   5.453733
    22  O    3.716824   4.498627   4.136160   2.352186   4.241459
    23  H    4.456568   5.329376   4.743535   2.870580   4.767286
    24  O    4.446720   4.143272   4.863760   2.955969   2.460018
    25  H    2.998181   2.869810   3.425660   2.447361   2.472175
    26  H    4.727067   4.236298   5.068165   3.808577   2.902406
    27  H    4.751538   4.618102   4.991489   2.475510   1.538759
    28  O    5.901014   6.656909   5.080267   5.300597   5.149888
    29  H    5.026374   5.828678   4.193147   4.964483   4.991636
    30  H    6.096504   6.732091   5.196496   5.689100   5.194602
                   16         17         18         19         20
    16  O    0.000000
    17  H    0.970063   0.000000
    18  O    6.293135   6.859670   0.000000
    19  H    6.524335   7.193230   0.983339   0.000000
    20  O    3.794887   4.619416   3.241545   3.059780   0.000000
    21  H    3.523703   4.360561   4.029042   3.828129   0.971685
    22  O    4.060352   4.153989   3.949166   4.593361   3.688810
    23  H    4.669388   4.829384   3.885538   4.450836   3.788482
    24  O    5.676973   5.660680   5.146772   5.933016   5.821557
    25  H    4.248422   4.335567   4.500032   5.191686   4.496131
    26  H    6.013691   6.024134   5.699193   6.406674   6.249687
    27  H    6.033434   6.143640   4.365760   5.170022   5.516306
    28  O    6.591937   7.421390   2.796251   1.870094   2.822413
    29  H    5.647248   6.495554   2.885232   2.161363   1.890883
    30  H    6.894715   7.749288   3.243234   2.364398   3.283477
                   21         22         23         24         25
    21  H    0.000000
    22  O    3.805555   0.000000
    23  H    3.808806   0.970720   0.000000
    24  O    6.490668   4.592378   5.430373   0.000000
    25  H    5.093494   3.563549   4.446380   1.493969   0.000000
    26  H    6.951668   5.442026   6.292266   0.969587   2.032067
    27  H    6.272996   4.501931   5.227869   1.009985   1.823134
    28  O    3.413826   5.658057   5.489170   7.195770   6.243434
    29  H    2.468208   5.063883   4.963297   6.799938   5.703560
    30  H    3.957683   6.286656   6.227749   7.241149   6.360130
                   26         27         28         29         30
    26  H    0.000000
    27  H    1.567522   0.000000
    28  O    7.543093   6.543477   0.000000
    29  H    7.158814   6.258195   0.980874   0.000000
    30  H    7.469040   6.580825   0.969246   1.543442   0.000000
 Stoichiometry    C6H16O8
 Framework group  C1[X(C6H16O8)]
 Deg. of freedom    84
 Full point group                 C1      NOp   1
 Largest Abelian subgroup         C1      NOp   1
 Largest concise Abelian subgroup C1      NOp   1
                         Standard orientation:                         
 ---------------------------------------------------------------------
 Center     Atomic      Atomic             Coordinates (Angstroms)
 Number     Number       Type             X           Y           Z
 ---------------------------------------------------------------------
      1          8           0        1.203284    0.683930   -0.512534
      2          6           0        0.525585   -1.049852    1.036238
      3          6           0       -1.275844    0.601153    0.007739
      4          6           0       -0.923431   -0.812392    0.552620
      5          6           0       -0.242282    1.680129    0.300789
      6          6           0        1.617992   -0.520627    0.096467
      7          1           0       -1.578910   -0.973403    1.422825
      8          1           0        2.513590   -0.358796    0.714682
      9          1           0        0.687508   -2.136335    1.128643
     10          1           0       -1.331701    0.528753   -1.086905
     11          6           0        1.937315   -1.490939   -1.046166
     12          1           0        2.678304   -1.018825   -1.708114
     13          1           0        1.031055   -1.667461   -1.629715
     14          1           0        0.221837    1.642054    1.297408
     15          8           0       -0.245060    2.729187   -0.362297
     16          8           0        2.372146   -2.761132   -0.581913
     17          1           0        3.235859   -2.643428   -0.156273
     18          8           0       -2.484697    1.072652    0.565576
     19          1           0       -3.201894    0.551935    0.139619
     20          8           0       -1.283762   -1.747880   -0.487976
     21          1           0       -1.124694   -2.649422   -0.162259
     22          8           0        0.731137   -0.422366    2.303173
     23          1           0        0.037849   -0.724406    2.911795
     24          8           0        2.204838    2.912615   -0.488968
     25          1           0        1.869867    1.456744   -0.502379
     26          1           0        2.429278    3.198014   -1.388007
     27          1           0        1.232071    3.160060   -0.376878
     28          8           0       -3.924961   -0.835442   -0.884886
     29          1           0       -3.084602   -1.341182   -0.896643
     30          1           0       -4.034836   -0.521646   -1.795324
 ---------------------------------------------------------------------
 Rotational constants (GHZ):      0.6425394      0.5369365      0.3695096
 Standard basis: 6-31G(d) (6D, 7F)
 There are   242 symmetry adapted cartesian basis functions of A   symmetry.
 There are   242 symmetry adapted basis functions of A   symmetry.
   242 basis functions,   456 primitive gaussians,   242 cartesian basis functions
    58 alpha electrons       58 beta electrons
       nuclear repulsion energy      1102.0822319023 Hartrees.
 NAtoms=   30 NActive=   30 NUniq=   30 SFac= 1.00D+00 NAtFMM=   60 NAOKFM=F Big=F
 Integral buffers will be    131072 words long.
 Raffenetti 2 integral format.
 Two-electron integral symmetry is turned on.
 One-electron integrals computed using PRISM.
 NBasis=   242 RedAO= T EigKep=  1.62D-03  NBF=   242
 NBsUse=   242 1.00D-06 EigRej= -1.00D+00 NBFU=   242
 ExpMin= 1.61D-01 ExpMax= 5.48D+03 ExpMxC= 8.25D+02 IAcc=1 IRadAn=         1 AccDes= 0.00D+00
 Harris functional with IExCor=  402 and IRadAn=       1 diagonalized for initial guess.
 HarFok:  IExCor=  402 AccDes= 0.00D+00 IRadAn=         1 IDoV= 1 UseB2=F ITyADJ=14
 ICtDFT=  3500011 ScaDFX=  1.000000  1.000000  1.000000  1.000000
 FoFCou: FMM=F IPFlag=           0 FMFlag=      100000 FMFlg1=           0
         NFxFlg=           0 DoJE=T BraDBF=F KetDBF=T FulRan=T
         wScrn=  0.000000 ICntrl=     500 IOpCl=  0 I1Cent=   200000004 NGrid=           0
         NMat0=    1 NMatS0=      1 NMatT0=    0 NMatD0=    1 NMtDS0=    0 NMtDT0=    0
 Petite list used in FoFCou.
 Requested convergence on RMS density matrix=1.00D-08 within 128 cycles.
 Requested convergence on MAX density matrix=1.00D-06.
 Requested convergence on             energy=1.00D-06.
 No special actions if energy rises.
 Integral accuracy reduced to 1.0D-05 until final iterations.
 Initial convergence to 1.0D-05 achieved.  Increase integral accuracy.
 SCF Done:  E(RB3LYP) =  -839.952884875     A.U. after   14 cycles
            NFock= 14  Conv=0.56D-08     -V/T= 2.0083

 **********************************************************************

            Population analysis using the SCF density.

 **********************************************************************

 Orbital symmetries:
       Occupied  (A) (A) (A) (A) (A) (A) (A) (A) (A) (A) (A) (A)
                 (A) (A) (A) (A) (A) (A) (A) (A) (A) (A) (A) (A)
                 (A) (A) (A) (A) (A) (A) (A) (A) (A) (A) (A) (A)
                 (A) (A) (A) (A) (A) (A) (A) (A) (A) (A) (A) (A)
                 (A) (A) (A) (A) (A) (A) (A) (A) (A) (A)
       Virtual   (A) (A) (A) (A) (A) (A) (A) (A) (A) (A) (A) (A)
                 (A) (A) (A) (A) (A) (A) (A) (A) (A) (A) (A) (A)
                 (A) (A) (A) (A) (A) (A) (A) (A) (A) (A) (A) (A)
                 (A) (A) (A) (A) (A) (A) (A) (A) (A) (A) (A) (A)
                 (A) (A) (A) (A) (A) (A) (A) (A) (A) (A) (A) (A)
                 (A) (A) (A) (A) (A) (A) (A) (A) (A) (A) (A) (A)
                 (A) (A) (A) (A) (A) (A) (A) (A) (A) (A) (A) (A)
                 (A) (A) (A) (A) (A) (A) (A) (A) (A) (A) (A) (A)
                 (A) (A) (A) (A) (A) (A) (A) (A) (A) (A) (A) (A)
                 (A) (A) (A) (A) (A) (A) (A) (A) (A) (A) (A) (A)
                 (A) (A) (A) (A) (A) (A) (A) (A) (A) (A) (A) (A)
                 (A) (A) (A) (A) (A) (A) (A) (A) (A) (A) (A) (A)
                 (A) (A) (A) (A) (A) (A) (A) (A) (A) (A) (A) (A)
                 (A) (A) (A) (A) (A) (A) (A) (A) (A) (A) (A) (A)
                 (A) (A) (A) (A) (A) (A) (A) (A) (A) (A) (A) (A)
                 (A) (A) (A) (A)
 The electronic state is 1-A.
 Alpha  occ. eigenvalues --  -19.18650 -19.16549 -19.16171 -19.16074 -19.15177
 Alpha  occ. eigenvalues --  -19.14743 -19.12149 -19.10889 -10.26540 -10.25429
 Alpha  occ. eigenvalues --  -10.25394 -10.25041 -10.23811 -10.23079  -1.06150
 Alpha  occ. eigenvalues --   -1.05025  -1.03578  -1.03192  -1.01403  -1.00906
 Alpha  occ. eigenvalues --   -1.00197  -0.98916  -0.78526  -0.75189  -0.68941
 Alpha  occ. eigenvalues --   -0.65439  -0.61460  -0.56738  -0.55530  -0.54837
 Alpha  occ. eigenvalues --   -0.53334  -0.53133  -0.52767  -0.51198  -0.49143
 Alpha  occ. eigenvalues --   -0.46039  -0.45822  -0.44231  -0.43986  -0.42668
 Alpha  occ. eigenvalues --   -0.41916  -0.41191  -0.40030  -0.39008  -0.38078
 Alpha  occ. eigenvalues --   -0.36545  -0.35234  -0.34924  -0.33691  -0.33543
 Alpha  occ. eigenvalues --   -0.31464  -0.30181  -0.30004  -0.29141  -0.28723
 Alpha  occ. eigenvalues --   -0.26176  -0.25188  -0.23187
 Alpha virt. eigenvalues --    0.02165   0.03915   0.05342   0.05979   0.07407
 Alpha virt. eigenvalues --    0.07803   0.10837   0.12440   0.13623   0.14862
 Alpha virt. eigenvalues --    0.16058   0.16839   0.17255   0.18169   0.18576
 Alpha virt. eigenvalues --    0.20649   0.20876   0.21071   0.22650   0.24027
 Alpha virt. eigenvalues --    0.24908   0.26069   0.27470   0.28031   0.30120
 Alpha virt. eigenvalues --    0.32546   0.33619   0.36768   0.52965   0.53674
 Alpha virt. eigenvalues --    0.54453   0.54861   0.57238   0.58495   0.60559
 Alpha virt. eigenvalues --    0.61931   0.62566   0.63403   0.65631   0.66228
 Alpha virt. eigenvalues --    0.67188   0.70041   0.70404   0.74042   0.75145
 Alpha virt. eigenvalues --    0.77054   0.77707   0.78789   0.79746   0.80102
 Alpha virt. eigenvalues --    0.81780   0.83297   0.83891   0.85157   0.85279
 Alpha virt. eigenvalues --    0.85701   0.86587   0.87461   0.88604   0.89168
 Alpha virt. eigenvalues --    0.90622   0.91095   0.91272   0.93322   0.94118
 Alpha virt. eigenvalues --    0.95499   0.96923   0.99717   1.00352   1.02448
 Alpha virt. eigenvalues --    1.04263   1.04472   1.06218   1.07743   1.08314
 Alpha virt. eigenvalues --    1.10405   1.11068   1.12264   1.13561   1.15135
 Alpha virt. eigenvalues --    1.15960   1.17108   1.19518   1.21482   1.22466
 Alpha virt. eigenvalues --    1.28452   1.31299   1.32795   1.34699   1.36162
 Alpha virt. eigenvalues --    1.41093   1.43703   1.44535   1.45770   1.47047
 Alpha virt. eigenvalues --    1.50096   1.54066   1.55337   1.57569   1.59449
 Alpha virt. eigenvalues --    1.60269   1.62669   1.66393   1.66645   1.68783
 Alpha virt. eigenvalues --    1.70712   1.71546   1.72661   1.73204   1.74705
 Alpha virt. eigenvalues --    1.76123   1.77426   1.78762   1.80098   1.81235
 Alpha virt. eigenvalues --    1.81955   1.82324   1.82928   1.83319   1.85249
 Alpha virt. eigenvalues --    1.88682   1.89928   1.91150   1.94816   1.95018
 Alpha virt. eigenvalues --    1.98144   1.98965   2.02407   2.02867   2.05770
 Alpha virt. eigenvalues --    2.07346   2.08657   2.12323   2.13972   2.15295
 Alpha virt. eigenvalues --    2.19029   2.21656   2.22932   2.25784   2.29169
 Alpha virt. eigenvalues --    2.30165   2.31810   2.33002   2.37261   2.39307
 Alpha virt. eigenvalues --    2.43082   2.43737   2.44619   2.47510   2.49089
 Alpha virt. eigenvalues --    2.50436   2.54001   2.55234   2.57490   2.61525
 Alpha virt. eigenvalues --    2.62609   2.62925   2.64982   2.66795   2.68414
 Alpha virt. eigenvalues --    2.73433   2.75254   2.82595   2.86806   2.89338
 Alpha virt. eigenvalues --    2.93472   2.97051   2.98760   3.05879   3.07508
 Alpha virt. eigenvalues --    3.71436   3.72915   3.76865   3.79757   3.87630
 Alpha virt. eigenvalues --    3.95328   4.03091   4.18873   4.29078   4.35972
 Alpha virt. eigenvalues --    4.43370   4.50123   4.65248   4.78022
          Condensed to atoms (all electrons):
               1          2          3          4          5          6
     1  O    8.545617  -0.040128  -0.014782  -0.000953   0.028202   0.156431
     2  C   -0.040128   5.040347  -0.013900   0.270859   0.000460   0.321649
     3  C   -0.014782  -0.013900   5.030418   0.248219   0.301626  -0.015453
     4  C   -0.000953   0.270859   0.248219   5.183405  -0.035241  -0.029991
     5  C    0.028202   0.000460   0.301626  -0.035241   4.717218   0.000564
     6  C    0.156431   0.321649  -0.015453  -0.029991   0.000564   4.977863
     7  H    0.000087  -0.055690  -0.041502   0.340628   0.000554   0.005700
     8  H   -0.028249  -0.051542   0.000278   0.004704  -0.000847   0.359944
     9  H    0.003705   0.349736   0.003854  -0.046917   0.000064  -0.057002
    10  H    0.001691   0.000916   0.325418  -0.061887  -0.024567   0.001486
    11  C   -0.042344  -0.037901  -0.000255  -0.001852   0.000727   0.320284
    12  H    0.006002   0.006150  -0.000009  -0.000139  -0.000057  -0.049508
    13  H    0.004297  -0.011371  -0.000399   0.000431  -0.000077  -0.034483
    14  H   -0.024658  -0.004305  -0.087586   0.001168   0.348078   0.000669
    15  O   -0.038209  -0.000096  -0.047535   0.003701   0.414531   0.001411
    16  O    0.001808  -0.005290   0.000005   0.000226  -0.000007  -0.041550
    17  H   -0.000018  -0.000945   0.000001   0.000015  -0.000001  -0.003050
    18  O    0.000480   0.003242   0.246792  -0.049320  -0.042638   0.000053
    19  H   -0.000031   0.000035  -0.025175   0.000254   0.005574  -0.000022
    20  O   -0.000403  -0.025270  -0.032849   0.154305   0.002115   0.001847
    21  H    0.000035  -0.003592   0.005690  -0.019989  -0.000187  -0.001015
    22  O    0.001334   0.193956  -0.000408  -0.034824  -0.005201  -0.040916
    23  H   -0.000220  -0.026536  -0.000860  -0.003036   0.000572   0.007053
    24  O   -0.068511  -0.000167  -0.000552   0.000022   0.008023   0.000764
    25  H    0.150033   0.004205   0.001607  -0.000017  -0.005808  -0.002140
    26  H    0.003403   0.000007  -0.000014  -0.000001  -0.000321   0.000044
    27  H    0.006826   0.000102   0.003188  -0.000162  -0.015841  -0.000156
    28  O    0.000000   0.000002   0.006854   0.000204   0.000212  -0.000001
    29  H   -0.000003   0.000530  -0.001443  -0.004381   0.000059  -0.000009
    30  H   -0.000000  -0.000005   0.000475  -0.000293   0.000011   0.000000
               7          8          9         10         11         12
     1  O    0.000087  -0.028249   0.003705   0.001691  -0.042344   0.006002
     2  C   -0.055690  -0.051542   0.349736   0.000916  -0.037901   0.006150
     3  C   -0.041502   0.000278   0.003854   0.325418  -0.000255  -0.000009
     4  C    0.340628   0.004704  -0.046917  -0.061887  -0.001852  -0.000139
     5  C    0.000554  -0.000847   0.000064  -0.024567   0.000727  -0.000057
     6  C    0.005700   0.359944  -0.057002   0.001486   0.320284  -0.049508
     7  H    0.632248  -0.000201  -0.004138   0.007029  -0.000060   0.000007
     8  H   -0.000201   0.618123   0.000959   0.000047  -0.048659  -0.006608
     9  H   -0.004138   0.000959   0.632815  -0.000289  -0.003473   0.000737
    10  H    0.007029   0.000047  -0.000289   0.640482  -0.000181   0.000017
    11  C   -0.000060  -0.048659  -0.003473  -0.000181   4.964744   0.353852
    12  H    0.000007  -0.006608   0.000737   0.000017   0.353852   0.628427
    13  H    0.000148   0.005547  -0.000455   0.000760   0.365073  -0.036039
    14  H    0.000390   0.000664   0.000352   0.007193   0.000063   0.000002
    15  O   -0.000100  -0.000070   0.000001   0.001170  -0.000033   0.000004
    16  O   -0.000002   0.001538   0.018761   0.000004   0.225535  -0.029201
    17  H   -0.000001   0.005248  -0.000139   0.000000  -0.031000  -0.007086
    18  O    0.008008   0.000004  -0.000075  -0.034618  -0.000001  -0.000000
    19  H    0.000644  -0.000000   0.000005  -0.007103  -0.000000   0.000000
    20  O   -0.032154  -0.000120  -0.000233  -0.000157  -0.004220   0.000158
    21  H   -0.004373  -0.000006   0.008643   0.000103   0.000922  -0.000009
    22  O    0.000059   0.001917  -0.033693  -0.000071   0.002624  -0.000059
    23  H    0.009433  -0.000235  -0.003237   0.000027  -0.000288   0.000007
    24  O    0.000000   0.000929   0.000001   0.000036  -0.000037  -0.000045
    25  H    0.000004  -0.004210  -0.000086   0.000218  -0.001715   0.001479
    26  H    0.000000  -0.000056  -0.000000   0.000001  -0.000008   0.000019
    27  H    0.000002  -0.000115  -0.000001  -0.000213  -0.000006   0.000006
    28  O    0.000392  -0.000000   0.000001   0.003190  -0.000000   0.000000
    29  H   -0.000747   0.000000  -0.000034   0.000442   0.000002  -0.000000
    30  H   -0.000012  -0.000000  -0.000000   0.000578   0.000000  -0.000000
              13         14         15         16         17         18
     1  O    0.004297  -0.024658  -0.038209   0.001808  -0.000018   0.000480
     2  C   -0.011371  -0.004305  -0.000096  -0.005290  -0.000945   0.003242
     3  C   -0.000399  -0.087586  -0.047535   0.000005   0.000001   0.246792
     4  C    0.000431   0.001168   0.003701   0.000226   0.000015  -0.049320
     5  C   -0.000077   0.348078   0.414531  -0.000007  -0.000001  -0.042638
     6  C   -0.034483   0.000669   0.001411  -0.041550  -0.003050   0.000053
     7  H    0.000148   0.000390  -0.000100  -0.000002  -0.000001   0.008008
     8  H    0.005547   0.000664  -0.000070   0.001538   0.005248   0.000004
     9  H   -0.000455   0.000352   0.000001   0.018761  -0.000139  -0.000075
    10  H    0.000760   0.007193   0.001170   0.000004   0.000000  -0.034618
    11  C    0.365073   0.000063  -0.000033   0.225535  -0.031000  -0.000001
    12  H   -0.036039   0.000002   0.000004  -0.029201  -0.007086  -0.000000
    13  H    0.548890   0.000017  -0.000003  -0.034216   0.007017   0.000003
    14  H    0.000017   0.644756  -0.053072   0.000002   0.000000   0.002517
    15  O   -0.000003  -0.053072   8.226320   0.000000  -0.000000   0.000236
    16  O   -0.034216   0.000002   0.000000   8.241185   0.235281   0.000000
    17  H    0.007017   0.000000  -0.000000   0.235281   0.401112  -0.000000
    18  O    0.000003   0.002517   0.000236   0.000000  -0.000000   8.335583
    19  H   -0.000000  -0.000408  -0.000143   0.000000  -0.000000   0.215959
    20  O    0.013667  -0.000059  -0.000010  -0.000077  -0.000011   0.000835
    21  H   -0.000895   0.000025   0.000001   0.000109   0.000001  -0.000230
    22  O    0.000024   0.016974   0.000118  -0.000002  -0.000046  -0.000035
    23  H    0.000007  -0.000212  -0.000006   0.000016  -0.000000  -0.000025
    24  O    0.000004   0.002467  -0.062547   0.000000  -0.000000  -0.000000
    25  H   -0.000123   0.000964   0.006333   0.000041  -0.000004  -0.000028
    26  H   -0.000001  -0.000055   0.003691  -0.000000  -0.000000   0.000000
    27  H   -0.000001  -0.005905   0.093958  -0.000000  -0.000000  -0.000014
    28  O    0.000001   0.000000  -0.000000  -0.000000  -0.000000  -0.022955
    29  H    0.000009  -0.000003  -0.000002   0.000000   0.000000   0.003510
    30  H   -0.000001   0.000000  -0.000000  -0.000000  -0.000000   0.001151
              19         20         21         22         23         24
     1  O   -0.000031  -0.000403   0.000035   0.001334  -0.000220  -0.068511
     2  C    0.000035  -0.025270  -0.003592   0.193956  -0.026536  -0.000167
     3  C   -0.025175  -0.032849   0.005690  -0.000408  -0.000860  -0.000552
     4  C    0.000254   0.154305  -0.019989  -0.034824  -0.003036   0.000022
     5  C    0.005574   0.002115  -0.000187  -0.005201   0.000572   0.008023
     6  C   -0.000022   0.001847  -0.001015  -0.040916   0.007053   0.000764
     7  H    0.000644  -0.032154  -0.004373   0.000059   0.009433   0.000000
     8  H   -0.000000  -0.000120  -0.000006   0.001917  -0.000235   0.000929
     9  H    0.000005  -0.000233   0.008643  -0.033693  -0.003237   0.000001
    10  H   -0.007103  -0.000157   0.000103  -0.000071   0.000027   0.000036
    11  C   -0.000000  -0.004220   0.000922   0.002624  -0.000288  -0.000037
    12  H    0.000000   0.000158  -0.000009  -0.000059   0.000007  -0.000045
    13  H   -0.000000   0.013667  -0.000895   0.000024   0.000007   0.000004
    14  H   -0.000408  -0.000059   0.000025   0.016974  -0.000212   0.002467
    15  O   -0.000143  -0.000010   0.000001   0.000118  -0.000006  -0.062547
    16  O    0.000000  -0.000077   0.000109  -0.000002   0.000016   0.000000
    17  H   -0.000000  -0.000011   0.000001  -0.000046  -0.000000  -0.000000
    18  O    0.215959   0.000835  -0.000230  -0.000035  -0.000025  -0.000000
    19  H    0.330194   0.000429  -0.000064  -0.000001   0.000000  -0.000000
    20  O    0.000429   8.300414   0.227685   0.001586  -0.000002  -0.000000
    21  H   -0.000064   0.227685   0.380895  -0.000028  -0.000039   0.000000
    22  O   -0.000001   0.001586  -0.000028   8.294275   0.230389   0.000002
    23  H    0.000000  -0.000002  -0.000039   0.230389   0.388900  -0.000000
    24  O   -0.000000  -0.000000   0.000000   0.000002  -0.000000   8.411271
    25  H    0.000002  -0.000007  -0.000001  -0.000301   0.000025   0.110651
    26  H   -0.000000   0.000000  -0.000000  -0.000000   0.000000   0.235637
    27  H    0.000004   0.000001  -0.000000   0.000009   0.000000   0.175326
    28  O    0.064043  -0.017456   0.000728   0.000000   0.000000  -0.000000
    29  H   -0.007038   0.053873  -0.002728  -0.000007  -0.000003  -0.000000
    30  H   -0.003443   0.000625  -0.000024  -0.000000   0.000000   0.000000
              25         26         27         28         29         30
     1  O    0.150033   0.003403   0.006826   0.000000  -0.000003  -0.000000
     2  C    0.004205   0.000007   0.000102   0.000002   0.000530  -0.000005
     3  C    0.001607  -0.000014   0.003188   0.006854  -0.001443   0.000475
     4  C   -0.000017  -0.000001  -0.000162   0.000204  -0.004381  -0.000293
     5  C   -0.005808  -0.000321  -0.015841   0.000212   0.000059   0.000011
     6  C   -0.002140   0.000044  -0.000156  -0.000001  -0.000009   0.000000
     7  H    0.000004   0.000000   0.000002   0.000392  -0.000747  -0.000012
     8  H   -0.004210  -0.000056  -0.000115  -0.000000   0.000000  -0.000000
     9  H   -0.000086  -0.000000  -0.000001   0.000001  -0.000034  -0.000000
    10  H    0.000218   0.000001  -0.000213   0.003190   0.000442   0.000578
    11  C   -0.001715  -0.000008  -0.000006  -0.000000   0.000002   0.000000
    12  H    0.001479   0.000019   0.000006   0.000000  -0.000000  -0.000000
    13  H   -0.000123  -0.000001  -0.000001   0.000001   0.000009  -0.000001
    14  H    0.000964  -0.000055  -0.005905   0.000000  -0.000003   0.000000
    15  O    0.006333   0.003691   0.093958  -0.000000  -0.000002  -0.000000
    16  O    0.000041  -0.000000  -0.000000  -0.000000   0.000000  -0.000000
    17  H   -0.000004  -0.000000  -0.000000  -0.000000   0.000000  -0.000000
    18  O   -0.000028   0.000000  -0.000014  -0.022955   0.003510   0.001151
    19  H    0.000002  -0.000000   0.000004   0.064043  -0.007038  -0.003443
    20  O   -0.000007   0.000000   0.000001  -0.017456   0.053873   0.000625
    21  H   -0.000001  -0.000000  -0.000000   0.000728  -0.002728  -0.000024
    22  O   -0.000301  -0.000000   0.000009   0.000000  -0.000007  -0.000000
    23  H    0.000025   0.000000   0.000000   0.000000  -0.000003   0.000000
    24  O    0.110651   0.235637   0.175326  -0.000000  -0.000000   0.000000
    25  H    0.309731  -0.005755  -0.015832   0.000000   0.000000   0.000000
    26  H   -0.005755   0.373863  -0.009623  -0.000000  -0.000000  -0.000000
    27  H   -0.015832  -0.009623   0.323730   0.000000   0.000000   0.000000
    28  O    0.000000  -0.000000   0.000000   8.316082   0.213589   0.242142
    29  H    0.000000  -0.000000   0.000000   0.213589   0.334787  -0.015960
    30  H    0.000000  -0.000000   0.000000   0.242142  -0.015960   0.376018
 Mulliken charges:
               1
     1  O   -0.651443
     2  C    0.084543
     3  C    0.108295
     4  C    0.080862
     5  C    0.302205
     6  C    0.119534
     7  H    0.133646
     8  H    0.141015
     9  H    0.130137
    10  H    0.138277
    11  C   -0.061791
    12  H    0.131895
    13  H    0.172169
    14  H    0.149961
    15  O   -0.549649
    16  O   -0.614165
    17  H    0.393626
    18  O   -0.668436
    19  H    0.426284
    20  O   -0.644512
    21  H    0.408346
    22  O   -0.627675
    23  H    0.398271
    24  O   -0.813276
    25  H    0.450732
    26  H    0.399169
    27  H    0.444716
    28  O   -0.807029
    29  H    0.425556
    30  H    0.398736
 Sum of Mulliken charges =  -0.00000
 Mulliken charges with hydrogens summed into heavy atoms:
               1
     1  O   -0.200711
     2  C    0.214681
     3  C    0.246572
     4  C    0.214508
     5  C    0.452166
     6  C    0.260549
    11  C    0.242273
    15  O   -0.549649
    16  O   -0.220539
    18  O   -0.242151
    20  O   -0.236167
    22  O   -0.229405
    24  O    0.030610
    28  O    0.017263
 Electronic spatial extent (au):  <R**2>=           3226.0628
 Charge=              0.0000 electrons
 Dipole moment (field-independent basis, Debye):
    X=              2.3699    Y=             -3.9961    Z=             -1.0109  Tot=              4.7547
 Quadrupole moment (field-independent basis, Debye-Ang):
   XX=            -82.5707   YY=            -89.1080   ZZ=            -75.5805
   XY=              4.9698   XZ=              0.7286   YZ=             -8.8972
 Traceless Quadrupole moment (field-independent basis, Debye-Ang):
   XX=             -0.1509   YY=             -6.6882   ZZ=              6.8392
   XY=              4.9698   XZ=              0.7286   YZ=             -8.8972
 Octapole moment (field-independent basis, Debye-Ang**2):
  XXX=             56.8421  YYY=             -9.3978  ZZZ=             -5.3028  XYY=              2.5458
  XXY=             -8.9133  XXZ=            -36.9786  XZZ=            -19.3740  YZZ=              3.0611
  YYZ=             -2.5174  XYZ=            -14.2838
 Hexadecapole moment (field-independent basis, Debye-Ang**3):
 XXXX=          -1798.4703 YYYY=          -1465.3360 ZZZZ=           -417.4609 XXXY=           -112.7134
 XXXZ=             76.4407 YYYX=            112.0355 YYYZ=            -82.7965 ZZZX=              9.1546
 ZZZY=            -34.7692 XXYY=           -546.0409 XXZZ=           -314.0380 YYZZ=           -290.1836
 XXYZ=            -55.7006 YYXZ=            -22.8898 ZZXY=             47.7944
 N-N= 1.102082231902D+03 E-N=-4.177034484984D+03  KE= 8.330561527013D+02
 Calling FoFJK, ICntrl=      2127 FMM=F ISym2X=0 I1Cent= 0 IOpClX= 0 NMat=1 NMatS=1 NMatT=0.
 ***** Axes restored to original set *****
 -------------------------------------------------------------------
 Center     Atomic                   Forces (Hartrees/Bohr)
 Number     Number              X              Y              Z
 -------------------------------------------------------------------
      1        8           0.005093356   -0.011851244   -0.007229926
      2        6           0.000602725   -0.000601510   -0.000061422
      3        6          -0.001221935    0.000269444    0.000823330
      4        6           0.000685371    0.000412828   -0.000063326
      5        6          -0.013551033    0.009814705    0.006343108
      6        6           0.002614860   -0.004669919    0.000073499
      7        1           0.000073435   -0.000019440    0.000006617
      8        1           0.000153624   -0.000338353    0.000054312
      9        1          -0.000153418   -0.000069291    0.000139151
     10        1           0.000119007    0.000139974    0.000047842
     11        6           0.001382390   -0.002755287    0.000511451
     12        1           0.000070957   -0.000138044    0.000040822
     13        1           0.000054201   -0.000076927    0.000062928
     14        1          -0.000411881    0.000629403    0.000202807
     15        8          -0.012037293    0.002502814    0.000773789
     16        8           0.000713308   -0.002872451   -0.000401220
     17        1           0.000056139   -0.000192161   -0.000053771
     18        8          -0.002820704   -0.001765704    0.000034925
     19        1          -0.000162226   -0.000121510    0.000056487
     20        8           0.000217556    0.000063097    0.000012070
     21        1          -0.000024515    0.000019304    0.000056615
     22        8           0.000501236    0.000253537   -0.000374399
     23        1          -0.000039798    0.000087791   -0.000060315
     24        8           0.017605106    0.011201809   -0.001310130
     25        1          -0.000335850   -0.001754423   -0.000047582
     26        1           0.000497603    0.000699852   -0.000033092
     27        1           0.000458821    0.001244676    0.000507391
     28        8          -0.000155554   -0.000175540   -0.000108764
     29        1           0.000014438    0.000025334   -0.000012877
     30        1           0.000000074    0.000037234    0.000009681
 -------------------------------------------------------------------
 Cartesian Forces:  Max     0.017605106 RMS     0.003647358

 GradGradGradGradGradGradGradGradGradGradGradGradGradGradGradGradGradGrad
 Berny optimization.
 FormGI is forming the generalized inverse of G from B-inverse, IUseBI=4.
 Internal  Forces:  Max     0.020552204 RMS     0.004516530
 Search for a local minimum.
 Step number   1 out of a maximum of  167
 All quantities printed in internal units (Hartrees-Bohrs-Radians)
 Mixed Optimization -- RFO/linear search
 Second derivative matrix not updated -- first step.
 ITU=  0
     Eigenvalues ---    0.00334   0.00379   0.00465   0.00562   0.00576
     Eigenvalues ---    0.00691   0.00710   0.00755   0.01312   0.01388
     Eigenvalues ---    0.01420   0.01544   0.02109   0.02608   0.03413
     Eigenvalues ---    0.03580   0.04187   0.04307   0.04470   0.04583
     Eigenvalues ---    0.04796   0.04812   0.05330   0.05684   0.05752
     Eigenvalues ---    0.05927   0.05997   0.06814   0.07182   0.07542
     Eigenvalues ---    0.07761   0.08444   0.08752   0.09673   0.09907
     Eigenvalues ---    0.10622   0.11320   0.11599   0.11601   0.13123
     Eigenvalues ---    0.13977   0.14018   0.15116   0.15899   0.16000
     Eigenvalues ---    0.16000   0.16318   0.16867   0.17332   0.18599
     Eigenvalues ---    0.18901   0.20426   0.20593   0.21116   0.21962
     Eigenvalues ---    0.22067   0.23407   0.25790   0.27769   0.28598
     Eigenvalues ---    0.29178   0.29720   0.33422   0.33540   0.33658
     Eigenvalues ---    0.33676   0.33677   0.33853   0.34555   0.37826
     Eigenvalues ---    0.41180   0.42376   0.42499   0.42528   0.43626
     Eigenvalues ---    0.45463   0.49390   0.50215   0.53034   0.53230
     Eigenvalues ---    0.53364   0.53462   0.53531   0.84457
 RFO step:  Lambda=-2.55199186D-02 EMin= 3.33773005D-03
 Linear search not attempted -- first point.
 Iteration  1 RMS(Cart)=  0.13308161 RMS(Int)=  0.00408626
 Iteration  2 RMS(Cart)=  0.00665970 RMS(Int)=  0.00179018
 Iteration  3 RMS(Cart)=  0.00003440 RMS(Int)=  0.00179004
 Iteration  4 RMS(Cart)=  0.00000009 RMS(Int)=  0.00179004
 Variable       Old X    -DE/DX   Delta X   Delta X   Delta X     New X
                                 (Linear)    (Quad)   (Total)
    R1        2.66835   0.00318   0.00000   0.00807   0.00865   2.67700
    R2        1.92870   0.00934   0.00000   0.02099   0.02140   1.95010
    R3        2.92140   0.00825   0.00000   0.02632   0.02604   2.94743
    R4        2.90096   0.00548   0.00000   0.01635   0.01642   2.91738
    R5        2.08316   0.00006   0.00000   0.00016   0.00016   2.08332
    R6        2.69981  -0.00017   0.00000  -0.00038  -0.00038   2.69943
    R7        2.93924   0.00897   0.00000   0.02840   0.02799   2.96723
    R8        2.87730   0.00414   0.00000   0.01098   0.01063   2.88793
    R9        2.07578  -0.00006   0.00000  -0.00017  -0.00017   2.07561
   R10        2.66901   0.00171   0.00000   0.00578   0.00593   2.67495
   R11        2.08113  -0.00004   0.00000  -0.00010  -0.00010   2.08103
   R12        2.73052  -0.00000   0.00000   0.00210   0.00223   2.73275
   R13        2.07879  -0.00002   0.00000  -0.00004  -0.00004   2.07875
   R14        2.34525   0.00109   0.00000   0.00079   0.00025   2.34550
   R15        2.07911   0.00011   0.00000   0.00029   0.00029   2.07940
   R16        2.89633   0.00416   0.00000   0.01312   0.01312   2.90945
   R17        2.07881  -0.00004   0.00000  -0.00010  -0.00010   2.07871
   R18        2.06404  -0.00007   0.00000  -0.00018  -0.00018   2.06386
   R19        2.68447   0.00283   0.00000   0.00630   0.00630   2.69078
   R20        2.90783   0.01880   0.00000   0.14570   0.14573   3.05357
   R21        1.83315   0.00000   0.00000   0.00001   0.00001   1.83316
   R22        1.85824  -0.00001   0.00000  -0.00058  -0.00064   1.85760
   R23        3.53397  -0.00014   0.00000  -0.01014  -0.01027   3.52369
   R24        1.83622  -0.00000   0.00000  -0.00000  -0.00000   1.83622
   R25        3.57325   0.00011   0.00000  -0.00287  -0.00300   3.57025
   R26        1.83440  -0.00004   0.00000  -0.00007  -0.00007   1.83433
   R27        2.82319   0.01512   0.00000   0.11340   0.11399   2.93718
   R28        1.83225   0.00036   0.00000   0.00063   0.00063   1.83289
   R29        1.90859   0.02055   0.00000   0.04357   0.04388   1.95247
   R30        1.85358   0.00000   0.00000  -0.00119  -0.00138   1.85220
   R31        1.83161   0.00000   0.00000   0.00000   0.00000   1.83161
    A1        2.03737   0.01606   0.00000   0.06963   0.06225   2.09963
    A2        2.00703   0.01220   0.00000   0.06391   0.06714   2.07418
    A3        1.89156  -0.00103   0.00000  -0.00763  -0.00858   1.88298
    A4        1.92283  -0.00602   0.00000  -0.01773  -0.01857   1.90426
    A5        1.86144  -0.00614   0.00000  -0.03762  -0.03700   1.82444
    A6        1.86406  -0.00135   0.00000   0.00024  -0.00274   1.86132
    A7        1.91496   0.00223   0.00000  -0.00332  -0.00318   1.91179
    A8        2.00732   0.00213   0.00000   0.01538   0.01677   2.02408
    A9        1.87625  -0.00186   0.00000  -0.01402  -0.01467   1.86158
   A10        1.93794   0.00052   0.00000   0.00084   0.00082   1.93876
   A11        1.84733   0.00058   0.00000   0.00290   0.00127   1.84860
   A12        1.84254  -0.00101   0.00000  -0.00378  -0.00322   1.83932
   A13        1.95204  -0.00032   0.00000  -0.00085  -0.00061   1.95143
   A14        2.05055   0.01029   0.00000   0.06340   0.06427   2.11482
   A15        1.86318  -0.00065   0.00000  -0.00998  -0.01074   1.85243
   A16        1.93862  -0.00685   0.00000  -0.03136  -0.03163   1.90700
   A17        1.84921  -0.00508   0.00000  -0.03717  -0.03593   1.81327
   A18        1.85417   0.00020   0.00000   0.01092   0.00964   1.86381
   A19        1.90284   0.00191   0.00000   0.00094   0.00069   1.90353
   A20        2.02221  -0.00235   0.00000   0.00748   0.00726   2.02947
   A21        2.08824   0.00958   0.00000   0.04389   0.03394   2.12217
   A22        2.11094  -0.00447   0.00000   0.00015  -0.00066   2.11028
   A23        1.92743  -0.00340   0.00000  -0.01087  -0.01159   1.91584
   A24        1.93472   0.00163   0.00000   0.00928   0.00846   1.94318
   A25        1.85430   0.00205   0.00000   0.01838   0.01910   1.87340
   A26        1.86083  -0.00136   0.00000  -0.01831  -0.01990   1.84094
   A27        1.96752   0.00223   0.00000   0.00691   0.00888   1.97640
   A28        1.92030  -0.00111   0.00000  -0.00504  -0.00497   1.91534
   A29        1.89362  -0.00059   0.00000  -0.00122  -0.00123   1.89239
   A30        1.90472  -0.00067   0.00000  -0.00320  -0.00319   1.90153
   A31        1.96731   0.00284   0.00000   0.01204   0.01204   1.97935
   A32        1.88259   0.00027   0.00000  -0.00082  -0.00083   1.88176
   A33        1.95434  -0.00092   0.00000  -0.00248  -0.00250   1.95184
   A34        1.85884  -0.00103   0.00000  -0.00493  -0.00493   1.85391
   A35        1.81276  -0.00410   0.00000  -0.00702  -0.00316   1.80960
   A36        1.88330   0.00033   0.00000   0.00177   0.00177   1.88507
   A37        1.85082  -0.00059   0.00000   0.01718   0.01746   1.86828
   A38        2.71932   0.00023   0.00000   0.00512   0.00521   2.72454
   A39        1.89490   0.00012   0.00000  -0.00227  -0.00253   1.89237
   A40        1.82750   0.00069   0.00000   0.02316   0.02347   1.85098
   A41        2.01298  -0.00127   0.00000  -0.00559  -0.00577   2.00721
   A42        1.89292  -0.00001   0.00000  -0.00008  -0.00008   1.89284
   A43        1.90755   0.00094   0.00000   0.00419   0.00679   1.91434
   A44        1.59459   0.01021   0.00000   0.09760   0.09749   1.69209
   A45        1.82734  -0.00041   0.00000   0.00522   0.00262   1.82996
   A46        2.65603  -0.00429   0.00000   0.00493   0.00609   2.66212
   A47        2.60026   0.01216   0.00000   0.06502   0.06325   2.66351
   A48        1.62865   0.00070   0.00000  -0.00477  -0.00519   1.62346
   A49        1.89467   0.00003   0.00000   0.00113   0.00100   1.89567
   A50        1.82636   0.00045   0.00000   0.00120   0.00116   1.82752
   A51        2.74987   0.00102   0.00000   0.00286   0.00273   2.75261
    D1        2.30811  -0.00754   0.00000  -0.14052  -0.14497   2.16314
    D2        0.24974  -0.00473   0.00000  -0.11680  -0.11839   0.13135
    D3       -1.83617  -0.00553   0.00000  -0.12692  -0.12897  -1.96515
    D4       -2.63147   0.00608   0.00000   0.16157   0.16088  -2.47059
    D5       -0.79760  -0.00486   0.00000  -0.12279  -0.11966  -0.91726
    D6       -2.86921  -0.00426   0.00000  -0.10708  -0.10491  -2.97412
    D7        1.34158  -0.00237   0.00000  -0.08478  -0.08278   1.25881
    D8       -2.87826  -0.00411   0.00000  -0.11028  -0.10903  -2.98729
    D9        1.33331  -0.00351   0.00000  -0.09456  -0.09428   1.23904
   D10       -0.73907  -0.00162   0.00000  -0.07227  -0.07215  -0.81122
   D11        1.30958  -0.00261   0.00000  -0.09094  -0.08936   1.22023
   D12       -0.76203  -0.00201   0.00000  -0.07523  -0.07460  -0.83663
   D13       -2.83442  -0.00012   0.00000  -0.05293  -0.05247  -2.88689
   D14        0.62502  -0.00201   0.00000  -0.04025  -0.03826   0.58676
   D15        2.72820  -0.00279   0.00000  -0.04633  -0.04624   2.68196
   D16       -1.44611  -0.00374   0.00000  -0.06064  -0.06034  -1.50645
   D17        2.72235  -0.00016   0.00000  -0.03729  -0.03543   2.68692
   D18       -1.45765  -0.00094   0.00000  -0.04337  -0.04342  -1.50107
   D19        0.65122  -0.00189   0.00000  -0.05768  -0.05751   0.59371
   D20       -1.51405  -0.00128   0.00000  -0.05959  -0.05795  -1.57200
   D21        0.58913  -0.00206   0.00000  -0.06567  -0.06593   0.52320
   D22        2.69800  -0.00301   0.00000  -0.07998  -0.08002   2.61798
   D23        0.92671  -0.00473   0.00000  -0.03180  -0.03270   0.89401
   D24        3.11763   0.00568   0.00000   0.03634   0.03701  -3.12854
   D25       -1.15443  -0.00114   0.00000  -0.00941  -0.00918  -1.16361
   D26       -0.22996  -0.00333   0.00000  -0.03632  -0.03323  -0.26319
   D27        1.84907  -0.00166   0.00000  -0.03809  -0.03599   1.81309
   D28       -2.41178  -0.00174   0.00000  -0.04919  -0.04737  -2.45915
   D29        1.82222  -0.00261   0.00000  -0.03315  -0.03189   1.79033
   D30       -2.38193  -0.00094   0.00000  -0.03491  -0.03465  -2.41658
   D31       -0.35959  -0.00103   0.00000  -0.04602  -0.04604  -0.40563
   D32       -2.32062  -0.00391   0.00000  -0.04292  -0.04168  -2.36230
   D33       -0.24158  -0.00224   0.00000  -0.04468  -0.04444  -0.28602
   D34        1.78075  -0.00233   0.00000  -0.05579  -0.05583   1.72493
   D35       -0.69008   0.00038   0.00000   0.00192   0.00191  -0.68817
   D36        2.81818  -0.00640   0.00000  -0.14424  -0.14645   2.67173
   D37       -2.75852   0.00108   0.00000   0.00852   0.00966  -2.74886
   D38        0.74974  -0.00570   0.00000  -0.13764  -0.13870   0.61104
   D39        1.45256   0.00165   0.00000   0.00992   0.01129   1.46384
   D40       -1.32237  -0.00513   0.00000  -0.13624  -0.13708  -1.45945
   D41       -1.27269   0.00028   0.00000   0.00847   0.00903  -1.26366
   D42        2.82416  -0.00200   0.00000  -0.00851  -0.01006   2.81411
   D43        0.82318  -0.00195   0.00000  -0.00937  -0.00944   0.81375
   D44        0.94886  -0.00453   0.00000  -0.04035  -0.04049   0.90838
   D45        3.10790  -0.00558   0.00000  -0.03480  -0.03498   3.07292
   D46       -3.08530   0.00401   0.00000   0.02677   0.02648  -3.05881
   D47       -0.92626   0.00297   0.00000   0.03233   0.03199  -0.89427
   D48       -1.09950  -0.00087   0.00000  -0.01030  -0.00993  -1.10942
   D49        1.05954  -0.00192   0.00000  -0.00475  -0.00442   1.05512
   D50       -2.61558   0.01092   0.00000   0.18839   0.19207  -2.42351
   D51        0.91164   0.00312   0.00000   0.03245   0.03475   0.94640
   D52        0.96754   0.00121   0.00000   0.00629   0.00582   0.97336
   D53       -1.07949   0.00159   0.00000   0.00973   0.00926  -1.07023
   D54       -3.14097   0.00157   0.00000   0.01057   0.01010  -3.13086
   D55        3.08088  -0.00031   0.00000   0.00918   0.00975   3.09063
   D56        1.03385   0.00007   0.00000   0.01262   0.01320   1.04704
   D57       -1.02763   0.00005   0.00000   0.01346   0.01404  -1.01359
   D58       -1.12777  -0.00134   0.00000  -0.01289  -0.01300  -1.14076
   D59        3.10839  -0.00096   0.00000  -0.00945  -0.00956   3.09883
   D60        1.04692  -0.00098   0.00000  -0.00862  -0.00871   1.03820
   D61       -1.17653  -0.00023   0.00000  -0.00341  -0.00342  -1.17995
   D62        0.96449   0.00042   0.00000   0.00212   0.00211   0.96660
   D63        3.01844  -0.00037   0.00000  -0.00324  -0.00323   3.01521
   D64        0.78096  -0.00151   0.00000   0.08384   0.07583   0.85679
   D65        0.21004   0.00041   0.00000   0.00985   0.00927   0.21931
   D66        0.21890   0.00113   0.00000   0.00509   0.00484   0.22374
   D67       -1.64252   0.00039   0.00000   0.00538   0.00535  -1.63716
   D68        0.17758  -0.00071   0.00000  -0.01529  -0.01493   0.16265
   D69        2.25882  -0.00081   0.00000  -0.00530  -0.00511   2.25371
   D70       -1.73639  -0.00089   0.00000   0.01572   0.01262  -1.72377
   D71        0.11534   0.00258   0.00000   0.05805   0.05509   0.17043
   D72       -0.16164  -0.00356   0.00000  -0.01490  -0.02295  -0.18459
   D73        1.76453   0.00031   0.00000   0.01828   0.01511   1.77964
   D74        0.05737  -0.00034   0.00000  -0.00605  -0.00565   0.05172
   D75        1.98000  -0.00003   0.00000  -0.00611  -0.00598   1.97401
         Item               Value     Threshold  Converged?
 Maximum Force            0.020552     0.000450     NO 
 RMS     Force            0.004517     0.000300     NO 
 Maximum Displacement     0.455293     0.001800     NO 
 RMS     Displacement     0.133399     0.001200     NO 
 Predicted change in Energy=-1.767793D-02
 GradGradGradGradGradGradGradGradGradGradGradGradGradGradGradGradGradGrad

                          Input orientation:                          
 ---------------------------------------------------------------------
 Center     Atomic      Atomic             Coordinates (Angstroms)
 Number     Number       Type             X           Y           Z
 ---------------------------------------------------------------------
      1          8           0        1.359488    0.568793   -0.676809
      2          6           0        0.563701   -1.043868    0.946647
      3          6           0       -1.362527    0.673841    0.067732
      4          6           0       -0.906590   -0.762536    0.508690
      5          6           0       -0.414490    1.817003    0.428128
      6          6           0        1.714292   -0.618750    0.009219
      7          1           0       -1.534607   -0.981479    1.386402
      8          1           0        2.583152   -0.457911    0.664987
      9          1           0        0.682419   -2.134705    1.053260
     10          1           0       -1.418668    0.663522   -1.029149
     11          6           0        2.054587   -1.678756   -1.054265
     12          1           0        2.842697   -1.275624   -1.707244
     13          1           0        1.170842   -1.859992   -1.669847
     14          1           0        0.067238    1.757398    1.415267
     15          8           0       -0.373745    2.862795   -0.239106
     16          8           0        2.418890   -2.938979   -0.500547
     17          1           0        3.266982   -2.831211   -0.042119
     18          8           0       -2.604221    1.016506    0.654653
     19          1           0       -3.294077    0.482095    0.202112
     20          8           0       -1.265082   -1.662535   -0.564954
     21          1           0       -1.061850   -2.570626   -0.285245
     22          8           0        0.805970   -0.411764    2.204538
     23          1           0        0.101598   -0.671769    2.819750
     24          8           0        2.187660    2.938439   -0.516138
     25          1           0        1.962915    1.403888   -0.618403
     26          1           0        2.377743    3.300121   -1.395798
     27          1           0        1.204627    3.196654   -0.330441
     28          8           0       -3.953130   -0.873704   -0.895341
     29          1           0       -3.087169   -1.330810   -0.938320
     30          1           0       -4.086012   -0.514039   -1.785523
 ---------------------------------------------------------------------
                    Distance matrix (angstroms):
                    1          2          3          4          5
     1  O    0.000000
     2  C    2.422718   0.000000
     3  C    2.823959   2.726421   0.000000
     4  C    2.883220   1.559714   1.570191   0.000000
     5  C    2.434320   3.067622   1.528228   2.627294   0.000000
     6  C    1.416608   1.543812   3.337818   2.671922   3.261915
     7  H    3.877624   2.144802   2.123343   1.101236   3.162981
     8  H    2.086118   2.121523   4.148007   3.506497   3.770570
     9  H    3.280314   1.102446   3.611233   2.168952   4.148494
    10  H    2.802012   3.278526   1.098365   2.158892   2.112475
    11  C    2.382668   2.574776   4.297703   3.471434   4.529256
    12  H    2.581390   3.505805   4.963351   4.385290   4.973271
    13  H    2.630724   2.807262   3.982141   3.204085   4.520517
    14  H    2.731204   2.883257   2.243697   2.849612   1.100026
    15  O    2.908287   4.188894   2.421438   3.739806   1.241186
    16  O    3.668496   3.021182   5.260658   4.100522   5.613363
    17  H    3.949859   3.388212   5.807737   4.690576   5.948131
    18  O    4.205262   3.790268   1.415521   2.463381   2.342441
    19  H    4.736633   4.214896   1.945690   2.709833   3.181994
    20  O    3.446695   2.451965   2.422486   1.446107   3.717110
    21  H    3.983987   2.547737   3.277432   1.980815   4.492133
    22  O    3.093547   1.428474   3.232160   2.435529   3.100413
    23  H    3.917551   1.964818   3.395281   2.523030   3.490013
    24  O    2.515334   4.542658   4.251251   4.931721   2.986711
    25  H    1.031949   3.224699   3.473084   3.767995   2.630199
    26  H    3.002323   5.258140   4.798843   5.560495   3.650057
    27  H    2.655110   4.474792   3.621244   4.564708   2.258407
    28  O    5.509307   4.880946   3.167590   3.356347   4.638259
    29  H    4.842483   4.118773   2.829338   2.678003   4.349611
    30  H    5.661735   5.418976   3.501854   3.928599   4.879967
                    6          7          8          9         10
     6  C    0.000000
     7  H    3.547330   0.000000
     8  H    1.100372   4.213135   0.000000
     9  H    2.110190   2.521135   2.564212   0.000000
    10  H    3.540886   2.924783   4.488014   4.071986   0.000000
    11  C    1.539615   4.396063   2.173861   2.555855   4.189319
    12  H    2.156624   5.368236   2.522597   3.609044   4.730680
    13  H    2.157611   4.175153   3.067882   2.780168   3.672081
    14  H    3.214939   3.173040   3.435162   3.957015   3.062621
    15  O    4.067274   4.332242   4.537369   5.268843   2.559851
    16  O    2.477859   4.798179   2.746115   2.465056   5.290018
    17  H    2.703417   5.340172   2.569080   2.892220   5.928128
    18  O    4.662639   2.381486   5.392852   4.570670   2.089335
    19  H    5.131553   2.576883   5.969899   4.835765   2.250795
    20  O    3.208712   2.084292   4.215777   2.575717   2.376890
    21  H    3.406390   2.354420   4.318859   2.241449   3.337727
    22  O    2.384809   2.544056   2.351748   2.075869   4.069642
    23  H    3.240783   2.197174   3.293455   2.366014   4.348360
    24  O    3.626798   5.730679   3.617549   5.519561   4.294652
    25  H    2.132319   4.684216   2.344798   4.117738   3.485966
    26  H    4.215660   6.432668   4.290901   6.197528   4.636683
    27  H    3.864250   5.282778   4.030763   5.532695   3.713035
    28  O    5.744815   3.326743   6.732792   5.184157   2.967231
    29  H    4.945593   2.817235   5.956936   4.338483   2.601827
    30  H    6.072527   4.097471   7.105343   5.781278   3.012221
                   11         12         13         14         15
    11  C    0.000000
    12  H    1.100006   0.000000
    13  H    1.092150   1.771435   0.000000
    14  H    4.674965   5.162602   4.880715   0.000000
    15  O    5.214112   5.443109   5.170831   2.037969   0.000000
    16  O    1.423898   2.098209   2.022152   5.590757   6.444203
    17  H    1.955120   2.317868   2.826051   5.780801   6.761317
    18  O    5.647064   6.364065   5.284756   2.874743   3.030282
    19  H    5.903894   6.662973   5.378207   3.794282   3.793514
    20  O    3.355576   4.281165   2.682071   4.170406   4.623773
    21  H    3.331516   4.352539   2.721587   4.785223   5.477014
    22  O    3.712695   4.494056   4.152271   2.423621   4.252748
    23  H    4.453783   5.326531   4.765673   2.806172   4.698478
    24  O    4.650352   4.427881   5.038839   3.101833   2.577453
    25  H    3.114654   3.023139   3.519350   2.802565   2.780694
    26  H    5.001029   4.609840   5.306457   3.952280   3.016601
    27  H    5.001597   4.957835   5.231139   2.532313   1.615878
    28  O    6.063499   6.855945   5.275198   5.331506   5.215752
    29  H    5.154819   5.979765   4.352680   5.002667   5.043599
    30  H    6.292714   6.970878   5.427659   5.714364   5.251223
                   16         17         18         19         20
    16  O    0.000000
    17  H    0.970067   0.000000
    18  O    6.497076   7.054179   0.000000
    19  H    6.695930   7.354260   0.983000   0.000000
    20  O    3.899373   4.709433   3.233883   3.050353   0.000000
    21  H    3.506792   4.343477   4.016196   3.813064   0.971683
    22  O    4.038045   4.117981   4.008929   4.649633   3.677468
    23  H    4.640523   4.782587   3.854787   4.440050   3.782281
    24  O    5.881985   5.888844   5.294025   6.049707   5.752632
    25  H    4.368329   4.468641   4.757044   5.399899   4.452614
    26  H    6.303137   6.341642   5.851428   6.531779   6.211959
    27  H    6.256945   6.377428   4.497864   5.281173   5.455839
    28  O    6.709982   7.529265   2.791940   1.864657   2.820817
    29  H    5.752785   6.590115   2.877619   2.151749   1.889297
    30  H    7.060116   7.904129   3.239248   2.360114   3.281231
                   21         22         23         24         25
    21  H    0.000000
    22  O    3.787935   0.000000
    23  H    3.821029   0.970684   0.000000
    24  O    6.400189   4.531556   5.339794   0.000000
    25  H    5.005692   3.550226   4.426482   1.554289   0.000000
    26  H    6.894186   5.404719   6.223150   0.969922   2.090963
    27  H    6.196811   4.427835   5.109312   1.033204   1.967723
    28  O    3.407530   5.698392   5.503045   7.237784   6.345368
    29  H    2.462837   5.087115   4.972491   6.799157   5.751892
    30  H    3.952966   6.313678   6.226515   7.272544   6.452141
                   26         27         28         29         30
    26  H    0.000000
    27  H    1.588047   0.000000
    28  O    7.599422   6.594648   0.000000
    29  H    7.177748   6.267931   0.980143   0.000000
    30  H    7.515307   6.623999   0.969247   1.543552   0.000000
 Stoichiometry    C6H16O8
 Framework group  C1[X(C6H16O8)]
 Deg. of freedom    84
 Full point group                 C1      NOp   1
 Largest Abelian subgroup         C1      NOp   1
 Largest concise Abelian subgroup C1      NOp   1
[...]
 .09514165,0.22440560,-0.00178223,-0.00928009,0.00645524,-0.00018651,-0
 .00178542,-0.00117276,0.00039250,-0.00019872,-0.00067772,0.00023975,-0
 .00038374,0.00011125,-0.00163036,-0.00411976,-0.00077841,-0.00147741,0
 .00081190,-0.00373384,-0.00015748,-0.00004364,0.00012909,0.00048831,-0
 .00043877,0.00032155,-0.00007651,0.00025861,0.00039206,0.00035763,0.00
 008599,0.00019538,0.00031234,0.00004802,0.00057427,-0.00002694,0.00008
 391,0.00004177,0.00006541,0.00015418,0.00007345,-0.00032254,0.00080987
 ,-0.00047566,0.00898213,0.00353599,0.00042811,-0.00030932,-0.00086487,
 0.00034011,-0.00002437,0.00002684,-0.00007696,0.00016771,0.00052065,0.
 00084059,0.00002229,-0.00009868,-0.00043377,-0.00008336,0.00064153,0.0
 0050338,0.00035678,-0.00009476,-0.00019504,0.00030344,0.00170483,0.000
 35237,0.00013422,0.00003099,-0.00003117,-0.14466299,-0.21223675,0.4805
 2824,-0.09662450,-0.14930729,-0.07636644,-0.00017916,-0.00078831,0.000
 26515,-0.00107114,-0.00011156,0.00094457,-0.00036017,-0.00057533,-0.00
 015053,-0.00082535,0.00069560,0.00139531,0.00253991,0.01208416,0.00514
 969,0.00011159,0.00014425,-0.00013165,0.00064974,0.00143372,-0.0000059
 9,0.00010272,0.00012663,-0.00040129,-0.00047789,-0.00046756,-0.0005698
 2,-0.00046099,0.00079348,-0.00310868,-0.00003602,-0.00025265,0.0002086
 6,0.00027463,-0.00004588,0.00011305,0.00009621,-0.00013107,-0.00014573
 ,-0.00066009,-0.00106756,-0.00074366,0.00102619,0.00283453,0.00031631,
 0.00017559,-0.00030334,0.00002127,0.00083515,0.00022501,-0.00022366,-0
 .00018263,-0.00022632,-0.00024520,0.00025188,0.00026282,0.00012690,-0.
 00018330,-0.00003509,0.00004030,-0.00049799,-0.00044076,-0.00062937,-0
 .00002398,0.00021844,0.00005723,-0.00920779,-0.00043769,0.00076232,0.1
 0144993,-0.12044801,-0.27095929,-0.09405620,-0.00112638,0.00283742,0.0
 0125089,-0.00056168,0.00006918,0.00027204,-0.00141228,0.00012312,0.000
 13782,0.00226653,0.00499892,0.00017669,-0.00849414,-0.03236669,-0.0022
 7996,0.00053611,-0.00003367,-0.00017745,-0.00132519,0.00343655,-0.0025
 7828,0.00057253,-0.00009157,-0.00137012,-0.00105181,0.00078584,-0.0000
 8541,0.00034777,-0.00323179,0.00272023,-0.00002976,0.00012569,-0.00012
 401,-0.00015882,-0.00028679,-0.00000902,-0.00009979,-0.00077775,0.0003
 5734,-0.00519466,-0.00369114,0.00135255,0.00040091,0.00213288,-0.00100
 413,0.00008640,-0.00045396,-0.00012769,0.00082613,-0.00094549,-0.00062
 225,-0.00024756,0.00018541,0.00017214,0.00101778,-0.00046256,-0.000571
 95,-0.00080164,-0.00023347,0.00035602,0.00031261,-0.00215989,-0.000908
 25,0.00002395,0.00044625,0.00008368,0.00220376,0.00625845,0.00510135,0
 .12704240,0.29990988,-0.08595701,-0.13125458,-0.09964481,0.00078737,0.
 00432902,0.00098189,0.00032669,0.00015769,0.00024365,-0.00004267,0.000
 35419,0.00005510,0.00147035,0.00099074,-0.00023601,0.01424296,0.026294
 65,0.00973163,0.00014730,-0.00003282,-0.00008283,-0.00138604,0.0007691
 9,-0.00020188,-0.00001167,-0.00029862,-0.00057838,-0.00032870,0.000063
 77,0.00001149,-0.00160307,0.00128333,-0.00324435,-0.00000658,0.0001265
 4,0.00004692,0.00035241,-0.00007099,0.00000505,0.00001126,-0.00020405,
 0.00012056,-0.00147975,-0.00048345,0.00007734,0.00071054,0.00201502,0.
 00016212,0.00004354,-0.00019140,0.00013826,-0.00018209,-0.00030903,-0.
 00038440,-0.00000012,0.00010526,0.00024833,-0.00000642,-0.00059857,-0.
 00047121,-0.00042888,0.00013244,0.00019546,-0.00036543,-0.00087304,-0.
 00019180,-0.00039802,-0.00070570,0.00018008,0.00157401,0.00029454,-0.0
 1315552,0.07141158,0.09715036,0.10420192,-0.00033513,0.00049041,-0.000
 31161,0.00003897,-0.00001792,0.00001416,-0.00024171,0.00004877,0.00017
 449,0.00006837,-0.00019388,-0.00000637,-0.00027684,-0.00053735,0.00026
 052,0.00004747,-0.00029347,0.00033611,-0.00000855,0.00004476,-0.000036
 69,-0.00006397,0.00006059,-0.00009590,-0.00001907,0.00003140,-0.000044
 85,-0.00001470,-0.00009521,-0.00007349,0.00005472,-0.00007757,-0.00012
 097,-0.00002862,0.00003080,0.00003134,-0.00000273,-0.00001916,-0.00001
 847,0.00026966,-0.00000140,-0.00003596,-0.00092358,0.00091205,-0.00100
 886,-0.00004046,0.00016865,0.00005166,0.00002165,-0.00004801,-0.000020
 25,0.00017173,0.00017231,-0.00004035,-0.00006933,-0.00012836,-0.000066
 89,-0.00001780,0.00019247,0.00003829,0.00004924,-0.00005571,-0.0000190
 0,-0.00009173,-0.00005013,0.00004311,0.00007049,-0.00001844,0.00003737
 ,-0.04850214,0.06448517,-0.06287034,0.00003941,-0.00130526,0.00016334,
 0.04434284,-0.00072808,0.00044358,-0.00274996,0.00007064,0.00038716,0.
 00013852,-0.00020368,-0.00005323,0.00020075,-0.00000926,-0.00010719,-0
 .00000752,-0.00014642,-0.00004544,0.00023562,0.00031175,-0.00036602,0.
 00074154,0.00003021,0.00002705,-0.00004733,-0.00014208,0.00019214,-0.0
 0009672,0.00001369,-0.00000804,-0.00011326,-0.00009078,-0.00004321,-0.
 00005256,-0.00009372,-0.00013878,-0.00009782,0.00001183,-0.00001945,-0
 .00000965,-0.00001075,-0.00005408,-0.00001055,0.00003466,0.00004329,-0
 .00011593,0.00069463,-0.00019152,-0.00038288,0.00006632,0.00026665,-0.
 00007546,0.00001301,-0.00004850,0.00001052,0.00021896,0.00003995,-0.00
 007519,-0.00006280,-0.00003936,-0.00001966,0.00003775,0.00003408,-0.00
 006283,-0.00005463,-0.00001996,0.00003545,-0.00018628,-0.00021807,0.00
 008005,-0.00001353,-0.00008438,0.00005769,0.03371548,-0.17125022,0.232
 05482,0.00132093,-0.00275514,0.00652361,-0.03798660,0.17165079,-0.0007
 5105,-0.00193511,-0.00169205,0.00001485,0.00013061,-0.00001874,0.00000
 758,-0.00003203,0.00009304,-0.00003597,0.00012324,-0.00002485,0.000297
 36,0.00056368,0.00002889,-0.00005287,0.00019824,-0.00014682,0.00000360
 ,0.00000046,-0.00000867,0.00000748,0.00004045,0.00001213,0.00001290,-0
 .00001391,0.00000850,-0.00000437,-0.00000803,0.00002393,-0.00002639,0.
 00001365,0.00008973,0.00002748,-0.00002211,-0.00001841,-0.00001320,-0.
 00001704,0.00001833,-0.00009848,-0.00008840,0.00004892,-0.00020231,-0.
 00085184,0.00045532,0.00002405,-0.00006870,-0.00006010,-0.00000653,0.0
 0001690,0.00001620,-0.00009090,-0.00010478,-0.00013433,0.00001920,0.00
 004400,0.00011052,0.00000473,-0.00012725,-0.00006796,-0.00003414,0.000
 01922,0.00001894,0.00009417,0.00003013,0.00002106,-0.00004033,-0.00000
 034,0.00001364,-0.01480492,0.21271615,-0.33445624,0.00069787,0.0022631
 7,0.00344001,0.02610064,-0.23109821,0.35325746,-0.00258461,-0.00412577
 ,0.00004390,0.00078615,-0.00026744,0.00016483,0.00070041,-0.00044768,-
 0.00039428,0.00103363,-0.00156053,0.00037233,-0.00507665,-0.01233667,-
 0.00042546,0.00010337,0.00098583,-0.00131194,-0.00018436,0.00004578,-0
 .00001371,-0.00015999,0.00005314,0.00013152,-0.00033162,0.00005176,0.0
 0006430,0.00022315,-0.00025750,-0.00009860,0.00017041,0.00021122,0.000
 04699,-0.00006597,0.00005368,0.00004832,0.00002285,-0.00002848,-0.0000
 7619,0.00071646,0.00268823,-0.00195853,0.00324117,0.00929395,0.0030136
 5,-0.00036827,-0.00034030,0.00028096,0.00000620,-0.00001222,-0.0000204
 8,0.00099655,0.00168333,0.00148029,-0.00013805,-0.00047459,-0.00100155
 ,-0.00067533,0.00137563,0.00040828,0.00060915,-0.00011658,-0.00019889,
 -0.00209722,0.00051403,-0.00003774,0.00047362,-0.00039226,0.00032088,-
 0.34723665,0.03828541,0.20097770,0.00325468,0.00690467,0.00098699,0.00
 545438,0.00320803,-0.01115065,0.34101879,-0.00219129,0.00073655,0.0012
 2077,-0.00037066,-0.00115381,-0.00061961,-0.00024966,-0.00077637,0.000
 48751,-0.00041481,-0.00032018,-0.00005007,-0.00367854,-0.00134309,0.00
 229035,0.00045847,-0.00120279,0.00055690,0.00002370,0.00004930,-0.0000
 3721,-0.00009246,0.00022631,-0.00019224,0.00011079,0.00033166,-0.00002
 382,-0.00021444,-0.00006310,-0.00023799,-0.00004927,-0.00026644,-0.000
 14948,-0.00003033,0.00006824,0.00006873,0.00001057,-0.00001955,-0.0000
 1694,-0.00060909,0.00036696,-0.00059382,0.00304717,-0.00308888,-0.0008
 8835,0.00002115,0.00044303,0.00011285,0.00005168,-0.00014375,-0.000049
 77,0.00080280,0.00022522,0.00019211,-0.00010303,-0.00008591,-0.0002704
 6,0.00036728,0.00030322,0.00019043,-0.00004515,-0.00015746,-0.00001731
 ,0.00022670,0.00064383,-0.00055234,0.00016560,0.00062471,0.00002529,0.
 06692122,-0.03765170,-0.01644759,0.00695397,-0.00276305,-0.00549890,-0
 .02582222,0.00236817,0.01824381,-0.04524328,0.04261104,0.00059359,0.00
 428728,-0.00051207,0.00011856,0.00100593,0.00118925,-0.00054639,0.0001
 3697,0.00117676,-0.00028493,0.00047562,-0.00027043,0.00238324,0.004650
 45,-0.00005021,0.00004982,-0.00154271,0.00202979,0.00012754,0.00007067
 ,-0.00011497,-0.00014963,0.00021622,-0.00023275,0.00002860,-0.00029361
 ,-0.00028320,-0.00037477,-0.00020605,-0.00030508,-0.00009472,-0.000181
 91,-0.00017178,0.00002622,-0.00006315,-0.00004990,-0.00004427,-0.00006
 088,-0.00001594,0.00071565,-0.00063585,0.00045053,-0.00250977,-0.00311
 665,-0.00489265,0.00022455,0.00045876,-0.00028311,-0.00000096,0.000002
 00,0.00004929,-0.00023712,-0.00058693,-0.00103919,-0.00001817,0.000067
 89,0.00050236,0.00008755,-0.00067347,-0.00042601,-0.00029063,0.0000853
 2,0.00014627,0.00031997,-0.00158914,-0.00107888,-0.00014409,0.00033181
 ,-0.00013655,0.15329052,0.00730623,-0.13619468,0.00120957,-0.00721843,
 -0.00159283,0.03750078,-0.00506323,-0.02101614,-0.19195631,0.00226483,
 0.16322995,-0.00044925,-0.00051140,0.00013056,0.00082391,-0.00029166,0
 .00003372,-0.00070312,-0.00019847,0.00131504,0.00072313,0.00420352,0.0
 0151559,0.00076009,0.00099693,0.00021463,0.00030522,0.00021480,-0.0001
 1786,-0.00034624,-0.00058648,-0.00087999,-0.00015129,-0.00005311,-0.00
 001573,0.00002324,0.00002923,0.00003126,0.00070371,0.00041414,-0.00045
 627,0.00071752,-0.00011013,0.00019523,-0.00025116,0.00004859,-0.000024
 56,0.00033964,-0.00010563,-0.00038173,-0.00008409,-0.00019120,-0.00026
 635,-0.00041070,-0.00066547,-0.00000736,-0.00065311,0.00049639,0.00021
 153,-0.00003798,-0.00017814,0.00003502,0.00449430,-0.00081766,-0.00147
 861,-0.00815181,-0.00070157,-0.00046118,-0.00662605,0.00191694,-0.0091
 6343,0.00036972,-0.00164771,-0.00182673,-0.00077098,-0.00053976,-0.000
 42361,0.00014735,0.00006932,0.00017526,-0.00022695,-0.00040781,-0.0000
 0907,0.00018772,0.00050337,0.00000025,0.00006052,0.00008039,-0.0000279
 2,0.00016520,0.00019745,-0.00003976,0.41403439,-0.00063369,0.00089943,
 0.00005954,0.00002431,0.00073625,0.00009403,0.00653718,-0.00065779,0.0
 0036507,0.00005458,-0.00469493,-0.00045943,0.00015598,0.00156900,0.000
 15505,0.00016510,-0.00082954,0.00018093,0.00014206,0.00059148,0.000366
 96,-0.00007968,0.00015194,0.00000662,-0.00039875,0.00015897,-0.0001751
 3,0.00039014,0.00038421,0.00003249,-0.00036771,-0.00048814,-0.00004224
 ,0.00005817,0.00006257,0.00003749,-0.00004544,-0.00028560,0.00004112,0
 .00014280,-0.00010322,0.00003832,-0.00062501,-0.00127369,0.00008356,0.
 00033243,0.00055054,0.00008847,0.00007825,-0.00009758,-0.00011411,-0.0
 0697955,-0.00594088,-0.01625779,-0.00325828,-0.00618253,0.01023548,0.0
 0415131,0.00592298,0.00515709,-0.00024151,0.00020473,-0.00017295,0.000
 05275,0.00066674,0.00028010,0.00015282,-0.00009232,0.00006235,-0.00046
 254,0.00005065,0.00013311,0.00017195,-0.00023385,-0.00010972,0.0001434
 2,0.00005378,-0.00003485,0.00063412,0.00009860,-0.00013850,-0.08124743
 ,0.18393567,-0.00054915,-0.00004145,0.00070410,0.00100988,-0.00021731,
 -0.00025193,0.00516712,-0.00012139,-0.00167857,-0.00046107,0.00236915,
 0.00131824,0.00019665,0.00218682,0.00070326,0.00040814,-0.00004709,-0.
 00056054,-0.00013064,-0.00033848,-0.00032847,-0.00016212,0.00005456,0.
 00017405,-0.00021700,0.00013271,-0.00002186,-0.00062087,-0.00007384,0.
 00013230,-0.00015321,0.00019087,-0.00066567,-0.00013003,0.00003228,0.0
 0013357,0.00006123,-0.00010564,-0.00024748,0.00009995,0.00005043,0.000
 09099,-0.00086145,-0.00207170,0.00024491,-0.00071315,0.00047841,0.0008
 3859,-0.00001539,-0.00021972,-0.00000476,-0.00663903,-0.01353621,-0.01
 296302,-0.00085543,0.00700294,0.00025126,-0.00932932,0.00305938,-0.004
 70235,0.00009349,-0.00185603,-0.00274031,-0.00115352,-0.00023707,-0.00
 022764,0.00026558,0.00002954,0.00025706,-0.00048048,-0.00019229,0.0002
 7821,0.00026835,0.00011846,-0.00016692,0.00008789,0.00003806,-0.000095
 95,0.00066090,0.00024082,-0.00031258,-0.04205160,-0.24293812,0.5080943
 3,0.00023604,0.00078667,-0.00029297,-0.00111668,0.00065081,0.00004026,
 0.00291482,-0.00009769,0.00049711,-0.00090522,-0.00761435,-0.00219856,
 -0.00044636,-0.00050178,-0.00059064,-0.00038189,-0.00054715,0.00033309
 ,0.00055427,0.00124740,0.00146574,0.00015201,0.00009702,-0.00004439,-0
 .00014397,0.00000473,-0.00008318,-0.00020029,-0.00010508,0.00013737,-0
 .00069596,-0.00008705,-0.00006230,0.00033269,-0.00004570,0.00002855,-0
 .00032424,-0.00006225,0.00067634,0.00008572,0.00007659,0.00023444,0.00
 029608,0.00043599,0.00011642,0.00090010,-0.00048233,-0.00036836,0.0001
 0791,0.00020177,-0.00009119,-0.00326427,-0.00220784,-0.00266021,0.0016
 3834,0.00486643,0.00384114,-0.00126658,0.00444322,0.00095155,-0.001011
 38,0.00254232,0.00123296,0.00109424,0.00082772,0.00057099,-0.00014848,
 -0.00010718,-0.00021450,0.00012101,0.00038650,0.00000179,-0.00015041,-
 0.00051422,-0.00000734,-0.00002806,-0.00004898,0.00002868,-0.00002997,
 -0.00017013,0.00003818,-0.23549256,0.15477280,-0.16565956,0.22200352,0
 .00043123,-0.00043353,0.00006131,0.00010350,-0.00075655,-0.00027081,-0
 .00268946,-0.00035041,-0.00134279,-0.00188513,0.00336694,-0.00114581,-
 0.00041710,-0.00100712,0.00000339,-0.00014553,0.00048533,-0.00022327,-
 0.00015130,-0.00043783,-0.00024145,0.00005206,-0.00007870,0.00003290,0
 .00020406,-0.00006228,0.00009844,-0.00021304,-0.00046574,0.00035983,0.
 00004018,0.00043637,-0.00017617,-0.00000983,-0.00004748,0.00001091,-0.
 00004255,0.00026809,0.00000534,-0.00009496,0.00014170,0.00010755,0.000
 39418,0.00072103,-0.00004715,-0.00009694,-0.00053396,-0.00005979,-0.00
 006372,0.00003132,0.00006219,0.00154453,0.00314798,0.00272075,0.004571
 94,-0.00964268,-0.00416290,0.00104023,-0.01064147,-0.00119903,0.001260
 42,0.00058122,0.00217859,-0.00024347,-0.00036181,-0.00016955,-0.000067
 60,0.00004753,-0.00001000,0.00023394,0.00002659,-0.00004145,-0.0000811
 4,0.00002933,0.00004180,-0.00006756,-0.00003832,0.00001456,-0.00030731
 ,-0.00006246,0.00005413,0.12532822,-0.11559264,0.12759512,-0.14078237,
 0.13823959,0.00015516,0.00048689,-0.00068484,-0.00127481,0.00109444,0.
 00047613,0.00050192,-0.00099006,0.00136051,0.00058089,-0.00717171,-0.0
 0346007,-0.00051011,-0.00067252,-0.00069847,-0.00050887,-0.00033496,0.
 00076627,0.00019781,0.00069438,0.00076989,0.00014461,-0.00002577,-0.00
 023775,-0.00009363,-0.00003531,-0.00008953,0.00022792,0.00027395,-0.00
 009018,0.00020799,-0.00062406,0.00098282,0.00012166,0.00001936,-0.0001
 6844,0.00004493,0.00008056,0.00026686,0.00006189,-0.00002147,0.0000886
 0,0.00049051,0.00076057,0.00001995,0.00118664,-0.00036335,-0.00112374,
 0.00008686,0.00018932,-0.00010172,-0.00203114,0.00053869,-0.00367194,0
 .00329441,-0.00293906,0.00673462,0.00079067,0.00232533,-0.00455672,0.0
 0011266,0.00336730,0.00380587,0.00155078,0.00089022,0.00056950,-0.0001
 6844,-0.00011383,-0.00025857,0.00016483,0.00019790,-0.00014517,-0.0001
 6742,-0.00021663,0.00008113,-0.00002370,-0.00000987,0.00005303,-0.0001
 8154,-0.00015966,0.00015805,-0.11597807,0.11277560,-0.16400767,0.13981
 998,-0.13011254,0.18437258,0.00024271,0.00017681,0.00018368,-0.0000488
 8,-0.00008040,-0.00017438,0.00051739,0.00028316,-0.00045956,-0.0003048
 8,-0.00004105,-0.00031039,-0.00007952,-0.00034711,-0.00004136,-0.00003
 360,0.00000354,-0.00016462,0.00001967,-0.00001230,0.00011109,0.0000511
 6,0.00002742,0.00008358,0.00001394,-0.00001194,0.00001890,-0.00019265,
 -0.00027508,0.00006293,-0.00045067,0.00028570,-0.00041629,0.00010521,-
 0.00003307,0.00006555,-0.00008550,0.00011691,0.00007928,-0.00001849,0.
 00006604,0.00008512,0.00007220,0.00020965,0.00002081,0.00004721,-0.000
 25234,0.00021594,-0.00001713,0.00003373,0.00002445,-0.00031928,-0.0004
 1746,-0.00056022,-0.00046166,-0.00006720,0.00050318,-0.00120878,-0.000
 25747,0.00008064,-0.00009231,0.00010184,-0.00025070,0.00001439,0.00007
 373,0.00011970,-0.00002921,-0.00000871,-0.00001929,0.00007843,0.000205
 81,0.00005512,-0.00005394,-0.00027371,-0.00002483,-0.00002503,-0.00005
 069,-0.00000057,-0.00002747,-0.00007418,-0.00002282,-0.16950038,-0.073
 82057,0.22186385,0.01516954,0.01215453,-0.02880442,0.15661752,0.000184
 32,-0.00039231,0.00010466,-0.00007847,0.00000704,0.00006711,0.00023463
 ,0.00007896,-0.00105446,0.00006626,0.00056256,0.00026358,-0.00019563,0
 .00001711,-0.00001895,-0.00011394,0.00040235,-0.00013135,0.00002357,-0
 .00017911,-0.00000134,0.00002501,-0.00009387,-0.00000679,0.00004042,-0
 .00003381,0.00004666,-0.00057915,-0.00017802,0.00003119,0.00027566,0.0
 0003860,0.00018428,-0.00004242,0.00000163,-0.00003801,0.00003894,0.000
 16958,-0.00000116,-0.00001859,0.00009931,0.00008212,0.00007635,-0.0001
 3577,0.00012724,-0.00004535,-0.00015933,-0.00014689,-0.00001907,0.0000
 2360,0.00002545,-0.00121667,-0.00271793,-0.00078387,0.00289272,0.00504
 528,-0.00077010,0.00040611,-0.00034673,-0.00061353,0.00002957,0.000105
 03,0.00038220,0.00005349,-0.00011269,-0.00006196,-0.00002384,0.0000101
 6,-0.00001501,0.00009031,-0.00003873,0.00003165,-0.00003633,0.00010717
 ,-0.00000127,-0.00006254,-0.00002572,-0.00001566,-0.00007820,0.0000016
 8,-0.00004361,-0.04624570,-0.05956482,0.11841678,-0.01796587,-0.007010
 04,0.02009630,0.06228441,0.06431881,0.00031835,0.00007988,-0.00009238,
 -0.00025187,-0.00004574,-0.00009336,-0.00003336,0.00031514,-0.00080161
 ,-0.00030357,-0.00033318,-0.00049268,-0.00039085,-0.00072341,-0.000033
 12,-0.00014932,0.00004394,-0.00000822,0.00007181,0.00000437,0.00019609
 ,0.00006432,-0.00000105,0.00001502,0.00006818,-0.00002784,0.00002213,-
 0.00055904,-0.00036089,0.00021763,-0.00026430,0.00011391,-0.00011334,0
 .00013585,-0.00003924,0.00002792,-0.00014246,0.00009461,0.00020125,-0.
 00001757,0.00013312,0.00012927,0.00029294,0.00042025,-0.00002058,0.000
 14693,-0.00020334,-0.00006453,-0.00000192,0.00007063,0.00002026,-0.000
 16744,-0.00051482,0.00096351,0.00199715,0.00114836,-0.00327859,-0.0002
 1206,-0.00026665,0.00111170,-0.00027789,0.00022482,-0.00003736,0.00021
 677,0.00006484,0.00009947,-0.00007301,-0.00000720,-0.00006003,0.000166
 97,0.00013921,-0.00003814,-0.00009866,-0.00016297,0.00002999,-0.000045
 99,-0.00002800,0.00003059,-0.00017596,-0.00008884,0.00004670,0.1697517
 4,0.13024944,-0.32424517,0.02225859,0.00585591,-0.02121100,-0.19232435
 ,-0.13615528,0.34747856\\-0.00000471,0.00000932,-0.00000810,0.00000795
 ,-0.00000908,-0.00000882,0.00000545,-0.00001039,0.00000584,-0.00000134
 ,0.00001037,-0.00000013,0.00000541,0.00000489,0.00001273,-0.00000375,-
 0.00000039,0.00000273,0.00000792,-0.00000355,0.00000241,0.00000109,-0.
 00000289,-0.00001256,0.00000382,-0.00000039,-0.00000682,0.00000150,0.0
 0000270,0.00000748,-0.00000585,-0.00000757,-0.00000533,-0.00000876,0.0
 0000375,-0.00001233,-0.00001341,-0.00000090,-0.00000643,0.00000882,-0.
 00000276,0.00000722,0.00001394,-0.00000011,0.00000327,0.00000245,0.000
 00991,-0.00001123,-0.00000146,-0.00000368,-0.00001326,-0.00000890,-0.0
 0000570,0.00001868,-0.00000296,0.00000643,0.00000620,0.00000879,-0.000
 01269,0.00001604,-0.00000484,0.00000241,-0.00000905,0.00000345,0.00000
 106,0.00000649,0.00001297,-0.00000583,-0.00000505,-0.00000438,-0.00000
 980,-0.00001641,-0.00000539,0.00000058,-0.00000001,0.00000150,0.000003
 29,0.00000233,0.00000288,0.00000467,-0.00000228,0.00000040,0.00001264,
 0.00001519,-0.00000841,0.00000769,0.00000663,-0.00001420,-0.00000397,0
 .00000456\\\@


      HUMANKIND PERIODICALLY GOES THROUGH A SPEEDUP OF ITS AFFAIRS, 
      THEREBY EXPERIENCING THE RACE BETWEEN THE RENEWABLE VITALITY
      OF THE LIVING, AND THE BECKONING VITIATION OF DECADENCE.
      IN THIS PERIODIC RACE, ANY PAUSE BECOMES A LUXURY.
      ONLY THEN CAN ONE REFLECT THAT ALL IS PERMITTED;
      ALL IS POSSIBLE.

                              -- THE APOCRYPHA OF MUAD'DIB
                                 CHILDREN OF DUNE, BY FRANK HERBERT
 Job cpu time:       0 days  0 hours 30 minutes 55.1 seconds.
 File lengths (MBytes):  RWF=    221 Int=      0 D2E=      0 Chk=      6 Scr=      1
 Normal termination of Gaussian 09 at Mon Jan 16 01:25:12 2017.
