 Entering Gaussian System, Link 0=g09
 Initial command:
 /global/software/gaussian/g09.e01/l1.exe "/scratch/10464850.yak.local/Gau-13846.inp" -scrdir="/scratch/10464850.yak.local/"
 Entering Link 1 = /global/software/gaussian/g09.e01/l1.exe PID=     13847.
  
 Copyright (c) 1988,1990,1992,1993,1995,1998,2003,2009,2015,
            Gaussian, Inc.  All Rights Reserved.
  
 This is part of the Gaussian(R) 09 program.  It is based on
 the Gaussian(R) 03 system (copyright 2003, Gaussian, Inc.),
 the Gaussian(R) 98 system (copyright 1998, Gaussian, Inc.),
 the Gaussian(R) 94 system (copyright 1995, Gaussian, Inc.),
 the Gaussian 92(TM) system (copyright 1992, Gaussian, Inc.),
 the Gaussian 90(TM) system (copyright 1990, Gaussian, Inc.),
 the Gaussian 88(TM) system (copyright 1988, Gaussian, Inc.),
 the Gaussian 86(TM) system (copyright 1986, Carnegie Mellon
 University), and the Gaussian 82(TM) system (copyright 1983,
 Carnegie Mellon University). Gaussian is a federally registered
 trademark of Gaussian, Inc.
  
 This software contains proprietary and confidential information,
 including trade secrets, belonging to Gaussian, Inc.
  
 This software is provided under written license and may be
 used, copied, transmitted, or stored only in accord with that
 written license.
  
 The following legend is applicable only to US Government
 contracts under FAR:
  
                    RESTRICTED RIGHTS LEGEND
  
 Use, reproduction and disclosure by the US Government is
 subject to restrictions as set forth in subparagraphs (a)
 and (c) of the Commercial Computer Software - Restricted
 Rights clause in FAR 52.227-19.
  
 Gaussian, Inc.
 340 Quinnipiac St., Bldg. 40, Wallingford CT 06492
  
  
 ---------------------------------------------------------------
 Warning -- This program may not be used in any manner that
 competes with the business of Gaussian, Inc. or will provide
 assistance to any competitor of Gaussian, Inc.  The licensee
 of this program is prohibited from giving any competitor of
 Gaussian, Inc. access to this program.  By using this program,
 the user acknowledges that Gaussian, Inc. is engaged in the
 business of creating and licensing software in the field of
 computational chemistry and represents and warrants to the
 licensee that it is not a competitor of Gaussian, Inc. and that
 it will not use this program in any manner prohibited above.
 ---------------------------------------------------------------
  

 Cite this work as:
 Gaussian 09, Revision E.01,
 M. J. Frisch, G. W. Trucks, H. B. Schlegel, G. E. Scuseria, 
 M. A. Robb, J. R. Cheeseman, G. Scalmani, V. Barone, B. Mennucci, 
 G. A. Petersson, H. Nakatsuji, M. Caricato, X. Li, H. P. Hratchian, 
 A. F. Izmaylov, J. Bloino, G. Zheng, J. L. Sonnenberg, M. Hada, 
 M. Ehara, K. Toyota, R. Fukuda, J. Hasegawa, M. Ishida, T. Nakajima, 
 Y. Honda, O. Kitao, H. Nakai, T. Vreven, J. A. Montgomery, Jr., 
 J. E. Peralta, F. Ogliaro, M. Bearpark, J. J. Heyd, E. Brothers, 
 K. N. Kudin, V. N. Staroverov, T. Keith, R. Kobayashi, J. Normand, 
 K. Raghavachari, A. Rendell, J. C. Burant, S. S. Iyengar, J. Tomasi, 
 M. Cossi, N. Rega, J. M. Millam, M. Klene, J. E. Knox, J. B. Cross, 
 V. Bakken, C. Adamo, J. Jaramillo, R. Gomperts, R. E. Stratmann, 
 O. Yazyev, A. J. Austin, R. Cammi, C. Pomelli, J. W. Ochterski, 
 R. L. Martin, K. Morokuma, V. G. Zakrzewski, G. A. Voth, 
 P. Salvador, J. J. Dannenberg, S. Dapprich, A. D. Daniels, 
 O. Farkas, J. B. Foresman, J. V. Ortiz, J. Cioslowski, 
 and D. J. Fox, Gaussian, Inc., Wallingford CT, 2013.
 
 ******************************************
 Gaussian 09:  ES64L-G09RevE.01 30-Nov-2015
                15-Jan-2017 
 ******************************************
 -------------------------
 # b3lyp/6-31g(d) opt freq
 -------------------------
 1/14=-1,18=20,19=15,26=3,38=1/1,3;
 2/9=110,12=2,17=6,18=5,40=1/2;
 3/5=1,6=6,7=1,11=2,16=1,25=1,30=1,71=1,74=-5/1,2,3;
 4//1;
 5/5=2,38=5/2;
 6/7=2,8=2,9=2,10=2,28=1/1;
 7//1,2,3,16;
 1/14=-1,18=20,19=15,26=3/3(2);
 2/9=110/2;
 99//99;
 2/9=110/2;
 3/5=1,6=6,7=1,11=2,16=1,25=1,30=1,71=1,74=-5/1,2,3;
 4/5=5,16=3,69=1/1;
 5/5=2,38=5/2;
 7//1,2,3,16;
 1/14=-1,18=20,19=15,26=3/3(-5);
 2/9=110/2;
 6/7=2,8=2,9=2,10=2,19=2,28=1/1;
 99/9=1/99;
 -----------------------------------
 glo_2w_alpha_ircr_boat5_B3LYP_631Gd
 -----------------------------------
 Symbolic Z-matrix:
 Charge =  0 Multiplicity = 1
 8                     0.33318  -0.67752  -1.05767 
 6                    -0.82326  -0.11565   1.06847 
 6                    -0.31496   1.76777  -0.64914 
 6                    -1.23804   1.2424    0.48614 
 6                     0.92277   0.90779  -0.98747 
 6                    -0.55422  -1.15472  -0.02527 
 1                    -1.20082   1.97765   1.29934 
 1                    -0.041    -2.00998   0.45144 
 1                    -1.65488  -0.50573   1.67745 
 1                    -0.94415   1.85168  -1.54067 
 6                    -1.82482  -1.68039  -0.72381 
 1                    -1.54172  -2.47324  -1.43478 
 1                    -2.28862  -0.87024  -1.28912 
 8                    -2.80661  -2.14373   0.20164 
 1                    -2.50682  -2.99297   0.56208 
 8                     0.18506   3.06205  -0.3607 
 1                     1.03996   2.89574   0.08358 
 8                    -2.5597    1.17579  -0.05792 
 1                    -3.14052   0.75803   0.60577 
 8                     0.30166   0.11781   1.90677 
 1                     0.69981  -0.7408    2.15971 
 1                     1.17149   0.97351  -2.05931 
 8                     1.92813   1.05915  -0.19394 
 1                     2.76637  -1.55553   0.08787 
 8                     2.25944  -2.13116  -0.81054 
 1                     1.99539  -3.01066  -0.5062 
 1                     1.28183  -1.44659  -1.02521 
 8                     3.09263  -0.7169    0.96515 
 1                     4.03865  -0.52277   0.89136 
 1                     2.57101   0.19471   0.52436 
 
 Add virtual bond connecting atoms H30        and O28        Dist= 2.15D+00.
 Add virtual bond connecting atoms O25        and H24        Dist= 2.23D+00.
 Add virtual bond connecting atoms H27        and O25        Dist= 2.29D+00.
 Add virtual bond connecting atoms H27        and O1         Dist= 2.31D+00.
 Add virtual bond connecting atoms O28        and H24        Dist= 2.37D+00.
 Add virtual bond connecting atoms H30        and O23        Dist= 2.45D+00.

 GradGradGradGradGradGradGradGradGradGradGradGradGradGradGradGradGradGrad
 Berny optimization.
 Initialization pass.
                           ----------------------------
                           !    Initial Parameters    !
                           ! (Angstroms and Degrees)  !
 --------------------------                            --------------------------
 ! Name  Definition              Value          Derivative Info.                !
 --------------------------------------------------------------------------------
 ! R1    R(1,6)                  1.4426         estimate D2E/DX2                !
 ! R2    R(1,27)                 1.2217         estimate D2E/DX2                !
 ! R3    R(2,4)                  1.5348         estimate D2E/DX2                !
 ! R4    R(2,6)                  1.5324         estimate D2E/DX2                !
 ! R5    R(2,9)                  1.1021         estimate D2E/DX2                !
 ! R6    R(2,20)                 1.4222         estimate D2E/DX2                !
 ! R7    R(3,4)                  1.5547         estimate D2E/DX2                !
 ! R8    R(3,5)                  1.5447         estimate D2E/DX2                !
 ! R9    R(3,10)                 1.0944         estimate D2E/DX2                !
 ! R10   R(3,16)                 1.4172         estimate D2E/DX2                !
 ! R11   R(4,7)                  1.0969         estimate D2E/DX2                !
 ! R12   R(4,18)                 1.4308         estimate D2E/DX2                !
 ! R13   R(5,22)                 1.1023         estimate D2E/DX2                !
 ! R14   R(5,23)                 1.2897         estimate D2E/DX2                !
 ! R15   R(6,8)                  1.1055         estimate D2E/DX2                !
 ! R16   R(6,11)                 1.5423         estimate D2E/DX2                !
 ! R17   R(11,12)                1.1019         estimate D2E/DX2                !
 ! R18   R(11,13)                1.0913         estimate D2E/DX2                !
 ! R19   R(11,14)                1.4265         estimate D2E/DX2                !
 ! R20   R(14,15)                0.97           estimate D2E/DX2                !
 ! R21   R(16,17)                0.9777         estimate D2E/DX2                !
 ! R22   R(18,19)                0.9759         estimate D2E/DX2                !
 ! R23   R(20,21)                0.9797         estimate D2E/DX2                !
 ! R24   R(23,30)                1.2948         estimate D2E/DX2                !
 ! R25   R(24,25)                1.1813         estimate D2E/DX2                !
 ! R26   R(24,28)                1.2567         estimate D2E/DX2                !
 ! R27   R(25,26)                0.9674         estimate D2E/DX2                !
 ! R28   R(25,27)                1.2126         estimate D2E/DX2                !
 ! R29   R(28,29)                0.9685         estimate D2E/DX2                !
 ! R30   R(28,30)                1.139          estimate D2E/DX2                !
 ! A1    A(6,1,27)             104.502          estimate D2E/DX2                !
 ! A2    A(4,2,6)              112.1247         estimate D2E/DX2                !
 ! A3    A(4,2,9)              108.5976         estimate D2E/DX2                !
 ! A4    A(4,2,20)             106.9872         estimate D2E/DX2                !
 ! A5    A(6,2,9)              106.6705         estimate D2E/DX2                !
 ! A6    A(6,2,20)             113.15           estimate D2E/DX2                !
 ! A7    A(9,2,20)             109.2235         estimate D2E/DX2                !
 ! A8    A(4,3,5)              116.5882         estimate D2E/DX2                !
 ! A9    A(4,3,10)             106.2258         estimate D2E/DX2                !
 ! A10   A(4,3,16)             111.6843         estimate D2E/DX2                !
 ! A11   A(5,3,10)             108.9616         estimate D2E/DX2                !
 ! A12   A(5,3,16)             105.6833         estimate D2E/DX2                !
 ! A13   A(10,3,16)            107.3749         estimate D2E/DX2                !
 ! A14   A(2,4,3)              114.5594         estimate D2E/DX2                !
 ! A15   A(2,4,7)              107.6166         estimate D2E/DX2                !
 ! A16   A(2,4,18)             110.6537         estimate D2E/DX2                !
 ! A17   A(3,4,7)              107.1402         estimate D2E/DX2                !
 ! A18   A(3,4,18)             106.6498         estimate D2E/DX2                !
 ! A19   A(7,4,18)             110.1472         estimate D2E/DX2                !
 ! A20   A(3,5,22)             111.1369         estimate D2E/DX2                !
 ! A21   A(3,5,23)             115.1206         estimate D2E/DX2                !
 ! A22   A(22,5,23)            114.5443         estimate D2E/DX2                !
 ! A23   A(1,6,2)              113.234          estimate D2E/DX2                !
 ! A24   A(1,6,8)              106.1979         estimate D2E/DX2                !
 ! A25   A(1,6,11)             107.1807         estimate D2E/DX2                !
 ! A26   A(2,6,8)              107.3554         estimate D2E/DX2                !
 ! A27   A(2,6,11)             114.1879         estimate D2E/DX2                !
 ! A28   A(8,6,11)             108.3057         estimate D2E/DX2                !
 ! A29   A(6,11,12)            109.0143         estimate D2E/DX2                !
 ! A30   A(6,11,13)            109.3723         estimate D2E/DX2                !
 ! A31   A(6,11,14)            112.5727         estimate D2E/DX2                !
 ! A32   A(12,11,13)           108.005          estimate D2E/DX2                !
 ! A33   A(12,11,14)           111.204          estimate D2E/DX2                !
 ! A34   A(13,11,14)           106.5391         estimate D2E/DX2                !
 ! A35   A(11,14,15)           108.2222         estimate D2E/DX2                !
 ! A36   A(3,16,17)            104.2202         estimate D2E/DX2                !
 ! A37   A(4,18,19)            108.1254         estimate D2E/DX2                !
 ! A38   A(2,20,21)            109.2548         estimate D2E/DX2                !
 ! A39   A(5,23,30)            130.5431         estimate D2E/DX2                !
 ! A40   A(24,25,26)           108.716          estimate D2E/DX2                !
 ! A41   A(24,25,27)           101.8593         estimate D2E/DX2                !
 ! A42   A(26,25,27)           110.419          estimate D2E/DX2                !
 ! A43   A(24,28,29)           109.5205         estimate D2E/DX2                !
 ! A44   A(24,28,30)            98.3399         estimate D2E/DX2                !
 ! A45   A(29,28,30)           104.916          estimate D2E/DX2                !
 ! A46   L(25,24,28,2,-1)      168.3637         estimate D2E/DX2                !
 ! A47   L(1,27,25,8,-1)       175.7721         estimate D2E/DX2                !
 ! A48   L(23,30,28,2,-1)      178.5797         estimate D2E/DX2                !
 ! A49   L(25,24,28,2,-2)      188.9487         estimate D2E/DX2                !
 ! A50   L(1,27,25,8,-2)       188.907          estimate D2E/DX2                !
 ! A51   L(23,30,28,2,-2)      166.8676         estimate D2E/DX2                !
 ! D1    D(27,1,6,2)           120.0466         estimate D2E/DX2                !
 ! D2    D(27,1,6,8)             2.482          estimate D2E/DX2                !
 ! D3    D(27,1,6,11)         -113.1228         estimate D2E/DX2                !
 ! D4    D(6,1,25,24)          -81.2951         estimate D2E/DX2                !
 ! D5    D(6,1,25,26)           32.0234         estimate D2E/DX2                !
 ! D6    D(6,2,4,3)            -48.9929         estimate D2E/DX2                !
 ! D7    D(6,2,4,7)           -168.0104         estimate D2E/DX2                !
 ! D8    D(6,2,4,18)            71.5986         estimate D2E/DX2                !
 ! D9    D(9,2,4,3)           -166.6084         estimate D2E/DX2                !
 ! D10   D(9,2,4,7)             74.3741         estimate D2E/DX2                !
 ! D11   D(9,2,4,18)           -46.0169         estimate D2E/DX2                !
 ! D12   D(20,2,4,3)            75.6144         estimate D2E/DX2                !
 ! D13   D(20,2,4,7)           -43.4031         estimate D2E/DX2                !
 ! D14   D(20,2,4,18)         -163.7941         estimate D2E/DX2                !
 ! D15   D(4,2,6,1)             50.051          estimate D2E/DX2                !
 ! D16   D(4,2,6,8)            166.9375         estimate D2E/DX2                !
 ! D17   D(4,2,6,11)           -72.9888         estimate D2E/DX2                !
 ! D18   D(9,2,6,1)            168.8096         estimate D2E/DX2                !
 ! D19   D(9,2,6,8)            -74.304          estimate D2E/DX2                !
 ! D20   D(9,2,6,11)            45.7698         estimate D2E/DX2                !
 ! D21   D(20,2,6,1)           -71.0689         estimate D2E/DX2                !
 ! D22   D(20,2,6,8)            45.8175         estimate D2E/DX2                !
 ! D23   D(20,2,6,11)          165.8913         estimate D2E/DX2                !
 ! D24   D(4,2,20,21)         -169.2413         estimate D2E/DX2                !
 ! D25   D(6,2,20,21)          -45.261          estimate D2E/DX2                !
 ! D26   D(9,2,20,21)           73.3921         estimate D2E/DX2                !
 ! D27   D(5,3,4,2)             -3.1467         estimate D2E/DX2                !
 ! D28   D(5,3,4,7)            116.1382         estimate D2E/DX2                !
 ! D29   D(5,3,4,18)          -125.9283         estimate D2E/DX2                !
 ! D30   D(10,3,4,2)           118.4603         estimate D2E/DX2                !
 ! D31   D(10,3,4,7)          -122.2548         estimate D2E/DX2                !
 ! D32   D(10,3,4,18)           -4.3213         estimate D2E/DX2                !
 ! D33   D(16,3,4,2)          -124.7695         estimate D2E/DX2                !
 ! D34   D(16,3,4,7)            -5.4847         estimate D2E/DX2                !
 ! D35   D(16,3,4,18)          112.4489         estimate D2E/DX2                !
 ! D36   D(4,3,5,22)           147.4169         estimate D2E/DX2                !
 ! D37   D(4,3,5,23)           -80.2722         estimate D2E/DX2                !
 ! D38   D(10,3,5,22)           27.2606         estimate D2E/DX2                !
 ! D39   D(10,3,5,23)          159.5716         estimate D2E/DX2                !
 ! D40   D(16,3,5,22)          -87.8542         estimate D2E/DX2                !
 ! D41   D(16,3,5,23)           44.4567         estimate D2E/DX2                !
 ! D42   D(4,3,16,17)           92.4878         estimate D2E/DX2                !
 ! D43   D(5,3,16,17)          -35.2414         estimate D2E/DX2                !
 ! D44   D(10,3,16,17)        -151.4404         estimate D2E/DX2                !
 ! D45   D(2,4,18,19)           48.8038         estimate D2E/DX2                !
 ! D46   D(3,4,18,19)          173.9982         estimate D2E/DX2                !
 ! D47   D(7,4,18,19)          -70.0652         estimate D2E/DX2                !
 ! D48   D(3,5,23,30)          122.7372         estimate D2E/DX2                !
 ! D49   D(22,5,23,30)        -106.5744         estimate D2E/DX2                !
 ! D50   D(1,6,11,12)           58.0476         estimate D2E/DX2                !
 ! D51   D(1,6,11,13)          -59.8393         estimate D2E/DX2                !
 ! D52   D(1,6,11,14)         -178.0655         estimate D2E/DX2                !
 ! D53   D(2,6,11,12)         -175.687          estimate D2E/DX2                !
 ! D54   D(2,6,11,13)           66.4261         estimate D2E/DX2                !
 ! D55   D(2,6,11,14)          -51.8001         estimate D2E/DX2                !
 ! D56   D(8,6,11,12)          -56.1469         estimate D2E/DX2                !
 ! D57   D(8,6,11,13)         -174.0338         estimate D2E/DX2                !
 ! D58   D(8,6,11,14)           67.74           estimate D2E/DX2                !
 ! D59   D(6,11,14,15)         -73.8108         estimate D2E/DX2                !
 ! D60   D(12,11,14,15)         48.8544         estimate D2E/DX2                !
 ! D61   D(13,11,14,15)        166.31           estimate D2E/DX2                !
 ! D62   D(5,23,28,24)          26.2253         estimate D2E/DX2                !
 ! D63   D(5,23,28,29)         137.2054         estimate D2E/DX2                !
 ! D64   D(26,25,28,29)        111.9979         estimate D2E/DX2                !
 ! D65   D(26,25,28,30)       -141.0253         estimate D2E/DX2                !
 ! D66   D(27,25,28,29)       -133.5261         estimate D2E/DX2                !
 ! D67   D(27,25,28,30)        -26.5493         estimate D2E/DX2                !
 --------------------------------------------------------------------------------
 Trust Radius=3.00D-01 FncErr=1.00D-07 GrdErr=1.00D-06
 Number of steps in this run=    158 maximum allowed number of steps=    180.
 GradGradGradGradGradGradGradGradGradGradGradGradGradGradGradGradGradGrad

                          Input orientation:                          
 ---------------------------------------------------------------------
 Center     Atomic      Atomic             Coordinates (Angstroms)
 Number     Number       Type             X           Y           Z
 ---------------------------------------------------------------------
      1          8           0        0.333176   -0.677517   -1.057666
      2          6           0       -0.823256   -0.115654    1.068473
      3          6           0       -0.314960    1.767769   -0.649141
      4          6           0       -1.238038    1.242403    0.486137
      5          6           0        0.922770    0.907794   -0.987469
      6          6           0       -0.554216   -1.154723   -0.025271
      7          1           0       -1.200824    1.977653    1.299343
      8          1           0       -0.040999   -2.009976    0.451444
      9          1           0       -1.654878   -0.505732    1.677447
     10          1           0       -0.944152    1.851680   -1.540665
     11          6           0       -1.824824   -1.680393   -0.723814
     12          1           0       -1.541724   -2.473236   -1.434780
     13          1           0       -2.288623   -0.870242   -1.289118
     14          8           0       -2.806605   -2.143731    0.201640
     15          1           0       -2.506815   -2.992968    0.562079
     16          8           0        0.185061    3.062053   -0.360700
     17          1           0        1.039963    2.895743    0.083576
     18          8           0       -2.559703    1.175785   -0.057921
     19          1           0       -3.140518    0.758025    0.605765
     20          8           0        0.301663    0.117812    1.906772
     21          1           0        0.699806   -0.740804    2.159712
     22          1           0        1.171492    0.973505   -2.059310
     23          8           0        1.928129    1.059152   -0.193941
     24          1           0        2.766367   -1.555532    0.087866
     25          8           0        2.259439   -2.131157   -0.810544
     26          1           0        1.995387   -3.010658   -0.506203
     27          1           0        1.281834   -1.446592   -1.025212
     28          8           0        3.092630   -0.716896    0.965145
     29          1           0        4.038646   -0.522769    0.891359
     30          1           0        2.571011    0.194711    0.524358
 ---------------------------------------------------------------------
                    Distance matrix (angstroms):
                    1          2          3          4          5
     1  O    0.000000
     2  C    2.484651   0.000000
     3  C    2.562498   2.599201   0.000000
     4  C    2.922009   1.534757   1.554651   0.000000
     5  C    1.692855   2.884952   1.544668   2.636772   0.000000
     6  C    1.442577   1.532424   2.997902   2.544674   2.713170
     7  H    3.867632   2.139578   2.150673   1.096942   3.299054
     8  H    2.047649   2.140352   3.944325   3.465844   3.393037
     9  H    3.385663   1.102091   3.518124   2.156143   3.967884
    10  H    2.874316   3.269957   1.094412   2.136706   2.163873
    11  C    2.402953   2.581441   3.764982   3.217303   3.783847
    12  H    2.623370   3.512928   4.484228   4.193819   4.207753
    13  H    2.639042   2.876619   3.356191   2.952715   3.683130
    14  O    3.686985   2.966171   4.715077   3.742625   4.963267
    15  H    4.006300   3.371905   5.379210   4.421983   5.420249
    16  O    3.806847   3.627266   1.417177   2.460380   2.361755
    17  H    3.817089   3.675611   1.909192   2.843392   2.261153
    18  O    3.578123   2.439637   2.395591   1.430816   3.614346
    19  H    4.110272   2.519349   3.252407   1.966815   4.367051
    20  O    3.069435   1.422215   3.104074   2.377727   3.063736
    21  H    3.238818   1.975179   3.900300   3.238704   3.559823
    22  H    2.105217   3.866305   2.197492   3.515315   1.102281
    23  O    2.511158   3.247149   2.395995   3.243563   1.289706
    24  H    2.829059   3.990017   4.591523   4.901257   3.259321
    25  O    2.425825   4.134727   4.674955   5.029377   3.324637
    26  H    2.917294   4.336519   5.309567   5.433995   4.091013
    27  H    1.221672   3.253662   3.608781   3.983042   2.381908
    28  O    3.421681   3.963121   4.515656   4.777341   3.340750
    29  H    4.189648   4.882131   5.154958   5.578838   3.909628
    30  H    2.876019   3.451585   3.490049   3.950693   2.347511
                    6          7          8          9         10
     6  C    0.000000
     7  H    3.461861   0.000000
     8  H    1.105489   4.238551   0.000000
     9  H    2.128825   2.552710   2.523973   0.000000
    10  H    3.389237   2.854364   4.438082   4.052008   0.000000
    11  C    1.542315   4.226564   2.161455   2.678575   3.730733
    12  H    2.168032   5.234697   2.454511   3.683725   4.367288
    13  H    2.164811   3.999243   3.062738   3.055325   3.046266
    14  O    2.470401   4.557334   2.780084   2.487473   4.740007
    15  H    2.745317   5.191940   2.656833   2.855904   5.507637
    16  O    4.294210   2.419162   5.141611   4.502056   2.032841
    17  H    4.354254   2.709632   5.036853   4.623054   2.768563
    18  O    3.074786   2.081276   4.092969   2.580254   2.294639
    19  H    3.278074   2.393941   4.158445   2.225469   3.259949
    20  O    2.466711   2.466870   2.600554   2.066265   4.055019
    21  H    2.553047   3.426753   2.253391   2.415031   4.807948
    22  H    3.412439   4.232818   4.083525   4.913233   2.348645
    23  O    3.330425   3.586626   3.703179   4.334616   3.269826
    24  H    3.346598   5.448823   2.867056   4.814172   5.294257
    25  O    3.080054   5.771253   2.626654   4.914670   5.163241
    26  H    3.190026   6.193465   2.462787   4.936336   5.775234
    27  H    2.110959   4.826241   2.061020   4.100471   4.012394
    28  O    3.804222   5.079964   3.428640   4.805288   5.401136
    29  H    4.725882   5.819846   4.364495   5.747559   6.031668
    30  H    3.448204   4.243374   3.418853   4.436031   4.400709
                   11         12         13         14         15
    11  C    0.000000
    12  H    1.101916   0.000000
    13  H    1.091340   1.774448   0.000000
    14  O    1.426549   2.094366   2.027915   0.000000
    15  H    1.959971   2.277931   2.824979   0.970048   0.000000
    16  O    5.163553   5.897021   4.737512   6.030463   6.690366
    17  H    5.458929   6.147882   5.210222   6.340846   6.890974
    18  O    3.023444   4.030803   2.403239   3.338790   4.214938
    19  H    3.073225   4.142585   2.639614   2.948729   3.804397
    20  O    3.830858   4.612762   4.230785   4.205161   4.401443
    21  H    3.946049   4.576696   4.565292   4.254077   4.231677
    22  H    4.219554   4.430756   3.995622   5.536634   6.011200
    23  O    4.676594   5.104638   4.764764   5.729978   6.054748
    24  H    4.664059   4.660502   5.283808   5.605082   5.486123
    25  O    4.109977   3.867238   4.743818   5.166186   5.034281
    26  H    4.051046   3.696246   4.852533   4.930693   4.627241
    27  H    3.129988   3.032198   3.626291   4.325101   4.389149
    28  O    5.287936   5.506506   5.836360   6.117170   6.057784
    29  H    6.191055   6.352619   6.701459   7.068288   7.003811
    30  H    4.939364   5.279276   5.295174   5.872922   5.995585
                   16         17         18         19         20
    16  O    0.000000
    17  H    0.977700   0.000000
    18  O    3.344161   3.991976   0.000000
    19  H    4.159576   4.724293   0.975883   0.000000
    20  O    3.718008   3.403826   3.628600   3.735117   0.000000
    21  H    4.591205   4.201252   4.383561   4.405602   0.979652
    22  H    2.867116   2.881711   4.238902   5.073705   4.149532
    23  O    2.660396   2.058864   4.491407   5.140174   2.818600
    24  H    5.309091   4.774342   5.987351   6.364908   3.490453
    25  O    5.610244   5.249409   5.892914   6.285924   4.034173
    26  H    6.338475   6.012175   6.202911   6.466604   4.298660
    27  H    4.687469   4.488183   4.750781   5.203616   3.464769
    28  O    4.948967   4.247560   6.047956   6.415347   3.061519
    29  H    5.410057   4.618532   6.879275   7.298109   3.925105
    30  H    3.833763   3.135916   5.256023   5.739818   2.658368
                   21         22         23         24         25
    21  H    0.000000
    22  H    4.578372   0.000000
    23  O    3.207538   2.014804   0.000000
    24  H    3.037598   3.681035   2.760187   0.000000
    25  O    3.631523   3.518803   3.266196   1.181296   0.000000
    26  H    3.733346   4.354825   4.082326   1.750634   0.967403
    27  H    3.313704   2.634085   2.717989   1.858669   1.212610
    28  O    2.674541   3.961762   2.419481   1.256732   2.418142
    29  H    3.578283   4.377883   2.852128   1.825074   2.940912
    30  H    2.655368   3.039821   1.294801   1.814398   2.699760
                   26         27         28         29         30
    26  H    0.000000
    27  H    1.795781   0.000000
    28  O    2.937712   2.788003   0.000000
    29  H    3.509655   3.482342   0.968543   0.000000
    30  H    3.415815   2.599427   1.139038   1.674342   0.000000
 Stoichiometry    C6H16O8
 Framework group  C1[X(C6H16O8)]
 Deg. of freedom    84
 Full point group                 C1      NOp   1
 Largest Abelian subgroup         C1      NOp   1
 Largest concise Abelian subgroup C1      NOp   1
                         Standard orientation:                         
 ---------------------------------------------------------------------
 Center     Atomic      Atomic             Coordinates (Angstroms)
 Number     Number       Type             X           Y           Z
 ---------------------------------------------------------------------
      1          8           0        0.323293   -0.645643   -1.059765
      2          6           0       -0.832949   -0.083391    1.066374
      3          6           0       -0.324019    1.799861   -0.651240
      4          6           0       -1.247274    1.274806    0.484038
      5          6           0        0.913422    0.939469   -0.989568
      6          6           0       -0.564259   -1.122550   -0.027370
      7          1           0       -1.209812    2.010044    1.297244
      8          1           0       -0.051331   -1.977976    0.449345
      9          1           0       -1.664703   -0.473188    1.675348
     10          1           0       -0.953182    1.883984   -1.542764
     11          6           0       -1.835044   -1.647792   -0.725913
     12          1           0       -1.552212   -2.440730   -1.436879
     13          1           0       -2.298570   -0.837485   -1.291217
     14          8           0       -2.816981   -2.110799    0.199541
     15          1           0       -2.517478   -2.960137    0.559980
     16          8           0        0.176438    3.093977   -0.362799
     17          1           0        1.031284    2.927378    0.081477
     18          8           0       -2.568961    1.208634   -0.060020
     19          1           0       -3.149917    0.791069    0.603666
     20          8           0        0.292048    0.149696    1.904673
     21          1           0        0.689902   -0.709054    2.157613
     22          1           0        1.162166    1.005096   -2.061409
     23          8           0        1.918831    1.090488   -0.196040
     24          1           0        2.756188   -1.524478    0.085767
     25          8           0        2.249066   -2.099932   -0.812643
     26          1           0        1.984718   -2.979344   -0.508302
     27          1           0        1.271692   -1.415038   -1.027311
     28          8           0        3.082734   -0.685952    0.963046
     29          1           0        4.028815   -0.492144    0.889260
     30          1           0        2.561422    0.225831    0.522259
 ---------------------------------------------------------------------
 Rotational constants (GHZ):      0.7351107      0.5972459      0.4215350
 Standard basis: 6-31G(d) (6D, 7F)
 There are   242 symmetry adapted cartesian basis functions of A   symmetry.
 There are   242 symmetry adapted basis functions of A   symmetry.
   242 basis functions,   456 primitive gaussians,   242 cartesian basis functions
    58 alpha electrons       58 beta electrons
       nuclear repulsion energy      1136.8546744891 Hartrees.
 NAtoms=   30 NActive=   30 NUniq=   30 SFac= 1.00D+00 NAtFMM=   60 NAOKFM=F Big=F
 Integral buffers will be    131072 words long.
 Raffenetti 2 integral format.
 Two-electron integral symmetry is turned on.
 One-electron integrals computed using PRISM.
 NBasis=   242 RedAO= T EigKep=  1.35D-03  NBF=   242
 NBsUse=   242 1.00D-06 EigRej= -1.00D+00 NBFU=   242
 ExpMin= 1.61D-01 ExpMax= 5.48D+03 ExpMxC= 8.25D+02 IAcc=1 IRadAn=         1 AccDes= 0.00D+00
 Harris functional with IExCor=  402 and IRadAn=       1 diagonalized for initial guess.
 HarFok:  IExCor=  402 AccDes= 0.00D+00 IRadAn=         1 IDoV= 1 UseB2=F ITyADJ=14
 ICtDFT=  3500011 ScaDFX=  1.000000  1.000000  1.000000  1.000000
 FoFCou: FMM=F IPFlag=           0 FMFlag=      100000 FMFlg1=           0
         NFxFlg=           0 DoJE=T BraDBF=F KetDBF=T FulRan=T
         wScrn=  0.000000 ICntrl=     500 IOpCl=  0 I1Cent=   200000004 NGrid=           0
         NMat0=    1 NMatS0=      1 NMatT0=    0 NMatD0=    1 NMtDS0=    0 NMtDT0=    0
 Petite list used in FoFCou.
 Requested convergence on RMS density matrix=1.00D-08 within 128 cycles.
 Requested convergence on MAX density matrix=1.00D-06.
 Requested convergence on             energy=1.00D-06.
 No special actions if energy rises.
 Integral accuracy reduced to 1.0D-05 until final iterations.
 Initial convergence to 1.0D-05 achieved.  Increase integral accuracy.
 SCF Done:  E(RB3LYP) =  -839.937014138     A.U. after   14 cycles
            NFock= 14  Conv=0.40D-08     -V/T= 2.0086

 **********************************************************************

            Population analysis using the SCF density.

 **********************************************************************

 Orbital symmetries:
       Occupied  (A) (A) (A) (A) (A) (A) (A) (A) (A) (A) (A) (A)
                 (A) (A) (A) (A) (A) (A) (A) (A) (A) (A) (A) (A)
                 (A) (A) (A) (A) (A) (A) (A) (A) (A) (A) (A) (A)
                 (A) (A) (A) (A) (A) (A) (A) (A) (A) (A) (A) (A)
                 (A) (A) (A) (A) (A) (A) (A) (A) (A) (A)
       Virtual   (A) (A) (A) (A) (A) (A) (A) (A) (A) (A) (A) (A)
                 (A) (A) (A) (A) (A) (A) (A) (A) (A) (A) (A) (A)
                 (A) (A) (A) (A) (A) (A) (A) (A) (A) (A) (A) (A)
                 (A) (A) (A) (A) (A) (A) (A) (A) (A) (A) (A) (A)
                 (A) (A) (A) (A) (A) (A) (A) (A) (A) (A) (A) (A)
                 (A) (A) (A) (A) (A) (A) (A) (A) (A) (A) (A) (A)
                 (A) (A) (A) (A) (A) (A) (A) (A) (A) (A) (A) (A)
                 (A) (A) (A) (A) (A) (A) (A) (A) (A) (A) (A) (A)
                 (A) (A) (A) (A) (A) (A) (A) (A) (A) (A) (A) (A)
                 (A) (A) (A) (A) (A) (A) (A) (A) (A) (A) (A) (A)
                 (A) (A) (A) (A) (A) (A) (A) (A) (A) (A) (A) (A)
                 (A) (A) (A) (A) (A) (A) (A) (A) (A) (A) (A) (A)
                 (A) (A) (A) (A) (A) (A) (A) (A) (A) (A) (A) (A)
                 (A) (A) (A) (A) (A) (A) (A) (A) (A) (A) (A) (A)
                 (A) (A) (A) (A) (A) (A) (A) (A) (A) (A) (A) (A)
                 (A) (A) (A) (A)
 The electronic state is 1-A.
 Alpha  occ. eigenvalues --  -19.18031 -19.17464 -19.16447 -19.16367 -19.14977
 Alpha  occ. eigenvalues --  -19.14624 -19.12199 -19.09979 -10.28136 -10.25753
 Alpha  occ. eigenvalues --  -10.24292 -10.24104 -10.23012 -10.22197  -1.06048
 Alpha  occ. eigenvalues --   -1.03596  -1.02984  -1.01979  -1.01661  -1.01273
 Alpha  occ. eigenvalues --   -0.99728  -0.97109  -0.77601  -0.74520  -0.68700
 Alpha  occ. eigenvalues --   -0.64115  -0.62568  -0.56955  -0.55711  -0.55081
 Alpha  occ. eigenvalues --   -0.54026  -0.52367  -0.50658  -0.49788  -0.49547
 Alpha  occ. eigenvalues --   -0.47400  -0.46561  -0.45326  -0.44256  -0.42903
 Alpha  occ. eigenvalues --   -0.42164  -0.40333  -0.39714  -0.38464  -0.36808
 Alpha  occ. eigenvalues --   -0.35869  -0.34827  -0.34484  -0.33767  -0.32291
 Alpha  occ. eigenvalues --   -0.32195  -0.30945  -0.28966  -0.28665  -0.26915
 Alpha  occ. eigenvalues --   -0.25683  -0.24926  -0.22607
 Alpha virt. eigenvalues --    0.02869   0.04117   0.05289   0.07661   0.08190
 Alpha virt. eigenvalues --    0.08963   0.11720   0.13053   0.13679   0.14479
 Alpha virt. eigenvalues --    0.15527   0.16770   0.17198   0.17924   0.19979
 Alpha virt. eigenvalues --    0.20586   0.21643   0.23342   0.24057   0.24504
 Alpha virt. eigenvalues --    0.25114   0.27030   0.27516   0.29588   0.30140
 Alpha virt. eigenvalues --    0.32378   0.35729   0.37927   0.52035   0.53010
 Alpha virt. eigenvalues --    0.53705   0.54985   0.57162   0.57950   0.59007
 Alpha virt. eigenvalues --    0.60588   0.62139   0.63286   0.63886   0.66358
 Alpha virt. eigenvalues --    0.66662   0.67597   0.69289   0.71173   0.72393
 Alpha virt. eigenvalues --    0.74573   0.75431   0.77762   0.79620   0.80179
 Alpha virt. eigenvalues --    0.81873   0.82269   0.83780   0.84666   0.84944
 Alpha virt. eigenvalues --    0.85790   0.87073   0.88407   0.89311   0.90058
 Alpha virt. eigenvalues --    0.90428   0.92070   0.92596   0.94957   0.96427
 Alpha virt. eigenvalues --    0.96660   0.97904   0.99629   1.01573   1.02760
 Alpha virt. eigenvalues --    1.03772   1.04309   1.05639   1.08010   1.08733
 Alpha virt. eigenvalues --    1.10147   1.11695   1.13051   1.15601   1.17164
 Alpha virt. eigenvalues --    1.19440   1.20420   1.23873   1.25072   1.27852
 Alpha virt. eigenvalues --    1.29120   1.33678   1.35979   1.37001   1.39366
 Alpha virt. eigenvalues --    1.39818   1.42389   1.44656   1.47653   1.51137
 Alpha virt. eigenvalues --    1.52340   1.54229   1.56324   1.58279   1.59644
 Alpha virt. eigenvalues --    1.61216   1.63391   1.67308   1.68422   1.68828
 Alpha virt. eigenvalues --    1.70062   1.70603   1.71998   1.72824   1.73157
 Alpha virt. eigenvalues --    1.74673   1.77832   1.77929   1.78367   1.79631
 Alpha virt. eigenvalues --    1.80850   1.82812   1.83627   1.86251   1.86853
 Alpha virt. eigenvalues --    1.87856   1.89937   1.91091   1.92661   1.95442
 Alpha virt. eigenvalues --    1.97533   2.00787   2.01449   2.04055   2.05423
 Alpha virt. eigenvalues --    2.07036   2.08682   2.11564   2.13135   2.16211
 Alpha virt. eigenvalues --    2.21436   2.23924   2.24798   2.27704   2.31135
 Alpha virt. eigenvalues --    2.32949   2.36141   2.38583   2.40245   2.40649
 Alpha virt. eigenvalues --    2.44516   2.44856   2.46368   2.48767   2.49218
 Alpha virt. eigenvalues --    2.52535   2.53738   2.55177   2.57455   2.61250
 Alpha virt. eigenvalues --    2.62667   2.64577   2.72084   2.72899   2.73718
 Alpha virt. eigenvalues --    2.79510   2.80860   2.84285   2.85927   2.90515
 Alpha virt. eigenvalues --    2.94191   2.96997   3.00049   3.02326   3.10280
 Alpha virt. eigenvalues --    3.70714   3.74717   3.78874   3.84130   3.89454
 Alpha virt. eigenvalues --    3.95933   4.08177   4.10823   4.26715   4.31220
 Alpha virt. eigenvalues --    4.52602   4.58829   4.71492   4.86458
          Condensed to atoms (all electrons):
               1          2          3          4          5          6
     1  O    8.592060  -0.028000  -0.011630  -0.007339   0.071355   0.126796
     2  C   -0.028000   5.015662  -0.016293   0.280712  -0.000873   0.300617
     3  C   -0.011630  -0.016293   4.990533   0.274982   0.304050  -0.025131
     4  C   -0.007339   0.280712   0.274982   5.019905  -0.024641  -0.016930
     5  C    0.071355  -0.000873   0.304050  -0.024641   4.704073  -0.008675
     6  C    0.126796   0.300617  -0.025131  -0.016930  -0.008675   5.131539
     7  H   -0.000040  -0.053264  -0.048410   0.360329   0.002413   0.006111
     8  H   -0.044721  -0.051250   0.000287   0.005152   0.001011   0.333187
     9  H    0.003199   0.356346   0.004815  -0.045785   0.000270  -0.064749
    10  H    0.001649   0.003482   0.350411  -0.062077  -0.031045   0.001119
    11  C   -0.033837  -0.033085   0.000131  -0.005789   0.000802   0.294727
    12  H    0.004633   0.005271  -0.000024  -0.000252  -0.000097  -0.045788
    13  H    0.003589  -0.009066  -0.000844   0.000825   0.000210  -0.038537
    14  O    0.001484  -0.006179   0.000009  -0.000530  -0.000003  -0.041697
    15  H   -0.000004  -0.001044   0.000002   0.000083  -0.000000  -0.002711
    16  O    0.000661   0.002331   0.269944  -0.049223  -0.026883   0.000093
    17  H    0.000531  -0.000355  -0.042315   0.000021  -0.019250   0.000084
    18  O   -0.000240  -0.031514  -0.035821   0.202230   0.001344  -0.002458
    19  H    0.000035  -0.004770   0.006616  -0.024711  -0.000243  -0.001568
    20  O    0.000706   0.192654   0.002478  -0.044090   0.003264  -0.028694
    21  H   -0.000331  -0.020017  -0.000377   0.006021  -0.000081  -0.006043
    22  H   -0.038802  -0.000180  -0.074449   0.005813   0.367512   0.004115
    23  O   -0.042543   0.003703  -0.058350  -0.002293   0.332670   0.001137
    24  H    0.004858   0.000008   0.000082  -0.000008  -0.000168   0.000105
    25  O   -0.096918  -0.000637  -0.000041   0.000008   0.003083   0.006064
    26  H    0.004308   0.000076  -0.000001  -0.000000  -0.000067  -0.000083
    27  H    0.124748   0.003788   0.001489  -0.000032  -0.004574  -0.012680
    28  O   -0.000404  -0.000522  -0.000243   0.000020   0.005579   0.000318
    29  H   -0.000015   0.000009   0.000015  -0.000000  -0.000067  -0.000004
    30  H    0.001052  -0.000930   0.001169  -0.000131  -0.015668   0.000497
               7          8          9         10         11         12
     1  O   -0.000040  -0.044721   0.003199   0.001649  -0.033837   0.004633
     2  C   -0.053264  -0.051250   0.356346   0.003482  -0.033085   0.005271
     3  C   -0.048410   0.000287   0.004815   0.350411   0.000131  -0.000024
     4  C    0.360329   0.005152  -0.045785  -0.062077  -0.005789  -0.000252
     5  C    0.002413   0.001011   0.000270  -0.031045   0.000802  -0.000097
     6  C    0.006111   0.333187  -0.064749   0.001119   0.294727  -0.045788
     7  H    0.603126  -0.000226  -0.005861   0.004397   0.000040   0.000011
     8  H   -0.000226   0.719485  -0.000762   0.000035  -0.053285  -0.008040
     9  H   -0.005861  -0.000762   0.646617  -0.000315  -0.002122   0.000329
    10  H    0.004397   0.000035  -0.000315   0.602986  -0.000081   0.000001
    11  C    0.000040  -0.053285  -0.002122  -0.000081   4.973581   0.347174
    12  H    0.000011  -0.008040   0.000329   0.000001   0.347174   0.639601
    13  H    0.000191   0.005796  -0.000139   0.001230   0.369799  -0.032791
    14  O   -0.000012   0.003618   0.016733   0.000002   0.228034  -0.030302
    15  H   -0.000001   0.004136   0.000309   0.000000  -0.028877  -0.008533
    16  O    0.007473   0.000004  -0.000076  -0.041032   0.000001   0.000000
    17  H    0.000183   0.000002   0.000004   0.007422   0.000001  -0.000000
    18  O   -0.031735  -0.000101  -0.001853   0.005177  -0.002739   0.000468
    19  H   -0.004084  -0.000031   0.009405  -0.000198   0.000538   0.000025
    20  O    0.005323  -0.004161  -0.035868   0.000009   0.003331  -0.000048
    21  H   -0.000298   0.008905  -0.003148   0.000015  -0.000010  -0.000011
    22  H   -0.000195  -0.000176   0.000006  -0.001398  -0.000079   0.000009
    23  O   -0.000004  -0.000230  -0.000032   0.003891  -0.000003   0.000003
    24  H   -0.000000  -0.001067   0.000001  -0.000001   0.000036  -0.000006
    25  O   -0.000000   0.014037   0.000000   0.000001  -0.000123   0.000082
    26  H   -0.000000   0.001270  -0.000002  -0.000000  -0.000011   0.000074
    27  H    0.000007  -0.008222  -0.000104  -0.000049  -0.000784   0.000880
    28  O   -0.000001   0.000182  -0.000005   0.000001   0.000003   0.000000
    29  H   -0.000000   0.000003   0.000000  -0.000000  -0.000000  -0.000000
    30  H    0.000005  -0.000272   0.000054  -0.000030   0.000014  -0.000000
              13         14         15         16         17         18
     1  O    0.003589   0.001484  -0.000004   0.000661   0.000531  -0.000240
     2  C   -0.009066  -0.006179  -0.001044   0.002331  -0.000355  -0.031514
     3  C   -0.000844   0.000009   0.000002   0.269944  -0.042315  -0.035821
     4  C    0.000825  -0.000530   0.000083  -0.049223   0.000021   0.202230
     5  C    0.000210  -0.000003  -0.000000  -0.026883  -0.019250   0.001344
     6  C   -0.038537  -0.041697  -0.002711   0.000093   0.000084  -0.002458
     7  H    0.000191  -0.000012  -0.000001   0.007473   0.000183  -0.031735
     8  H    0.005796   0.003618   0.004136   0.000004   0.000002  -0.000101
     9  H   -0.000139   0.016733   0.000309  -0.000076   0.000004  -0.001853
    10  H    0.001230   0.000002   0.000000  -0.041032   0.007422   0.005177
    11  C    0.369799   0.228034  -0.028877   0.000001   0.000001  -0.002739
    12  H   -0.032791  -0.030302  -0.008533   0.000000  -0.000000   0.000468
    13  H    0.514306  -0.032272   0.006630   0.000005   0.000000   0.018017
    14  O   -0.032272   8.239055   0.232921   0.000000  -0.000000  -0.000609
    15  H    0.006630   0.232921   0.406597  -0.000000   0.000000  -0.000010
    16  O    0.000005   0.000000  -0.000000   8.266874   0.227789   0.001325
    17  H    0.000000  -0.000000   0.000000   0.227789   0.373157  -0.000078
    18  O    0.018017  -0.000609  -0.000010   0.001325  -0.000078   8.285600
    19  H   -0.002285   0.002579  -0.000057  -0.000165   0.000018   0.229385
    20  O   -0.000007   0.000029  -0.000024  -0.000064   0.000603   0.001470
    21  H    0.000016   0.000024  -0.000008   0.000015  -0.000011  -0.000110
    22  H   -0.000078   0.000001  -0.000000   0.001800   0.002482  -0.000082
    23  O    0.000005   0.000000  -0.000000  -0.018961   0.043296   0.000005
    24  H   -0.000000  -0.000000  -0.000000   0.000000  -0.000005  -0.000000
    25  O    0.000003   0.000001  -0.000002   0.000000   0.000001   0.000000
    26  H   -0.000002  -0.000002  -0.000002  -0.000000  -0.000000  -0.000000
    27  H   -0.000048   0.000021   0.000002  -0.000010  -0.000031  -0.000010
    28  O    0.000000  -0.000000  -0.000000  -0.000001   0.000028  -0.000000
    29  H    0.000000   0.000000   0.000000   0.000000  -0.000010   0.000000
    30  H   -0.000001  -0.000000   0.000000   0.000011   0.000283   0.000001
              19         20         21         22         23         24
     1  O    0.000035   0.000706  -0.000331  -0.038802  -0.042543   0.004858
     2  C   -0.004770   0.192654  -0.020017  -0.000180   0.003703   0.000008
     3  C    0.006616   0.002478  -0.000377  -0.074449  -0.058350   0.000082
     4  C   -0.024711  -0.044090   0.006021   0.005813  -0.002293  -0.000008
     5  C   -0.000243   0.003264  -0.000081   0.367512   0.332670  -0.000168
     6  C   -0.001568  -0.028694  -0.006043   0.004115   0.001137   0.000105
     7  H   -0.004084   0.005323  -0.000298  -0.000195  -0.000004  -0.000000
     8  H   -0.000031  -0.004161   0.008905  -0.000176  -0.000230  -0.001067
     9  H    0.009405  -0.035868  -0.003148   0.000006  -0.000032   0.000001
    10  H   -0.000198   0.000009   0.000015  -0.001398   0.003891  -0.000001
    11  C    0.000538   0.003331  -0.000010  -0.000079  -0.000003   0.000036
    12  H    0.000025  -0.000048  -0.000011   0.000009   0.000003  -0.000006
    13  H   -0.002285  -0.000007   0.000016  -0.000078   0.000005  -0.000000
    14  O    0.002579   0.000029   0.000024   0.000001   0.000000  -0.000000
    15  H   -0.000057  -0.000024  -0.000008  -0.000000  -0.000000  -0.000000
    16  O   -0.000165  -0.000064   0.000015   0.001800  -0.018961   0.000000
    17  H    0.000018   0.000603  -0.000011   0.002482   0.043296  -0.000005
    18  O    0.229385   0.001470  -0.000110  -0.000082   0.000005  -0.000000
    19  H    0.390907  -0.000007  -0.000013   0.000011   0.000002  -0.000000
    20  O   -0.000007   8.304323   0.222768   0.000038  -0.006076   0.000370
    21  H   -0.000013   0.222768   0.394593   0.000007   0.000985   0.000180
    22  H    0.000011   0.000038   0.000007   0.663041  -0.055850   0.000002
    23  O    0.000002  -0.006076   0.000985  -0.055850   8.416690   0.006034
    24  H   -0.000000   0.000370   0.000180   0.000002   0.006034   0.302516
    25  O    0.000000  -0.000007   0.000163   0.000022  -0.001830   0.129417
    26  H   -0.000000  -0.000003  -0.000041  -0.000001   0.000068  -0.004591
    27  H   -0.000001  -0.000487  -0.000169  -0.001339   0.005975  -0.008319
    28  O    0.000000  -0.000899   0.006133  -0.000180  -0.086960   0.131793
    29  H   -0.000000   0.000139  -0.000116   0.000002   0.004410  -0.005056
    30  H   -0.000000   0.006340  -0.001599   0.001609   0.109618  -0.011573
              25         26         27         28         29         30
     1  O   -0.096918   0.004308   0.124748  -0.000404  -0.000015   0.001052
     2  C   -0.000637   0.000076   0.003788  -0.000522   0.000009  -0.000930
     3  C   -0.000041  -0.000001   0.001489  -0.000243   0.000015   0.001169
     4  C    0.000008  -0.000000  -0.000032   0.000020  -0.000000  -0.000131
     5  C    0.003083  -0.000067  -0.004574   0.005579  -0.000067  -0.015668
     6  C    0.006064  -0.000083  -0.012680   0.000318  -0.000004   0.000497
     7  H   -0.000000  -0.000000   0.000007  -0.000001  -0.000000   0.000005
     8  H    0.014037   0.001270  -0.008222   0.000182   0.000003  -0.000272
     9  H    0.000000  -0.000002  -0.000104  -0.000005   0.000000   0.000054
    10  H    0.000001  -0.000000  -0.000049   0.000001  -0.000000  -0.000030
    11  C   -0.000123  -0.000011  -0.000784   0.000003  -0.000000   0.000014
    12  H    0.000082   0.000074   0.000880   0.000000  -0.000000  -0.000000
    13  H    0.000003  -0.000002  -0.000048   0.000000   0.000000  -0.000001
    14  O    0.000001  -0.000002   0.000021  -0.000000   0.000000  -0.000000
    15  H   -0.000002  -0.000002   0.000002  -0.000000   0.000000   0.000000
    16  O    0.000000  -0.000000  -0.000010  -0.000001   0.000000   0.000011
    17  H    0.000001  -0.000000  -0.000031   0.000028  -0.000010   0.000283
    18  O    0.000000  -0.000000  -0.000010  -0.000000   0.000000   0.000001
    19  H    0.000000  -0.000000  -0.000001   0.000000  -0.000000  -0.000000
    20  O   -0.000007  -0.000003  -0.000487  -0.000899   0.000139   0.006340
    21  H    0.000163  -0.000041  -0.000169   0.006133  -0.000116  -0.001599
    22  H    0.000022  -0.000001  -0.001339  -0.000180   0.000002   0.001609
    23  O   -0.001830   0.000068   0.005975  -0.086960   0.004410   0.109618
    24  H    0.129417  -0.004591  -0.008319   0.131793  -0.005056  -0.011573
    25  O    8.512611   0.230718   0.130780  -0.100968   0.004043   0.006026
    26  H    0.230718   0.368951  -0.008766   0.004364  -0.000165  -0.000161
    27  H    0.130780  -0.008766   0.284051   0.004795  -0.000110  -0.000829
    28  O   -0.100968   0.004364   0.004795   8.494533   0.229950   0.148562
    29  H    0.004043  -0.000165  -0.000110   0.229950   0.364506  -0.005724
    30  H    0.006026  -0.000161  -0.000829   0.148562  -0.005724   0.277299
 Mulliken charges:
               1
     1  O   -0.636844
     2  C    0.093321
     3  C    0.106916
     4  C    0.127732
     5  C    0.334697
     6  C    0.089241
     7  H    0.154521
     8  H    0.075435
     9  H    0.122733
    10  H    0.154400
    11  C   -0.057388
    12  H    0.127332
    13  H    0.195447
    14  O   -0.612902
    15  H    0.390593
    16  O   -0.641916
    17  H    0.406150
    18  O   -0.637660
    19  H    0.398613
    20  O   -0.623407
    21  H    0.392559
    22  H    0.126342
    23  O   -0.655359
    24  H    0.455391
    25  O   -0.836534
    26  H    0.404070
    27  H    0.490027
    28  O   -0.836078
    29  H    0.408191
    30  H    0.484378
 Sum of Mulliken charges =   0.00000
 Mulliken charges with hydrogens summed into heavy atoms:
               1
     1  O   -0.636844
     2  C    0.216053
     3  C    0.261316
     4  C    0.282253
     5  C    0.461039
     6  C    0.164675
    11  C    0.265390
    14  O   -0.222309
    16  O   -0.235765
    18  O   -0.239047
    20  O   -0.230848
    23  O   -0.655359
    25  O    0.512955
    28  O    0.056490
 Electronic spatial extent (au):  <R**2>=           2874.5114
 Charge=              0.0000 electrons
 Dipole moment (field-independent basis, Debye):
    X=              1.5062    Y=             -6.5882    Z=              1.6920  Tot=              6.9668
 Quadrupole moment (field-independent basis, Debye-Ang):
   XX=            -79.7180   YY=            -80.3525   ZZ=            -85.1300
   XY=             -0.1879   XZ=             -0.9975   YZ=             -1.9820
 Traceless Quadrupole moment (field-independent basis, Debye-Ang):
   XX=              2.0155   YY=              1.3810   ZZ=             -3.3965
   XY=             -0.1879   XZ=             -0.9975   YZ=             -1.9820
 Octapole moment (field-independent basis, Debye-Ang**2):
  XXX=             76.4158  YYY=            -91.6377  ZZZ=              1.0800  XYY=             12.4329
  XXY=             -1.5441  XXZ=             25.3345  XZZ=             -5.8301  YZZ=             -2.4026
  YYZ=             18.0392  XYZ=             -4.4789
 Hexadecapole moment (field-independent basis, Debye-Ang**3):
 XXXX=          -1378.0922 YYYY=          -1213.7894 ZZZZ=           -482.1669 XXXY=            -52.4447
 XXXZ=             26.2641 YYYX=             31.1446 YYYZ=             15.3129 ZZZX=              1.3901
 ZZZY=            -21.8539 XXYY=           -472.1173 XXZZ=           -345.1533 YYZZ=           -287.6700
 XXYZ=             -2.5299 YYXZ=             -1.5328 ZZXY=              8.2453
 N-N= 1.136854674489D+03 E-N=-4.246597921875D+03  KE= 8.327437538761D+02
 Calling FoFJK, ICntrl=      2127 FMM=F ISym2X=0 I1Cent= 0 IOpClX= 0 NMat=1 NMatS=1 NMatT=0.
 ***** Axes restored to original set *****
 -------------------------------------------------------------------
 Center     Atomic                   Forces (Hartrees/Bohr)
 Number     Number              X              Y              Z
 -------------------------------------------------------------------
      1        8           0.001485674    0.001096895    0.002597409
      2        6          -0.001313762   -0.001656366    0.001581420
      3        6          -0.000861735    0.001376558    0.000649662
      4        6           0.000630421    0.001210950    0.001336011
      5        6          -0.002007523   -0.001656107   -0.004990674
      6        6          -0.000383802   -0.001192073   -0.000752319
      7        1           0.001505739    0.000303314    0.000321053
      8        1          -0.001447216   -0.000124947    0.001726143
      9        1          -0.000981458   -0.000269858   -0.001585633
     10        1          -0.000266774   -0.000424792   -0.000054995
     11        6          -0.000236100   -0.001144022   -0.000865292
     12        1           0.000576014    0.001334592    0.000816083
     13        1           0.000541576   -0.000268865    0.001691263
     14        8           0.000467534    0.000181776   -0.000653734
     15        1          -0.000159938    0.000438385   -0.000056282
     16        8           0.000474922    0.000562779   -0.000419705
     17        1          -0.001254963   -0.000135832    0.000880977
     18        8          -0.001542637   -0.002770802    0.002046202
     19        1           0.002403756    0.002453931   -0.003015513
     20        8           0.001478656   -0.007931738    0.002506355
     21        1          -0.002815243    0.008759733   -0.002478966
     22        1          -0.002765848   -0.004152760   -0.000900907
     23        8           0.006721808    0.005605735    0.003933884
     24        1          -0.001719335    0.002291940   -0.003605946
     25        8           0.000396164    0.002504181    0.002118836
     26        1          -0.000350773   -0.002364064   -0.000645060
     27        1           0.004173482    0.002275320   -0.001332958
     28        8          -0.003192422    0.005044122   -0.000741167
     29        1           0.002832866   -0.000952993    0.000335956
     30        1          -0.002389085   -0.010394992   -0.000442104
 -------------------------------------------------------------------
 Cartesian Forces:  Max     0.010394992 RMS     0.002620521

 GradGradGradGradGradGradGradGradGradGradGradGradGradGradGradGradGradGrad
 Berny optimization.
 FormGI is forming the generalized inverse of G from B-inverse, IUseBI=4.
 Internal  Forces:  Max     0.009459406 RMS     0.002097045
 Search for a local minimum.
 Step number   1 out of a maximum of  158
 All quantities printed in internal units (Hartrees-Bohrs-Radians)
 Mixed Optimization -- RFO/linear search
 Second derivative matrix not updated -- first step.
 ITU=  0
     Eigenvalues ---    0.00230   0.00230   0.00230   0.00230   0.00230
     Eigenvalues ---    0.00230   0.00281   0.00311   0.00830   0.01284
     Eigenvalues ---    0.01341   0.01375   0.01398   0.01465   0.02398
     Eigenvalues ---    0.02996   0.03221   0.03828   0.03940   0.04413
     Eigenvalues ---    0.04606   0.04720   0.04739   0.04901   0.05245
     Eigenvalues ---    0.05718   0.05805   0.06159   0.06615   0.07061
     Eigenvalues ---    0.07281   0.07602   0.08327   0.08772   0.09641
     Eigenvalues ---    0.10127   0.10977   0.11602   0.13783   0.13958
     Eigenvalues ---    0.15152   0.16000   0.16000   0.16000   0.16000
     Eigenvalues ---    0.16083   0.16710   0.17032   0.17966   0.18600
     Eigenvalues ---    0.19166   0.19277   0.19861   0.20750   0.21217
     Eigenvalues ---    0.22066   0.22734   0.23584   0.25855   0.26899
     Eigenvalues ---    0.27561   0.28315   0.28610   0.28999   0.29515
     Eigenvalues ---    0.33082   0.33431   0.33452   0.33471   0.34023
     Eigenvalues ---    0.34308   0.34658   0.38707   0.40872   0.41489
     Eigenvalues ---    0.42129   0.42888   0.51452   0.51834   0.52193
     Eigenvalues ---    0.53367   0.53676   0.53911   0.68910
 RFO step:  Lambda=-9.67597553D-03 EMin= 2.30000000D-03
 Linear search not attempted -- first point.
 Maximum step size (   0.300) exceeded in Quadratic search.
    -- Step size scaled by   0.743
 Iteration  1 RMS(Cart)=  0.13322183 RMS(Int)=  0.00638319
 Iteration  2 RMS(Cart)=  0.01003378 RMS(Int)=  0.00084478
 Iteration  3 RMS(Cart)=  0.00010392 RMS(Int)=  0.00084324
 Iteration  4 RMS(Cart)=  0.00000023 RMS(Int)=  0.00084324
 Variable       Old X    -DE/DX   Delta X   Delta X   Delta X     New X
                                 (Linear)    (Quad)   (Total)
    R1        2.72608   0.00313   0.00000   0.00601   0.00516   2.73124
    R2        2.30862   0.00032   0.00000   0.00039   0.00055   2.30918
    R3        2.90027  -0.00029   0.00000  -0.00122  -0.00042   2.89985
    R4        2.89586  -0.00133   0.00000  -0.00267  -0.00242   2.89345
    R5        2.08265  -0.00004   0.00000  -0.00009  -0.00009   2.08257
    R6        2.68760  -0.00091   0.00000  -0.00156  -0.00156   2.68603
    R7        2.93786  -0.00031   0.00000  -0.00103  -0.00023   2.93763
    R8        2.91900   0.00241   0.00000   0.00651   0.00642   2.92542
    R9        2.06814   0.00016   0.00000   0.00034   0.00034   2.06848
   R10        2.67808   0.00021   0.00000   0.00036   0.00036   2.67843
   R11        2.07292   0.00049   0.00000   0.00105   0.00105   2.07397
   R12        2.70385  -0.00041   0.00000  -0.00073  -0.00073   2.70312
   R13        2.08301   0.00000   0.00000   0.00001   0.00001   2.08301
   R14        2.43719   0.00633   0.00000   0.00697   0.00730   2.44450
   R15        2.08907   0.00013   0.00000   0.00032   0.00032   2.08939
   R16        2.91455  -0.00158   0.00000  -0.00400  -0.00400   2.91055
   R17        2.08232  -0.00134   0.00000  -0.00289  -0.00289   2.07943
   R18        2.06233  -0.00130   0.00000  -0.00271  -0.00271   2.05962
   R19        2.69579  -0.00088   0.00000  -0.00154  -0.00154   2.69425
   R20        1.83313  -0.00046   0.00000  -0.00063  -0.00063   1.83250
   R21        1.84759  -0.00067   0.00000  -0.00094  -0.00094   1.84664
   R22        1.84415  -0.00453   0.00000  -0.00633  -0.00633   1.83782
   R23        1.85127  -0.00946   0.00000  -0.01340  -0.01340   1.83787
   R24        2.44682   0.00055   0.00000   0.00321   0.00267   2.44949
   R25        2.23233  -0.00457   0.00000  -0.01365  -0.01392   2.21841
   R26        2.37488  -0.00266   0.00000  -0.01016  -0.01068   2.36420
   R27        1.82813   0.00204   0.00000   0.00276   0.00276   1.83089
   R28        2.29150  -0.00199   0.00000  -0.00668  -0.00659   2.28491
   R29        1.83028   0.00255   0.00000   0.00346   0.00346   1.83375
   R30        2.15247  -0.00589   0.00000  -0.01373  -0.01424   2.13823
    A1        1.82390   0.00713   0.00000   0.04669   0.04659   1.87049
    A2        1.95695  -0.00427   0.00000  -0.02354  -0.02409   1.93285
    A3        1.89539   0.00077   0.00000   0.00937   0.00919   1.90458
    A4        1.86728   0.00089   0.00000  -0.00724  -0.00683   1.86045
    A5        1.86175   0.00190   0.00000   0.01503   0.01485   1.87660
    A6        1.97484   0.00115   0.00000   0.00017   0.00034   1.97518
    A7        1.90631  -0.00040   0.00000   0.00742   0.00733   1.91364
    A8        2.03485   0.00081   0.00000  -0.00329  -0.00203   2.03281
    A9        1.85399  -0.00123   0.00000  -0.01200  -0.01285   1.84114
   A10        1.94926  -0.00002   0.00000   0.00785   0.00789   1.95715
   A11        1.90174  -0.00103   0.00000  -0.01072  -0.01050   1.89124
   A12        1.84452   0.00101   0.00000   0.01400   0.01267   1.85719
   A13        1.87405   0.00042   0.00000   0.00430   0.00461   1.87866
   A14        1.99944   0.00038   0.00000  -0.01285  -0.01068   1.98876
   A15        1.87826  -0.00042   0.00000   0.00833   0.00851   1.88678
   A16        1.93127   0.00082   0.00000  -0.00234  -0.00417   1.92711
   A17        1.86995   0.00170   0.00000   0.01671   0.01585   1.88580
   A18        1.86139  -0.00316   0.00000  -0.01752  -0.01806   1.84333
   A19        1.92243   0.00077   0.00000   0.00901   0.00948   1.93191
   A20        1.93971  -0.00017   0.00000   0.00985   0.01065   1.95036
   A21        2.00923  -0.00112   0.00000   0.00270  -0.00010   2.00914
   A22        1.99917   0.00191   0.00000   0.02159   0.02171   2.02089
   A23        1.97631  -0.00316   0.00000  -0.02072  -0.02089   1.95541
   A24        1.85350   0.00151   0.00000   0.02222   0.02198   1.87548
   A25        1.87066   0.00119   0.00000  -0.00447  -0.00412   1.86654
   A26        1.87370   0.00084   0.00000   0.00784   0.00857   1.88227
   A27        1.99296   0.00053   0.00000  -0.00378  -0.00476   1.98819
   A28        1.89029  -0.00077   0.00000   0.00187   0.00186   1.89215
   A29        1.90266  -0.00097   0.00000  -0.00348  -0.00348   1.89917
   A30        1.90891  -0.00082   0.00000  -0.00552  -0.00553   1.90338
   A31        1.96476   0.00093   0.00000   0.00269   0.00268   1.96745
   A32        1.88504   0.00073   0.00000   0.00391   0.00390   1.88895
   A33        1.94088   0.00049   0.00000   0.00522   0.00522   1.94609
   A34        1.85946  -0.00035   0.00000  -0.00287  -0.00287   1.85659
   A35        1.88883   0.00014   0.00000   0.00061   0.00061   1.88944
   A36        1.81898  -0.00042   0.00000  -0.00185  -0.00185   1.81713
   A37        1.88714   0.00043   0.00000   0.00189   0.00189   1.88903
   A38        1.90686   0.00170   0.00000   0.00744   0.00744   1.91430
   A39        2.27841  -0.00360   0.00000  -0.02330  -0.02118   2.25723
   A40        1.89745   0.00144   0.00000   0.00961   0.00735   1.90480
   A41        1.77778  -0.00285   0.00000  -0.02173  -0.02026   1.75752
   A42        1.92718   0.00052   0.00000   0.01023   0.01199   1.93917
   A43        1.91149  -0.00101   0.00000  -0.00741  -0.00774   1.90375
   A44        1.71636  -0.00597   0.00000  -0.03226  -0.03139   1.68497
   A45        1.83113   0.00238   0.00000   0.01762   0.01833   1.84946
   A46        2.93850  -0.00018   0.00000  -0.12451  -0.12360   2.81490
   A47        3.06780  -0.00152   0.00000   0.09779   0.09982   3.16763
   A48        3.11680   0.00612   0.00000   0.15961   0.15751   3.27432
   A49        3.29778   0.00101   0.00000   0.12999   0.12772   3.42550
   A50        3.29705  -0.00437   0.00000  -0.10417  -0.10630   3.19075
   A51        2.91239  -0.00008   0.00000  -0.00414  -0.00239   2.90999
    D1        2.09521   0.00248   0.00000   0.07144   0.07318   2.16839
    D2        0.04332   0.00224   0.00000   0.05919   0.06059   0.10391
    D3       -1.97436   0.00184   0.00000   0.04844   0.04972  -1.92465
    D4       -1.41887   0.00016   0.00000   0.00700   0.00851  -1.41036
    D5        0.55891   0.00098   0.00000   0.04336   0.04575   0.60466
    D6       -0.85509   0.00392   0.00000   0.12144   0.12070  -0.73439
    D7       -2.93234   0.00183   0.00000   0.10248   0.10140  -2.83093
    D8        1.24963   0.00068   0.00000   0.08767   0.08694   1.33657
    D9       -2.90787   0.00363   0.00000   0.11094   0.11104  -2.79683
   D10        1.29807   0.00154   0.00000   0.09197   0.09174   1.38981
   D11       -0.80315   0.00038   0.00000   0.07716   0.07728  -0.72587
   D12        1.31972   0.00322   0.00000   0.10122   0.10132   1.42104
   D13       -0.75753   0.00113   0.00000   0.08225   0.08202  -0.67551
   D14       -2.85875  -0.00003   0.00000   0.06744   0.06756  -2.79118
   D15        0.87356  -0.00025   0.00000  -0.03315  -0.03211   0.84145
   D16        2.91361   0.00034   0.00000  -0.01263  -0.01172   2.90189
   D17       -1.27389   0.00028   0.00000  -0.00714  -0.00635  -1.28024
   D18        2.94628  -0.00053   0.00000  -0.02559  -0.02544   2.92084
   D19       -1.29685   0.00006   0.00000  -0.00507  -0.00505  -1.30190
   D20        0.79883  -0.00000   0.00000   0.00042   0.00032   0.79915
   D21       -1.24039   0.00092   0.00000  -0.00625  -0.00600  -1.24638
   D22        0.79967   0.00151   0.00000   0.01427   0.01439   0.81406
   D23        2.89535   0.00145   0.00000   0.01976   0.01976   2.91511
   D24       -2.95382   0.00212   0.00000   0.02732   0.02729  -2.92652
   D25       -0.78995  -0.00191   0.00000  -0.00769  -0.00769  -0.79764
   D26        1.28093   0.00093   0.00000   0.01634   0.01636   1.29729
   D27       -0.05492   0.00082   0.00000   0.01750   0.01590  -0.03902
   D28        2.02699   0.00171   0.00000   0.03179   0.03108   2.05808
   D29       -2.19786   0.00185   0.00000   0.04173   0.04069  -2.15717
   D30        2.06752  -0.00093   0.00000  -0.00771  -0.00851   2.05901
   D31       -2.13375  -0.00004   0.00000   0.00657   0.00667  -2.12708
   D32       -0.07542   0.00010   0.00000   0.01652   0.01628  -0.05914
   D33       -2.17764  -0.00116   0.00000  -0.00553  -0.00651  -2.18414
   D34       -0.09573  -0.00028   0.00000   0.00875   0.00868  -0.08705
   D35        1.96260  -0.00013   0.00000   0.01870   0.01829   1.98089
   D36        2.57291  -0.00330   0.00000  -0.11746  -0.11757   2.45534
   D37       -1.40101  -0.00175   0.00000  -0.07372  -0.07463  -1.47564
   D38        0.47579  -0.00144   0.00000  -0.09108  -0.09146   0.38433
   D39        2.78505   0.00011   0.00000  -0.04735  -0.04851   2.73654
   D40       -1.53335  -0.00196   0.00000  -0.09817  -0.09825  -1.63159
   D41        0.77592  -0.00041   0.00000  -0.05444  -0.05530   0.72061
   D42        1.61422   0.00017   0.00000  -0.01870  -0.01810   1.59612
   D43       -0.61508  -0.00156   0.00000  -0.02981  -0.03020  -0.64528
   D44       -2.64313  -0.00107   0.00000  -0.02634  -0.02655  -2.66968
   D45        0.85179   0.00086   0.00000   0.02515   0.02437   0.87616
   D46        3.03684  -0.00028   0.00000  -0.00405  -0.00306   3.03378
   D47       -1.22287   0.00038   0.00000   0.01060   0.01039  -1.21248
   D48        2.14217   0.00205   0.00000  -0.00049  -0.00104   2.14112
   D49       -1.86007   0.00261   0.00000   0.03877   0.03787  -1.82220
   D50        1.01312   0.00120   0.00000   0.00698   0.00703   1.02015
   D51       -1.04439   0.00135   0.00000   0.00745   0.00749  -1.03690
   D52       -3.10783   0.00175   0.00000   0.01301   0.01305  -3.09478
   D53       -3.06632  -0.00163   0.00000  -0.02632  -0.02648  -3.09280
   D54        1.15935  -0.00147   0.00000  -0.02585  -0.02602   1.13334
   D55       -0.90408  -0.00107   0.00000  -0.02029  -0.02046  -0.92454
   D56       -0.97995  -0.00077   0.00000  -0.01748  -0.01735  -0.99730
   D57       -3.03746  -0.00062   0.00000  -0.01700  -0.01689  -3.05435
   D58        1.18229  -0.00021   0.00000  -0.01145  -0.01133   1.17096
   D59       -1.28824  -0.00010   0.00000  -0.00114  -0.00114  -1.28938
   D60        0.85267  -0.00034   0.00000   0.00016   0.00016   0.85283
   D61        2.90266   0.00059   0.00000   0.00595   0.00595   2.90861
   D62        0.45772   0.00356   0.00000   0.11399   0.11410   0.57182
   D63        2.39469   0.00063   0.00000   0.09329   0.09363   2.48831
   D64        1.95473   0.00003   0.00000   0.04799   0.04835   2.00308
   D65       -2.46136  -0.00053   0.00000   0.01376   0.01565  -2.44571
   D66       -2.33047  -0.00035   0.00000   0.03022   0.03054  -2.29993
   D67       -0.46337  -0.00091   0.00000  -0.00401  -0.00216  -0.46553
         Item               Value     Threshold  Converged?
 Maximum Force            0.009459     0.000450     NO 
 RMS     Force            0.002097     0.000300     NO 
 Maximum Displacement     0.602664     0.001800     NO 
 RMS     Displacement     0.136301     0.001200     NO 
 Predicted change in Energy=-5.797654D-03
 GradGradGradGradGradGradGradGradGradGradGradGradGradGradGradGradGradGrad

                          Input orientation:                          
 ---------------------------------------------------------------------
 Center     Atomic      Atomic             Coordinates (Angstroms)
 Number     Number       Type             X           Y           Z
 ---------------------------------------------------------------------
      1          8           0        0.394143   -0.566619   -0.892988
      2          6           0       -0.908275   -0.084569    1.147919
      3          6           0       -0.336853    1.694501   -0.645478
      4          6           0       -1.271889    1.267975    0.520860
      5          6           0        0.839623    0.742188   -0.970303
      6          6           0       -0.545049   -1.104270    0.065014
      7          1           0       -1.210158    2.034517    1.303868
      8          1           0       -0.058210   -1.964960    0.559662
      9          1           0       -1.782270   -0.476489    1.692931
     10          1           0       -0.981290    1.759821   -1.527844
     11          6           0       -1.754640   -1.623227   -0.734849
     12          1           0       -1.407030   -2.382984   -1.450944
     13          1           0       -2.189552   -0.797635   -1.298000
     14          8           0       -2.792041   -2.129598    0.101876
     15          1           0       -2.506699   -2.986621    0.454642
     16          8           0        0.231707    2.975348   -0.433113
     17          1           0        1.074478    2.788974    0.025063
     18          8           0       -2.587797    1.221210   -0.038000
     19          1           0       -3.191561    0.862544    0.634791
     20          8           0        0.152455    0.163319    2.061015
     21          1           0        0.549115   -0.680025    2.339054
     22          1           0        1.006255    0.654589   -2.056393
     23          8           0        1.900386    0.914541   -0.250301
     24          1           0        2.905357   -1.604918    0.028231
     25          8           0        2.347721   -2.011889   -0.921259
     26          1           0        2.121819   -2.943687   -0.781903
     27          1           0        1.357477   -1.318095   -0.914582
     28          8           0        3.172319   -0.765582    0.916742
     29          1           0        4.090462   -0.470630    0.808821
     30          1           0        2.527237    0.067779    0.504828
 ---------------------------------------------------------------------
                    Distance matrix (angstroms):
                    1          2          3          4          5
     1  O    0.000000
     2  C    2.468596   0.000000
     3  C    2.389200   2.589959   0.000000
     4  C    2.853132   1.534534   1.554529   0.000000
     5  C    1.384704   2.868021   1.548066   2.637898   0.000000
     6  C    1.445309   1.531146   2.895042   2.522626   2.529547
     7  H    3.763756   2.146154   2.162920   1.097496   3.323187
     8  H    2.066440   2.145816   3.862856   3.453461   3.236595
     9  H    3.381105   1.102046   3.502939   2.162728   3.930944
    10  H    2.776180   3.250664   1.094594   2.126864   2.159202
    11  C    2.399729   2.574610   3.609076   3.188872   3.518640
    12  H    2.618152   3.505075   4.291845   4.151599   3.878809
    13  H    2.625430   2.851781   3.173173   2.901225   3.413846
    14  O    3.685706   2.970678   4.605456   3.745653   4.752443
    15  H    4.010910   3.384892   5.275547   4.430658   5.208873
    16  O    3.575388   3.627991   1.417367   2.466979   2.375951
    17  H    3.544810   3.667338   1.907708   2.839840   2.288066
    18  O    3.580405   2.435622   2.379030   1.430428   3.584112
    19  H    4.151371   2.524622   3.237375   1.965323   4.340652
    20  O    3.052434   1.421386   3.147863   2.370885   3.161674
    21  H    3.237741   1.974172   3.915449   3.227474   3.613714
    22  H    1.794308   3.805180   2.208176   3.494055   1.102284
    23  O    2.208087   3.292692   2.402029   3.283738   1.293571
    24  H    2.869304   4.255461   4.674609   5.093680   3.282260
    25  O    2.430241   4.312490   4.584792   5.093014   3.140335
    26  H    2.940691   4.591322   5.251331   5.563501   3.907070
    27  H    1.221964   3.302897   3.466830   3.957502   2.125099
    28  O    3.321592   4.143486   4.561451   4.903373   3.357943
    29  H    4.070398   5.025078   5.138472   5.644509   3.899252
    30  H    2.628011   3.498503   3.488903   3.984230   2.340701
                    6          7          8          9         10
     6  C    0.000000
     7  H    3.439348   0.000000
     8  H    1.105656   4.228077   0.000000
     9  H    2.138911   2.604579   2.544057   0.000000
    10  H    3.306134   2.854195   4.368495   4.002005   0.000000
    11  C    1.540197   4.222785   2.161115   2.685124   3.559765
    12  H    2.162463   5.209804   2.456948   3.695873   4.165333
    13  H    2.157828   3.968629   3.058787   3.035570   2.837835
    14  O    2.470148   4.613783   2.776780   2.506764   4.589378
    15  H    2.746475   5.254905   2.655168   2.891179   5.365243
    16  O    4.182675   2.445657   5.047405   4.526737   2.036493
    17  H    4.216849   2.724722   4.916164   4.648230   2.774321
    18  O    3.096980   2.088053   4.111896   2.554834   2.256236
    19  H    3.346196   2.397320   4.221174   2.213317   3.219844
    20  O    2.465221   2.435440   2.613046   2.070748   4.088288
    21  H    2.558991   3.396378   2.277309   2.427809   4.821606
    22  H    3.162356   4.255355   3.852125   4.807561   2.334788
    23  O    3.186719   3.653118   3.575425   4.390111   3.263536
    24  H    3.486732   5.640053   3.032289   5.100825   5.371113
    25  O    3.188201   5.829502   2.825567   5.123306   5.067154
    26  H    3.348568   6.343109   2.740480   5.239636   5.684074
    27  H    2.150566   4.770144   2.143828   4.167186   3.914011
    28  O    3.828705   5.215029   3.464438   5.023345   5.441151
    29  H    4.737374   5.883656   4.416625   5.938911   6.013117
    30  H    3.317541   4.298214   3.289311   4.503295   4.393691
                   11         12         13         14         15
    11  C    0.000000
    12  H    1.100389   0.000000
    13  H    1.089903   1.774560   0.000000
    14  O    1.425735   2.096118   2.024048   0.000000
    15  H    1.959419   2.281427   2.822055   0.969718   0.000000
    16  O    5.018318   5.695012   4.565734   5.957327   6.620578
    17  H    5.296121   5.923312   5.026744   6.256854   6.809322
    18  O    3.044761   4.047324   2.412869   3.359940   4.237347
    19  H    3.181149   4.250681   2.737864   3.065376   3.913765
    20  O    3.826958   4.609718   4.206116   4.214944   4.424212
    21  H    3.955477   4.592456   4.554371   4.274290   4.267247
    22  H    3.815425   3.926495   3.591281   5.180432   5.648411
    23  O    4.475966   4.822262   4.555965   5.604434   5.927766
    24  H    4.722097   4.624934   5.326227   5.721980   5.601899
    25  O    4.124945   3.810043   4.712026   5.241929   5.138930
    26  H    4.095457   3.635213   4.843534   5.058639   4.791040
    27  H    3.132201   3.010675   3.605454   4.348589   4.426128
    28  O    5.266711   5.402995   5.801360   6.172369   6.115374
    29  H    6.154399   6.243881   6.632059   7.114830   7.069525
    30  H    4.767680   5.030878   5.123205   5.769364   5.888326
                   16         17         18         19         20
    16  O    0.000000
    17  H    0.977202   0.000000
    18  O    3.344057   3.984234   0.000000
    19  H    4.162105   4.720380   0.972532   0.000000
    20  O    3.759583   3.448085   3.610259   3.702090   0.000000
    21  H    4.598631   4.202917   4.370960   4.390523   0.972560
    22  H    2.936135   2.982065   4.160791   4.990729   4.233600
    23  O    2.657976   2.066749   4.503654   5.168560   2.993623
    24  H    5.323540   4.760086   6.177873   6.605201   3.851926
    25  O    5.439516   5.056180   5.965937   6.431741   4.294726
    26  H    6.223276   5.883156   6.330896   6.687782   4.649093
    27  H    4.464620   4.222682   4.773013   5.277261   3.535653
    28  O    4.946097   4.222666   6.167480   6.574896   3.360327
    29  H    5.320447   4.509486   6.941078   7.405100   4.180644
    30  H    3.821407   3.121793   5.271493   5.775222   2.840851
                   21         22         23         24         25
    21  H    0.000000
    22  H    4.616289   0.000000
    23  O    3.327661   2.031997   0.000000
    24  H    3.427419   3.613532   2.726759   0.000000
    25  O    3.954552   3.193456   3.035504   1.173931   0.000000
    26  H    4.163885   3.976983   3.900969   1.750015   0.968865
    27  H    3.412730   2.306203   2.391795   1.834965   1.209123
    28  O    2.985212   3.943127   2.408862   1.251081   2.368858
    29  H    3.863495   4.357511   2.799441   1.816701   2.899276
    30  H    2.799386   3.036048   1.296213   1.779897   2.528036
                   26         27         28         29         30
    26  H    0.000000
    27  H    1.801214   0.000000
    28  O    2.955180   2.636792   0.000000
    29  H    3.538640   3.340288   0.970376   0.000000
    30  H    3.299844   2.302979   1.131501   1.681062   0.000000
 Stoichiometry    C6H16O8
 Framework group  C1[X(C6H16O8)]
 Deg. of freedom    84
 Full point group                 C1      NOp   1
 Largest Abelian subgroup         C1      NOp   1
 Largest concise Abelian subgroup C1      NOp   1
                         Standard orientation:                         
 ---------------------------------------------------------------------
 Center     Atomic      Atomic             Coordinates (Angstroms)
 Number     Number       Type             X           Y           Z
 ---------------------------------------------------------------------
      1          8           0        0.454154   -0.511473   -0.882749
      2          6           0       -0.938353   -0.116807    1.117034
      3          6           0       -0.477071    1.680320   -0.690020
      4          6           0       -1.401713    1.189940    0.459383
      5          6           0        0.785926    0.830061   -0.970033
      6          6           0       -0.459492   -1.115799    0.060098
      7          1           0       -1.427479    1.969744    1.231224
      8          1           0        0.087255   -1.923689    0.580536
      9          1           0       -1.788920   -0.576010    1.646347
     10          1           0       -1.101381    1.676801   -1.589108
     11          6           0       -1.597938   -1.749552   -0.761186
[...]
 00001171,0.00015194,0.00002526,-0.00000676,-0.00004281,-0.00005413,-0.
 00010195,0.00008888,-0.00003014,-0.00017660,0.00019343,0.00019090,-0.0
 0003237,-0.00013952,-0.00012177,-0.00001162,-0.00001176,-0.00002389,0.
 00015331,-0.00002819,-0.00020288,-0.00002043,0.00002880,0.00008380,-0.
 00020093,-0.00022948,-0.00015698,0.00015358,-0.00017358,0.00004696,-0.
 00007858,-0.00006518,-0.00009516,0.00000328,0.00002878,0.00001414,-0.0
 0048559,-0.00007081,-0.00024957,0.00038947,-0.00004964,-0.00012481,0.0
 0015834,0.00013747,-0.00022549,-0.00319029,0.00141832,-0.00103019,0.05
 849161,0.13957698,0.15150371,-0.00668890,0.01369719,0.00494197,-0.0010
 4188,-0.00097947,-0.00061789,0.00105554,0.00004906,0.00031503,0.000343
 37,-0.00044052,0.00004628,-0.00774466,-0.00505320,-0.00183237,0.002612
 43,0.00286748,-0.00245129,-0.00001734,0.00017437,0.00001179,0.00005139
 ,-0.00047084,-0.00004314,-0.00015570,0.00029592,0.00026941,0.00012740,
 -0.00013946,0.00002590,0.00091230,-0.00011398,-0.00036408,0.00021136,0
 .00033832,0.00034860,-0.00004962,0.00003574,0.00006654,-0.00103323,-0.
 00037605,0.00046796,0.00022020,0.00014331,-0.00015446,0.00019847,0.001
 46619,0.00028900,-0.00024582,-0.00008944,-0.00012542,-0.00021250,0.000
 38291,-0.00002390,0.00011158,-0.00018566,0.00003459,0.00063850,0.00050
 398,0.00074652,-0.00046245,-0.00025207,-0.00008651,0.00017426,0.000355
 19,-0.00028817,0.00549170,-0.00019097,0.00180504,-0.00292832,0.0102104
 2,-0.00061993,0.39998638,0.01114443,-0.00456268,-0.00478729,0.00083435
 ,0.00056740,-0.00024422,-0.00053944,0.00027339,-0.00010340,-0.00059669
 ,0.00013741,0.00004818,0.00092546,0.00243468,0.00019872,-0.00205939,-0
 .00365228,0.00241269,0.00007960,-0.00001617,-0.00003574,0.00009859,0.0
 0039574,-0.00059635,0.00020755,-0.00029304,-0.00028696,0.00001554,-0.0
 0003238,0.00001181,-0.00013675,-0.00081907,-0.00108525,0.00005624,0.00
 027185,0.00033927,-0.00008802,0.00004281,0.00001491,0.00056468,0.00070
 186,0.00034156,-0.00004407,-0.00026378,-0.00017732,0.00033914,-0.00080
 778,-0.00014938,-0.00013710,0.00040751,0.00013679,0.00050124,-0.000000
 23,0.00014627,-0.00006496,0.00004227,-0.00006812,0.00025032,0.00008725
 ,-0.00034126,-0.00040638,-0.00005898,0.00057597,0.00001422,0.00030042,
 -0.00020919,0.00103386,-0.00125291,-0.00086558,0.00720151,-0.00725795,
 0.00131755,-0.11958891,0.54354476,0.00328142,-0.00271508,0.00279050,-0
 .00030443,-0.00007289,-0.00009535,-0.00031188,-0.00009482,-0.00000414,
 -0.00030942,0.00011099,-0.00014513,-0.00012163,0.00061107,-0.00229597,
 -0.00158594,0.00043795,0.00061584,0.00001435,-0.00002878,0.00004188,-0
 .00043310,-0.00006845,0.00038860,0.00007311,-0.00002999,-0.00002604,0.
 00008596,-0.00008009,0.00004358,0.00009467,-0.00069670,-0.00069973,0.0
 0001019,0.00030588,0.00013696,0.00009788,0.00003527,0.00006456,0.00013
 346,0.00029444,0.00042714,-0.00012654,-0.00015348,-0.00014971,0.000211
 35,-0.00033632,0.00010542,-0.00011793,0.00030154,-0.00000233,0.0003015
 1,-0.00002323,0.00021044,-0.00005602,0.00002881,-0.00004478,0.00053336
 ,-0.00015462,0.00012098,-0.00037632,0.00023700,0.00023392,-0.00029044,
 -0.00031314,0.00021587,0.00200998,-0.00168228,0.00092509,0.00443517,0.
 00611416,-0.00987172,-0.10218616,-0.17990375,0.16334439,-0.00185288,-0
 .00013715,0.00117940,-0.00011634,-0.00002927,0.00037151,0.00001673,0.0
 0006963,-0.00006587,0.00002002,0.00001317,-0.00008209,0.00034923,0.000
 12995,0.00012390,-0.00007727,0.00082477,-0.00029905,-0.00000275,-0.000
 05601,0.00000585,-0.00000942,-0.00008320,0.00036393,-0.00000865,0.0000
 3705,0.00003265,-0.00000829,0.00000834,-0.00000046,-0.00031800,0.00021
 088,0.00044624,-0.00005214,-0.00014449,-0.00025943,0.00008454,-0.00004
 278,-0.00003614,0.00022246,-0.00006562,-0.00024213,-0.00012772,0.00001
 837,0.00012260,-0.00005682,-0.00014696,-0.00001689,0.00002433,0.000034
 03,0.00001437,0.00002231,-0.00012641,-0.00000119,-0.00003044,0.0000564
 4,0.00000436,-0.00008736,-0.00013736,-0.00018483,0.00007524,0.00005446
 ,0.00003286,-0.00002026,-0.00006290,-0.00001483,-0.00026286,-0.0000622
 7,-0.00011153,0.00194260,-0.00229129,0.00488117,-0.05516867,-0.0738711
 4,0.05385952,0.04867173,-0.00002252,0.00093051,-0.00049873,0.00004490,
 -0.00000872,-0.00013736,0.00010047,-0.00005835,0.00003403,0.00010262,-
 0.00002626,0.00007950,-0.00029784,-0.00042352,0.00033609,0.00060907,-0
 .00030082,-0.00000688,-0.00001042,0.00003563,-0.00000812,0.00010919,0.
 00010716,-0.00025731,-0.00004142,0.00002422,0.00001986,-0.00000492,0.0
 0000971,-0.00000662,0.00021072,0.00020461,-0.00003671,0.00004674,0.000
 02447,0.00003433,-0.00005063,-0.00002243,-0.00001701,-0.00024242,-0.00
 016441,0.00002579,0.00006498,0.00010004,0.00002921,-0.00003829,0.00021
 004,0.00001188,0.00001874,-0.00010323,-0.00001866,-0.00012490,0.000052
 97,-0.00005782,0.00003329,-0.00002973,0.00001595,-0.00011434,0.0001032
 7,0.00006484,0.00009041,-0.00011435,-0.00009985,0.00004122,-0.00001009
 ,-0.00005833,-0.00014711,0.00043780,-0.00008139,-0.00158250,-0.0038936
 1,0.00152954,-0.02714502,-0.37751894,0.19298363,0.03878786,0.40032115,
 0.00032231,-0.00019414,-0.00058636,0.00010318,0.00005643,-0.00002438,-
 0.00002626,0.00000392,0.00000967,0.00006506,-0.00001598,0.00009691,0.0
 0012126,0.00004832,0.00031434,0.00031843,-0.00049685,0.00040427,-0.000
 00512,0.00001727,-0.00001594,0.00010345,0.00013482,-0.00022394,-0.0000
 1442,0.00000677,-0.00000190,-0.00000862,0.00001445,-0.00001065,-0.0000
 8788,0.00031873,0.00024255,-0.00000125,-0.00011088,-0.00008005,-0.0000
 4128,-0.00004027,-0.00005902,0.00001188,-0.00008983,-0.00019495,0.0000
 6570,0.00005837,0.00008835,-0.00001167,0.00004833,-0.00002686,0.000011
 51,-0.00005060,0.00000758,-0.00008858,0.00000912,-0.00007895,0.0000224
 5,-0.00000922,0.00001572,-0.00015739,0.00012583,-0.00010895,0.00006869
 ,-0.00015154,0.00001410,0.00002999,-0.00001607,-0.00007370,-0.00013602
 ,0.00025602,-0.00023187,0.00154150,-0.00165144,0.00339843,0.03185045,0
 .21881476,-0.12307576,-0.03549528,-0.20889278,0.12067033,-0.00563834,-
 0.00537718,-0.00182160,0.00148363,0.00116577,0.00042668,-0.00164294,-0
 .00038195,-0.00023986,-0.00054270,0.00056312,-0.00000531,0.01089829,0.
 00533688,0.00039550,-0.00409985,-0.00369716,0.00315764,0.00001450,-0.0
 0016976,-0.00000634,0.00049952,0.00057358,-0.00038426,0.00024303,-0.00
 042326,-0.00037959,-0.00009749,0.00012099,-0.00001516,-0.00113133,0.00
 001262,0.00016096,-0.00028351,-0.00045887,-0.00027376,0.00002817,-0.00
 003584,-0.00009171,0.00124453,0.00058065,-0.00042939,-0.00017387,-0.00
 025086,0.00007320,-0.00002051,-0.00178219,-0.00029348,0.00019491,0.000
 16515,0.00014831,0.00032692,-0.00035469,0.00007407,-0.00012192,0.00018
 043,-0.00006089,-0.00061949,-0.00040364,-0.00078069,0.00038881,0.00014
 171,0.00018534,-0.00044956,-0.00077073,0.00060520,-0.00454625,-0.00029
 886,-0.00198967,-0.00884723,-0.00244680,-0.00252885,-0.32700517,0.1873
 8747,0.05140349,0.00792284,-0.01084217,0.00279012,0.32715710,-0.005102
 82,-0.00398111,0.00397945,-0.00188495,-0.00132828,0.00018985,0.0007310
 1,-0.00043589,0.00045657,0.00074430,-0.00032051,-0.00009433,-0.0033624
 2,-0.00827022,-0.00262568,0.00340238,0.00710304,-0.00382187,-0.0001050
 4,0.00007844,0.00006563,-0.00050193,-0.00073614,0.00122193,-0.00033269
 ,0.00057441,0.00052648,0.00007646,-0.00004803,0.00002638,0.00025287,0.
 00116663,0.00171172,-0.00008074,-0.00039385,-0.00052000,0.00016551,-0.
 00007900,-0.00002375,-0.00087851,-0.00100920,-0.00043035,0.00004414,0.
 00033257,0.00020286,-0.00014318,0.00143048,0.00028770,-0.00002884,-0.0
 0036529,-0.00018141,-0.00058859,0.00010740,-0.00015056,0.00009672,-0.0
 0010203,0.00009007,0.00019566,0.00009773,0.00063874,0.00010681,-0.0000
 3020,-0.00056685,-0.00008620,-0.00030796,0.00028049,0.00287481,0.00089
 185,0.00222045,-0.00009813,0.00860310,0.00331459,0.13878468,-0.1449112
 6,-0.00505982,0.03726887,-0.02076728,-0.00731759,-0.16909587,0.1667372
 0,-0.00150526,0.00327866,-0.00384604,0.00014035,-0.00000236,-0.0002800
 4,0.00073004,0.00015166,0.00033381,0.00033603,-0.00016614,0.00012750,-
 0.00228151,-0.00336184,0.00116707,0.00315107,-0.00053547,-0.00214656,-
 0.00002286,0.00007620,-0.00003966,0.00024880,-0.00005651,-0.00030421,-
 0.00009605,0.00005897,0.00008224,-0.00001389,0.00001702,-0.00003839,-0
 .00007117,0.00084052,0.00097000,0.00001908,-0.00036237,-0.00011066,-0.
 00012759,-0.00002743,-0.00003976,-0.00029600,-0.00039179,-0.00043665,0
 .00015451,0.00016828,0.00010703,-0.00013443,0.00079182,-0.00000904,0.0
 0000299,-0.00025531,-0.00004757,-0.00030211,0.00007049,-0.00017692,0.0
 0005800,-0.00005307,0.00004112,-0.00025878,0.00023212,0.00009119,0.000
 13783,-0.00026750,-0.00024054,0.00034722,0.00072267,-0.00017927,0.0005
 2260,0.00119697,-0.00035548,-0.00345264,0.00250671,0.00141503,0.075860
 90,-0.02618523,-0.03280531,-0.02228661,0.01565026,0.00171956,-0.051045
 91,0.00780140,0.03594406,-0.00293613,-0.00148351,-0.00028639,0.0003346
 1,0.00003540,0.00017249,-0.00012682,-0.00081106,-0.00088274,0.00082848
 ,0.00000081,-0.00005909,0.00453665,0.00216327,0.00671566,0.00146855,0.
 00074894,-0.00113110,-0.00009644,0.00002888,0.00006206,-0.00011336,-0.
 00013682,0.00015844,-0.00017976,0.00004344,0.00007990,-0.00030258,0.00
 039900,-0.00005434,0.00052637,0.00032963,0.00013487,0.00000754,-0.0000
 1737,0.00000017,-0.00001312,0.00001230,0.00002719,-0.00072583,-0.00047
 572,0.00008468,0.00017031,0.00017724,-0.00001166,-0.00046854,0.0010942
 6,-0.00027073,0.00009803,-0.00152465,0.00003189,-0.00069047,0.00016111
 ,-0.00016121,0.00009759,-0.00013510,0.00005582,-0.00117304,-0.00032531
 ,0.00093850,0.00112362,0.00048761,-0.00192694,0.00004277,-0.00051579,-
 0.00016485,-0.02219825,0.01546645,0.00434997,-0.09174885,-0.12390349,-
 0.07889838,-0.00365220,-0.01196883,-0.00721000,-0.00167152,0.00027574,
 -0.00136776,0.00184768,0.00065133,0.00091196,0.32583083,0.00068529,0.0
 0500007,0.00115908,-0.00049377,-0.00044793,-0.00052466,-0.00002467,0.0
 0018027,0.00089377,-0.00062292,-0.00019479,0.00015124,-0.00538489,-0.0
 0547687,-0.00646299,-0.00023627,-0.00022042,0.00050466,0.00006226,0.00
 010060,-0.00002970,0.00019060,0.00020124,-0.00033172,0.00008401,0.0000
 7319,0.00000109,0.00030789,-0.00034220,0.00007961,-0.00000758,-0.00028
 112,-0.00041708,0.00004507,0.00019205,0.00019212,-0.00006635,-0.000033
 98,-0.00003723,0.00013622,0.00030834,0.00020568,0.00001170,-0.00011799
 ,-0.00008761,0.00088149,0.00012988,0.00013275,-0.00059944,0.00088948,0
 .00007365,0.00052802,0.00019967,0.00011222,-0.00000482,-0.00003159,-0.
 00004429,0.00119732,0.00087847,-0.00049959,-0.00103493,-0.00095708,0.0
 0149889,-0.00052307,0.00022252,-0.00014384,0.02103467,-0.00174904,-0.0
 0151897,-0.10491232,-0.22816697,-0.17203755,-0.01666892,-0.00850505,-0
 .01044006,-0.00029210,0.00111668,-0.00074435,0.00308191,-0.00521013,-0
 .00109515,0.26543019,0.38355414,-0.00058639,0.00195715,0.00158343,-0.0
 0050255,-0.00024828,-0.00053986,0.00002013,-0.00031705,0.00113971,-0.0
 0014596,0.00016909,-0.00007213,-0.00043264,-0.00222687,-0.00548322,0.0
 0032736,0.00039019,-0.00042780,-0.00004318,0.00005876,0.00005261,-0.00
 001878,-0.00013920,-0.00001230,0.00001999,0.00004515,0.00007128,0.0002
 4262,-0.00023495,0.00003715,0.00015213,-0.00013640,-0.00013383,0.00002
 674,0.00013013,0.00010951,0.00001198,0.00000246,0.00001379,-0.00017122
 ,0.00001081,0.00019656,0.00002308,-0.00002482,-0.00008090,0.00019628,0
 .00031829,0.00034269,-0.00017865,0.00034216,-0.00023703,0.00007052,0.0
 0004902,0.00014756,-0.00001801,-0.00002516,-0.00002831,0.00066248,0.00
 016166,0.00033362,-0.00062613,-0.00004827,0.00017372,0.00010773,-0.000
 33379,0.00155798,0.01101040,-0.00524357,0.00514754,-0.04498278,-0.1293
 7474,-0.15980020,-0.00821258,-0.00945908,0.00157516,-0.00264911,-0.000
 78719,-0.00247856,0.00209124,-0.00197916,-0.00130026,-0.12616229,0.043
 89053,0.38806878,0.00052567,0.00035981,-0.00031878,0.00004090,0.000007
 29,0.00006193,0.00002232,0.00027340,-0.00026673,-0.00012281,-0.0001070
 8,0.00004173,-0.00104246,-0.00048489,0.00093154,-0.00029092,-0.0001393
 6,0.00027415,0.00004156,-0.00000859,-0.00003277,0.00004551,0.00006012,
 -0.00005070,0.00003010,-0.00000673,-0.00002922,-0.00001540,0.00000786,
 0.00000664,-0.00011583,-0.00006658,-0.00004192,-0.00000276,-0.00000250
 ,-0.00000168,-0.00000590,-0.00000454,-0.00000787,0.00017235,0.00011037
 ,-0.00002807,-0.00003670,-0.00003849,0.00000508,0.00015898,-0.00019449
 ,-0.00012937,-0.00011323,0.00012706,0.00013900,0.00017006,-0.00001516,
 0.00000443,-0.00001196,0.00002513,-0.00000742,0.00010092,0.00003221,-0
 .00017719,-0.00012205,-0.00005678,0.00023760,-0.00019019,0.00017394,-0
 .00067677,-0.00002531,0.00177135,-0.00072367,-0.01140562,-0.00624234,0
 .01636319,0.00001269,0.00049026,-0.00097034,0.00032082,0.00002229,0.00
 003595,-0.00019632,-0.00027914,0.00022921,-0.20571288,-0.15288859,0.17
 600157,0.21986224,0.00003745,-0.00031365,0.00010855,-0.00005708,0.0000
 2900,-0.00003387,0.00014231,0.00021414,0.00019836,-0.00001096,0.000037
 46,-0.00000555,0.00026730,0.00024254,-0.00084823,-0.00004753,-0.000024
 85,-0.00000449,-0.00000238,-0.00000863,-0.00000425,-0.00001404,-0.0000
 2804,0.00001823,0.00000726,-0.00001077,0.00000659,0.00003559,-0.000059
 20,-0.00000078,-0.00001821,0.00001272,0.00003094,0.00000027,-0.0000133
 4,-0.00001251,0.00000804,0.00000582,0.00000580,0.00000926,-0.00001419,
 -0.00001728,-0.00000625,0.00000576,0.00000702,-0.00021556,-0.00022220,
 0.00011473,0.00018560,0.00016492,-0.00013284,-0.00001861,-0.00005402,0
 .00001150,-0.00000906,0.00001956,0.00000050,0.00007286,-0.00006172,-0.
 00000866,-0.00007561,0.00006050,0.00006350,0.00012369,0.00009128,0.000
 29634,0.00293377,-0.00362400,0.00035274,-0.02193843,-0.01307100,0.0294
 9549,-0.00011823,-0.00083866,-0.00211675,0.00010058,0.00019958,0.00013
 118,-0.00008030,0.00028190,0.00011642,-0.13957172,-0.12946080,0.099929
 90,0.16070788,0.13936475,0.00008968,0.00002658,-0.00020587,0.00002925,
 0.00002023,0.00004734,0.00009998,0.00015233,0.00001115,-0.00002564,-0.
 00003249,0.00002159,-0.00001908,-0.00024255,0.00062386,-0.00007860,-0.
 00002189,0.00006268,0.00001725,-0.00000870,-0.00001803,0.00000874,0.00
 000945,-0.00001445,0.00000667,-0.00000227,-0.00000829,-0.00001562,-0.0
 0001389,-0.00001029,-0.00003574,-0.00001910,0.00000881,0.00000286,-0.0
 0000998,-0.00000380,-0.00000282,0.00000410,0.00000211,0.00005114,0.000
 02567,-0.00002677,-0.00001021,-0.00000700,0.00000720,-0.00002547,-0.00
 012071,-0.00006750,0.00007106,0.00005889,0.00004263,0.00002734,-0.0000
 1499,-0.00001780,-0.00000152,0.00001199,0.00000101,-0.00001114,-0.0000
 4253,-0.00006565,-0.00002908,0.00005360,0.00006446,-0.00001770,0.00005
 539,-0.00013601,-0.00058963,-0.00008273,0.00020249,-0.01693499,-0.0131
 3230,0.01510098,-0.00121906,-0.00094831,-0.00235012,0.00023758,0.00012
 683,0.00011287,0.00011880,-0.00007793,0.00029738,0.21176988,0.13923098
 ,-0.22311804,-0.19387086,-0.12621598,0.21104540,0.00410797,0.00576576,
 0.00295181,-0.00092535,-0.00035082,-0.00070057,0.00077293,-0.00009059,
 -0.00055469,-0.00114073,-0.00007881,0.00003069,-0.02606510,0.00322980,
 -0.01379444,-0.00212292,-0.00078003,0.00149387,0.00014115,0.00004802,-
 0.00005385,0.00021756,0.00013896,-0.00038179,0.00027491,-0.00002851,-0
 .00006963,0.00046997,-0.00045598,0.00029546,-0.00053613,-0.00058973,-0
 .00048225,0.00003109,0.00018158,0.00016005,-0.00000586,-0.00001602,-0.
 00003486,0.00085594,0.00071510,0.00009515,-0.00017183,-0.00027317,-0.0
 0006402,0.00157967,-0.00173875,0.00155291,-0.00045850,0.00384434,-0.00
 046134,0.00105209,-0.00009768,0.00033691,-0.00011723,0.00013663,-0.000
 08498,0.00264296,0.00076826,-0.00111777,-0.00359864,-0.00085147,0.0039
 5323,0.00228551,-0.00029713,0.00365458,-0.27561631,0.13815070,0.025050
 12,0.01174861,0.00624757,0.00319177,-0.00574113,-0.00164278,-0.0021452
 6,0.00019855,0.00010626,-0.00002040,0.00316656,-0.00282646,-0.00095578
 ,-0.00510322,-0.00991599,-0.00623397,-0.00209379,-0.00244790,0.0003569
 1,0.29415128,-0.00146602,-0.00492825,-0.00181835,0.00098392,0.00055179
 ,0.00072064,0.00075199,-0.00066421,-0.00152491,0.00083034,-0.00011685,
 -0.00017593,-0.00179255,0.00777649,0.00854833,-0.00000899,0.00046619,-
 0.00041585,-0.00004881,-0.00008078,0.00005214,-0.00030216,-0.00033270,
 0.00027575,-0.00010083,-0.00005914,0.00002099,-0.00032323,0.00037594,-
 0.00023504,0.00020834,0.00009789,0.00025660,-0.00005169,-0.00011969,-0
 .00011182,0.00007027,0.00005972,0.00005556,-0.00023749,-0.00027331,-0.
 00009234,0.00001480,0.00009972,0.00003680,0.00002722,0.00052376,0.0010
 5738,0.00073378,0.00014942,-0.00050232,-0.00050129,-0.00005775,-0.0001
 6604,0.00004032,-0.00001235,0.00004867,-0.00273042,-0.00147255,0.00190
 986,0.00145410,0.00187268,-0.00356368,-0.00036459,-0.00053788,-0.00279
 882,0.14839706,-0.10504860,-0.02794166,0.00153466,-0.00670102,-0.00364
 469,0.00250798,0.00158381,0.00250948,-0.00006544,-0.00043614,-0.000262
 79,-0.00244014,0.00089162,-0.00092000,-0.00663624,-0.01185060,0.003123
 22,-0.00363372,0.00707515,0.00121729,-0.13685116,0.11116760,0.00096076
 ,-0.00246730,-0.00088211,-0.00045609,-0.00000871,-0.00026903,-0.003119
 89,-0.00172951,-0.00677275,0.00022233,0.00003629,-0.00031396,-0.035596
 95,0.02235406,0.00396584,0.00019444,-0.00028926,0.00016415,-0.00005291
 ,0.00003224,0.00006645,0.00000491,0.00010172,-0.00002399,0.00001281,-0
 .00004424,0.00001499,-0.00126845,0.00136697,0.00014865,-0.00006106,0.0
 0015905,-0.00000594,0.00000246,-0.00004811,-0.00001960,-0.00000924,0.0
 0000277,0.00000014,0.00000887,-0.00004633,-0.00005348,0.00001270,0.000
 02652,0.00003581,0.00025861,-0.00036705,0.00018940,0.00025130,0.000112
 25,-0.00009284,-0.00020311,-0.00007802,0.00007289,-0.00004390,-0.00003
 163,0.00006939,0.00146445,0.00124246,-0.00163643,0.00051446,-0.0024030
 8,0.00237020,-0.00031407,0.00060839,-0.00056719,0.05592527,-0.04382418
 ,-0.05825558,0.00123441,-0.00479467,-0.00158758,0.00114501,0.00108795,
 0.00032579,0.00006948,0.00002299,0.00017716,-0.00128409,-0.00016501,0.
 00006037,-0.00690598,0.00628852,-0.00683864,0.00300135,-0.00148662,-0.
 00160932,-0.01596787,0.02434154,0.07126720\\-0.00000539,-0.00000500,-0
 .00000216,0.00000060,-0.00001428,0.00000151,0.00000600,0.00000214,-0.0
 0000482,-0.00001696,0.00000643,-0.00001071,0.00000046,0.00000430,0.000
 00407,-0.00000391,0.00000608,0.00001121,0.00000171,-0.00000296,0.00000
 292,0.00000631,0.00000087,0.00000365,0.00000099,0.00000205,0.00000251,
 -0.00000273,-0.00000151,0.00000023,0.00000401,-0.00000288,0.00000646,-
 0.00000316,-0.00000386,0.00000379,0.00000051,0.00000046,0.00000385,-0.
 00000104,-0.00000583,0.00000754,0.00000350,-0.00000141,0.00000782,-0.0
 0000193,0.00000333,-0.00000380,-0.00000099,0.00000171,-0.00000397,0.00
 001153,-0.00000354,0.00000877,-0.00000355,-0.00000243,0.00000830,-0.00
 000623,0.00000181,0.00001045,0.00001761,0.00000532,-0.00000046,-0.0000
 0012,0.00000174,-0.00000426,-0.00000954,-0.00000732,-0.00000942,0.0000
 2106,0.00001462,0.00000328,-0.00001082,0.00000377,-0.00000040,0.000008
 52,0.00000530,0.00000098,0.00000721,-0.00000032,-0.00000457,-0.0000369
 3,-0.00000849,-0.00001011,-0.00000111,-0.00000080,-0.00000998,0.000014
 38,0.00000072,-0.00002270\\\@


 I MET A TRAVELLER FROM AN ANTIQUE LAND
 WHO SAID... TWO VAST AND TRUNKLESS LEGS OF STONE
 STAND IN THE DESERT..... NEAR THEM,  ON THE SAND,
 HALF SUNK,  A SHATTERED VISAGE LIES,  WHOSE FROWN,
 AND WRINKLED LIP,  AND SNEER OF COLD COMMAND
 TELL THAT ITS SCULPTOR WELL THOSE PASSIONS READ
 WHICH YET SURVIVE,  STAMPED ON THESE LIFELESS THINGS
 THE HAND THAT MOCKED THEM,  AND THE HEART THAT FED-
 AND ON THE PEDESTAL THESE WORDS APPEAR 
 MY NAME IS OZYMANDIAS, KING OF KINGS--   
 LOOK ON MY WORKS YE MIGHTY AND DESPAIR. 
 NOTHING BESIDE REMAINS,  ROUND THE DECAY 
 OF THAT COLOSSAL WRECK,  BOUNDLESS AND BARE
 THE LONE AND LEVEL SANDS STRETCH FAR AWAY.
                                    SHELLEY
 Job cpu time:       0 days  0 hours 32 minutes 40.9 seconds.
 File lengths (MBytes):  RWF=    220 Int=      0 D2E=      0 Chk=      6 Scr=      1
 Normal termination of Gaussian 09 at Mon Jan 16 00:48:35 2017.
