 Entering Gaussian System, Link 0=g09
 Initial command:
 /global/software/gaussian/g09.e01/l1.exe "/scratch/10464849.yak.local/Gau-20235.inp" -scrdir="/scratch/10464849.yak.local/"
 Entering Link 1 = /global/software/gaussian/g09.e01/l1.exe PID=     20236.
  
 Copyright (c) 1988,1990,1992,1993,1995,1998,2003,2009,2015,
            Gaussian, Inc.  All Rights Reserved.
  
 This is part of the Gaussian(R) 09 program.  It is based on
 the Gaussian(R) 03 system (copyright 2003, Gaussian, Inc.),
 the Gaussian(R) 98 system (copyright 1998, Gaussian, Inc.),
 the Gaussian(R) 94 system (copyright 1995, Gaussian, Inc.),
 the Gaussian 92(TM) system (copyright 1992, Gaussian, Inc.),
 the Gaussian 90(TM) system (copyright 1990, Gaussian, Inc.),
 the Gaussian 88(TM) system (copyright 1988, Gaussian, Inc.),
 the Gaussian 86(TM) system (copyright 1986, Carnegie Mellon
 University), and the Gaussian 82(TM) system (copyright 1983,
 Carnegie Mellon University). Gaussian is a federally registered
 trademark of Gaussian, Inc.
  
 This software contains proprietary and confidential information,
 including trade secrets, belonging to Gaussian, Inc.
  
 This software is provided under written license and may be
 used, copied, transmitted, or stored only in accord with that
 written license.
  
 The following legend is applicable only to US Government
 contracts under FAR:
  
                    RESTRICTED RIGHTS LEGEND
  
 Use, reproduction and disclosure by the US Government is
 subject to restrictions as set forth in subparagraphs (a)
 and (c) of the Commercial Computer Software - Restricted
 Rights clause in FAR 52.227-19.
  
 Gaussian, Inc.
 340 Quinnipiac St., Bldg. 40, Wallingford CT 06492
  
  
 ---------------------------------------------------------------
 Warning -- This program may not be used in any manner that
 competes with the business of Gaussian, Inc. or will provide
 assistance to any competitor of Gaussian, Inc.  The licensee
 of this program is prohibited from giving any competitor of
 Gaussian, Inc. access to this program.  By using this program,
 the user acknowledges that Gaussian, Inc. is engaged in the
 business of creating and licensing software in the field of
 computational chemistry and represents and warrants to the
 licensee that it is not a competitor of Gaussian, Inc. and that
 it will not use this program in any manner prohibited above.
 ---------------------------------------------------------------
  

 Cite this work as:
 Gaussian 09, Revision E.01,
 M. J. Frisch, G. W. Trucks, H. B. Schlegel, G. E. Scuseria, 
 M. A. Robb, J. R. Cheeseman, G. Scalmani, V. Barone, B. Mennucci, 
 G. A. Petersson, H. Nakatsuji, M. Caricato, X. Li, H. P. Hratchian, 
 A. F. Izmaylov, J. Bloino, G. Zheng, J. L. Sonnenberg, M. Hada, 
 M. Ehara, K. Toyota, R. Fukuda, J. Hasegawa, M. Ishida, T. Nakajima, 
 Y. Honda, O. Kitao, H. Nakai, T. Vreven, J. A. Montgomery, Jr., 
 J. E. Peralta, F. Ogliaro, M. Bearpark, J. J. Heyd, E. Brothers, 
 K. N. Kudin, V. N. Staroverov, T. Keith, R. Kobayashi, J. Normand, 
 K. Raghavachari, A. Rendell, J. C. Burant, S. S. Iyengar, J. Tomasi, 
 M. Cossi, N. Rega, J. M. Millam, M. Klene, J. E. Knox, J. B. Cross, 
 V. Bakken, C. Adamo, J. Jaramillo, R. Gomperts, R. E. Stratmann, 
 O. Yazyev, A. J. Austin, R. Cammi, C. Pomelli, J. W. Ochterski, 
 R. L. Martin, K. Morokuma, V. G. Zakrzewski, G. A. Voth, 
 P. Salvador, J. J. Dannenberg, S. Dapprich, A. D. Daniels, 
 O. Farkas, J. B. Foresman, J. V. Ortiz, J. Cioslowski, 
 and D. J. Fox, Gaussian, Inc., Wallingford CT, 2013.
 
 ******************************************
 Gaussian 09:  ES64L-G09RevE.01 30-Nov-2015
                15-Jan-2017 
 ******************************************
 -------------------------
 # b3lyp/6-31g(d) opt freq
 -------------------------
 1/14=-1,18=20,19=15,26=3,38=1/1,3;
 2/9=110,12=2,17=6,18=5,40=1/2;
 3/5=1,6=6,7=1,11=2,16=1,25=1,30=1,71=1,74=-5/1,2,3;
 4//1;
 5/5=2,38=5/2;
 6/7=2,8=2,9=2,10=2,28=1/1;
 7//1,2,3,16;
 1/14=-1,18=20,19=15,26=3/3(2);
 2/9=110/2;
 99//99;
 2/9=110/2;
 3/5=1,6=6,7=1,11=2,16=1,25=1,30=1,71=1,74=-5/1,2,3;
 4/5=5,16=3,69=1/1;
 5/5=2,38=5/2;
 7//1,2,3,16;
 1/14=-1,18=20,19=15,26=3/3(-5);
 2/9=110/2;
 6/7=2,8=2,9=2,10=2,19=2,28=1/1;
 99/9=1/99;
 ----------------------------------
 glo_2w_beta_ircr_boat5_B3LYP_631Gd
 ----------------------------------
 Symbolic Z-matrix:
 Charge =  0 Multiplicity = 1
 8                     0.38642   0.78791  -0.59329 
 6                    -1.41768  -0.17377   0.74582 
 6                     0.18808  -1.80539  -0.36411 
 6                    -0.42522  -1.34367   0.96102 
 6                     1.06792  -0.74896  -1.09529 
 6                    -1.02589   0.72283  -0.45025 
 1                    -1.00718  -2.18128   1.36767 
 1                    -1.40607   0.25137  -1.36434 
 1                    -1.43207   0.42789   1.66397 
 1                     0.86236  -2.65028  -0.17505 
 6                    -1.61889   2.12473  -0.35989 
 1                    -1.2625    2.72229  -1.20513 
 1                    -1.26122   2.61062   0.56495 
 1                     0.73892  -0.60398  -2.15057 
 8                     2.28443  -0.74521  -0.79769 
 8                    -3.03284   2.08956  -0.42462 
 1                    -3.33209   1.29758   0.05735 
 8                    -0.94771  -2.22399  -1.13451 
 1                    -0.66048  -2.36206  -2.05093 
 8                     0.63576  -1.0185    1.86917 
 1                     0.25133  -0.96126   2.75775 
 8                    -2.75666  -0.64884   0.58916 
 1                    -2.73621  -1.24597  -0.18159 
 8                     3.82968   1.25183  -0.4001 
 1                     2.74696   1.38555   0.74404 
 1                     4.65089   0.83819  -0.09434 
 1                     3.31784   0.50384  -0.82046 
 8                     1.88017   1.3268    1.25179 
 1                     0.98196   1.12427   0.26426 
 1                     1.83253   0.41664   1.60851 
 
 Add virtual bond connecting atoms H29        and O28        Dist= 2.55D+00.
 Add virtual bond connecting atoms O15        and H27        Dist= 3.06D+00.
 Add virtual bond connecting atoms H25        and O24        Dist= 2.99D+00.

 GradGradGradGradGradGradGradGradGradGradGradGradGradGradGradGradGradGrad
 Berny optimization.
 Initialization pass.
                           ----------------------------
                           !    Initial Parameters    !
                           ! (Angstroms and Degrees)  !
 --------------------------                            --------------------------
 ! Name  Definition              Value          Derivative Info.                !
 --------------------------------------------------------------------------------
 ! R1    R(1,6)                  1.421          estimate D2E/DX2                !
 ! R2    R(1,29)                 1.0969         estimate D2E/DX2                !
 ! R3    R(2,4)                  1.5492         estimate D2E/DX2                !
 ! R4    R(2,6)                  1.5453         estimate D2E/DX2                !
 ! R5    R(2,9)                  1.0978         estimate D2E/DX2                !
 ! R6    R(2,22)                 1.4294         estimate D2E/DX2                !
 ! R7    R(3,4)                  1.5314         estimate D2E/DX2                !
 ! R8    R(3,5)                  1.5572         estimate D2E/DX2                !
 ! R9    R(3,10)                 1.0974         estimate D2E/DX2                !
 ! R10   R(3,18)                 1.4348         estimate D2E/DX2                !
 ! R11   R(4,7)                  1.098          estimate D2E/DX2                !
 ! R12   R(4,20)                 1.4339         estimate D2E/DX2                !
 ! R13   R(5,14)                 1.1149         estimate D2E/DX2                !
 ! R14   R(5,15)                 1.2524         estimate D2E/DX2                !
 ! R15   R(6,8)                  1.0965         estimate D2E/DX2                !
 ! R16   R(6,11)                 1.5248         estimate D2E/DX2                !
 ! R17   R(11,12)                1.0948         estimate D2E/DX2                !
 ! R18   R(11,13)                1.1042         estimate D2E/DX2                !
 ! R19   R(11,16)                1.4159         estimate D2E/DX2                !
 ! R20   R(15,27)                1.6213         estimate D2E/DX2                !
 ! R21   R(16,17)                0.9742         estimate D2E/DX2                !
 ! R22   R(18,19)                0.9703         estimate D2E/DX2                !
 ! R23   R(20,21)                0.9699         estimate D2E/DX2                !
 ! R24   R(22,23)                0.9752         estimate D2E/DX2                !
 ! R25   R(24,25)                1.5809         estimate D2E/DX2                !
 ! R26   R(24,26)                0.969          estimate D2E/DX2                !
 ! R27   R(24,27)                0.9991         estimate D2E/DX2                !
 ! R28   R(25,28)                1.0063         estimate D2E/DX2                !
 ! R29   R(28,29)                1.3502         estimate D2E/DX2                !
 ! R30   R(28,30)                0.9787         estimate D2E/DX2                !
 ! A1    A(6,1,29)             118.3565         estimate D2E/DX2                !
 ! A2    A(4,2,6)              112.5354         estimate D2E/DX2                !
 ! A3    A(4,2,9)              107.8235         estimate D2E/DX2                !
 ! A4    A(4,2,22)             111.3677         estimate D2E/DX2                !
 ! A5    A(6,2,9)              109.4311         estimate D2E/DX2                !
 ! A6    A(6,2,22)             110.2133         estimate D2E/DX2                !
 ! A7    A(9,2,22)             105.1614         estimate D2E/DX2                !
 ! A8    A(4,3,5)              115.3425         estimate D2E/DX2                !
 ! A9    A(4,3,10)             109.2154         estimate D2E/DX2                !
 ! A10   A(4,3,18)             103.6238         estimate D2E/DX2                !
 ! A11   A(5,3,10)             104.8355         estimate D2E/DX2                !
 ! A12   A(5,3,18)             113.1461         estimate D2E/DX2                !
 ! A13   A(10,3,18)            110.7494         estimate D2E/DX2                !
 ! A14   A(2,4,3)              111.3485         estimate D2E/DX2                !
 ! A15   A(2,4,7)              106.7371         estimate D2E/DX2                !
 ! A16   A(2,4,20)             113.0006         estimate D2E/DX2                !
 ! A17   A(3,4,7)              107.6212         estimate D2E/DX2                !
 ! A18   A(3,4,20)             108.6672         estimate D2E/DX2                !
 ! A19   A(7,4,20)             109.3048         estimate D2E/DX2                !
 ! A20   A(3,5,14)             111.4657         estimate D2E/DX2                !
 ! A21   A(3,5,15)             116.0588         estimate D2E/DX2                !
 ! A22   A(14,5,15)            120.7434         estimate D2E/DX2                !
 ! A23   A(1,6,2)              110.8828         estimate D2E/DX2                !
 ! A24   A(1,6,8)              106.2824         estimate D2E/DX2                !
 ! A25   A(1,6,11)             110.5099         estimate D2E/DX2                !
 ! A26   A(2,6,8)              107.9298         estimate D2E/DX2                !
 ! A27   A(2,6,11)             112.89           estimate D2E/DX2                !
 ! A28   A(8,6,11)             108.0509         estimate D2E/DX2                !
 ! A29   A(6,11,12)            109.237          estimate D2E/DX2                !
 ! A30   A(6,11,13)            109.1606         estimate D2E/DX2                !
 ! A31   A(6,11,16)            111.2735         estimate D2E/DX2                !
 ! A32   A(12,11,13)           107.5183         estimate D2E/DX2                !
 ! A33   A(12,11,16)           107.6595         estimate D2E/DX2                !
 ! A34   A(13,11,16)           111.881          estimate D2E/DX2                !
 ! A35   A(5,15,27)            128.1782         estimate D2E/DX2                !
 ! A36   A(11,16,17)           107.7178         estimate D2E/DX2                !
 ! A37   A(3,18,19)            108.3193         estimate D2E/DX2                !
 ! A38   A(4,20,21)            107.4794         estimate D2E/DX2                !
 ! A39   A(2,22,23)            105.6934         estimate D2E/DX2                !
 ! A40   A(25,24,26)           112.8401         estimate D2E/DX2                !
 ! A41   A(25,24,27)            90.9721         estimate D2E/DX2                !
 ! A42   A(26,24,27)           104.3202         estimate D2E/DX2                !
 ! A43   A(24,25,28)           161.84           estimate D2E/DX2                !
 ! A44   A(15,27,24)           153.821          estimate D2E/DX2                !
 ! A45   A(25,28,29)           102.2827         estimate D2E/DX2                !
 ! A46   A(25,28,30)           106.2682         estimate D2E/DX2                !
 ! A47   A(29,28,30)            95.4339         estimate D2E/DX2                !
 ! A48   L(1,29,28,4,-1)       176.3126         estimate D2E/DX2                !
 ! A49   L(1,29,28,4,-2)       168.2682         estimate D2E/DX2                !
 ! D1    D(29,1,6,2)           -56.0785         estimate D2E/DX2                !
 ! D2    D(29,1,6,8)          -173.1241         estimate D2E/DX2                !
 ! D3    D(29,1,6,11)           69.8805         estimate D2E/DX2                !
 ! D4    D(6,1,28,25)         -173.3936         estimate D2E/DX2                !
 ! D5    D(6,1,28,30)           79.718          estimate D2E/DX2                !
 ! D6    D(6,2,4,3)            -31.1981         estimate D2E/DX2                !
 ! D7    D(6,2,4,7)           -148.3881         estimate D2E/DX2                !
 ! D8    D(6,2,4,20)            91.4341         estimate D2E/DX2                !
 ! D9    D(9,2,4,3)           -151.9781         estimate D2E/DX2                !
 ! D10   D(9,2,4,7)             90.8319         estimate D2E/DX2                !
 ! D11   D(9,2,4,20)           -29.3459         estimate D2E/DX2                !
 ! D12   D(22,2,4,3)            93.137          estimate D2E/DX2                !
 ! D13   D(22,2,4,7)           -24.053          estimate D2E/DX2                !
 ! D14   D(22,2,4,20)         -144.2307         estimate D2E/DX2                !
 ! D15   D(4,2,6,1)            -32.877          estimate D2E/DX2                !
 ! D16   D(4,2,6,8)             83.1533         estimate D2E/DX2                !
 ! D17   D(4,2,6,11)          -157.4976         estimate D2E/DX2                !
 ! D18   D(9,2,6,1)             86.9763         estimate D2E/DX2                !
 ! D19   D(9,2,6,8)           -156.9933         estimate D2E/DX2                !
 ! D20   D(9,2,6,11)           -37.6443         estimate D2E/DX2                !
 ! D21   D(22,2,6,1)          -157.8463         estimate D2E/DX2                !
 ! D22   D(22,2,6,8)           -41.816          estimate D2E/DX2                !
 ! D23   D(22,2,6,11)           77.5331         estimate D2E/DX2                !
 ! D24   D(4,2,22,23)          -58.7878         estimate D2E/DX2                !
 ! D25   D(6,2,22,23)           66.8462         estimate D2E/DX2                !
 ! D26   D(9,2,22,23)         -175.3102         estimate D2E/DX2                !
 ! D27   D(5,3,4,2)             63.8179         estimate D2E/DX2                !
 ! D28   D(5,3,4,7)           -179.5304         estimate D2E/DX2                !
 ! D29   D(5,3,4,20)           -61.2727         estimate D2E/DX2                !
 ! D30   D(10,3,4,2)          -178.4658         estimate D2E/DX2                !
 ! D31   D(10,3,4,7)           -61.8141         estimate D2E/DX2                !
 ! D32   D(10,3,4,20)           56.4436         estimate D2E/DX2                !
 ! D33   D(18,3,4,2)           -60.3979         estimate D2E/DX2                !
 ! D34   D(18,3,4,7)            56.2539         estimate D2E/DX2                !
 ! D35   D(18,3,4,20)          174.5116         estimate D2E/DX2                !
 ! D36   D(4,3,5,14)          -126.9029         estimate D2E/DX2                !
 ! D37   D(4,3,5,15)            89.6086         estimate D2E/DX2                !
 ! D38   D(10,3,5,14)          112.9535         estimate D2E/DX2                !
 ! D39   D(10,3,5,15)          -30.5351         estimate D2E/DX2                !
 ! D40   D(18,3,5,14)           -7.8312         estimate D2E/DX2                !
 ! D41   D(18,3,5,15)         -151.3197         estimate D2E/DX2                !
 ! D42   D(4,3,18,19)          168.6929         estimate D2E/DX2                !
 ! D43   D(5,3,18,19)           43.0605         estimate D2E/DX2                !
 ! D44   D(10,3,18,19)         -74.3092         estimate D2E/DX2                !
 ! D45   D(2,4,20,21)           70.8104         estimate D2E/DX2                !
 ! D46   D(3,4,20,21)         -165.075          estimate D2E/DX2                !
 ! D47   D(7,4,20,21)          -47.887          estimate D2E/DX2                !
 ! D48   D(3,5,15,27)         -151.0397         estimate D2E/DX2                !
 ! D49   D(14,5,15,27)          69.0701         estimate D2E/DX2                !
 ! D50   D(1,6,11,12)           52.2259         estimate D2E/DX2                !
 ! D51   D(1,6,11,13)          -65.0813         estimate D2E/DX2                !
 ! D52   D(1,6,11,16)          170.9547         estimate D2E/DX2                !
 ! D53   D(2,6,11,12)          177.0498         estimate D2E/DX2                !
 ! D54   D(2,6,11,13)           59.7426         estimate D2E/DX2                !
 ! D55   D(2,6,11,16)          -64.2215         estimate D2E/DX2                !
 ! D56   D(8,6,11,12)          -63.6712         estimate D2E/DX2                !
 ! D57   D(8,6,11,13)          179.0216         estimate D2E/DX2                !
 ! D58   D(8,6,11,16)           55.0575         estimate D2E/DX2                !
 ! D59   D(6,11,16,17)          36.9855         estimate D2E/DX2                !
 ! D60   D(12,11,16,17)        156.6559         estimate D2E/DX2                !
 ! D61   D(13,11,16,17)        -85.4215         estimate D2E/DX2                !
 ! D62   D(5,15,27,24)          97.4796         estimate D2E/DX2                !
 ! D63   D(26,24,25,28)       -128.051          estimate D2E/DX2                !
 ! D64   D(27,24,25,28)        -22.055          estimate D2E/DX2                !
 ! D65   D(25,24,27,15)        -25.9124         estimate D2E/DX2                !
 ! D66   D(26,24,27,15)         87.9786         estimate D2E/DX2                !
 ! D67   D(24,25,28,29)        -18.6453         estimate D2E/DX2                !
 ! D68   D(24,25,28,30)         80.8225         estimate D2E/DX2                !
 --------------------------------------------------------------------------------
 Trust Radius=3.00D-01 FncErr=1.00D-07 GrdErr=1.00D-06
 Number of steps in this run=    157 maximum allowed number of steps=    180.
 GradGradGradGradGradGradGradGradGradGradGradGradGradGradGradGradGradGrad

                          Input orientation:                          
 ---------------------------------------------------------------------
 Center     Atomic      Atomic             Coordinates (Angstroms)
 Number     Number       Type             X           Y           Z
 ---------------------------------------------------------------------
      1          8           0        0.386416    0.787911   -0.593285
      2          6           0       -1.417681   -0.173769    0.745816
      3          6           0        0.188076   -1.805393   -0.364113
      4          6           0       -0.425219   -1.343672    0.961017
      5          6           0        1.067923   -0.748955   -1.095286
      6          6           0       -1.025890    0.722834   -0.450254
      7          1           0       -1.007177   -2.181281    1.367670
      8          1           0       -1.406072    0.251370   -1.364342
      9          1           0       -1.432067    0.427885    1.663970
     10          1           0        0.862363   -2.650275   -0.175051
     11          6           0       -1.618888    2.124728   -0.359891
     12          1           0       -1.262502    2.722292   -1.205125
     13          1           0       -1.261224    2.610619    0.564946
     14          1           0        0.738921   -0.603977   -2.150574
     15          8           0        2.284429   -0.745208   -0.797690
     16          8           0       -3.032844    2.089558   -0.424615
     17          1           0       -3.332087    1.297579    0.057353
     18          8           0       -0.947706   -2.223989   -1.134505
     19          1           0       -0.660476   -2.362057   -2.050926
     20          8           0        0.635757   -1.018501    1.869167
     21          1           0        0.251334   -0.961256    2.757752
     22          8           0       -2.756656   -0.648844    0.589159
     23          1           0       -2.736207   -1.245972   -0.181585
     24          8           0        3.829677    1.251829   -0.400101
     25          1           0        2.746959    1.385549    0.744043
     26          1           0        4.650894    0.838187   -0.094341
     27          1           0        3.317843    0.503842   -0.820457
     28          8           0        1.880172    1.326799    1.251794
     29          1           0        0.981957    1.124268    0.264257
     30          1           0        1.832527    0.416639    1.608512
 ---------------------------------------------------------------------
                    Distance matrix (angstroms):
                    1          2          3          4          5
     1  O    0.000000
     2  C    2.443928   0.000000
     3  C    2.610955   2.544129   0.000000
     4  C    2.760118   1.549182   1.531433   0.000000
     5  C    1.754541   3.146224   1.557179   2.609893   0.000000
     6  C    1.421021   1.545309   2.805898   2.573507   2.639372
     7  H    3.821459   2.141336   2.137520   1.098012   3.524734
     8  H    2.023714   2.152590   2.787838   2.985553   2.682106
     9  H    2.920907   1.097817   3.424254   2.155528   3.904919
    10  H    3.496079   3.489940   1.097376   2.157714   2.122288
    11  C    2.421321   2.558547   4.325620   3.898646   4.002226
    12  H    2.614404   3.495343   4.828189   4.682444   4.182404
    13  H    2.716336   2.794639   4.739703   4.061058   4.412259
    14  H    2.118198   3.636631   2.222223   3.403582   1.114851
    15  O    2.448405   4.051490   2.388865   3.285331   1.252383
    16  O    3.662523   3.016838   5.054565   4.528438   5.032221
    17  H    3.809246   2.510736   4.711435   4.030223   4.987681
    18  O    3.338314   2.821327   1.434827   2.332201   2.498004
    19  H    3.625327   3.630941   1.968566   3.188143   2.550041
    20  O    3.064142   2.488393   2.409804   1.433926   3.007890
    21  H    3.782497   2.730134   3.234596   1.957606   3.944337
    22  O    3.652580   1.429368   3.304206   2.461029   4.180285
    23  H    3.749260   1.936028   2.982901   2.579874   3.943765
    24  O    3.479739   5.556998   4.754909   5.166566   3.480475
    25  H    2.778089   4.446988   4.237688   4.190279   3.280000
    26  H    4.293861   6.209470   5.194039   5.625052   4.044576
    27  H    2.953907   5.033642   3.916153   4.538444   2.589821
    28  O    2.434343   3.658354   3.909600   3.539886   3.236864
    29  H    1.096897   2.770390   3.099679   2.925123   2.316185
    30  H    2.660261   3.414188   3.396012   2.935194   3.041998
                    6          7          8          9         10
     6  C    0.000000
     7  H    3.426234   0.000000
     8  H    1.096528   3.679782   0.000000
     9  H    2.172997   2.660089   3.033563   0.000000
    10  H    3.875448   2.468830   3.870369   4.256933   0.000000
    11  C    1.524834   4.679783   2.136278   2.647677   5.384369
    12  H    2.150267   5.543419   2.480205   3.677603   5.868610
    13  H    2.156327   4.865307   3.051096   2.449769   5.721383
    14  H    2.786768   4.232586   2.439421   4.508733   2.846975
    15  O    3.637866   4.193538   3.864461   4.609583   2.457485
    16  O    2.428262   5.055262   2.628385   3.112207   6.140109
    17  H    2.430338   4.384587   2.612528   2.635842   5.764805
    18  O    3.026232   2.503246   2.527910   3.885679   2.092516
    19  H    3.494600   3.440884   2.803090   4.709520   2.433314
    20  O    3.342609   2.074316   4.029543   2.531805   2.625426
    21  H    3.841714   2.237105   4.605336   2.441293   3.439110
    22  O    2.440785   2.452574   2.539809   2.017201   4.205596
    23  H    2.621748   2.502906   2.325985   2.812233   3.862877
    24  O    4.884555   6.189218   5.416987   5.711849   4.907343
    25  H    4.012471   5.215815   4.793675   4.384934   4.548001
    26  H    5.689100   6.577874   6.216437   6.345268   5.150616
    27  H    4.364977   5.541081   4.761820   5.360951   4.048998
    28  O    3.421540   4.544979   4.335910   3.456713   4.346141
    29  H    2.168669   4.012584   3.019432   2.876049   3.801903
    30  H    3.535933   3.856308   4.399284   3.265084   3.678081
                   11         12         13         14         15
    11  C    0.000000
    12  H    1.094767   0.000000
    13  H    1.104236   1.773591   0.000000
    14  H    4.026368   3.995452   4.659212   0.000000
    15  O    4.864574   4.976975   5.068531   2.058843   0.000000
    16  O    1.415873   2.035598   2.095083   4.945733   6.037257
    17  H    1.947644   2.811910   2.504036   5.006392   6.037328
    18  O    4.467869   4.956791   5.134186   2.549813   3.570285
    19  H    4.889723   5.189260   5.650769   2.249241   3.585703
    20  O    4.464528   5.200788   4.297679   4.042374   3.147211
    21  H    4.768724   5.618240   4.455841   4.945407   4.101380
    22  O    3.144505   4.100794   3.586224   4.441532   5.229261
    23  H    3.555533   4.355061   4.195972   4.045441   5.083024
    24  O    5.518191   5.361027   5.356762   4.007611   2.556174
    25  H    4.563516   4.654236   4.195045   4.045891   2.670393
    26  H    6.405925   6.304914   6.207199   4.648813   2.932916
    27  H    5.216388   5.103827   5.227399   3.106012   1.621292
    28  O    3.934163   4.226139   3.462416   4.075102   2.942282
    29  H    2.855674   3.122557   2.707677   2.979481   2.513783
    30  H    4.324863   4.776169   3.933684   4.045783   2.709965
                   16         17         18         19         20
    16  O    0.000000
    17  H    0.974202   0.000000
    18  O    4.843391   4.416700   0.000000
    19  H    5.299990   4.997528   0.970253   0.000000
    20  O    5.327298   4.938692   3.603138   4.341946   0.000000
    21  H    5.497340   5.023484   4.264019   5.090877   0.969867
    22  O    2.933064   2.098214   2.953709   3.781417   3.644658
    23  H    3.357502   2.623322   2.250180   3.008112   3.953159
    24  O    6.913507   7.176505   5.953490   5.995571   4.528256
    25  H    5.938646   6.118340   5.496204   5.785068   3.391539
    26  H    7.791973   7.997627   6.465538   6.502341   4.839833
    27  H    6.557622   6.754416   5.072928   5.055141   4.092089
    28  O    5.246892   5.347447   5.128295   5.565115   2.725830
    29  H    4.186282   4.322479   4.109861   4.495789   2.699454
    30  H    5.532097   5.464008   4.714526   5.227590   1.886750
                   21         22         23         24         25
    21  H    0.000000
    22  O    3.721344   0.000000
    23  H    4.200734   0.975206   0.000000
    24  O    5.260639   6.926108   7.028342   0.000000
    25  H    3.973747   5.869627   6.151975   1.580894   0.000000
    26  H    5.543335   7.586187   7.675975   0.969013   2.151153
    27  H    4.934934   6.341549   6.334156   0.999078   1.884403
    28  O    3.186882   5.083544   5.475827   2.556354   1.006272
    29  H    3.331777   4.150508   4.431880   2.926970   1.847619
    30  H    2.391551   4.820263   5.180932   2.953079   1.588168
                   26         27         28         29         30
    26  H    0.000000
    27  H    1.554367   0.000000
    28  O    3.118930   2.652995   0.000000
    29  H    3.697504   2.649131   1.350199   0.000000
    30  H    3.319729   2.848448   0.978728   1.741043   0.000000
 Stoichiometry    C6H16O8
 Framework group  C1[X(C6H16O8)]
 Deg. of freedom    84
 Full point group                 C1      NOp   1
 Largest Abelian subgroup         C1      NOp   1
 Largest concise Abelian subgroup C1      NOp   1
                         Standard orientation:                         
 ---------------------------------------------------------------------
 Center     Atomic      Atomic             Coordinates (Angstroms)
 Number     Number       Type             X           Y           Z
 ---------------------------------------------------------------------
      1          8           0        0.377286    0.782028   -0.595970
      2          6           0       -1.432355   -0.186810    0.730431
      3          6           0        0.191045   -1.811866   -0.363352
      4          6           0       -0.435387   -1.350935    0.955895
      5          6           0        1.071068   -0.752096   -1.089473
      6          6           0       -1.035757    0.709612   -0.464190
      7          1           0       -1.016095   -2.190893    1.359479
      8          1           0       -1.406018    0.234366   -1.380389
      9          1           0       -1.457376    0.416505    1.647266
     10          1           0        0.868316   -2.652740   -0.167222
     11          6           0       -1.636990    2.108459   -0.381335
     12          1           0       -1.277018    2.706325   -1.224834
     13          1           0       -1.289411    2.598031    0.545404
     14          1           0        0.749811   -0.610903   -2.147656
     15          8           0        2.285097   -0.741225   -0.782099
     16          8           0       -3.050169    2.065545   -0.457374
     17          1           0       -3.349027    1.272884    0.023711
     18          8           0       -0.936223   -2.238044   -1.142048
     19          1           0       -0.640876   -2.376307   -2.055856
     20          8           0        0.616470   -1.018322    1.871923
     21          1           0        0.224593   -0.961457    2.757271
     22          8           0       -2.767450   -0.669393    0.563923
     23          1           0       -2.737579   -1.267868   -0.205467
     24          8           0        3.816334    1.264865   -0.375971
     25          1           0        2.723724    1.394926    0.759155
     26          1           0        4.637271    0.856238   -0.062803
     27          1           0        3.311934    0.513331   -0.798977
     28          8           0        1.853200    1.332472    1.260024
     29          1           0        0.964077    1.123222    0.265683
     30          1           0        1.807572    0.422749    1.618119
 ---------------------------------------------------------------------
 Rotational constants (GHZ):      0.8306422      0.4956191      0.4081049
 Standard basis: 6-31G(d) (6D, 7F)
 There are   242 symmetry adapted cartesian basis functions of A   symmetry.
 There are   242 symmetry adapted basis functions of A   symmetry.
   242 basis functions,   456 primitive gaussians,   242 cartesian basis functions
    58 alpha electrons       58 beta electrons
       nuclear repulsion energy      1130.4073076973 Hartrees.
 NAtoms=   30 NActive=   30 NUniq=   30 SFac= 1.00D+00 NAtFMM=   60 NAOKFM=F Big=F
 Integral buffers will be    131072 words long.
 Raffenetti 2 integral format.
 Two-electron integral symmetry is turned on.
 One-electron integrals computed using PRISM.
 NBasis=   242 RedAO= T EigKep=  1.56D-03  NBF=   242
 NBsUse=   242 1.00D-06 EigRej= -1.00D+00 NBFU=   242
 ExpMin= 1.61D-01 ExpMax= 5.48D+03 ExpMxC= 8.25D+02 IAcc=1 IRadAn=         1 AccDes= 0.00D+00
 Harris functional with IExCor=  402 and IRadAn=       1 diagonalized for initial guess.
 HarFok:  IExCor=  402 AccDes= 0.00D+00 IRadAn=         1 IDoV= 1 UseB2=F ITyADJ=14
 ICtDFT=  3500011 ScaDFX=  1.000000  1.000000  1.000000  1.000000
 FoFCou: FMM=F IPFlag=           0 FMFlag=      100000 FMFlg1=           0
         NFxFlg=           0 DoJE=T BraDBF=F KetDBF=T FulRan=T
         wScrn=  0.000000 ICntrl=     500 IOpCl=  0 I1Cent=   200000004 NGrid=           0
         NMat0=    1 NMatS0=      1 NMatT0=    0 NMatD0=    1 NMtDS0=    0 NMtDT0=    0
 Petite list used in FoFCou.
 Requested convergence on RMS density matrix=1.00D-08 within 128 cycles.
 Requested convergence on MAX density matrix=1.00D-06.
 Requested convergence on             energy=1.00D-06.
 No special actions if energy rises.
 Integral accuracy reduced to 1.0D-05 until final iterations.
 Initial convergence to 1.0D-05 achieved.  Increase integral accuracy.
 SCF Done:  E(RB3LYP) =  -839.963906506     A.U. after   14 cycles
            NFock= 14  Conv=0.68D-08     -V/T= 2.0084

 **********************************************************************

            Population analysis using the SCF density.

 **********************************************************************

 Orbital symmetries:
       Occupied  (A) (A) (A) (A) (A) (A) (A) (A) (A) (A) (A) (A)
                 (A) (A) (A) (A) (A) (A) (A) (A) (A) (A) (A) (A)
                 (A) (A) (A) (A) (A) (A) (A) (A) (A) (A) (A) (A)
                 (A) (A) (A) (A) (A) (A) (A) (A) (A) (A) (A) (A)
                 (A) (A) (A) (A) (A) (A) (A) (A) (A) (A)
       Virtual   (A) (A) (A) (A) (A) (A) (A) (A) (A) (A) (A) (A)
                 (A) (A) (A) (A) (A) (A) (A) (A) (A) (A) (A) (A)
                 (A) (A) (A) (A) (A) (A) (A) (A) (A) (A) (A) (A)
                 (A) (A) (A) (A) (A) (A) (A) (A) (A) (A) (A) (A)
                 (A) (A) (A) (A) (A) (A) (A) (A) (A) (A) (A) (A)
                 (A) (A) (A) (A) (A) (A) (A) (A) (A) (A) (A) (A)
                 (A) (A) (A) (A) (A) (A) (A) (A) (A) (A) (A) (A)
                 (A) (A) (A) (A) (A) (A) (A) (A) (A) (A) (A) (A)
                 (A) (A) (A) (A) (A) (A) (A) (A) (A) (A) (A) (A)
                 (A) (A) (A) (A) (A) (A) (A) (A) (A) (A) (A) (A)
                 (A) (A) (A) (A) (A) (A) (A) (A) (A) (A) (A) (A)
                 (A) (A) (A) (A) (A) (A) (A) (A) (A) (A) (A) (A)
                 (A) (A) (A) (A) (A) (A) (A) (A) (A) (A) (A) (A)
                 (A) (A) (A) (A) (A) (A) (A) (A) (A) (A) (A) (A)
                 (A) (A) (A) (A) (A) (A) (A) (A) (A) (A) (A) (A)
                 (A) (A) (A) (A)
 The electronic state is 1-A.
 Alpha  occ. eigenvalues --  -19.18879 -19.18138 -19.17672 -19.17147 -19.15086
 Alpha  occ. eigenvalues --  -19.13884 -19.13428 -19.09958 -10.28564 -10.26518
 Alpha  occ. eigenvalues --  -10.25722 -10.25385 -10.25001 -10.23087  -1.07279
 Alpha  occ. eigenvalues --   -1.05205  -1.04835  -1.04185  -1.01581  -1.00835
 Alpha  occ. eigenvalues --   -1.00219  -0.98483  -0.79194  -0.75588  -0.69528
 Alpha  occ. eigenvalues --   -0.65784  -0.62348  -0.59673  -0.57263  -0.54949
 Alpha  occ. eigenvalues --   -0.53748  -0.52502  -0.51983  -0.50901  -0.50495
 Alpha  occ. eigenvalues --   -0.47313  -0.46448  -0.44912  -0.43922  -0.43297
 Alpha  occ. eigenvalues --   -0.41882  -0.41739  -0.40251  -0.39762  -0.38867
 Alpha  occ. eigenvalues --   -0.38086  -0.37403  -0.36045  -0.34545  -0.33225
 Alpha  occ. eigenvalues --   -0.32504  -0.30917  -0.29898  -0.29721  -0.27466
 Alpha  occ. eigenvalues --   -0.27077  -0.25308  -0.23357
 Alpha virt. eigenvalues --    0.01950   0.04537   0.05896   0.07685   0.08715
 Alpha virt. eigenvalues --    0.09255   0.11388   0.11932   0.12841   0.13936
 Alpha virt. eigenvalues --    0.15333   0.15809   0.16386   0.18652   0.19606
 Alpha virt. eigenvalues --    0.20223   0.21038   0.21990   0.22556   0.23712
 Alpha virt. eigenvalues --    0.25801   0.26382   0.26484   0.28833   0.30153
 Alpha virt. eigenvalues --    0.31522   0.31924   0.35681   0.51251   0.52900
 Alpha virt. eigenvalues --    0.54560   0.56284   0.56601   0.57647   0.58094
 Alpha virt. eigenvalues --    0.59706   0.61528   0.62701   0.63560   0.65901
 Alpha virt. eigenvalues --    0.68513   0.70040   0.72149   0.73464   0.74686
 Alpha virt. eigenvalues --    0.75966   0.76665   0.78561   0.79431   0.80483
 Alpha virt. eigenvalues --    0.80513   0.82198   0.82439   0.83339   0.84215
 Alpha virt. eigenvalues --    0.85262   0.86735   0.87090   0.88478   0.90081
 Alpha virt. eigenvalues --    0.90719   0.90947   0.92677   0.93664   0.94483
 Alpha virt. eigenvalues --    0.96616   0.97571   0.98634   1.01101   1.02038
 Alpha virt. eigenvalues --    1.05026   1.06169   1.07220   1.07845   1.09514
 Alpha virt. eigenvalues --    1.09800   1.11117   1.14384   1.15507   1.16672
 Alpha virt. eigenvalues --    1.20452   1.20531   1.24705   1.24960   1.27084
 Alpha virt. eigenvalues --    1.30026   1.31427   1.33146   1.34341   1.37921
 Alpha virt. eigenvalues --    1.38932   1.41150   1.42494   1.46795   1.49459
 Alpha virt. eigenvalues --    1.49911   1.53873   1.56253   1.58071   1.58441
 Alpha virt. eigenvalues --    1.60723   1.62862   1.63803   1.66995   1.68209
 Alpha virt. eigenvalues --    1.70053   1.71336   1.71792   1.72820   1.73753
 Alpha virt. eigenvalues --    1.75887   1.76417   1.77812   1.78573   1.79158
 Alpha virt. eigenvalues --    1.80076   1.81112   1.81983   1.82210   1.86671
 Alpha virt. eigenvalues --    1.88553   1.90571   1.92108   1.94143   1.97243
 Alpha virt. eigenvalues --    1.97442   2.00166   2.00837   2.02454   2.05780
 Alpha virt. eigenvalues --    2.06478   2.07803   2.08830   2.12153   2.14355
 Alpha virt. eigenvalues --    2.16347   2.21061   2.23599   2.25629   2.26520
 Alpha virt. eigenvalues --    2.29835   2.32363   2.34837   2.36565   2.38764
 Alpha virt. eigenvalues --    2.40754   2.41998   2.45240   2.45999   2.49740
 Alpha virt. eigenvalues --    2.51698   2.53203   2.55504   2.57061   2.58962
 Alpha virt. eigenvalues --    2.62951   2.65399   2.67700   2.68748   2.72919
 Alpha virt. eigenvalues --    2.73496   2.76460   2.80217   2.85926   2.89140
 Alpha virt. eigenvalues --    2.90643   2.91564   3.01494   3.03312   3.12630
 Alpha virt. eigenvalues --    3.71156   3.76108   3.80454   3.85039   3.91477
 Alpha virt. eigenvalues --    3.98565   4.04340   4.17656   4.29865   4.37987
 Alpha virt. eigenvalues --    4.42633   4.55127   4.65959   4.77308
          Condensed to atoms (all electrons):
               1          2          3          4          5          6
     1  O    8.620151  -0.038867  -0.024383   0.002749   0.043249   0.135042
     2  C   -0.038867   5.094035  -0.044746   0.304445  -0.015744   0.287805
     3  C   -0.024383  -0.044746   5.167197   0.331837   0.248704   0.001451
     4  C    0.002749   0.304445   0.331837   4.964679  -0.024410  -0.041239
     5  C    0.043249  -0.015744   0.248704  -0.024410   4.722237  -0.008733
     6  C    0.135042   0.287805   0.001451  -0.041239  -0.008733   5.022692
     7  H    0.000033  -0.065419  -0.036952   0.363982   0.004082   0.006199
     8  H   -0.035531  -0.060480  -0.004193  -0.006897  -0.001341   0.356033
     9  H    0.002433   0.360904   0.004377  -0.048421   0.000477  -0.047652
    10  H    0.002576   0.005919   0.350514  -0.036143  -0.047944  -0.000015
    11  C   -0.028722  -0.033129   0.000111   0.003734   0.000250   0.349416
    12  H    0.002797   0.006533   0.000010  -0.000126  -0.000055  -0.031035
    13  H    0.002339  -0.016729   0.000028  -0.000287  -0.000060  -0.042274
    14  H   -0.042636   0.001446  -0.116686   0.002494   0.351338  -0.003029
    15  O   -0.049147   0.000554  -0.055454  -0.001949   0.419507   0.000877
    16  O    0.001518   0.003556  -0.000001   0.000107   0.000000  -0.033171
    17  H    0.000083   0.001259  -0.000008   0.000558  -0.000009  -0.010130
    18  O    0.000923   0.005711   0.171499  -0.046189  -0.022036  -0.007324
    19  H   -0.000325  -0.000029  -0.036105   0.006943  -0.001061  -0.000272
    20  O   -0.001178  -0.037088  -0.041771   0.193780   0.000912   0.001462
    21  H    0.000060  -0.002225   0.006387  -0.019133   0.000069  -0.000218
    22  O    0.001640   0.197616   0.000376  -0.026823   0.000221  -0.031478
    23  H    0.000019  -0.030817  -0.000795  -0.008056   0.000280  -0.004655
    24  O   -0.000187   0.000001  -0.000087  -0.000001   0.001930   0.000008
    25  H    0.005379  -0.000013   0.000023  -0.000010  -0.000594  -0.000141
    26  H   -0.000001  -0.000000  -0.000003  -0.000000  -0.000037   0.000000
    27  H    0.000774  -0.000012   0.001628  -0.000035  -0.004052   0.000021
    28  O   -0.089998   0.000399  -0.000509   0.001553   0.004950   0.004347
    29  H    0.123240  -0.001109  -0.000481  -0.002065  -0.003052  -0.008558
    30  H    0.006913   0.000349  -0.001780  -0.002978   0.000525  -0.000280
               7          8          9         10         11         12
     1  O    0.000033  -0.035531   0.002433   0.002576  -0.028722   0.002797
     2  C   -0.065419  -0.060480   0.360904   0.005919  -0.033129   0.006533
     3  C   -0.036952  -0.004193   0.004377   0.350514   0.000111   0.000010
     4  C    0.363982  -0.006897  -0.048421  -0.036143   0.003734  -0.000126
     5  C    0.004082  -0.001341   0.000477  -0.047944   0.000250  -0.000055
     6  C    0.006199   0.356033  -0.047652  -0.000015   0.349416  -0.031035
     7  H    0.604480  -0.000358  -0.000070  -0.008183  -0.000153   0.000003
     8  H   -0.000358   0.610087   0.005888   0.000237  -0.041939  -0.008551
     9  H   -0.000070   0.005888   0.600667  -0.000174  -0.006181   0.000030
    10  H   -0.008183   0.000237  -0.000174   0.591911   0.000014  -0.000000
    11  C   -0.000153  -0.041939  -0.006181   0.000014   4.836887   0.371683
    12  H    0.000003  -0.008551   0.000030  -0.000000   0.371683   0.585720
    13  H   -0.000005   0.007101   0.006628  -0.000000   0.351300  -0.049931
    14  H   -0.000273   0.008047   0.000013   0.004772  -0.000301   0.000009
    15  O   -0.000160   0.000214   0.000004   0.006531  -0.000047   0.000000
    16  O    0.000003   0.005509   0.000067  -0.000000   0.265997  -0.038181
    17  H    0.000005  -0.000176  -0.001218   0.000001  -0.035240   0.005421
    18  O    0.001517   0.010096   0.000069  -0.033567   0.000298  -0.000000
    19  H   -0.000299   0.001079   0.000016  -0.001228  -0.000021   0.000000
    20  O   -0.028013  -0.000028   0.001765   0.003662  -0.000092   0.000002
    21  H   -0.007173   0.000012   0.004647  -0.000219  -0.000004  -0.000000
    22  O    0.007744   0.001115  -0.036651  -0.000148  -0.000929  -0.000223
    23  H    0.001052   0.006132   0.006628   0.000099  -0.000210   0.000018
    24  O   -0.000000  -0.000000   0.000000   0.000002  -0.000000  -0.000000
    25  H    0.000000   0.000012   0.000013  -0.000005  -0.000005   0.000000
    26  H    0.000000   0.000000  -0.000000  -0.000000  -0.000000   0.000000
    27  H    0.000002  -0.000011  -0.000001  -0.000047   0.000001   0.000001
    28  O   -0.000036  -0.000168   0.000112   0.000034  -0.000081   0.000014
    29  H    0.000037   0.002724   0.001085  -0.000170  -0.003362  -0.000176
    30  H    0.000312   0.000043   0.000016   0.000049  -0.000029   0.000000
              13         14         15         16         17         18
     1  O    0.002339  -0.042636  -0.049147   0.001518   0.000083   0.000923
     2  C   -0.016729   0.001446   0.000554   0.003556   0.001259   0.005711
     3  C    0.000028  -0.116686  -0.055454  -0.000001  -0.000008   0.171499
     4  C   -0.000287   0.002494  -0.001949   0.000107   0.000558  -0.046189
     5  C   -0.000060   0.351338   0.419507   0.000000  -0.000009  -0.022036
     6  C   -0.042274  -0.003029   0.000877  -0.033171  -0.010130  -0.007324
     7  H   -0.000005  -0.000273  -0.000160   0.000003   0.000005   0.001517
     8  H    0.007101   0.008047   0.000214   0.005509  -0.000176   0.010096
     9  H    0.006628   0.000013   0.000004   0.000067  -0.001218   0.000069
    10  H   -0.000000   0.004772   0.006531  -0.000000   0.000001  -0.033567
    11  C    0.351300  -0.000301  -0.000047   0.265997  -0.035240   0.000298
    12  H   -0.049931   0.000009   0.000000  -0.038181   0.005421  -0.000000
    13  H    0.650893  -0.000001   0.000003  -0.039516  -0.000497  -0.000006
    14  H   -0.000001   0.723982  -0.040932   0.000004   0.000001   0.005385
    15  O    0.000003  -0.040932   8.256383   0.000000   0.000000   0.001604
    16  O   -0.039516   0.000004   0.000000   8.251507   0.232565  -0.000002
    17  H   -0.000497   0.000001   0.000000   0.232565   0.359576   0.000001
    18  O   -0.000006   0.005385   0.001604  -0.000002   0.000001   8.311138
    19  H    0.000000   0.011929   0.000154   0.000000  -0.000002   0.237717
    20  O   -0.000013   0.000058   0.000588   0.000000  -0.000008   0.001154
    21  H    0.000003   0.000011   0.000086   0.000000  -0.000002  -0.000095
    22  O    0.000275   0.000009  -0.000000  -0.009360   0.036735  -0.006001
    23  H    0.000021  -0.000051  -0.000003   0.000596  -0.001127   0.023781
    24  O    0.000000   0.000194  -0.041069  -0.000000  -0.000000   0.000000
    25  H    0.000010   0.000055   0.002877   0.000000   0.000000  -0.000000
    26  H   -0.000000   0.000005   0.002373   0.000000   0.000000  -0.000000
    27  H   -0.000001  -0.002219   0.077792   0.000000   0.000000  -0.000009
    28  O    0.000256  -0.000064  -0.004619   0.000000  -0.000000  -0.000000
    29  H    0.003377   0.001976   0.005783   0.000035   0.000006  -0.000042
    30  H   -0.000011   0.000232   0.006962   0.000000   0.000000   0.000010
              19         20         21         22         23         24
     1  O   -0.000325  -0.001178   0.000060   0.001640   0.000019  -0.000187
     2  C   -0.000029  -0.037088  -0.002225   0.197616  -0.030817   0.000001
     3  C   -0.036105  -0.041771   0.006387   0.000376  -0.000795  -0.000087
     4  C    0.006943   0.193780  -0.019133  -0.026823  -0.008056  -0.000001
     5  C   -0.001061   0.000912   0.000069   0.000221   0.000280   0.001930
     6  C   -0.000272   0.001462  -0.000218  -0.031478  -0.004655   0.000008
     7  H   -0.000299  -0.028013  -0.007173   0.007744   0.001052  -0.000000
     8  H    0.001079  -0.000028   0.000012   0.001115   0.006132  -0.000000
     9  H    0.000016   0.001765   0.004647  -0.036651   0.006628   0.000000
    10  H   -0.001228   0.003662  -0.000219  -0.000148   0.000099   0.000002
    11  C   -0.000021  -0.000092  -0.000004  -0.000929  -0.000210  -0.000000
    12  H    0.000000   0.000002  -0.000000  -0.000223   0.000018  -0.000000
    13  H    0.000000  -0.000013   0.000003   0.000275   0.000021   0.000000
    14  H    0.011929   0.000058   0.000011   0.000009  -0.000051   0.000194
    15  O    0.000154   0.000588   0.000086  -0.000000  -0.000003  -0.041069
    16  O    0.000000   0.000000   0.000000  -0.009360   0.000596  -0.000000
    17  H   -0.000002  -0.000008  -0.000002   0.036735  -0.001127  -0.000000
    18  O    0.237717   0.001154  -0.000095  -0.006001   0.023781   0.000000
    19  H    0.375225  -0.000086   0.000008   0.000266  -0.000801   0.000000
    20  O   -0.000086   8.279541   0.232888   0.001471   0.000019  -0.000009
    21  H    0.000008   0.232888   0.373803   0.000013   0.000006   0.000001
    22  O    0.000266   0.001471   0.000013   8.271831   0.233872   0.000000
    23  H   -0.000801   0.000019   0.000006   0.233872   0.355173  -0.000000
    24  O    0.000000  -0.000009   0.000001   0.000000  -0.000000   8.369665
    25  H    0.000000   0.000238   0.000005   0.000000   0.000000   0.106934
    26  H   -0.000000   0.000001  -0.000000  -0.000000   0.000000   0.239528
    27  H   -0.000005   0.000017  -0.000005  -0.000000   0.000000   0.186764
    28  O   -0.000000  -0.018046   0.001170   0.000001  -0.000000  -0.054244
    29  H    0.000010   0.002302   0.000046   0.000000   0.000010   0.001547
    30  H    0.000002   0.043181  -0.002677  -0.000003   0.000001   0.001898
              25         26         27         28         29         30
     1  O    0.005379  -0.000001   0.000774  -0.089998   0.123240   0.006913
     2  C   -0.000013  -0.000000  -0.000012   0.000399  -0.001109   0.000349
     3  C    0.000023  -0.000003   0.001628  -0.000509  -0.000481  -0.001780
     4  C   -0.000010  -0.000000  -0.000035   0.001553  -0.002065  -0.002978
     5  C   -0.000594  -0.000037  -0.004052   0.004950  -0.003052   0.000525
     6  C   -0.000141   0.000000   0.000021   0.004347  -0.008558  -0.000280
     7  H    0.000000   0.000000   0.000002  -0.000036   0.000037   0.000312
     8  H    0.000012   0.000000  -0.000011  -0.000168   0.002724   0.000043
     9  H    0.000013  -0.000000  -0.000001   0.000112   0.001085   0.000016
    10  H   -0.000005  -0.000000  -0.000047   0.000034  -0.000170   0.000049
    11  C   -0.000005  -0.000000   0.000001  -0.000081  -0.003362  -0.000029
    12  H    0.000000   0.000000   0.000001   0.000014  -0.000176   0.000000
    13  H    0.000010  -0.000000  -0.000001   0.000256   0.003377  -0.000011
    14  H    0.000055   0.000005  -0.002219  -0.000064   0.001976   0.000232
    15  O    0.002877   0.002373   0.077792  -0.004619   0.005783   0.006962
    16  O    0.000000   0.000000   0.000000   0.000000   0.000035   0.000000
    17  H    0.000000   0.000000   0.000000  -0.000000   0.000006   0.000000
    18  O   -0.000000  -0.000000  -0.000009  -0.000000  -0.000042   0.000010
    19  H    0.000000  -0.000000  -0.000005  -0.000000   0.000010   0.000002
    20  O    0.000238   0.000001   0.000017  -0.018046   0.002302   0.043181
    21  H    0.000005  -0.000000  -0.000005   0.001170   0.000046  -0.002677
    22  O    0.000000  -0.000000  -0.000000   0.000001   0.000000  -0.000003
    23  H    0.000000   0.000000   0.000000  -0.000000   0.000010   0.000001
    24  O    0.106934   0.239528   0.186764  -0.054244   0.001547   0.001898
    25  H    0.292530  -0.004957  -0.014011   0.180279  -0.008583  -0.003556
    26  H   -0.004957   0.380225  -0.014233   0.002535  -0.000081   0.000048
    27  H   -0.014011  -0.014233   0.326192   0.007256  -0.000405  -0.000649
    28  O    0.180279   0.002535   0.007256   8.459947   0.138459   0.212211
    29  H   -0.008583  -0.000081  -0.000405   0.138459   0.290802  -0.016748
    30  H   -0.003556   0.000048  -0.000649   0.212211  -0.016748   0.325516
 Mulliken charges:
               1
     1  O   -0.640943
     2  C    0.075875
     3  C    0.079811
     4  C    0.087901
     5  C    0.330397
     6  C    0.104850
     7  H    0.157640
     8  H    0.145345
     9  H    0.144531
    10  H    0.161524
    11  C   -0.029245
    12  H    0.156038
    13  H    0.127095
    14  H    0.094231
    15  O   -0.588909
    16  O   -0.641232
    17  H    0.412205
    18  O   -0.655634
    19  H    0.406885
    20  O   -0.636709
    21  H    0.412538
    22  O   -0.641569
    23  H    0.418811
    24  O   -0.812875
    25  H    0.443518
    26  H    0.394599
    27  H    0.435247
    28  O   -0.845756
    29  H    0.473393
    30  H    0.430440
 Sum of Mulliken charges =  -0.00000
 Mulliken charges with hydrogens summed into heavy atoms:
               1
     1  O   -0.167550
     2  C    0.220406
     3  C    0.241335
     4  C    0.245541
     5  C    0.424628
     6  C    0.250194
    11  C    0.253887
    15  O   -0.588909
    16  O   -0.229027
    18  O   -0.248749
    20  O   -0.224171
    22  O   -0.222758
    24  O    0.016971
    28  O    0.028202
 Electronic spatial extent (au):  <R**2>=           3001.5611
 Charge=             -0.0000 electrons
 Dipole moment (field-independent basis, Debye):
    X=              0.3778    Y=             -3.8214    Z=              1.2483  Tot=              4.0379
 Quadrupole moment (field-independent basis, Debye-Ang):
   XX=            -91.3231   YY=            -90.0383   ZZ=            -73.6386
   XY=              3.0004   XZ=              2.7395   YZ=              3.0048
 Traceless Quadrupole moment (field-independent basis, Debye-Ang):
   XX=             -6.3232   YY=             -5.0383   ZZ=             11.3614
   XY=              3.0004   XZ=              2.7395   YZ=              3.0048
 Octapole moment (field-independent basis, Debye-Ang**2):
  XXX=             85.6240  YYY=            -21.1454  ZZZ=             13.9576  XYY=              5.4993
  XXY=            -26.9085  XXZ=             16.3825  XZZ=             -1.3485  YZZ=            -20.8216
  YYZ=             -5.2212  XYZ=             -6.3834
 Hexadecapole moment (field-independent basis, Debye-Ang**3):
 XXXX=          -1688.6695 YYYY=          -1078.1201 ZZZZ=           -420.2731 XXXY=             86.1545
 XXXZ=             67.7992 YYYX=             28.8731 YYYZ=             16.5612 ZZZX=             10.9018
 ZZZY=              6.7909 XXYY=           -613.5287 XXZZ=           -427.5877 YYZZ=           -242.2813
 XXYZ=             45.1808 YYXZ=             -7.6153 ZZXY=              5.6706
 N-N= 1.130407307697D+03 E-N=-4.232966632515D+03  KE= 8.329691458798D+02
 Calling FoFJK, ICntrl=      2127 FMM=F ISym2X=0 I1Cent= 0 IOpClX= 0 NMat=1 NMatS=1 NMatT=0.
 ***** Axes restored to original set *****
 -------------------------------------------------------------------
 Center     Atomic                   Forces (Hartrees/Bohr)
 Number     Number              X              Y              Z
 -------------------------------------------------------------------
      1        8          -0.005211883    0.008177037   -0.002933183
      2        6           0.000056237    0.000262525    0.001050826
      3        6          -0.000189039   -0.002305191    0.000542209
      4        6          -0.000208846   -0.000109551    0.000349176
      5        6           0.005852479   -0.011970121   -0.003119245
      6        6          -0.001640442    0.002425397    0.002450057
      7        1          -0.000133079   -0.000017070   -0.000118335
      8        1           0.000078688    0.000131945    0.000196218
      9        1          -0.000027283   -0.000088855    0.000168706
     10        1          -0.000280550   -0.000396471    0.000302817
     11        6          -0.001819325    0.001546595    0.001246424
     12        1          -0.000083573    0.000042062    0.000078111
     13        1          -0.000173705    0.000199901    0.000094845
     14        1           0.000151317    0.000018124    0.000010834
     15        8           0.001533980   -0.005474923   -0.001999821
     16        8          -0.001568128    0.000176825   -0.000412338
     17        1          -0.000098918    0.000107257    0.000126114
     18        8          -0.000111104    0.000934052   -0.000635661
     19        1           0.000041783   -0.000447142    0.000039522
     20        8          -0.001148433   -0.002638898   -0.000616465
     21        1          -0.000037294    0.000183228   -0.000046942
     22        8           0.000233345    0.000831231   -0.000633807
     23        1           0.000025835   -0.000007827    0.000021815
     24        8           0.007716619    0.003360756   -0.003620359
     25        1           0.002071125    0.000935824   -0.000960312
     26        1           0.000356515    0.000058298    0.000035138
     27        1           0.000379277    0.000060251   -0.000357681
     28        8          -0.003959380    0.003892147    0.010316624
     29        1          -0.002073542   -0.000039042   -0.001431108
     30        1           0.000267324    0.000151638   -0.000144178
 -------------------------------------------------------------------
 Cartesian Forces:  Max     0.011970121 RMS     0.002590221

 GradGradGradGradGradGradGradGradGradGradGradGradGradGradGradGradGradGrad
 Berny optimization.
 FormGI is forming the generalized inverse of G from B-inverse, IUseBI=4.
 Internal  Forces:  Max     0.022856177 RMS     0.005221705
 Search for a local minimum.
 Step number   1 out of a maximum of  157
 All quantities printed in internal units (Hartrees-Bohrs-Radians)
 Mixed Optimization -- RFO/linear search
 Second derivative matrix not updated -- first step.
 ITU=  0
     Eigenvalues ---    0.00230   0.00230   0.00278   0.00428   0.00437
     Eigenvalues ---    0.00676   0.00896   0.00991   0.01231   0.01243
     Eigenvalues ---    0.01303   0.01482   0.01938   0.02112   0.02824
     Eigenvalues ---    0.03311   0.03869   0.04142   0.04395   0.04627
     Eigenvalues ---    0.04802   0.04911   0.04996   0.05348   0.05926
     Eigenvalues ---    0.05986   0.07031   0.07153   0.07403   0.07683
     Eigenvalues ---    0.07930   0.08658   0.09056   0.09486   0.09895
     Eigenvalues ---    0.10632   0.11473   0.11750   0.13891   0.14183
     Eigenvalues ---    0.14939   0.15811   0.16000   0.16000   0.16000
     Eigenvalues ---    0.16000   0.16307   0.16864   0.17051   0.17500
     Eigenvalues ---    0.18648   0.19663   0.19873   0.20369   0.21637
     Eigenvalues ---    0.22028   0.22919   0.26835   0.27409   0.27911
     Eigenvalues ---    0.29128   0.29906   0.32092   0.33218   0.33547
     Eigenvalues ---    0.33903   0.33925   0.33974   0.34069   0.34268
     Eigenvalues ---    0.40304   0.40430   0.41080   0.41325   0.43088
     Eigenvalues ---    0.45893   0.47168   0.51633   0.52327   0.52527
     Eigenvalues ---    0.53325   0.53404   0.53579   0.80481
 RFO step:  Lambda=-2.90009152D-02 EMin= 2.30000000D-03
 Linear search not attempted -- first point.
 Maximum step size (   0.300) exceeded in Quadratic search.
    -- Step size scaled by   0.919
 Iteration  1 RMS(Cart)=  0.20917374 RMS(Int)=  0.01000440
 Iteration  2 RMS(Cart)=  0.02165623 RMS(Int)=  0.00270835
 Iteration  3 RMS(Cart)=  0.00048884 RMS(Int)=  0.00270499
 Iteration  4 RMS(Cart)=  0.00000476 RMS(Int)=  0.00270499
 Iteration  5 RMS(Cart)=  0.00000007 RMS(Int)=  0.00270499
 Variable       Old X    -DE/DX   Delta X   Delta X   Delta X     New X
                                 (Linear)    (Quad)   (Total)
    R1        2.68534  -0.00118   0.00000  -0.00220  -0.00240   2.68294
    R2        2.07284   0.00345   0.00000   0.00629   0.00345   2.07628
    R3        2.92753   0.01224   0.00000   0.04009   0.04053   2.96806
    R4        2.92021   0.00176   0.00000   0.01042   0.01226   2.93248
    R5        2.07457   0.00009   0.00000   0.00023   0.00023   2.07480
    R6        2.70111  -0.00045   0.00000  -0.00094  -0.00094   2.70018
    R7        2.89399   0.00846   0.00000   0.02257   0.02038   2.91437
    R8        2.94264   0.00200   0.00000   0.00215   0.00137   2.94401
    R9        2.07374   0.00019   0.00000   0.00046   0.00046   2.07420
   R10        2.71143   0.00023   0.00000   0.00049   0.00049   2.71191
   R11        2.07494   0.00004   0.00000   0.00010   0.00010   2.07504
   R12        2.70973  -0.00186   0.00000  -0.00394  -0.00394   2.70578
   R13        2.10676  -0.00006   0.00000  -0.00015  -0.00015   2.10662
   R14        2.36666   0.00214   0.00000   0.00297   0.00463   2.37129
   R15        2.07214  -0.00025   0.00000  -0.00061  -0.00061   2.07153
   R16        2.88152   0.00342   0.00000   0.00960   0.00960   2.89112
   R17        2.06881  -0.00006   0.00000  -0.00015  -0.00015   2.06866
   R18        2.08670   0.00011   0.00000   0.00027   0.00027   2.08697
   R19        2.67561   0.00167   0.00000   0.00334   0.00334   2.67895
   R20        3.06380   0.00899   0.00000   0.06472   0.06513   3.12893
   R21        1.84098   0.00000   0.00000   0.00000   0.00000   1.84098
   R22        1.83351   0.00004   0.00000   0.00006   0.00006   1.83358
   R23        1.83278  -0.00001   0.00000  -0.00002  -0.00002   1.83276
   R24        1.84287  -0.00001   0.00000  -0.00001  -0.00001   1.84286
   R25        2.98746   0.00995   0.00000   0.07820   0.07983   3.06729
   R26        1.83117   0.00029   0.00000   0.00047   0.00047   1.83164
   R27        1.88798   0.00927   0.00000   0.01627   0.01772   1.90571
   R28        1.90158   0.01133   0.00000   0.02183   0.02283   1.92441
   R29        2.55151   0.00614   0.00000   0.02530   0.02276   2.57427
   R30        1.84953  -0.00021   0.00000  -0.00035  -0.00035   1.84918
    A1        2.06571   0.00556   0.00000   0.02757   0.03648   2.10219
    A2        1.96411   0.01641   0.00000   0.11138   0.11223   2.07634
    A3        1.88188  -0.00443   0.00000  -0.02780  -0.02997   1.85190
    A4        1.94373  -0.00529   0.00000  -0.02400  -0.02225   1.92148
    A5        1.90993  -0.00462   0.00000  -0.03464  -0.03276   1.87717
    A6        1.92358  -0.00617   0.00000  -0.02627  -0.02989   1.89369
    A7        1.83541   0.00314   0.00000  -0.00781  -0.00901   1.82640
    A8        2.01311   0.00768   0.00000   0.04887   0.03874   2.05185
    A9        1.90617  -0.00401   0.00000  -0.03065  -0.02792   1.87824
   A10        1.80858  -0.00038   0.00000   0.00487   0.00788   1.81646
   A11        1.82973  -0.00111   0.00000  -0.01646  -0.01398   1.81574
   A12        1.97477  -0.00349   0.00000  -0.00600  -0.00314   1.97163
   A13        1.93294   0.00120   0.00000  -0.00244  -0.00407   1.92887
   A14        1.94340   0.02286   0.00000   0.12861   0.12819   2.07159
   A15        1.86291  -0.00591   0.00000  -0.04245  -0.04143   1.82148
   A16        1.97223  -0.00622   0.00000  -0.01137  -0.01283   1.95940
   A17        1.87834  -0.00628   0.00000  -0.04534  -0.04193   1.83642
   A18        1.89660  -0.00830   0.00000  -0.02000  -0.02479   1.87181
   A19        1.90773   0.00372   0.00000  -0.01374  -0.01552   1.89221
   A20        1.94544  -0.00493   0.00000  -0.00807  -0.00810   1.93734
   A21        2.02561   0.01614   0.00000   0.06001   0.06034   2.08595
   A22        2.10737  -0.00542   0.00000   0.00034  -0.00225   2.10511
   A23        1.93527  -0.00128   0.00000   0.02148   0.02260   1.95787
   A24        1.85498  -0.00056   0.00000  -0.00589  -0.00835   1.84662
   A25        1.92876   0.00255   0.00000   0.00652   0.00876   1.93752
   A26        1.88373  -0.00113   0.00000  -0.00640  -0.00626   1.87747
   A27        1.97030   0.00035   0.00000  -0.01264  -0.01444   1.95586
   A28        1.88584  -0.00006   0.00000  -0.00380  -0.00336   1.88248
   A29        1.90655  -0.00015   0.00000  -0.00085  -0.00084   1.90570
   A30        1.90521   0.00017   0.00000   0.00177   0.00177   1.90698
   A31        1.94209   0.00058   0.00000   0.00226   0.00226   1.94435
   A32        1.87655  -0.00001   0.00000  -0.00050  -0.00050   1.87605
   A33        1.87901  -0.00032   0.00000  -0.00213  -0.00213   1.87688
   A34        1.95269  -0.00029   0.00000  -0.00073  -0.00073   1.95196
   A35        2.23713  -0.01230   0.00000  -0.06527  -0.07021   2.16692
   A36        1.88003   0.00017   0.00000   0.00085   0.00085   1.88088
   A37        1.89053   0.00012   0.00000   0.00057   0.00057   1.89110
   A38        1.87587  -0.00003   0.00000  -0.00013  -0.00013   1.87574
   A39        1.84470  -0.00004   0.00000  -0.00020  -0.00020   1.84450
   A40        1.96943  -0.00028   0.00000  -0.00181  -0.00591   1.96352
   A41        1.58776   0.00862   0.00000   0.08401   0.08617   1.67393
   A42        1.82073  -0.00587   0.00000  -0.00965  -0.00665   1.81408
   A43        2.82464   0.00519   0.00000   0.03731   0.03689   2.86153
   A44        2.68468   0.00543   0.00000   0.04680   0.04880   2.73348
   A45        1.78517   0.00409   0.00000   0.03264   0.02860   1.81377
   A46        1.85473  -0.00815   0.00000  -0.03268  -0.03436   1.82037
   A47        1.66564   0.00539   0.00000   0.00812   0.00546   1.67110
   A48        3.07724   0.01417   0.00000   0.10019   0.09507   3.17230
   A49        2.93683   0.00521   0.00000   0.03421   0.02506   2.96189
    D1       -0.97875  -0.00539   0.00000  -0.02283  -0.02112  -0.99987
    D2       -3.02158  -0.00306   0.00000  -0.02304  -0.02055  -3.04214
    D3        1.21964  -0.00399   0.00000  -0.01856  -0.01630   1.20334
    D4       -3.02629  -0.01496   0.00000  -0.21860  -0.22091   3.03599
    D5        1.39134  -0.00915   0.00000  -0.19845  -0.19942   1.19192
    D6       -0.54451  -0.00034   0.00000  -0.05830  -0.05452  -0.59903
    D7       -2.58986  -0.00160   0.00000  -0.04793  -0.04569  -2.63555
    D8        1.59583   0.00143   0.00000   0.00411   0.00615   1.60198
    D9       -2.65252  -0.00178   0.00000  -0.06552  -0.06257  -2.71509
   D10        1.58531  -0.00304   0.00000  -0.05515  -0.05374   1.53158
   D11       -0.51218  -0.00000   0.00000  -0.00311  -0.00190  -0.51408
   D12        1.62555  -0.00014   0.00000  -0.02715  -0.02437   1.60118
   D13       -0.41980  -0.00140   0.00000  -0.01678  -0.01554  -0.43534
   D14       -2.51730   0.00164   0.00000   0.03526   0.03630  -2.48100
   D15       -0.57381   0.00085   0.00000   0.00014   0.00498  -0.56883
   D16        1.45130  -0.00118   0.00000   0.00108   0.00357   1.45487
   D17       -2.74885  -0.00179   0.00000  -0.01560  -0.01321  -2.76206
   D18        1.51802   0.00269   0.00000   0.01336   0.01642   1.53444
   D19       -2.74005   0.00067   0.00000   0.01430   0.01501  -2.72504
   D20       -0.65702   0.00005   0.00000  -0.00239  -0.00177  -0.65879
   D21       -2.75494   0.00036   0.00000  -0.03068  -0.02728  -2.78222
   D22       -0.72983  -0.00167   0.00000  -0.02974  -0.02869  -0.75851
   D23        1.35321  -0.00228   0.00000  -0.04643  -0.04547   1.30774
   D24       -1.02604  -0.00630   0.00000  -0.05204  -0.05223  -1.07827
   D25        1.16669   0.00656   0.00000   0.05560   0.05491   1.22160
   D26       -3.05974  -0.00022   0.00000  -0.00271  -0.00183  -3.06157
   D27        1.11383  -0.00043   0.00000   0.04296   0.04434   1.15817
   D28       -3.13340   0.00129   0.00000   0.03560   0.03698  -3.09642
   D29       -1.06941  -0.00228   0.00000  -0.01667  -0.01475  -1.08416
   D30       -3.11482   0.00020   0.00000   0.03128   0.03043  -3.08439
   D31       -1.07886   0.00192   0.00000   0.02392   0.02307  -1.05579
   D32        0.98513  -0.00165   0.00000  -0.02835  -0.02867   0.95646
   D33       -1.05414  -0.00045   0.00000   0.01690   0.01709  -1.03705
   D34        0.98182   0.00127   0.00000   0.00954   0.00973   0.99154
   D35        3.04580  -0.00230   0.00000  -0.04273  -0.04200   3.00380
   D36       -2.21487  -0.00067   0.00000  -0.04460  -0.04351  -2.25838
   D37        1.56397  -0.00595   0.00000  -0.11356  -0.11499   1.44898
   D38        1.97141   0.00066   0.00000  -0.02314  -0.02073   1.95068
   D39       -0.53294  -0.00462   0.00000  -0.09211  -0.09221  -0.62515
   D40       -0.13668   0.00188   0.00000  -0.00598  -0.00506  -0.14174
   D41       -2.64103  -0.00341   0.00000  -0.07495  -0.07654  -2.71757
   D42        2.94425   0.00409   0.00000   0.03737   0.03327   2.97752
   D43        0.75155  -0.00308   0.00000  -0.02321  -0.01913   0.73242
   D44       -1.29694  -0.00023   0.00000   0.00317   0.00318  -1.29376
   D45        1.23588  -0.00940   0.00000  -0.07352  -0.07184   1.16403
   D46       -2.88110   0.00961   0.00000   0.06965   0.06741  -2.81369
   D47       -0.83579  -0.00055   0.00000  -0.00371  -0.00315  -0.83893
   D48       -2.63614   0.00580   0.00000   0.03739   0.04464  -2.59150
   D49        1.20550  -0.00130   0.00000  -0.03825  -0.03483   1.17067
   D50        0.91151   0.00000   0.00000  -0.01158  -0.01270   0.89882
   D51       -1.13588   0.00001   0.00000  -0.01151  -0.01263  -1.14851
   D52        2.98372  -0.00013   0.00000  -0.01337  -0.01449   2.96924
   D53        3.09010   0.00055   0.00000   0.01232   0.01304   3.10314
   D54        1.04270   0.00056   0.00000   0.01240   0.01311   1.05582
   D55       -1.12088   0.00041   0.00000   0.01054   0.01125  -1.10962
   D56       -1.11127  -0.00068   0.00000  -0.00589  -0.00549  -1.11676
   D57        3.12452  -0.00067   0.00000  -0.00582  -0.00542   3.11910
   D58        0.96094  -0.00081   0.00000  -0.00768  -0.00728   0.95366
   D59        0.64552   0.00025   0.00000   0.00347   0.00347   0.64899
   D60        2.73416   0.00021   0.00000   0.00242   0.00242   2.73658
   D61       -1.49089  -0.00018   0.00000   0.00007   0.00007  -1.49081
   D62        1.70134   0.00061   0.00000   0.00903   0.01725   1.71859
   D63       -2.23491  -0.00572   0.00000  -0.06173  -0.05805  -2.29296
   D64       -0.38493  -0.00836   0.00000  -0.03532  -0.02728  -0.41222
   D65       -0.45226  -0.00168   0.00000  -0.01386  -0.00700  -0.45926
   D66        1.53552  -0.00027   0.00000   0.00707   0.01180   1.54731
   D67       -0.32542  -0.01144   0.00000  -0.07321  -0.06537  -0.39079
   D68        1.41062  -0.00648   0.00000  -0.06244  -0.06015   1.35047
         Item               Value     Threshold  Converged?
 Maximum Force            0.022856     0.000450     NO 
 RMS     Force            0.005222     0.000300     NO 
 Maximum Displacement     0.841912     0.001800     NO 
 RMS     Displacement     0.222940     0.001200     NO 
 Predicted change in Energy=-1.798681D-02
 GradGradGradGradGradGradGradGradGradGradGradGradGradGradGradGradGradGrad

                          Input orientation:                          
 ---------------------------------------------------------------------
 Center     Atomic      Atomic             Coordinates (Angstroms)
 Number     Number       Type             X           Y           Z
 ---------------------------------------------------------------------
      1          8           0        0.304049    1.060892   -0.618597
      2          6           0       -1.421566   -0.143204    0.669615
      3          6           0        0.235597   -1.970161   -0.373131
      4          6           0       -0.458525   -1.368365    0.865608
      5          6           0        1.283244   -1.085914   -1.113135
      6          6           0       -1.094078    0.901755   -0.429882
      7          1           0       -1.107913   -2.166773    1.248474
      8          1           0       -1.481447    0.515195   -1.379716
      9          1           0       -1.442865    0.384513    1.632178
     10          1           0        0.811819   -2.842882   -0.039815
     11          6           0       -1.768227    2.248678   -0.161639
     12          1           0       -1.475200    2.959255   -0.941100
     13          1           0       -1.411095    2.648993    0.803689
     14          1           0        1.073670   -1.049498   -2.207426
     15          8           0        2.462201   -1.036320   -0.686285
     16          8           0       -3.180971    2.135956   -0.195563
     17          1           0       -3.420389    1.278783    0.200678
     18          8           0       -0.850357   -2.377397   -1.218310
     19          1           0       -0.487274   -2.629591   -2.082038
     20          8           0        0.559590   -1.107995    1.838138
     21          1           0        0.123440   -1.020178    2.699927
     22          8           0       -2.762261   -0.598506    0.477491
     23          1           0       -2.744688   -1.133517   -0.337656
     24          8           0        3.901859    1.136343   -0.511098
     25          1           0        2.788819    1.541110    0.598805
     26          1           0        4.727143    0.822280   -0.111419
     27          1           0        3.442557    0.291736   -0.815511
     28          8           0        1.924916    1.633444    1.130019
     29          1           0        0.949838    1.350827    0.221689
     30          1           0        1.850665    0.789280    1.619327
 ---------------------------------------------------------------------
                    Distance matrix (angstroms):
                    1          2          3          4          5
     1  O    0.000000
     2  C    2.467202   0.000000
     3  C    3.041747   2.677925   0.000000
     4  C    2.947146   1.570631   1.542219   0.000000
     5  C    2.410843   3.373855   1.557904   2.651219   0.000000
     6  C    1.419753   1.551799   3.165305   2.689919   3.173219
     7  H    3.987156   2.127978   2.115012   1.098065   3.530310
     8  H    2.016205   2.153330   3.184093   3.104133   3.205952
     9  H    2.928341   1.097937   3.518947   2.151543   4.138909
    10  H    3.978978   3.574851   1.097621   2.146571   2.112154
    11  C    2.431866   2.555828   4.675323   3.981652   4.619126
    12  H    2.621740   3.496074   5.248672   4.798553   4.899183
    13  H    2.736180   2.795433   5.043123   4.129211   4.988307
    14  H    2.751443   3.914708   2.216896   3.448599   1.114773
    15  O    3.010066   4.209486   2.434727   3.324044   1.254831
    16  O    3.671524   3.006428   5.344592   4.562681   5.581362
    17  H    3.819702   2.497447   4.924543   4.027674   5.426053
    18  O    3.676159   2.980296   1.435083   2.348275   2.496246
    19  H    4.048150   3.824477   1.969201   3.206265   2.540954
    20  O    3.287084   2.494243   2.395415   1.431840   3.038779
    21  H    3.921233   2.697831   3.218499   1.955670   3.986090
    22  O    3.654760   1.428872   3.404725   2.459780   4.374217
    23  H    3.766849   1.935450   3.095695   2.594136   4.102179
    24  O    3.600206   5.600909   4.807379   5.213620   3.486835
    25  H    2.808338   4.535336   4.448892   4.368235   3.478326
    26  H    4.458467   6.272862   5.295301   5.713550   4.062644
    27  H    3.237377   5.104358   3.949237   4.560760   2.578591
    28  O    2.452077   3.816725   4.254319   3.842077   3.583070
    29  H    1.098720   2.838366   3.448611   3.129236   2.798325
    30  H    2.733879   3.532559   3.767340   3.248981   3.362241
                    6          7          8          9         10
     6  C    0.000000
     7  H    3.497561   0.000000
     8  H    1.096205   3.773574   0.000000
     9  H    2.154363   2.601631   3.014974   0.000000
    10  H    4.219822   2.408772   4.281481   4.277293   0.000000
    11  C    1.529913   4.681949   2.137970   2.607442   5.709243
    12  H    2.154044   5.586171   2.483113   3.640343   6.301393
    13  H    2.162184   4.845757   3.053735   2.411487   5.984441
    14  H    3.415579   4.236845   3.108374   4.809563   2.825478
    15  O    4.058202   4.215083   4.294229   4.758527   2.530879
    16  O    2.435832   4.989618   2.630108   3.070700   6.384000
    17  H    2.439565   4.279869   2.615379   2.599906   5.912490
    18  O    3.381399   2.489121   2.965032   4.013041   2.090061
    19  H    3.945660   3.419313   3.372139   4.877846   2.429775
    20  O    3.452192   2.061378   4.141879   2.505958   2.569078
    21  H    3.869352   2.222077   4.645053   2.359355   3.361890
    22  O    2.420112   2.406397   2.515956   2.010083   4.251927
    23  H    2.622088   2.502491   2.323772   2.807028   3.957193
    24  O    5.002102   6.253358   5.488196   5.807319   5.060107
    25  H    4.067416   5.418025   4.816868   4.506964   4.851366
    26  H    5.830468   6.695642   6.344246   6.426567   5.363609
    27  H    4.593680   5.568759   4.961258   5.465083   4.165131
    28  O    3.476059   4.863510   4.376363   3.626836   4.758675
    29  H    2.191758   4.202634   3.028848   2.940793   4.204120
    30  H    3.589349   4.198686   4.491363   3.318334   4.126082
                   11         12         13         14         15
    11  C    0.000000
    12  H    1.094688   0.000000
    13  H    1.104380   1.773320   0.000000
    14  H    4.810363   4.916342   5.377705   0.000000
    15  O    5.381727   5.615397   5.550133   2.059627   0.000000
    16  O    1.417641   2.035510   2.096229   5.683017   6.492267
    17  H    1.949772   2.812721   2.505665   5.605035   6.383672
    18  O    4.833178   5.380254   5.446789   2.538414   3.613112
    19  H    5.396878   5.789036   6.086404   2.224627   3.631259
    20  O    4.548087   5.329827   4.366765   4.078516   3.161927
    21  H    4.738395   5.625710   4.406056   4.998591   4.115398
    22  O    3.082702   4.040618   3.532464   4.703886   5.370388
    23  H    3.524728   4.327416   4.169954   4.252406   5.219452
    24  O    5.788720   5.693916   5.678403   3.956524   2.612235
    25  H    4.673927   4.750190   4.348409   4.186636   2.898497
    26  H    6.650336   6.612420   6.469333   4.609193   2.985771
    27  H    5.604413   5.596050   5.633508   3.057444   1.655756
    28  O    3.960580   4.196201   3.502399   4.365929   3.273420
    29  H    2.888071   3.133677   2.756440   3.417235   2.968186
    30  H    4.289296   4.725035   3.842249   4.316117   3.003770
                   16         17         18         19         20
    16  O    0.000000
    17  H    0.974203   0.000000
    18  O    5.181518   4.688949   0.000000
    19  H    5.790098   5.393454   0.970287   0.000000
    20  O    5.352658   4.921200   3.597389   4.333470   0.000000
    21  H    5.409637   4.908175   4.259450   5.082359   0.969855
    22  O    2.847033   2.008475   3.113772   3.981466   3.625691
    23  H    3.301512   2.562336   2.431312   3.221339   3.956385
    24  O    7.159977   7.358140   5.952317   5.992879   4.661194
    25  H    6.051716   6.227486   5.648028   5.942597   3.677386
    26  H    8.016926   8.166277   6.524695   6.556592   4.989513
    27  H    6.903377   7.007634   5.071058   5.057847   4.160841
    28  O    5.299035   5.437071   5.413284   5.857426   3.143411
    29  H    4.225412   4.370871   4.383373   4.818317   2.968334
    30  H    5.515861   5.480528   5.037415   5.554704   2.305299
                   21         22         23         24         25
    21  H    0.000000
    22  O    3.666647   0.000000
    23  H    4.179224   0.975198   0.000000
    24  O    5.407192   6.956832   7.025591   0.000000
    25  H    4.251959   5.950393   6.216936   1.623139   0.000000
    26  H    5.700211   7.645693   7.726874   0.969264   2.185917
    27  H    5.009587   6.400325   6.367236   1.008458   1.997148
    28  O    3.570943   5.232306   5.622752   2.616999   1.018354
    29  H    3.527926   4.200597   4.487132   3.049166   1.886870
    30  H    2.724911   4.950639   5.352028   2.977677   1.576974
                   26         27         28         29         30
    26  H    0.000000
    27  H    1.558006   0.000000
    28  O    3.170431   2.808648   0.000000
    29  H    3.828624   2.900191   1.362246   0.000000
    30  H    3.357186   2.951289   0.978544   1.755054   0.000000
 Stoichiometry    C6H16O8
 Framework group  C1[X(C6H16O8)]
 Deg. of freedom    84
 Full point group                 C1      NOp   1
 Largest Abelian subgroup         C1      NOp   1
 Largest concise Abelian subgroup C1      NOp   1
                         Standard orientation:                         
 ---------------------------------------------------------------------
 Center     Atomic      Atomic             Coordinates (Angstroms)
 Number     Number       Type             X           Y           Z
 ---------------------------------------------------------------------
      1          8           0        0.205286    1.028780   -0.697595
      2          6           0       -1.443515   -0.238982    0.629552
      3          6           0        0.442027   -1.959347   -0.180608
      4          6           0       -0.368119   -1.331388    0.971681
      5          6           0        1.425091   -1.034285   -0.958368
      6          6           0       -1.175886    0.736394   -0.547350
      7          1           0       -0.947825   -2.159237    1.401047
      8          1           0       -1.476077    0.229689   -1.471904
      9          1           0       -1.564633    0.364465    1.538754
     10          1           0        1.089965   -2.732641    0.251786
     11          6           0       -1.998642    2.020688   -0.427795
     12          1           0       -1.745297    2.688803   -1.257121
     13          1           0       -1.730648    2.539086    0.509807
     14          1           0        1.264145   -1.115340   -2.058480
     15          8           0        2.571237   -0.820927   -0.494225
     16          8           0       -3.388790    1.753469   -0.503871
[...]
 91,0.00022564,0.00005264,0.00008204,-0.00013653,-0.00001877,-0.0010877
 3,-0.00032036,-0.00008455,0.00018344,0.00017929,0.00006613,0.00023787,
 0.00089585,0.00045768,-0.00013320,-0.00022300,-0.00001592,-0.00023132,
 0.00023186,0.00000533,0.00018253,-0.00012726,-0.00002559,-0.00480514,0
 .44470810,0.00095803,0.00081807,0.00247917,-0.00021229,-0.00015690,-0.
 00019376,-0.00035805,0.00016177,0.00008637,-0.00093702,-0.00056194,-0.
 00132633,0.00311461,-0.00079515,0.00063270,-0.00031216,0.00005212,0.00
 011949,0.00016510,0.00015656,0.00027431,0.00023342,0.00005627,0.000064
 20,-0.00012429,0.00009915,0.00016630,-0.00002497,-0.00000004,-0.000042
 23,-0.00021395,-0.00008533,-0.00028033,0.00001392,-0.00003824,0.000041
 09,-0.00000466,0.00007496,0.00014241,0.00016861,-0.00010777,-0.0003260
 0,-0.00538271,-0.00317693,0.00122222,0.00018534,0.00002545,0.00012669,
 -0.00006021,0.00001706,-0.00003336,-0.00037575,-0.00004584,0.00033590,
 0.00008734,0.00009137,-0.00003534,0.00130711,0.00134601,0.00097738,-0.
 00020674,-0.00031430,0.00007256,0.00029554,0.00008342,0.00018008,0.000
 03783,-0.00006165,-0.00007790,0.28021833,0.04994707,0.22985042,0.00425
 521,0.00183583,0.00227397,-0.00024926,-0.00033103,0.00008095,-0.000190
 27,-0.00010945,0.00010202,-0.00076880,-0.00059675,-0.00107608,0.002365
 79,-0.00148697,-0.00012408,-0.00178454,-0.00014502,0.00073591,0.000213
 45,0.00020910,0.00022536,0.00056885,0.00012713,0.00004759,-0.00017485,
 0.00006095,0.00007769,-0.00003511,0.00008641,-0.00001654,-0.00031012,0
 .00018655,-0.00018779,-0.00002629,0.00001088,0.00000863,-0.00001680,0.
 00003229,0.00009154,-0.00004989,0.00002260,-0.00018028,-0.00330070,-0.
 00090485,-0.00028415,0.00066214,-0.00012501,0.00000712,-0.00016984,0.0
 0002282,0.00004813,-0.00015952,0.00020503,0.00024690,0.00001934,-0.000
 01782,-0.00002046,0.00128470,0.00222047,0.00066054,-0.00004185,-0.0005
 5208,0.00026097,0.00059829,0.00040946,-0.00006848,-0.00003927,-0.00018
 155,-0.00005886,-0.00457502,-0.00454822,-0.00678852,0.30879952,0.00028
 021,-0.00067962,0.00011993,-0.00009140,0.00004958,0.00003254,-0.000194
 39,-0.00016808,-0.00022483,0.00014898,0.00000773,0.00042667,-0.0022213
 4,0.00011577,-0.00056140,-0.00029927,-0.00019299,0.00001158,-0.0000261
 3,-0.00004119,-0.00012443,-0.00000574,0.00001466,-0.00000729,-0.000030
 55,-0.00005984,-0.00004167,0.00005209,-0.00001067,-0.00000929,0.000097
 61,0.00020172,-0.00002939,0.00002127,-0.00001323,0.00007209,-0.0000364
 4,0.00000619,-0.00004989,0.00017896,-0.00008456,0.00006336,0.00179539,
 0.00085879,0.00105692,0.00006956,-0.00017236,-0.00002068,-0.00005636,0
 .00006445,0.00001587,0.00035816,0.00009051,0.00001673,-0.00006836,-0.0
 0006066,-0.00003199,-0.00062899,-0.00252580,-0.00074856,0.00022082,0.0
 0049681,-0.00008544,0.00012539,-0.00006595,-0.00002465,-0.00007131,0.0
 0003535,0.00000967,-0.00487583,-0.00556157,0.00403592,0.01489938,0.065
 46359,-0.00030027,-0.00107388,-0.00496720,0.00032123,0.00027296,0.0004
 6005,0.00000843,-0.00013698,-0.00018647,0.00077422,0.00052905,0.001247
 13,-0.00263173,0.00004052,-0.00012828,0.00007370,-0.00007201,0.0001535
 0,-0.00015057,-0.00014345,-0.00025567,-0.00014855,-0.00004373,-0.00007
 578,0.00016721,-0.00011810,-0.00027675,0.00007389,0.00000251,-0.000006
 30,0.00030794,0.00023414,0.00039475,-0.00003060,0.00003937,-0.00006515
 ,-0.00000308,-0.00012215,-0.00019602,0.00004099,-0.00000325,0.00004220
 ,0.00264766,0.00145699,0.00040387,-0.00011263,-0.00009824,-0.00017032,
 0.00004111,-0.00000804,0.00004342,0.00032824,0.00003562,-0.00024620,-0
 .00007881,-0.00007694,0.00000737,-0.00114417,-0.00175437,-0.00089545,0
 .00020182,0.00039743,-0.00009031,-0.00019291,-0.00007089,-0.00026205,-
 0.00007084,0.00003801,0.00005717,-0.00421052,0.00132416,-0.00744631,-0
 .18559998,-0.01565670,0.15308299,0.00031459,-0.00016790,0.00025309,-0.
 00011314,-0.00000927,-0.00001566,-0.00007618,-0.00012213,-0.00011770,-
 0.00021957,0.00000485,-0.00012750,-0.00087606,0.00019252,-0.00024113,-
 0.00020441,-0.00002133,-0.00000390,0.00006624,0.00001571,-0.00000352,0
 .00002497,0.00001818,0.00000657,-0.00000124,0.00000159,0.00001046,0.00
 002026,-0.00000584,-0.00001000,-0.00006779,0.00005270,-0.00001523,0.00
 000080,-0.00001091,0.00001172,0.00000148,0.00000049,0.00000632,0.00017
 653,-0.00007252,0.00006643,0.00110726,0.00008868,0.00072310,0.00012433
 ,-0.00005566,0.00000220,-0.00005117,0.00003859,0.00000619,0.00023266,0
 .00010751,0.00009795,-0.00004064,-0.00004974,-0.00002395,0.00031036,0.
 00011784,0.00011868,-0.00001318,-0.00002146,0.00003216,0.00018388,-0.0
 0000508,0.00001843,-0.00005460,0.00000478,-0.00000900,-0.29054232,0.13
 131989,-0.18562377,-0.00287842,0.00195002,-0.00183716,0.31070143,0.000
 11474,-0.00013039,-0.00009000,-0.00004125,0.00001129,0.00001254,-0.000
 12376,0.00006365,0.00000667,-0.00009477,0.00001143,0.00000218,-0.00032
 152,0.00016517,-0.00004440,-0.00010773,-0.00000040,-0.00001123,0.00001
 767,0.00000147,-0.00000737,0.00000341,0.00000612,-0.00000216,0.0000073
 1,-0.00000703,-0.00000771,0.00000078,-0.00001824,-0.00000801,-0.000019
 98,0.00004526,0.00002388,-0.00000186,-0.00000412,0.00000406,-0.0000004
 9,-0.00000605,-0.00001230,0.00014434,-0.00007124,0.00001668,0.00042321
 ,-0.00111485,0.00045142,0.00005723,-0.00004564,-0.00001316,-0.00002718
 ,0.00002940,0.00000811,0.00015347,0.00003045,0.00004467,-0.00003027,-0
 .00001767,-0.00001884,0.00011329,-0.00007274,0.00000728,0.00000891,0.0
 0003870,0.00001811,0.00009265,-0.00001893,-0.00000385,-0.00003649,0.00
 001322,-0.00000038,0.18161828,-0.13842123,0.10778268,0.00071408,-0.000
 57177,0.00213084,-0.15052675,0.12540751,-0.00003558,-0.00008613,-0.000
 22980,0.00001589,-0.00000538,0.00001247,0.00002226,0.00000098,0.000037
 87,0.00017042,0.00007342,0.00025432,-0.00019427,0.00009775,0.00002145,
 -0.00003487,-0.00001794,0.00002079,-0.00002484,-0.00001885,-0.00004389
 ,-0.00001216,-0.00000122,-0.00001031,0.00001056,-0.00001843,-0.0000177
 2,0.00000819,0.00001175,0.00000591,0.00002035,0.00001823,0.00002739,-0
 .00000226,0.00000723,-0.00000543,-0.00000196,-0.00000845,-0.00001574,0
 .00001197,0.00002258,-0.00000113,0.00059078,-0.00033337,0.00002896,-0.
 00000312,-0.00000715,-0.00002195,0.00000411,-0.00000384,0.00001092,0.0
 0005134,0.00001026,-0.00007248,-0.00002188,-0.00001368,0.00000981,-0.0
 0025802,-0.00004478,-0.00023530,0.00009689,0.00000521,0.00002929,-0.00
 004001,0.00001314,-0.00003622,-0.00000542,0.00000432,0.00001648,-0.182
 77101,0.07382262,-0.12544899,0.00064580,-0.00066833,0.00498078,0.19749
 286,-0.08865469,0.13350686,0.00167285,-0.00113680,-0.00074046,-0.00025
 097,-0.00005774,0.00011750,0.00056295,-0.00151954,-0.00141938,0.000327
 06,0.00063124,0.00097161,-0.01058813,-0.00016527,-0.00228027,-0.001173
 32,-0.00043229,-0.00017817,0.00009665,-0.00009189,-0.00035721,0.000010
 08,0.00005807,-0.00000396,0.00007309,-0.00008069,-0.00008853,0.0001404
 8,-0.00002400,0.00010762,-0.00001015,0.00043401,0.00008964,-0.00001157
 ,-0.00000899,0.00002829,0.00000297,-0.00006202,-0.00008221,0.00037389,
 0.00041591,0.00081646,0.00319398,0.00247120,0.00297213,0.00046015,-0.0
 0029838,-0.00008602,-0.00016977,0.00011309,0.00006397,0.00099377,0.000
 46416,0.00005387,-0.00021263,-0.00027081,-0.00005347,-0.00040544,-0.00
 025172,-0.00070729,0.00024559,0.00004888,0.00011747,0.00048279,0.00008
 255,-0.00013932,-0.00021793,0.00001233,0.00002205,-0.13438823,-0.12015
 899,-0.09656905,0.00683647,0.00241452,-0.00005699,-0.01833290,-0.03178
 907,-0.01703056,0.15383615,-0.00083316,-0.00242898,-0.00100580,-0.0002
 8728,0.00016193,-0.00007569,0.00085195,-0.00104499,-0.00053814,0.00028
 788,0.00088447,0.00120544,-0.00878193,0.00455351,-0.00417394,0.0002211
 8,0.00010255,-0.00002424,0.00007050,-0.00017333,-0.00038388,-0.0001844
 2,0.00002375,-0.00006077,0.00012284,-0.00011795,-0.00008056,0.00005823
 ,-0.00008876,0.00007776,0.00004108,0.00023274,0.00010124,0.00002302,-0
 .00005625,0.00004318,0.00000832,-0.00005698,-0.00007889,0.00106119,0.0
 0016289,0.00110011,0.00648969,-0.00420740,0.00510311,0.00003526,-0.000
 21677,-0.00003706,-0.00008915,0.00014730,0.00001444,0.00159196,0.00049
 644,0.00005204,-0.00024011,-0.00025790,-0.00009594,-0.00044202,-0.0007
 8894,-0.00067112,0.00016370,0.00013672,0.00003495,0.00022234,-0.000287
 11,0.00001568,-0.00022679,0.00017031,0.00004438,-0.16955269,-0.2969208
 3,-0.15412308,0.00234539,-0.00231750,-0.00379894,0.01793276,0.01449900
 ,0.01544674,0.14911158,0.28581291,-0.00042886,-0.00022671,-0.00099455,
 0.00009977,0.00003278,0.00004154,0.00041599,0.00018214,0.00028511,0.00
 051436,0.00029950,0.00071573,-0.00308890,-0.00010531,-0.00070515,0.000
 21999,-0.00000295,-0.00007001,-0.00008685,-0.00008225,-0.00014306,-0.0
 0013939,-0.00002839,-0.00003436,0.00004873,-0.00004890,-0.00006572,-0.
 00002191,0.00001947,0.00002897,0.00005964,0.00001524,0.00009642,-0.000
 00435,0.00002345,-0.00001202,0.00000373,-0.00002827,-0.00005885,-0.000
 35108,-0.00005322,0.00051397,0.00382817,0.00228818,-0.00366922,-0.0000
 7935,-0.00000197,-0.00005575,0.00002508,-0.00001004,0.00001778,0.00036
 602,0.00009026,-0.00025371,-0.00006489,-0.00009159,0.00002532,-0.00074
 549,-0.00047663,-0.00042254,0.00004101,0.00002778,-0.00002646,-0.00016
 123,-0.00002294,-0.00008707,-0.00002630,0.00003621,0.00005420,-0.10252
 280,-0.11770056,-0.09544583,0.00012832,-0.00460265,-0.00326044,-0.0116
 1072,-0.02093973,-0.01021630,0.11239695,0.13950857,0.11245633,-0.01365
 871,-0.00679729,-0.02067250,0.00063925,0.00128774,0.00061631,0.0000794
 1,0.00026513,-0.00020119,0.00099097,0.00127908,0.00122707,-0.00528801,
 0.00266051,-0.00038662,0.00580197,0.00053512,-0.00241541,-0.00023091,-
 0.00035895,-0.00023219,-0.00181278,-0.00046048,0.00001424,0.00023336,-
 0.00031343,-0.00036893,0.00009380,-0.00021029,-0.00002293,0.00067737,-
 0.00045919,0.00058834,0.00001608,-0.00004622,-0.00014816,-0.00006124,-
 0.00010721,-0.00022369,0.00014754,-0.00029810,0.00027556,0.00527352,0.
 00109523,0.00151139,-0.00145124,0.00039269,0.00000721,0.00041453,-0.00
 008078,-0.00014704,0.00028469,-0.00046089,-0.00026421,0.00002907,0.000
 06932,0.00003249,-0.00072540,-0.00752979,0.00007761,-0.00041144,0.0010
 2283,-0.00086388,-0.00110776,-0.00113811,0.00013376,0.00003749,0.00043
 388,0.00002763,-0.01117128,0.00567837,0.01524552,-0.29438407,0.0286324
 8,0.18392167,0.00138353,-0.00024501,0.00051482,-0.00394910,-0.00283116
 ,-0.00180336,0.36563721,-0.00203690,0.00573418,-0.00275594,0.00076141,
 -0.00034078,0.00010792,0.00020719,0.00049103,0.00045332,0.00280693,-0.
 00051331,0.00386689,0.00117780,-0.00048786,0.00123661,0.00013894,0.000
 17572,0.00008227,-0.00088423,-0.00026257,-0.00078099,0.00001285,0.0000
 4520,-0.00001289,0.00012167,-0.00011134,-0.00002633,-0.00004246,0.0000
 8147,0.00006087,-0.00047005,-0.00073358,-0.00068486,-0.00008921,0.0001
 3628,-0.00013814,0.00002773,0.00006157,0.00037647,-0.00013442,0.000207
 34,-0.00012922,-0.00062358,-0.00020554,-0.00114462,0.00013328,0.000628
 09,0.00013072,0.00019369,-0.00036349,0.00002301,-0.00038877,-0.0002203
 9,-0.00069540,0.00000940,0.00006387,0.00003431,-0.00684648,-0.00612015
 ,-0.00093823,-0.00061153,-0.00092719,-0.00049371,-0.00083520,0.0005625
 1,-0.00035340,0.00018018,-0.00014967,0.00013006,0.00354464,0.00439543,
 -0.00272988,-0.01562072,-0.05492767,0.01824934,-0.00074697,0.00005296,
 0.00032217,-0.00147372,0.00003352,0.00166121,0.04783498,0.51237352,-0.
 02337747,-0.00685614,-0.01275412,-0.00035821,0.00016935,-0.00153961,0.
 00032294,0.00044188,-0.00006109,-0.00223228,0.00039404,-0.00290556,0.0
 0069577,0.00298660,-0.00004477,0.00627666,0.00036427,-0.00547042,0.000
 46236,0.00007507,0.00062871,-0.00227790,-0.00054607,0.00037871,-0.0003
 9073,0.00006619,0.00076169,-0.00005711,-0.00019138,0.00003395,-0.00030
 495,-0.00140875,-0.00071392,0.00013334,-0.00016787,0.00016464,-0.00002
 990,0.00039203,0.00041636,-0.00013797,-0.00030122,0.00023517,-0.000314
 09,-0.00174709,0.00006584,-0.00111497,0.00071441,0.00059347,0.00023979
 ,0.00001570,-0.00033114,-0.00039269,-0.00041736,0.00059123,0.00019673,
 0.00018803,0.00003900,0.00377105,0.00418768,0.00503792,-0.00145586,-0.
 00211827,-0.00000130,-0.00034666,-0.00094661,0.00126228,0.00024260,0.0
 0042970,-0.00018681,0.01143318,-0.00281687,-0.00260796,0.18889609,-0.0
 1125509,-0.14610207,0.00102720,-0.00086044,-0.00302726,-0.00061082,0.0
 0171111,0.00125845,-0.21815921,-0.07779190,0.20272885,-0.10024598,-0.0
 4389762,-0.08801860,0.00091507,-0.00193815,0.00057722,-0.00020679,-0.0
 0020779,0.00018397,0.00230684,-0.00083481,0.00247688,0.00704029,-0.004
 59494,0.00271342,-0.02502639,-0.01476212,-0.02890308,-0.00045088,0.000
 08315,-0.00042440,-0.00274458,0.00011847,0.00189873,-0.00019142,-0.000
 23730,0.00029440,-0.00007353,0.00030350,0.00004688,-0.00040589,0.00052
 690,-0.00155550,-0.00020140,0.00029125,0.00007251,-0.00024187,0.000508
 14,0.00043502,-0.00013272,0.00098958,-0.00041497,-0.00552212,-0.000696
 34,-0.00260677,0.00203947,-0.00011667,0.00040683,-0.00030985,-0.000160
 00,0.00018129,-0.00007090,0.00030731,-0.00042660,-0.00015723,-0.000151
 25,-0.00002236,-0.00308833,-0.00204264,-0.00178783,0.00044266,0.000274
 34,0.00011872,0.00107290,0.00190508,-0.00065809,0.00002233,-0.00036149
 ,-0.00003483,0.00258134,-0.00142041,-0.00237627,-0.01098260,0.00031065
 ,-0.00216500,-0.00022231,-0.00007090,0.00002133,0.00016576,0.00207412,
 0.00148865,0.00126713,-0.00134487,0.01481759,0.13023526,-0.06029606,-0
 .06211461,-0.10675621,-0.00121835,-0.00051273,-0.00073430,-0.00056065,
 -0.00046618,-0.00001352,-0.00079251,-0.00232815,-0.00004428,-0.0013753
 3,-0.00062836,-0.00319269,-0.00475573,-0.00556849,-0.00195059,-0.00003
 919,0.00027267,-0.00002774,-0.00045618,0.00057628,0.00044157,-0.000084
 32,0.00009557,-0.00007894,0.00004831,0.00009780,0.00005648,0.00209702,
 0.00301421,0.00208016,0.00018782,-0.00012383,0.00034222,-0.00004848,-0
 .00005241,-0.00091991,0.00027805,-0.00092410,-0.00011716,0.00030769,0.
 00070251,0.00106803,0.00017417,-0.00160211,-0.00057142,-0.00036688,0.0
 0045527,-0.00000781,0.00028864,0.00030083,0.00030794,0.00000058,-0.000
 04306,-0.00008062,-0.00050692,0.00042889,-0.00071970,0.00039751,0.0003
 4265,0.00021647,0.00129801,0.00050875,0.00010413,-0.00004356,-0.000040
 53,-0.00007752,-0.00004494,-0.00067403,-0.00034589,-0.00098779,0.00116
 236,0.00002985,0.00002693,-0.00000986,0.00002359,0.00101317,0.00045763
 ,-0.00010934,-0.00090095,-0.01157209,0.00180223,0.05955228,0.07849929,
 -0.12693296,-0.11305547,-0.28298834,0.00193156,0.00007080,0.00380927,-
 0.00008465,-0.00013899,0.00061252,0.00276707,0.00022455,0.00286477,0.0
 0411587,-0.00479269,0.00037125,0.00135199,0.00629861,0.01362055,-0.000
 49858,-0.00003429,-0.00048174,0.00476573,0.00120162,0.00099100,0.00028
 336,-0.00035598,-0.00110060,0.00000459,0.00028298,-0.00006669,0.000357
 30,0.00266701,0.00147159,-0.00028549,0.00020363,-0.00027222,-0.0001293
 4,-0.00060556,-0.00090197,0.00006633,0.00043554,-0.00008718,-0.0036000
 2,0.00031952,-0.00149561,0.00185441,-0.00130931,-0.00087908,-0.0003901
 3,-0.00004286,0.00049339,-0.00003567,0.00043934,-0.00064278,-0.0001812
 5,-0.00013867,-0.00003955,-0.00299197,-0.00312539,-0.00228516,0.000363
 85,0.00082229,-0.00016509,0.00081497,0.00174323,-0.00223894,-0.0003503
 2,-0.00078811,0.00013821,0.00177680,-0.00124260,-0.00395694,-0.0037821
 7,-0.00075157,0.00866845,-0.00047539,0.00011389,0.00030869,0.00145847,
 0.00081605,0.00119120,0.01250138,0.00200707,-0.00243000,0.10748850,0.1
 0230305,0.27077736,-0.00156326,-0.00220133,0.00014009,-0.00114334,-0.0
 0035060,-0.00058602,0.00013710,-0.00034653,-0.00018281,-0.00425559,-0.
 00150864,-0.00399895,0.00260486,0.00014687,-0.00052282,-0.00003487,0.0
 0046369,-0.00102350,0.00084850,0.00045732,0.00063030,-0.00006701,-0.00
 011725,0.00018929,-0.00039404,0.00027507,0.00041653,-0.00002451,0.0000
 0872,0.00001030,-0.00014215,0.00018526,0.00019790,0.00007654,-0.000139
 40,0.00011587,0.00003512,0.00005077,-0.00007867,-0.00019050,-0.0000231
 7,0.00005741,-0.00221823,-0.00080877,-0.00058448,0.00007622,-0.0002905
 2,0.00004485,-0.00020257,0.00027983,-0.00005538,-0.00008665,0.00021209
 ,0.00075203,0.00006839,-0.00000323,0.00000766,0.00003977,0.00451722,0.
 00222996,0.00012618,-0.00201339,0.00169102,0.00101301,-0.00007030,0.00
 060001,-0.00001581,0.00003881,-0.00017447,0.00105428,0.00136247,-0.002
 46029,-0.00546654,-0.04294938,0.00982569,-0.00095441,-0.00003234,0.000
 75840,0.00023545,0.00075568,0.00149908,-0.04875499,-0.02500160,0.02304
 552,0.00218575,0.00680767,-0.00216423,0.05701333,-0.00364356,-0.002131
 53,-0.00329309,-0.00049087,0.00124440,0.00058451,-0.00004321,-0.000469
 68,-0.00050546,-0.00418323,0.00098722,-0.00678420,-0.00009680,0.001436
 78,-0.00111956,0.00206120,0.00058189,-0.00091729,0.00153349,0.00051101
 ,0.00134794,-0.00043730,-0.00015317,0.00002127,0.00001101,0.00009530,-
 0.00012581,0.00001836,-0.00017015,-0.00009433,0.00016194,0.00005393,0.
 00050814,0.00006276,-0.00017341,0.00002572,-0.00000738,-0.00007225,-0.
 00016122,0.00005026,-0.00030711,0.00017815,-0.00023757,-0.00075765,0.0
 0070019,-0.00040209,-0.00024166,-0.00001213,-0.00008259,0.00033835,-0.
 00006915,0.00026218,0.00013577,0.00102538,0.00007493,-0.00001403,-0.00
 000072,0.00275849,-0.00424857,0.00598902,0.00050939,0.00057246,0.00100
 417,0.00090554,-0.00111303,0.00044869,-0.00023674,0.00025330,-0.000211
 89,0.00180118,-0.00125454,-0.00220496,0.00221889,-0.00111404,-0.001603
 11,-0.00005750,0.00013451,0.00000225,0.00055120,0.00108804,0.00034666,
 -0.06894951,-0.44810706,0.09348677,0.00559254,-0.00025417,0.00643231,0
 .06029500,0.45314909,0.00258734,-0.00095592,0.00138530,-0.00028865,-0.
 00016982,0.00040032,-0.00051633,-0.00033482,-0.00010683,0.00072787,-0.
 00144544,0.00178297,-0.00200845,-0.00126653,-0.00091758,-0.00243723,-0
 .00054883,0.00035401,-0.00028031,-0.00008163,-0.00038054,0.00030462,0.
 00010159,-0.00002249,0.00013671,-0.00008064,-0.00010694,0.00004898,0.0
 0008494,-0.00001114,0.00007548,0.00043483,0.00008937,-0.00002594,0.000
 04780,-0.00001819,-0.00003828,-0.00007284,-0.00008901,0.00021634,-0.00
 003636,-0.00009724,0.00113497,0.00096891,0.00081661,0.00043376,-0.0002
 2245,-0.00014569,-0.00009051,-0.00000576,0.00010273,0.00039470,0.00016
 206,-0.00022743,-0.00009420,-0.00008930,-0.00004908,-0.00221335,-0.000
 24490,-0.00703814,0.00291951,0.00385233,-0.00027523,0.00015532,0.00036
 407,-0.00034443,-0.00007155,-0.00010311,0.00006713,-0.00115597,-0.0012
 2228,0.00045000,0.00364985,0.02903259,-0.00491090,0.00024126,0.0000512
 7,0.00011055,0.00118766,-0.00012675,-0.00116397,0.02921432,0.05993329,
 -0.03602024,-0.00382763,0.00697195,-0.00528636,-0.03038030,-0.09499826
 ,0.05165242\\-0.00002655,-0.00000478,0.00000280,-0.00003700,-0.0000266
 4,0.00002204,0.00001056,-0.00001820,0.00001186,-0.00002376,0.00002789,
 0.00000760,-0.00001235,-0.00002368,-0.00000493,0.00004830,0.00001493,-
 0.00003923,-0.00000394,0.00000898,0.00001210,-0.00000609,-0.00000807,-
 0.00000296,0.00000417,0.00001464,-0.00000254,-0.00000717,0.00000491,0.
 00001042,-0.00001788,-0.00000221,-0.00000715,0.00000464,0.00000070,-0.
 00001307,0.00000695,0.00000800,-0.00001138,0.00000282,-0.00001146,0.00
 000516,0.00000586,0.00001831,0.00000289,0.00001508,0.00000091,-0.00001
 813,0.00000058,0.00001099,-0.00000713,-0.00001013,-0.00000300,0.000007
 68,-0.00000163,-0.00001022,0.00001043,0.00000167,0.00000508,0.00001267
 ,-0.00000340,0.00000581,0.00000675,0.00003234,0.00001526,-0.00000031,-
 0.00000393,0.00000067,0.00000311,0.00002503,0.00000945,-0.00001804,-0.
 00001180,0.00001606,0.00000191,0.00000016,-0.00000828,0.00000047,-0.00
 000703,-0.00004580,0.00001273,0.00000353,-0.00001346,-0.00000133,0.000
 01452,-0.00000108,0.00000048,-0.00000355,0.00001428,-0.00000490\\\@


 WHAT, THEN, IS TIME?  IF NO ONE ASKS ME, I KNOW WHAT IT IS.
 IF I WISH TO EXPLAIN WHAT IT IS TO HIM WHO ASKS ME, I DO NOT KNOW.
                                   -- ST. AUGUSTINE (FIFTH CENTURY)
 Job cpu time:       0 days  0 hours 32 minutes  7.8 seconds.
 File lengths (MBytes):  RWF=    220 Int=      0 D2E=      0 Chk=      6 Scr=      1
 Normal termination of Gaussian 09 at Sun Jan 15 22:27:24 2017.
