 Entering Gaussian System, Link 0=g09
 Initial command:
 /global/software/gaussian/g09.d01/l1.exe "/home/iawad/Gau-30166.inp" -scrdir="/home/iawad/"
 Entering Link 1 = /global/software/gaussian/g09.d01/l1.exe PID=     30167.
  
 Copyright (c) 1988,1990,1992,1993,1995,1998,2003,2009,2013,
            Gaussian, Inc.  All Rights Reserved.
  
 This is part of the Gaussian(R) 09 program.  It is based on
 the Gaussian(R) 03 system (copyright 2003, Gaussian, Inc.),
 the Gaussian(R) 98 system (copyright 1998, Gaussian, Inc.),
 the Gaussian(R) 94 system (copyright 1995, Gaussian, Inc.),
 the Gaussian 92(TM) system (copyright 1992, Gaussian, Inc.),
 the Gaussian 90(TM) system (copyright 1990, Gaussian, Inc.),
 the Gaussian 88(TM) system (copyright 1988, Gaussian, Inc.),
 the Gaussian 86(TM) system (copyright 1986, Carnegie Mellon
 University), and the Gaussian 82(TM) system (copyright 1983,
 Carnegie Mellon University). Gaussian is a federally registered
 trademark of Gaussian, Inc.
  
 This software contains proprietary and confidential information,
 including trade secrets, belonging to Gaussian, Inc.
  
 This software is provided under written license and may be
 used, copied, transmitted, or stored only in accord with that
 written license.
  
 The following legend is applicable only to US Government
 contracts under FAR:
  
                    RESTRICTED RIGHTS LEGEND
  
 Use, reproduction and disclosure by the US Government is
 subject to restrictions as set forth in subparagraphs (a)
 and (c) of the Commercial Computer Software - Restricted
 Rights clause in FAR 52.227-19.
  
 Gaussian, Inc.
 340 Quinnipiac St., Bldg. 40, Wallingford CT 06492
  
  
 ---------------------------------------------------------------
 Warning -- This program may not be used in any manner that
 competes with the business of Gaussian, Inc. or will provide
 assistance to any competitor of Gaussian, Inc.  The licensee
 of this program is prohibited from giving any competitor of
 Gaussian, Inc. access to this program.  By using this program,
 the user acknowledges that Gaussian, Inc. is engaged in the
 business of creating and licensing software in the field of
 computational chemistry and represents and warrants to the
 licensee that it is not a competitor of Gaussian, Inc. and that
 it will not use this program in any manner prohibited above.
 ---------------------------------------------------------------
  

 Cite this work as:
 Gaussian 09, Revision D.01,
 M. J. Frisch, G. W. Trucks, H. B. Schlegel, G. E. Scuseria, 
 M. A. Robb, J. R. Cheeseman, G. Scalmani, V. Barone, B. Mennucci, 
 G. A. Petersson, H. Nakatsuji, M. Caricato, X. Li, H. P. Hratchian, 
 A. F. Izmaylov, J. Bloino, G. Zheng, J. L. Sonnenberg, M. Hada, 
 M. Ehara, K. Toyota, R. Fukuda, J. Hasegawa, M. Ishida, T. Nakajima, 
 Y. Honda, O. Kitao, H. Nakai, T. Vreven, J. A. Montgomery, Jr., 
 J. E. Peralta, F. Ogliaro, M. Bearpark, J. J. Heyd, E. Brothers, 
 K. N. Kudin, V. N. Staroverov, T. Keith, R. Kobayashi, J. Normand, 
 K. Raghavachari, A. Rendell, J. C. Burant, S. S. Iyengar, J. Tomasi, 
 M. Cossi, N. Rega, J. M. Millam, M. Klene, J. E. Knox, J. B. Cross, 
 V. Bakken, C. Adamo, J. Jaramillo, R. Gomperts, R. E. Stratmann, 
 O. Yazyev, A. J. Austin, R. Cammi, C. Pomelli, J. W. Ochterski, 
 R. L. Martin, K. Morokuma, V. G. Zakrzewski, G. A. Voth, 
 P. Salvador, J. J. Dannenberg, S. Dapprich, A. D. Daniels, 
 O. Farkas, J. B. Foresman, J. V. Ortiz, J. Cioslowski, 
 and D. J. Fox, Gaussian, Inc., Wallingford CT, 2013.
 
 ******************************************
 Gaussian 09:  ES64L-G09RevD.01 24-Apr-2013
                22-Jan-2017 
 ******************************************
 %NPROCS=20
 Will use up to   20 processors via shared memory.
 -------------------------
 # b3lyp/6-31g(d) opt freq
 -------------------------
 1/14=-1,18=20,19=15,26=3,38=1/1,3;
 2/9=110,12=2,17=6,18=5,40=1/2;
 3/5=1,6=6,7=1,11=2,16=1,25=1,30=1,71=1,74=-5/1,2,3;
 4//1;
 5/5=2,38=5/2;
 6/7=2,8=2,9=2,10=2,28=1/1;
 7//1,2,3,16;
 1/14=-1,18=20,19=15,26=3/3(2);
 2/9=110/2;
 99//99;
 2/9=110/2;
 3/5=1,6=6,7=1,11=2,16=1,25=1,30=1,71=1,74=-5/1,2,3;
 4/5=5,16=3,69=1/1;
 5/5=2,38=5/2;
 7//1,2,3,16;
 1/14=-1,18=20,19=15,26=3/3(-5);
 2/9=110/2;
 6/7=2,8=2,9=2,10=2,19=2,28=1/1;
 99/9=1/99;
 -------------------
 Title Card Required
 -------------------
 Symbolic Z-matrix:
 Charge =  0 Multiplicity = 1
 O                    -1.29066  -0.2711   -1.15956 
 C                    -0.64086   0.73848   1.01529 
 C                     1.05679  -0.61534  -0.39677 
 C                     0.61733  -0.16599   1.00378 
 C                    -0.14514  -1.19783  -1.15861 
 C                    -1.26296   0.93954  -0.37201 
 H                     0.35713  -1.07398   1.56124 
 H                    -2.32336   1.19707  -0.2333 
 H                    -0.35308   1.7232    1.39965 
 H                     1.50293   0.2233   -0.93517 
 C                    -0.62794   2.09783  -1.17124 
 H                    -1.02872   2.0632   -2.19307 
 H                     0.45721   1.99088  -1.23629 
 O                    -0.85488   3.3541   -0.54392 
 H                    -1.75643   3.6407   -0.75642 
 O                     2.08976  -1.5847   -0.30346 
 H                     1.63924  -2.43131  -0.1227 
 O                     1.72448   0.49441   1.614 
 H                     1.66421   0.37753   2.57358 
 O                    -1.57771   0.11905   1.92916 
 H                    -2.24457   0.7811    2.17294 
 H                     0.09769  -1.33004  -2.21876 
 O                    -0.43237  -2.4552   -0.61174 
 H                    -1.33991  -2.44151  -0.18415 
 O                    -2.72818  -1.86219   0.2407 
 H                    -2.49657  -1.35483   1.04462 
 H                    -2.61423  -1.19678  -0.46666 
 O                     3.90048   0.68582  -0.37726 
 H                     3.40109   0.82543   0.44541 
 H                     3.79103  -0.27126  -0.50306 
 
 Add virtual bond connecting atoms O25        and H24        Dist= 2.95D+00.
 Add virtual bond connecting atoms H29        and O18        Dist= 3.91D+00.
 Add virtual bond connecting atoms H30        and O16        Dist= 4.08D+00.

 GradGradGradGradGradGradGradGradGradGradGradGradGradGradGradGradGradGrad
 Berny optimization.
 Initialization pass.
                           ----------------------------
                           !    Initial Parameters    !
                           ! (Angstroms and Degrees)  !
 --------------------------                            --------------------------
 ! Name  Definition              Value          Derivative Info.                !
 --------------------------------------------------------------------------------
 ! R1    R(1,5)                  1.4735         estimate D2E/DX2                !
 ! R2    R(1,6)                  1.4445         estimate D2E/DX2                !
 ! R3    R(2,4)                  1.5496         estimate D2E/DX2                !
 ! R4    R(2,6)                  1.5336         estimate D2E/DX2                !
 ! R5    R(2,9)                  1.0956         estimate D2E/DX2                !
 ! R6    R(2,20)                 1.4479         estimate D2E/DX2                !
 ! R7    R(3,4)                  1.5351         estimate D2E/DX2                !
 ! R8    R(3,5)                  1.5376         estimate D2E/DX2                !
 ! R9    R(3,10)                 1.0919         estimate D2E/DX2                !
 ! R10   R(3,16)                 1.4196         estimate D2E/DX2                !
 ! R11   R(4,7)                  1.0968         estimate D2E/DX2                !
 ! R12   R(4,18)                 1.4263         estimate D2E/DX2                !
 ! R13   R(5,22)                 1.0956         estimate D2E/DX2                !
 ! R14   R(5,23)                 1.4009         estimate D2E/DX2                !
 ! R15   R(6,8)                  1.1            estimate D2E/DX2                !
 ! R16   R(6,11)                 1.5439         estimate D2E/DX2                !
 ! R17   R(11,12)                1.0982         estimate D2E/DX2                !
 ! R18   R(11,13)                1.0923         estimate D2E/DX2                !
 ! R19   R(11,14)                1.4224         estimate D2E/DX2                !
 ! R20   R(14,15)                0.9696         estimate D2E/DX2                !
 ! R21   R(16,17)                0.9759         estimate D2E/DX2                !
 ! R22   R(16,30)                2.1585         estimate D2E/DX2                !
 ! R23   R(18,19)                0.9685         estimate D2E/DX2                !
 ! R24   R(18,29)                2.0703         estimate D2E/DX2                !
 ! R25   R(20,21)                0.9708         estimate D2E/DX2                !
 ! R26   R(23,24)                1.0033         estimate D2E/DX2                !
 ! R27   R(24,25)                1.5631         estimate D2E/DX2                !
 ! R28   R(25,26)                0.9784         estimate D2E/DX2                !
 ! R29   R(25,27)                0.9778         estimate D2E/DX2                !
 ! R30   R(28,29)                0.9725         estimate D2E/DX2                !
 ! R31   R(28,30)                0.9715         estimate D2E/DX2                !
 ! A1    A(5,1,6)              120.7879         estimate D2E/DX2                !
 ! A2    A(4,2,6)              113.5255         estimate D2E/DX2                !
 ! A3    A(4,2,9)              108.2981         estimate D2E/DX2                !
 ! A4    A(4,2,20)             106.2808         estimate D2E/DX2                !
 ! A5    A(6,2,9)              107.8227         estimate D2E/DX2                !
 ! A6    A(6,2,20)             111.3802         estimate D2E/DX2                !
 ! A7    A(9,2,20)             109.454          estimate D2E/DX2                !
 ! A8    A(4,3,5)              109.8249         estimate D2E/DX2                !
 ! A9    A(4,3,10)             109.9992         estimate D2E/DX2                !
 ! A10   A(4,3,16)             110.3772         estimate D2E/DX2                !
 ! A11   A(5,3,10)             111.4717         estimate D2E/DX2                !
 ! A12   A(5,3,16)             110.0394         estimate D2E/DX2                !
 ! A13   A(10,3,16)            105.0434         estimate D2E/DX2                !
 ! A14   A(2,4,3)              114.2092         estimate D2E/DX2                !
 ! A15   A(2,4,7)              106.667          estimate D2E/DX2                !
 ! A16   A(2,4,18)             110.9063         estimate D2E/DX2                !
 ! A17   A(3,4,7)              106.816          estimate D2E/DX2                !
 ! A18   A(3,4,18)             107.6774         estimate D2E/DX2                !
 ! A19   A(7,4,18)             110.4884         estimate D2E/DX2                !
 ! A20   A(1,5,3)              111.7009         estimate D2E/DX2                !
 ! A21   A(1,5,22)             104.335          estimate D2E/DX2                !
 ! A22   A(1,5,23)             113.9141         estimate D2E/DX2                !
 ! A23   A(3,5,22)             110.6026         estimate D2E/DX2                !
 ! A24   A(3,5,23)             107.87           estimate D2E/DX2                !
 ! A25   A(22,5,23)            108.3529         estimate D2E/DX2                !
 ! A26   A(1,6,2)              113.0218         estimate D2E/DX2                !
 ! A27   A(1,6,8)              104.269          estimate D2E/DX2                !
 ! A28   A(1,6,11)             110.7577         estimate D2E/DX2                !
 ! A29   A(2,6,8)              107.9183         estimate D2E/DX2                !
 ! A30   A(2,6,11)             113.5648         estimate D2E/DX2                !
 ! A31   A(8,6,11)             106.6265         estimate D2E/DX2                !
 ! A32   A(6,11,12)            107.9337         estimate D2E/DX2                !
 ! A33   A(6,11,13)            111.4669         estimate D2E/DX2                !
 ! A34   A(6,11,14)            111.6341         estimate D2E/DX2                !
 ! A35   A(12,11,13)           107.7009         estimate D2E/DX2                !
 ! A36   A(12,11,14)           112.3338         estimate D2E/DX2                !
 ! A37   A(13,11,14)           105.7378         estimate D2E/DX2                !
 ! A38   A(11,14,15)           108.2258         estimate D2E/DX2                !
 ! A39   A(3,16,17)            105.5825         estimate D2E/DX2                !
 ! A40   A(3,16,30)             98.7382         estimate D2E/DX2                !
 ! A41   A(17,16,30)           155.3464         estimate D2E/DX2                !
 ! A42   A(4,18,19)            108.6451         estimate D2E/DX2                !
 ! A43   A(4,18,29)            117.4625         estimate D2E/DX2                !
 ! A44   A(19,18,29)           128.9696         estimate D2E/DX2                !
 ! A45   A(2,20,21)            108.1314         estimate D2E/DX2                !
 ! A46   A(5,23,24)            109.8507         estimate D2E/DX2                !
 ! A47   A(23,24,25)           157.5536         estimate D2E/DX2                !
 ! A48   A(24,25,26)           101.8448         estimate D2E/DX2                !
 ! A49   A(24,25,27)            87.2535         estimate D2E/DX2                !
 ! A50   A(26,25,27)           102.3526         estimate D2E/DX2                !
 ! A51   A(29,28,30)           101.1352         estimate D2E/DX2                !
 ! A52   A(18,29,28)           150.5091         estimate D2E/DX2                !
 ! A53   A(16,30,28)           132.5534         estimate D2E/DX2                !
 ! D1    D(6,1,5,3)             -7.2132         estimate D2E/DX2                !
 ! D2    D(6,1,5,22)          -126.7245         estimate D2E/DX2                !
 ! D3    D(6,1,5,23)           115.3175         estimate D2E/DX2                !
 ! D4    D(5,1,6,2)            -40.7933         estimate D2E/DX2                !
 ! D5    D(5,1,6,8)           -157.7292         estimate D2E/DX2                !
 ! D6    D(5,1,6,11)            87.9322         estimate D2E/DX2                !
 ! D7    D(6,2,4,3)              3.7327         estimate D2E/DX2                !
 ! D8    D(6,2,4,7)           -114.0237         estimate D2E/DX2                !
 ! D9    D(6,2,4,18)           125.6131         estimate D2E/DX2                !
 ! D10   D(9,2,4,3)           -115.9736         estimate D2E/DX2                !
 ! D11   D(9,2,4,7)            126.27           estimate D2E/DX2                !
 ! D12   D(9,2,4,18)             5.9068         estimate D2E/DX2                !
 ! D13   D(20,2,4,3)           126.5088         estimate D2E/DX2                !
 ! D14   D(20,2,4,7)             8.7525         estimate D2E/DX2                !
 ! D15   D(20,2,4,18)         -111.6107         estimate D2E/DX2                !
 ! D16   D(4,2,6,1)             41.3207         estimate D2E/DX2                !
 ! D17   D(4,2,6,8)            156.0829         estimate D2E/DX2                !
 ! D18   D(4,2,6,11)           -85.9409         estimate D2E/DX2                !
 ! D19   D(9,2,6,1)            161.2974         estimate D2E/DX2                !
 ! D20   D(9,2,6,8)            -83.9405         estimate D2E/DX2                !
 ! D21   D(9,2,6,11)            34.0357         estimate D2E/DX2                !
 ! D22   D(20,2,6,1)           -78.5993         estimate D2E/DX2                !
 ! D23   D(20,2,6,8)            36.1629         estimate D2E/DX2                !
 ! D24   D(20,2,6,11)          154.1391         estimate D2E/DX2                !
 ! D25   D(4,2,20,21)          162.585          estimate D2E/DX2                !
 ! D26   D(6,2,20,21)          -73.2967         estimate D2E/DX2                !
 ! D27   D(9,2,20,21)           45.8388         estimate D2E/DX2                !
 ! D28   D(5,3,4,2)            -50.2219         estimate D2E/DX2                !
 ! D29   D(5,3,4,7)             67.4492         estimate D2E/DX2                !
 ! D30   D(5,3,4,18)          -173.8592         estimate D2E/DX2                !
 ! D31   D(10,3,4,2)            72.8222         estimate D2E/DX2                !
 ! D32   D(10,3,4,7)          -169.5067         estimate D2E/DX2                !
 ! D33   D(10,3,4,18)          -50.8151         estimate D2E/DX2                !
 ! D34   D(16,3,4,2)          -171.7208         estimate D2E/DX2                !
 ! D35   D(16,3,4,7)           -54.0497         estimate D2E/DX2                !
 ! D36   D(16,3,4,18)           64.6419         estimate D2E/DX2                !
 ! D37   D(4,3,5,1)             52.5505         estimate D2E/DX2                !
 ! D38   D(4,3,5,22)           168.2907         estimate D2E/DX2                !
 ! D39   D(4,3,5,23)           -73.3735         estimate D2E/DX2                !
 ! D40   D(10,3,5,1)           -69.6221         estimate D2E/DX2                !
 ! D41   D(10,3,5,22)           46.1181         estimate D2E/DX2                !
 ! D42   D(10,3,5,23)          164.4539         estimate D2E/DX2                !
 ! D43   D(16,3,5,1)           174.2515         estimate D2E/DX2                !
 ! D44   D(16,3,5,22)          -70.0083         estimate D2E/DX2                !
 ! D45   D(16,3,5,23)           48.3274         estimate D2E/DX2                !
 ! D46   D(4,3,16,17)           81.0335         estimate D2E/DX2                !
 ! D47   D(4,3,16,30)          -94.8899         estimate D2E/DX2                !
 ! D48   D(5,3,16,17)          -40.3381         estimate D2E/DX2                !
 ! D49   D(5,3,16,30)          143.7385         estimate D2E/DX2                !
 ! D50   D(10,3,16,17)        -160.4367         estimate D2E/DX2                !
 ! D51   D(10,3,16,30)          23.6399         estimate D2E/DX2                !
 ! D52   D(2,4,18,19)           83.4131         estimate D2E/DX2                !
 ! D53   D(2,4,18,29)         -119.158          estimate D2E/DX2                !
 ! D54   D(3,4,18,19)         -150.9627         estimate D2E/DX2                !
 ! D55   D(3,4,18,29)            6.4662         estimate D2E/DX2                !
 ! D56   D(7,4,18,19)          -34.6528         estimate D2E/DX2                !
 ! D57   D(7,4,18,29)          122.7762         estimate D2E/DX2                !
 ! D58   D(1,5,23,24)           -9.0274         estimate D2E/DX2                !
 ! D59   D(3,5,23,24)          115.5805         estimate D2E/DX2                !
 ! D60   D(22,5,23,24)        -124.6513         estimate D2E/DX2                !
 ! D61   D(1,6,11,12)           43.0744         estimate D2E/DX2                !
 ! D62   D(1,6,11,13)          -75.0031         estimate D2E/DX2                !
 ! D63   D(1,6,11,14)          166.9946         estimate D2E/DX2                !
 ! D64   D(2,6,11,12)          171.5069         estimate D2E/DX2                !
 ! D65   D(2,6,11,13)           53.4294         estimate D2E/DX2                !
 ! D66   D(2,6,11,14)          -64.5729         estimate D2E/DX2                !
 ! D67   D(8,6,11,12)          -69.7723         estimate D2E/DX2                !
 ! D68   D(8,6,11,13)          172.1501         estimate D2E/DX2                !
 ! D69   D(8,6,11,14)           54.1478         estimate D2E/DX2                !
 ! D70   D(6,11,14,15)         -79.392          estimate D2E/DX2                !
 ! D71   D(12,11,14,15)         42.0108         estimate D2E/DX2                !
 ! D72   D(13,11,14,15)        159.2224         estimate D2E/DX2                !
 ! D73   D(3,16,30,28)          19.8267         estimate D2E/DX2                !
 ! D74   D(17,16,30,28)       -150.7248         estimate D2E/DX2                !
 ! D75   D(4,18,29,28)          -9.1909         estimate D2E/DX2                !
 ! D76   D(19,18,29,28)        142.9192         estimate D2E/DX2                !
 ! D77   D(5,23,24,25)           3.9195         estimate D2E/DX2                !
 ! D78   D(23,24,25,26)        -82.8382         estimate D2E/DX2                !
 ! D79   D(23,24,25,27)         19.2122         estimate D2E/DX2                !
 ! D80   D(24,25,26,27)         89.7599         estimate D2E/DX2                !
 ! D81   D(30,28,29,18)        -44.6269         estimate D2E/DX2                !
 ! D82   D(29,28,30,16)         43.2763         estimate D2E/DX2                !
 --------------------------------------------------------------------------------
 Trust Radius=3.00D-01 FncErr=1.00D-07 GrdErr=1.00D-06
 Number of steps in this run=    176 maximum allowed number of steps=    180.
 GradGradGradGradGradGradGradGradGradGradGradGradGradGradGradGradGradGrad

                          Input orientation:                          
 ---------------------------------------------------------------------
 Center     Atomic      Atomic             Coordinates (Angstroms)
 Number     Number       Type             X           Y           Z
 ---------------------------------------------------------------------
      1          8           0       -1.290664   -0.271095   -1.159557
      2          6           0       -0.640861    0.738475    1.015292
      3          6           0        1.056786   -0.615341   -0.396773
      4          6           0        0.617329   -0.165988    1.003775
      5          6           0       -0.145142   -1.197829   -1.158612
      6          6           0       -1.262964    0.939537   -0.372008
      7          1           0        0.357130   -1.073982    1.561235
      8          1           0       -2.323359    1.197067   -0.233299
      9          1           0       -0.353084    1.723201    1.399649
     10          1           0        1.502934    0.223303   -0.935172
     11          6           0       -0.627942    2.097834   -1.171241
     12          1           0       -1.028720    2.063200   -2.193074
     13          1           0        0.457206    1.990875   -1.236291
     14          8           0       -0.854876    3.354097   -0.543922
     15          1           0       -1.756430    3.640704   -0.756418
     16          8           0        2.089756   -1.584702   -0.303456
     17          1           0        1.639235   -2.431314   -0.122704
     18          8           0        1.724476    0.494407    1.614001
     19          1           0        1.664209    0.377526    2.573581
     20          8           0       -1.577712    0.119049    1.929163
     21          1           0       -2.244567    0.781098    2.172940
     22          1           0        0.097693   -1.330036   -2.218756
     23          8           0       -0.432365   -2.455200   -0.611743
     24          1           0       -1.339905   -2.441508   -0.184153
     25          8           0       -2.728180   -1.862189    0.240703
     26          1           0       -2.496572   -1.354833    1.044621
     27          1           0       -2.614229   -1.196784   -0.466655
     28          8           0        3.900482    0.685816   -0.377260
     29          1           0        3.401092    0.825425    0.445411
     30          1           0        3.791033   -0.271255   -0.503060
 ---------------------------------------------------------------------
                    Distance matrix (angstroms):
                    1          2          3          4          5
     1  O    0.000000
     2  C    2.484239   0.000000
     3  C    2.492161   2.590126   0.000000
     4  C    2.886432   1.549590   1.535114   0.000000
     5  C    1.473451   2.953112   1.537635   2.514354   0.000000
     6  C    1.444517   1.533636   2.792758   2.578850   2.537047
     7  H    3.280634   2.139869   2.129241   1.096776   2.768607
     8  H    2.019879   2.144781   3.838871   3.469282   3.366951
     9  H    3.377249   1.095551   3.268584   2.160429   3.888490
    10  H    2.845869   2.943734   1.091900   2.166878   2.187623
    11  C    2.459911   2.574675   3.286248   3.377319   3.330863
    12  H    2.566263   3.492699   3.840653   4.230674   3.533431
    13  H    2.859623   2.800693   2.802971   3.113775   3.246027
    14  O    3.702828   3.052610   4.408236   4.117493   4.647752
    15  H    3.960004   3.578601   5.114435   4.819120   5.115605
    16  O    3.726354   3.820015   1.419646   2.426859   2.423991
    17  H    3.784960   4.067116   1.926686   2.728543   2.403870
    18  O    4.167696   2.452109   2.391770   1.426279   3.747868
    19  H    4.805029   2.805690   3.190259   1.963582   4.436751
    20  O    3.126468   1.447943   3.590249   2.399124   3.649764
    21  H    3.622510   1.978342   4.410487   3.233321   4.407151
    22  H    2.042252   3.909382   2.179511   3.465507   1.095606
    23  O    2.409791   3.590303   2.376734   2.992031   1.400908
    24  H    2.380027   3.469816   3.020633   3.227992   1.980850
    25  O    2.561008   3.423498   4.035712   3.827768   3.011900
    26  H    2.736257   2.797581   3.905230   3.333377   3.226160
    27  H    1.757509   3.136172   3.717433   3.696981   2.564215
    28  O    5.336259   4.750344   3.127299   3.662229   4.530530
    29  H    5.078470   4.082855   2.877647   3.007325   4.386596
    30  H    5.123927   4.792351   2.757861   3.514830   4.096555
                    6          7          8          9         10
     6  C    0.000000
     7  H    3.227444   0.000000
     8  H    1.100000   3.945002   0.000000
     9  H    2.140276   2.890458   2.612531   0.000000
    10  H    2.912102   3.037740   4.010157   3.338545   0.000000
    11  C    1.543917   4.300838   2.136716   2.612541   2.847846
    12  H    2.152619   5.085010   2.503397   3.671477   3.372953
    13  H    2.193463   4.150845   3.060664   2.770632   2.075700
    14  O    2.454830   5.050597   2.627871   2.586327   3.938809
    15  H    2.772649   5.662766   2.562503   3.208555   4.725890
    16  O    4.197286   2.596132   5.217159   4.450871   2.003074
    17  H    4.455059   2.514318   5.373968   4.852514   2.779510
    18  O    3.614854   2.081409   4.504577   2.423249   2.573103
    19  H    4.190548   2.200040   4.944787   2.694147   3.515842
    20  O    2.463261   2.302674   2.528706   2.086481   4.207810
    21  H    2.732290   3.253357   2.443200   2.250166   4.900537
    22  H    3.226891   3.797526   4.023653   4.755871   2.456655
    23  O    3.503085   2.693121   4.130149   4.637997   3.320296
    24  H    3.387134   2.792210   3.769460   4.563666   3.968247
    25  O    3.220550   3.447349   3.122116   4.454128   4.861511
    26  H    2.965259   2.913654   2.859244   3.767609   4.733513
    27  H    2.529574   3.599499   2.422722   4.137896   4.380318
    28  O    5.169679   4.405678   6.246463   4.725082   2.504680
    29  H    4.736519   3.757461   5.776513   3.976231   2.423131
    30  H    5.198661   4.086242   6.294007   4.977134   2.380484
                   11         12         13         14         15
    11  C    0.000000
    12  H    1.098164   0.000000
    13  H    1.092345   1.768796   0.000000
    14  O    1.422401   2.101509   2.014773   0.000000
    15  H    1.956019   2.254343   2.802213   0.969586   0.000000
    16  O    4.658326   5.157784   4.039821   5.755034   6.504090
    17  H    5.172302   5.621839   4.710947   6.314190   6.985810
    18  O    3.982766   4.953284   3.459704   4.414467   5.256879
    19  H    4.715624   5.728382   4.309858   4.992453   5.782560
    20  O    3.798705   4.590638   4.202942   4.135720   4.432419
    21  H    3.940916   4.710005   4.515085   3.991604   4.122713
    22  H    3.657065   3.575404   3.481801   5.064934   5.503132
    23  O    4.591449   4.824125   4.577006   5.825036   6.239722
    24  H    4.699666   4.942165   4.897205   5.826982   6.123258
    25  O    4.699614   4.921393   5.212897   5.597727   5.676300
    26  H    4.508074   4.931552   5.012098   5.233799   5.361617
    27  H    3.911047   4.015203   4.493019   4.879735   4.921491
    28  O    4.809452   5.430598   3.781172   5.455358   6.393417
    29  H    4.523904   5.302539   3.585089   5.048388   5.997518
    30  H    5.058299   5.615679   4.095029   5.893159   6.792787
                   16         17         18         19         20
    16  O    0.000000
    17  H    0.975906   0.000000
    18  O    2.851800   3.403418   0.000000
    19  H    3.508386   3.893605   0.968549   0.000000
    20  O    4.619272   4.589472   3.338363   3.315439   0.000000
    21  H    5.524120   5.538365   4.018446   3.949926   0.970789
    22  H    2.775166   2.825349   4.545882   5.323179   4.702346
    23  O    2.685871   2.128675   4.278561   4.750395   3.794045
    24  H    3.537078   2.979791   4.609055   4.957494   3.328530
    25  O    4.856502   4.419308   5.221651   5.454514   2.846011
    26  H    4.785870   4.430165   4.643396   4.759295   1.949114
    27  H    4.722773   4.442333   5.100355   5.479646   2.923308
    28  O    2.905069   3.859344   2.955801   3.715296   5.970881
    29  H    2.844137   3.746097   2.070318   2.783251   5.242993
    30  H    2.158548   3.072582   3.055952   3.796053   5.906900
                   21         22         23         24         25
    21  H    0.000000
    22  H    5.406483   0.000000
    23  O    4.638120   2.032104   0.000000
    24  H    4.093836   2.727942   1.003319   0.000000
    25  O    3.309741   3.783872   2.519741   1.563144   0.000000
    26  H    2.428747   4.168987   2.866234   2.007144   0.978436
    27  H    3.319055   3.231429   2.522933   1.803620   0.977806
    28  O    6.653888   4.681450   5.356727   6.105661   7.128350
    29  H    5.904218   4.759857   5.155140   5.791913   6.695756
    30  H    6.685573   4.207777   4.755893   5.580163   6.751621
                   26         27         28         29         30
    26  H    0.000000
    27  H    1.524066   0.000000
    28  O    6.863548   6.781861   0.000000
    29  H    6.316250   6.411340   0.972455   0.000000
    30  H    6.565321   6.471886   0.971488   1.501452   0.000000
 Stoichiometry    C6H16O8
 Framework group  C1[X(C6H16O8)]
 Deg. of freedom    84
 Full point group                 C1      NOp   1
 Largest Abelian subgroup         C1      NOp   1
 Largest concise Abelian subgroup C1      NOp   1
                         Standard orientation:                         
 ---------------------------------------------------------------------
 Center     Atomic      Atomic             Coordinates (Angstroms)
 Number     Number       Type             X           Y           Z
 ---------------------------------------------------------------------
      1          8           0       -1.289338   -0.229041   -1.168438
      2          6           0       -0.612637    0.746230    1.013846
      3          6           0        1.039588   -0.665028   -0.395854
      4          6           0        0.610482   -0.205148    1.004487
      5          6           0       -0.179709   -1.198462   -1.165974
      6          6           0       -1.219782    0.976415   -0.375553
      7          1           0        0.313354   -1.104937    1.556768
      8          1           0       -2.270353    1.273318   -0.240842
      9          1           0       -0.289733    1.717765    1.403826
     10          1           0        1.519811    0.158344   -0.928478
     11          6           0       -0.537433    2.113137   -1.166718
     12          1           0       -0.934147    2.097912   -2.190609
     13          1           0        0.543203    1.965454   -1.227004
     14          8           0       -0.719803    3.374489   -0.535088
     15          1           0       -1.608802    3.695886   -0.750685
     16          8           0        2.034674   -1.673166   -0.301745
     17          1           0        1.551558   -2.502860   -0.126816
     18          8           0        1.738768    0.410348    1.622877
     19          1           0        1.669351    0.291873    2.581643
     20          8           0       -1.576782    0.158939    1.920517
     21          1           0       -2.219321    0.844740    2.163933
     22          1           0        0.063221   -1.335389   -2.225497
     23          8           0       -0.517004   -2.446307   -0.625921
     24          1           0       -1.425493   -2.400042   -0.202650
     25          8           0       -2.792957   -1.770355    0.218012
     26          1           0       -2.546325   -1.275449    1.025215
     27          1           0       -2.650401   -1.106826   -0.485914
     28          8           0        3.930334    0.527480   -0.357041
     29          1           0        3.432497    0.682494    0.463811
     30          1           0        3.785388   -0.424236   -0.487492
 ---------------------------------------------------------------------
 Rotational constants (GHZ):      0.6728201      0.5602535      0.4229865
 Standard basis: 6-31G(d) (6D, 7F)
 There are   242 symmetry adapted cartesian basis functions of A   symmetry.
 There are   242 symmetry adapted basis functions of A   symmetry.
   242 basis functions,   456 primitive gaussians,   242 cartesian basis functions
    58 alpha electrons       58 beta electrons
       nuclear repulsion energy      1124.2959288858 Hartrees.
 NAtoms=   30 NActive=   30 NUniq=   30 SFac= 1.00D+00 NAtFMM=   60 NAOKFM=F Big=F
 Integral buffers will be    131072 words long.
 Raffenetti 2 integral format.
 Two-electron integral symmetry is turned on.
 One-electron integrals computed using PRISM.
 NBasis=   242 RedAO= T EigKep=  1.41D-03  NBF=   242
 NBsUse=   242 1.00D-06 EigRej= -1.00D+00 NBFU=   242
 ExpMin= 1.61D-01 ExpMax= 5.48D+03 ExpMxC= 8.25D+02 IAcc=1 IRadAn=         1 AccDes= 0.00D+00
 Harris functional with IExCor=  402 and IRadAn=       1 diagonalized for initial guess.
 HarFok:  IExCor=  402 AccDes= 0.00D+00 IRadAn=         1 IDoV= 1 UseB2=F ITyADJ=14
 ICtDFT=  3500011 ScaDFX=  1.000000  1.000000  1.000000  1.000000
 FoFCou: FMM=F IPFlag=           0 FMFlag=      100000 FMFlg1=           0
         NFxFlg=           0 DoJE=T BraDBF=F KetDBF=T FulRan=T
         wScrn=  0.000000 ICntrl=     500 IOpCl=  0 I1Cent=   200000004 NGrid=           0
         NMat0=    1 NMatS0=      1 NMatT0=    0 NMatD0=    1 NMtDS0=    0 NMtDT0=    0
 Petite list used in FoFCou.
 Requested convergence on RMS density matrix=1.00D-08 within 128 cycles.
 Requested convergence on MAX density matrix=1.00D-06.
 Requested convergence on             energy=1.00D-06.
 No special actions if energy rises.
 Integral accuracy reduced to 1.0D-05 until final iterations.
 Initial convergence to 1.0D-05 achieved.  Increase integral accuracy.
 SCF Done:  E(RB3LYP) =  -839.973318130     A.U. after   14 cycles
            NFock= 14  Conv=0.54D-08     -V/T= 2.0085

 **********************************************************************

            Population analysis using the SCF density.

 **********************************************************************

 Orbital symmetries:
       Occupied  (A) (A) (A) (A) (A) (A) (A) (A) (A) (A) (A) (A)
                 (A) (A) (A) (A) (A) (A) (A) (A) (A) (A) (A) (A)
                 (A) (A) (A) (A) (A) (A) (A) (A) (A) (A) (A) (A)
                 (A) (A) (A) (A) (A) (A) (A) (A) (A) (A) (A) (A)
                 (A) (A) (A) (A) (A) (A) (A) (A) (A) (A)
       Virtual   (A) (A) (A) (A) (A) (A) (A) (A) (A) (A) (A) (A)
                 (A) (A) (A) (A) (A) (A) (A) (A) (A) (A) (A) (A)
                 (A) (A) (A) (A) (A) (A) (A) (A) (A) (A) (A) (A)
                 (A) (A) (A) (A) (A) (A) (A) (A) (A) (A) (A) (A)
                 (A) (A) (A) (A) (A) (A) (A) (A) (A) (A) (A) (A)
                 (A) (A) (A) (A) (A) (A) (A) (A) (A) (A) (A) (A)
                 (A) (A) (A) (A) (A) (A) (A) (A) (A) (A) (A) (A)
                 (A) (A) (A) (A) (A) (A) (A) (A) (A) (A) (A) (A)
                 (A) (A) (A) (A) (A) (A) (A) (A) (A) (A) (A) (A)
                 (A) (A) (A) (A) (A) (A) (A) (A) (A) (A) (A) (A)
                 (A) (A) (A) (A) (A) (A) (A) (A) (A) (A) (A) (A)
                 (A) (A) (A) (A) (A) (A) (A) (A) (A) (A) (A) (A)
                 (A) (A) (A) (A) (A) (A) (A) (A) (A) (A) (A) (A)
                 (A) (A) (A) (A) (A) (A) (A) (A) (A) (A) (A) (A)
                 (A) (A) (A) (A) (A) (A) (A) (A) (A) (A) (A) (A)
                 (A) (A) (A) (A)
 The electronic state is 1-A.
 Alpha  occ. eigenvalues --  -19.19404 -19.18723 -19.17275 -19.17226 -19.15415
 Alpha  occ. eigenvalues --  -19.14927 -19.13821 -19.09723 -10.29845 -10.27109
 Alpha  occ. eigenvalues --  -10.26670 -10.25739 -10.25424 -10.24466  -1.08056
 Alpha  occ. eigenvalues --   -1.05844  -1.04698  -1.04338  -1.02621  -1.01516
 Alpha  occ. eigenvalues --   -0.99599  -0.95714  -0.80398  -0.77462  -0.71128
 Alpha  occ. eigenvalues --   -0.66340  -0.64934  -0.59055  -0.57366  -0.54851
 Alpha  occ. eigenvalues --   -0.54055  -0.52946  -0.52421  -0.50879  -0.49224
 Alpha  occ. eigenvalues --   -0.48393  -0.47105  -0.45821  -0.45707  -0.44196
 Alpha  occ. eigenvalues --   -0.43010  -0.41628  -0.40869  -0.38599  -0.37921
 Alpha  occ. eigenvalues --   -0.37463  -0.37062  -0.35531  -0.34287  -0.33018
 Alpha  occ. eigenvalues --   -0.32256  -0.31900  -0.30314  -0.29236  -0.29008
 Alpha  occ. eigenvalues --   -0.27593  -0.26060  -0.25451
 Alpha virt. eigenvalues --    0.03248   0.03958   0.05198   0.06539   0.09046
 Alpha virt. eigenvalues --    0.09586   0.10228   0.11994   0.13047   0.13859
 Alpha virt. eigenvalues --    0.14145   0.15444   0.16618   0.17644   0.18061
 Alpha virt. eigenvalues --    0.18886   0.19617   0.21286   0.22126   0.22971
 Alpha virt. eigenvalues --    0.23891   0.25165   0.25405   0.27112   0.29748
 Alpha virt. eigenvalues --    0.30128   0.32978   0.34542   0.49835   0.50641
 Alpha virt. eigenvalues --    0.52347   0.53698   0.55324   0.57222   0.58445
 Alpha virt. eigenvalues --    0.59215   0.62468   0.63545   0.65406   0.65461
 Alpha virt. eigenvalues --    0.65748   0.68874   0.70028   0.71690   0.73673
 Alpha virt. eigenvalues --    0.74999   0.78349   0.79407   0.79833   0.80526
 Alpha virt. eigenvalues --    0.82103   0.82140   0.83562   0.84233   0.84725
 Alpha virt. eigenvalues --    0.85561   0.86359   0.86931   0.87758   0.90114
 Alpha virt. eigenvalues --    0.91004   0.92062   0.94086   0.95582   0.96139
 Alpha virt. eigenvalues --    0.96970   0.97390   0.98905   1.01374   1.02087
 Alpha virt. eigenvalues --    1.02421   1.03956   1.04738   1.05601   1.06513
 Alpha virt. eigenvalues --    1.09034   1.10181   1.14005   1.15300   1.16843
 Alpha virt. eigenvalues --    1.19436   1.21584   1.21821   1.23344   1.24600
 Alpha virt. eigenvalues --    1.26095   1.29818   1.32015   1.33805   1.34866
 Alpha virt. eigenvalues --    1.37425   1.41189   1.43363   1.44738   1.48341
 Alpha virt. eigenvalues --    1.49665   1.52795   1.54500   1.56212   1.59632
 Alpha virt. eigenvalues --    1.60348   1.63336   1.63964   1.67622   1.68380
 Alpha virt. eigenvalues --    1.69938   1.72010   1.72736   1.73154   1.74265
 Alpha virt. eigenvalues --    1.74976   1.76347   1.77568   1.78555   1.79365
 Alpha virt. eigenvalues --    1.79777   1.81140   1.82556   1.83827   1.85462
 Alpha virt. eigenvalues --    1.87398   1.88680   1.88987   1.91486   1.92811
 Alpha virt. eigenvalues --    1.93792   1.94812   1.98599   2.00278   2.02989
 Alpha virt. eigenvalues --    2.04451   2.07198   2.09824   2.12078   2.15356
 Alpha virt. eigenvalues --    2.18011   2.19486   2.22899   2.25332   2.27742
 Alpha virt. eigenvalues --    2.31016   2.32212   2.35254   2.36693   2.38693
 Alpha virt. eigenvalues --    2.40682   2.42881   2.44264   2.45238   2.48326
 Alpha virt. eigenvalues --    2.48958   2.51962   2.53712   2.54688   2.56784
 Alpha virt. eigenvalues --    2.61494   2.62239   2.63359   2.67356   2.68733
 Alpha virt. eigenvalues --    2.72428   2.76742   2.81397   2.86206   2.88757
 Alpha virt. eigenvalues --    2.91882   2.95500   2.98048   3.02528   3.06248
 Alpha virt. eigenvalues --    3.70126   3.71370   3.80167   3.82102   3.88797
 Alpha virt. eigenvalues --    3.90413   3.93344   4.11279   4.31634   4.32409
 Alpha virt. eigenvalues --    4.48166   4.54121   4.62703   4.78373
          Condensed to atoms (all electrons):
               1          2          3          4          5          6
     1  O    8.402234  -0.031649  -0.019763  -0.006031   0.174111   0.166227
     2  C   -0.031649   5.146358  -0.035525   0.257320  -0.004339   0.274597
     3  C   -0.019763  -0.035525   5.130604   0.268774   0.261515  -0.005102
     4  C   -0.006031   0.257320   0.268774   5.031829  -0.025278  -0.030936
     5  C    0.174111  -0.004339   0.261515  -0.025278   4.712407  -0.022986
     6  C    0.166227   0.274597  -0.005102  -0.030936  -0.022986   5.073536
     7  H    0.000484  -0.051453  -0.036855   0.344788  -0.007238   0.002649
     8  H   -0.038212  -0.047265   0.000059   0.004087   0.004300   0.354188
     9  H    0.003075   0.349728   0.000775  -0.034101   0.000169  -0.047130
    10  H    0.001283  -0.002219   0.337722  -0.050826  -0.027620  -0.001064
    11  C   -0.031980  -0.038177  -0.003975  -0.002107  -0.003066   0.294113
    12  H    0.006392   0.005397   0.000116  -0.000111   0.000362  -0.041847
    13  H    0.001846  -0.008177  -0.000632   0.001710   0.001010  -0.045013
    14  O    0.001431  -0.003104   0.000049   0.000278   0.000041  -0.043090
    15  H    0.000002  -0.000439   0.000001  -0.000011   0.000000  -0.003433
    16  O    0.001021   0.003992   0.237861  -0.042416  -0.024894  -0.000052
    17  H    0.000437  -0.000057  -0.035360  -0.003037  -0.015227  -0.000025
    18  O    0.000025  -0.046401  -0.046363   0.227796   0.002104   0.003116
    19  H    0.000001   0.000193   0.006445  -0.021920  -0.000148   0.000037
    20  O    0.000610   0.172854   0.001491  -0.033477   0.000678  -0.033987
    21  H   -0.000111  -0.016874  -0.000233   0.005732   0.000013  -0.002438
    22  H   -0.044104  -0.000763  -0.070412   0.007179   0.391483   0.004355
    23  O   -0.038308   0.000659  -0.057312  -0.004771   0.257690   0.000089
    24  H    0.002152   0.000514   0.001475   0.000196  -0.022500  -0.000610
    25  O   -0.034671   0.000347  -0.001004   0.000005   0.006492   0.005680
    26  H    0.002561  -0.006767  -0.000369  -0.000413   0.000611   0.001039
    27  H    0.046850  -0.000051   0.001157  -0.000040  -0.003197  -0.001228
    28  O    0.000000  -0.000060  -0.001884  -0.001683   0.000295   0.000021
    29  H    0.000000   0.000296   0.000848  -0.002910   0.000059  -0.000036
    30  H   -0.000002  -0.000004  -0.000771   0.000375   0.000238  -0.000001
               7          8          9         10         11         12
     1  O    0.000484  -0.038212   0.003075   0.001283  -0.031980   0.006392
     2  C   -0.051453  -0.047265   0.349728  -0.002219  -0.038177   0.005397
     3  C   -0.036855   0.000059   0.000775   0.337722  -0.003975   0.000116
     4  C    0.344788   0.004087  -0.034101  -0.050826  -0.002107  -0.000111
     5  C   -0.007238   0.004300   0.000169  -0.027620  -0.003066   0.000362
     6  C    0.002649   0.354188  -0.047130  -0.001064   0.294113  -0.041847
     7  H    0.603723  -0.000347   0.004738   0.006096   0.000052   0.000006
     8  H   -0.000347   0.639074   0.000843  -0.000012  -0.047711  -0.005475
     9  H    0.004738   0.000843   0.563241   0.000258  -0.002642   0.000559
    10  H    0.006096  -0.000012   0.000258   0.578908  -0.000854   0.000204
    11  C    0.000052  -0.047711  -0.002642  -0.000854   4.985533   0.352479
    12  H    0.000006  -0.005475   0.000559   0.000204   0.352479   0.598417
    13  H   -0.000012   0.005627   0.000172   0.007224   0.379730  -0.034779
    14  O   -0.000004   0.003691   0.014393   0.000003   0.224717  -0.025030
    15  H    0.000000   0.004798  -0.000351   0.000002  -0.027223  -0.009074
    16  O   -0.002103   0.000002  -0.000057  -0.042342   0.000054  -0.000003
    17  H    0.004869   0.000000   0.000003   0.007155   0.000000   0.000000
    18  O   -0.030903  -0.000077   0.004570  -0.001171   0.000257   0.000003
    19  H   -0.007501   0.000004   0.000704  -0.000061  -0.000015   0.000000
    20  O    0.001123  -0.001524  -0.029721  -0.000050   0.003000  -0.000076
    21  H    0.000085   0.005095  -0.006061   0.000007  -0.000188  -0.000001
    22  H    0.000219  -0.000269   0.000016  -0.002333   0.000575  -0.000057
    23  O    0.011666  -0.000031  -0.000013   0.003295  -0.000026   0.000009
    24  H    0.000718  -0.000122   0.000009  -0.000095  -0.000010  -0.000001
    25  O    0.000475   0.001679  -0.000036   0.000000   0.000050   0.000000
    26  H    0.000901  -0.000042   0.000493   0.000000   0.000124   0.000000
    27  H   -0.000168  -0.002676  -0.000055  -0.000019   0.000532   0.000021
    28  O   -0.000050   0.000000  -0.000004   0.025206  -0.000055   0.000000
    29  H    0.000295   0.000000   0.000043  -0.001934   0.000006   0.000000
    30  H   -0.000023   0.000000   0.000000  -0.005263   0.000006   0.000000
              13         14         15         16         17         18
     1  O    0.001846   0.001431   0.000002   0.001021   0.000437   0.000025
     2  C   -0.008177  -0.003104  -0.000439   0.003992  -0.000057  -0.046401
     3  C   -0.000632   0.000049   0.000001   0.237861  -0.035360  -0.046363
     4  C    0.001710   0.000278  -0.000011  -0.042416  -0.003037   0.227796
     5  C    0.001010   0.000041   0.000000  -0.024894  -0.015227   0.002104
     6  C   -0.045013  -0.043090  -0.003433  -0.000052  -0.000025   0.003116
     7  H   -0.000012  -0.000004   0.000000  -0.002103   0.004869  -0.030903
     8  H    0.005627   0.003691   0.004798   0.000002   0.000000  -0.000077
     9  H    0.000172   0.014393  -0.000351  -0.000057   0.000003   0.004570
    10  H    0.007224   0.000003   0.000002  -0.042342   0.007155  -0.001171
    11  C    0.379730   0.224717  -0.027223   0.000054   0.000000   0.000257
    12  H   -0.034779  -0.025030  -0.009074  -0.000003   0.000000   0.000003
    13  H    0.530756  -0.034012   0.006809   0.000012   0.000002   0.000147
    14  O   -0.034012   8.232998   0.234414   0.000000   0.000000  -0.000012
    15  H    0.006809   0.234414   0.398494   0.000000   0.000000   0.000000
    16  O    0.000012   0.000000   0.000000   8.278971   0.230649   0.002426
    17  H    0.000002   0.000000   0.000000   0.230649   0.362012  -0.000007
    18  O    0.000147  -0.000012   0.000000   0.002426  -0.000007   8.257100
    19  H    0.000000  -0.000001   0.000000  -0.000388   0.000044   0.235825
    20  O    0.000008  -0.000054  -0.000009  -0.000014  -0.000004   0.001213
    21  H    0.000017   0.000084   0.000000   0.000001   0.000000  -0.000211
    22  H   -0.000180  -0.000002   0.000000   0.001662   0.001171  -0.000046
    23  O    0.000013   0.000000   0.000000  -0.012710   0.033511   0.000044
    24  H    0.000000   0.000000   0.000000   0.000158   0.000070   0.000000
    25  O    0.000001   0.000000   0.000000   0.000000   0.000035   0.000000
    26  H   -0.000001  -0.000001   0.000000  -0.000001  -0.000008   0.000002
    27  H   -0.000019  -0.000007  -0.000002  -0.000009  -0.000017   0.000000
    28  O    0.000058   0.000000   0.000000  -0.006813   0.000198  -0.007539
    29  H    0.000120   0.000000   0.000000   0.001116   0.000018   0.032349
    30  H   -0.000016   0.000000   0.000000   0.022778  -0.000367   0.000648
              19         20         21         22         23         24
     1  O    0.000001   0.000610  -0.000111  -0.044104  -0.038308   0.002152
     2  C    0.000193   0.172854  -0.016874  -0.000763   0.000659   0.000514
     3  C    0.006445   0.001491  -0.000233  -0.070412  -0.057312   0.001475
     4  C   -0.021920  -0.033477   0.005732   0.007179  -0.004771   0.000196
     5  C   -0.000148   0.000678   0.000013   0.391483   0.257690  -0.022500
     6  C    0.000037  -0.033987  -0.002438   0.004355   0.000089  -0.000610
     7  H   -0.007501   0.001123   0.000085   0.000219   0.011666   0.000718
     8  H    0.000004  -0.001524   0.005095  -0.000269  -0.000031  -0.000122
     9  H    0.000704  -0.029721  -0.006061   0.000016  -0.000013   0.000009
    10  H   -0.000061  -0.000050   0.000007  -0.002333   0.003295  -0.000095
    11  C   -0.000015   0.003000  -0.000188   0.000575  -0.000026  -0.000010
    12  H    0.000000  -0.000076  -0.000001  -0.000057   0.000009  -0.000001
    13  H    0.000000   0.000008   0.000017  -0.000180   0.000013   0.000000
    14  O   -0.000001  -0.000054   0.000084  -0.000002   0.000000   0.000000
    15  H    0.000000  -0.000009   0.000000   0.000000   0.000000   0.000000
    16  O   -0.000388  -0.000014   0.000001   0.001662  -0.012710   0.000158
    17  H    0.000044  -0.000004   0.000000   0.001171   0.033511   0.000070
    18  O    0.235825   0.001213  -0.000211  -0.000046   0.000044   0.000000
    19  H    0.380089   0.000513  -0.000066   0.000006   0.000012  -0.000002
    20  O    0.000513   8.302176   0.227635   0.000006  -0.000215   0.000270
    21  H   -0.000066   0.227635   0.383464  -0.000001   0.000003  -0.000024
    22  H    0.000006   0.000006  -0.000001   0.612111  -0.055369   0.003370
    23  O    0.000012  -0.000215   0.000003  -0.055369   8.404292   0.187864
    24  H   -0.000002   0.000270  -0.000024   0.003370   0.187864   0.296895
    25  O    0.000000  -0.015496   0.000972  -0.000201  -0.058307   0.106257
    26  H    0.000002   0.050881  -0.002637   0.000067   0.004169  -0.005669
    27  H   -0.000001   0.001139  -0.000033   0.000027   0.007549  -0.014141
    28  O    0.000404   0.000000   0.000000  -0.000002  -0.000001   0.000000
    29  H   -0.001315  -0.000001   0.000000  -0.000005   0.000000   0.000000
    30  H   -0.000004   0.000000   0.000000   0.000002   0.000002   0.000000
              25         26         27         28         29         30
     1  O   -0.034671   0.002561   0.046850   0.000000   0.000000  -0.000002
     2  C    0.000347  -0.006767  -0.000051  -0.000060   0.000296  -0.000004
     3  C   -0.001004  -0.000369   0.001157  -0.001884   0.000848  -0.000771
     4  C    0.000005  -0.000413  -0.000040  -0.001683  -0.002910   0.000375
     5  C    0.006492   0.000611  -0.003197   0.000295   0.000059   0.000238
     6  C    0.005680   0.001039  -0.001228   0.000021  -0.000036  -0.000001
     7  H    0.000475   0.000901  -0.000168  -0.000050   0.000295  -0.000023
     8  H    0.001679  -0.000042  -0.002676   0.000000   0.000000   0.000000
     9  H   -0.000036   0.000493  -0.000055  -0.000004   0.000043   0.000000
    10  H    0.000000   0.000000  -0.000019   0.025206  -0.001934  -0.005263
    11  C    0.000050   0.000124   0.000532  -0.000055   0.000006   0.000006
    12  H    0.000000   0.000000   0.000021   0.000000   0.000000   0.000000
    13  H    0.000001  -0.000001  -0.000019   0.000058   0.000120  -0.000016
    14  O    0.000000  -0.000001  -0.000007   0.000000   0.000000   0.000000
    15  H    0.000000   0.000000  -0.000002   0.000000   0.000000   0.000000
    16  O    0.000000  -0.000001  -0.000009  -0.006813   0.001116   0.022778
    17  H    0.000035  -0.000008  -0.000017   0.000198   0.000018  -0.000367
    18  O    0.000000   0.000002   0.000000  -0.007539   0.032349   0.000648
    19  H    0.000000   0.000002  -0.000001   0.000404  -0.001315  -0.000004
    20  O   -0.015496   0.050881   0.001139   0.000000  -0.000001   0.000000
    21  H    0.000972  -0.002637  -0.000033   0.000000   0.000000   0.000000
    22  H   -0.000201   0.000067   0.000027  -0.000002  -0.000005   0.000002
    23  O   -0.058307   0.004169   0.007549  -0.000001   0.000000   0.000002
    24  H    0.106257  -0.005669  -0.014141   0.000000   0.000000   0.000000
    25  O    8.370158   0.225406   0.221463   0.000000   0.000000   0.000000
    26  H    0.225406   0.332282  -0.020903   0.000000   0.000000   0.000000
    27  H    0.221463  -0.020903   0.336044   0.000000   0.000000   0.000000
    28  O    0.000000   0.000000   0.000000   8.339762   0.239934   0.244401
    29  H    0.000000   0.000000   0.000000   0.239934   0.353986  -0.028532
    30  H    0.000000   0.000000   0.000000   0.244401  -0.028532   0.360889
 Mulliken charges:
               1
     1  O   -0.565911
     2  C    0.081067
     3  C    0.066669
     4  C    0.109999
     5  C    0.342916
     6  C    0.099331
     7  H    0.153767
     8  H    0.120316
     9  H    0.176382
    10  H    0.168499
    11  C   -0.083198
    12  H    0.152489
    13  H    0.187578
    14  O   -0.606782
    15  H    0.396024
    16  O   -0.648902
    17  H    0.413931
    18  O   -0.634899
    19  H    0.407141
    20  O   -0.648970
    21  H    0.405768
    22  H    0.151496
    23  O   -0.683805
    24  H    0.443224
    25  O   -0.829304
    26  H    0.418276
    27  H    0.427783
    28  O   -0.832190
    29  H    0.405662
    30  H    0.405643
 Sum of Mulliken charges =   0.00000
 Mulliken charges with hydrogens summed into heavy atoms:
               1
     1  O   -0.565911
     2  C    0.257449
     3  C    0.235167
     4  C    0.263766
     5  C    0.494412
     6  C    0.219646
    11  C    0.256869
    14  O   -0.210758
    16  O   -0.234971
    18  O   -0.227758
    20  O   -0.243202
    23  O   -0.240581
    25  O    0.016755
    28  O   -0.020885
 Electronic spatial extent (au):  <R**2>=           2984.7835
 Charge=              0.0000 electrons
 Dipole moment (field-independent basis, Debye):
    X=             -5.0196    Y=              2.4870    Z=              2.6132  Tot=              6.1814
 Quadrupole moment (field-independent basis, Debye-Ang):
   XX=            -99.4121   YY=            -88.3590   ZZ=            -74.1642
   XY=            -18.9089   XZ=              3.8603   YZ=             -0.9242
 Traceless Quadrupole moment (field-independent basis, Debye-Ang):
   XX=            -12.1003   YY=             -1.0472   ZZ=             13.1475
   XY=            -18.9089   XZ=              3.8603   YZ=             -0.9242
 Octapole moment (field-independent basis, Debye-Ang**2):
  XXX=            -79.4646  YYY=              4.0108  ZZZ=             25.8792  XYY=            -10.9083
  XXY=             15.3086  XXZ=             24.8687  XZZ=              2.4414  YZZ=              7.0482
  YYZ=              3.4056  XYZ=              4.3098
 Hexadecapole moment (field-independent basis, Debye-Ang**3):
 XXXX=          -1954.3978 YYYY=          -1282.9951 ZZZZ=           -536.6350 XXXY=           -191.4195
 XXXZ=             41.2684 YYYX=           -125.2277 YYYZ=            -36.7528 ZZZX=             19.3519
 ZZZY=             16.9844 XXYY=           -455.2667 XXZZ=           -320.8941 YYZZ=           -291.6299
 XXYZ=             24.1119 YYXZ=             20.0619 ZZXY=            -14.7224
 N-N= 1.124295928886D+03 E-N=-4.220227464498D+03  KE= 8.328902514582D+02
 Calling FoFJK, ICntrl=      2127 FMM=F ISym2X=0 I1Cent= 0 IOpClX= 0 NMat=1 NMatS=1 NMatT=0.
 ***** Axes restored to original set *****
 -------------------------------------------------------------------
 Center     Atomic                   Forces (Hartrees/Bohr)
 Number     Number              X              Y              Z
 -------------------------------------------------------------------
      1        8           0.009883539   -0.002816120   -0.003790861
      2        6           0.000594192   -0.000508398   -0.000246533
      3        6           0.000412742    0.002741084    0.001130035
      4        6           0.000749391    0.000166911    0.001401824
      5        6           0.001715846    0.006117431   -0.001754302
      6        6           0.002856862   -0.003313890   -0.001908293
      7        1           0.000130269   -0.000031292    0.000126021
      8        1           0.000130640   -0.000567772   -0.000329413
      9        1          -0.000046390    0.000068060   -0.000167162
     10        1           0.000191706    0.000307862    0.000342030
     11        6           0.000917459   -0.000322099   -0.000271114
     12        1           0.000078855   -0.000001756   -0.000017921
     13        1           0.000122463    0.000084279   -0.000055440
     14        8          -0.001097203   -0.001338207    0.000835270
     15        1          -0.000054130   -0.000137431   -0.000008348
     16        8          -0.003947651   -0.000469140   -0.002185128
     17        1          -0.000503416    0.000085995   -0.000277185
     18        8           0.000915313    0.000455740    0.001150628
     19        1           0.000023294    0.000175414    0.000082980
     20        8           0.000358973    0.001301001    0.000227304
     21        1           0.000036905    0.000121890   -0.000023887
     22        1           0.000630434    0.000269962    0.000060396
     23        8           0.003050710    0.003699474   -0.003518541
     24        1           0.001110294    0.000151165   -0.000439099
     25        8          -0.016204938   -0.005534269    0.009984631
     26        1          -0.000211008    0.000614373   -0.000234607
     27        1          -0.001749936   -0.001210989   -0.000080005
     28        8          -0.000111495   -0.000053404   -0.000022538
     29        1          -0.000002156   -0.000042008    0.000017935
     30        1           0.000018434   -0.000013868   -0.000028676
 -------------------------------------------------------------------
 Cartesian Forces:  Max     0.016204938 RMS     0.002717014

 GradGradGradGradGradGradGradGradGradGradGradGradGradGradGradGradGradGrad
 Berny optimization.
 FormGI is forming the generalized inverse of G from B-inverse, IUseBI=4.
 Internal  Forces:  Max     0.054012663 RMS     0.005960448
 Search for a local minimum.
 Step number   1 out of a maximum of  176
 All quantities printed in internal units (Hartrees-Bohrs-Radians)
 Mixed Optimization -- RFO/linear search
 Second derivative matrix not updated -- first step.
 ITU=  0
     Eigenvalues ---    0.00230   0.00230   0.00347   0.00475   0.00652
     Eigenvalues ---    0.00684   0.00911   0.00984   0.01058   0.01357
     Eigenvalues ---    0.01395   0.01581   0.01680   0.02357   0.02820
     Eigenvalues ---    0.03507   0.03646   0.03916   0.04354   0.04415
     Eigenvalues ---    0.04643   0.04724   0.04835   0.05066   0.05287
     Eigenvalues ---    0.05745   0.05857   0.06079   0.06282   0.06675
     Eigenvalues ---    0.07140   0.07345   0.07604   0.09105   0.09844
     Eigenvalues ---    0.11358   0.11543   0.11789   0.13268   0.13895
     Eigenvalues ---    0.14665   0.15120   0.15888   0.16000   0.16000
     Eigenvalues ---    0.16000   0.16000   0.16085   0.17530   0.18052
     Eigenvalues ---    0.18496   0.19282   0.19517   0.20306   0.22015
     Eigenvalues ---    0.25000   0.25553   0.26256   0.27846   0.28175
     Eigenvalues ---    0.28708   0.33682   0.33886   0.34041   0.34092
     Eigenvalues ---    0.34173   0.34179   0.34543   0.34594   0.37513
     Eigenvalues ---    0.38516   0.40023   0.41188   0.42101   0.45470
     Eigenvalues ---    0.47109   0.50275   0.51368   0.51690   0.51813
     Eigenvalues ---    0.52188   0.53216   0.53462   0.53675
 RFO step:  Lambda=-2.81539382D-02 EMin= 2.30000000D-03
 Linear search not attempted -- first point.
 Maximum step size (   0.300) exceeded in Quadratic search.
    -- Step size scaled by   0.828
 Iteration  1 RMS(Cart)=  0.12733090 RMS(Int)=  0.01174504
 Iteration  2 RMS(Cart)=  0.09677105 RMS(Int)=  0.00359834
 Iteration  3 RMS(Cart)=  0.00623090 RMS(Int)=  0.00004517
 Iteration  4 RMS(Cart)=  0.00001471 RMS(Int)=  0.00004359
 Iteration  5 RMS(Cart)=  0.00000000 RMS(Int)=  0.00004359
 Variable       Old X    -DE/DX   Delta X   Delta X   Delta X     New X
                                 (Linear)    (Quad)   (Total)
    R1        2.78442  -0.01301   0.00000  -0.03015  -0.03015   2.75427
    R2        2.72974  -0.00195   0.00000  -0.00510  -0.00514   2.72461
    R3        2.92830  -0.00234   0.00000  -0.00401  -0.00401   2.92429
    R4        2.89815   0.00112   0.00000   0.00369   0.00365   2.90181
    R5        2.07029  -0.00001   0.00000  -0.00002  -0.00002   2.07027
    R6        2.73622  -0.00073   0.00000  -0.00147  -0.00147   2.73475
    R7        2.90095  -0.00076   0.00000  -0.00150  -0.00148   2.89946
    R8        2.90571  -0.00035   0.00000  -0.00122  -0.00118   2.90453
    R9        2.06339   0.00015   0.00000   0.00033   0.00033   2.06372
   R10        2.68274  -0.00308   0.00000  -0.00608  -0.00609   2.67666
   R11        2.07261   0.00006   0.00000   0.00014   0.00014   2.07274
   R12        2.69528   0.00123   0.00000   0.00246   0.00246   2.69774
   R13        2.07040   0.00005   0.00000   0.00011   0.00011   2.07051
   R14        2.64733   0.00714   0.00000   0.01224   0.01224   2.65957
   R15        2.07870  -0.00030   0.00000  -0.00068  -0.00068   2.07802
   R16        2.91758  -0.00155   0.00000  -0.00415  -0.00415   2.91343
   R17        2.07523  -0.00002   0.00000  -0.00004  -0.00004   2.07519
   R18        2.06423   0.00012   0.00000   0.00026   0.00026   2.06449
   R19        2.68795  -0.00074   0.00000  -0.00136  -0.00136   2.68658
   R20        1.83225   0.00001   0.00000   0.00001   0.00001   1.83226
   R21        1.84419   0.00011   0.00000   0.00016   0.00016   1.84436
   R22        4.07906   0.00013   0.00000   0.00031   0.00030   4.07936
   R23        1.83029   0.00006   0.00000   0.00008   0.00008   1.83038
   R24        3.91233  -0.00015   0.00000   0.00086   0.00088   3.91322
   R25        1.83453   0.00005   0.00000   0.00007   0.00007   1.83460
   R26        1.89600   0.01929   0.00000   0.03198   0.03198   1.92798
   R27        2.95391   0.01650   0.00000   0.10788   0.10788   3.06179
   R28        1.84898   0.00008   0.00000   0.00012   0.00012   1.84909
   R29        1.84778  -0.00097   0.00000  -0.00147  -0.00147   1.84632
   R30        1.83767   0.00002   0.00000   0.00034   0.00036   1.83803
   R31        1.83585   0.00010   0.00000   0.00032   0.00031   1.83616
    A1        2.10815  -0.00093   0.00000  -0.01070  -0.01069   2.09745
    A2        1.98139  -0.00150   0.00000  -0.00344  -0.00348   1.97791
    A3        1.89016   0.00036   0.00000   0.00044   0.00046   1.89062
    A4        1.85495   0.00099   0.00000   0.00446   0.00446   1.85941
    A5        1.88186   0.00057   0.00000  -0.00032  -0.00035   1.88151
    A6        1.94395   0.00028   0.00000   0.00257   0.00263   1.94658
    A7        1.91033  -0.00071   0.00000  -0.00387  -0.00388   1.90646
    A8        1.91681   0.00332   0.00000   0.01092   0.01095   1.92775
    A9        1.91985  -0.00163   0.00000  -0.00446  -0.00450   1.91534
   A10        1.92645   0.00113   0.00000   0.00658   0.00660   1.93305
   A11        1.94555   0.00028   0.00000   0.00457   0.00457   1.95012
   A12        1.92055  -0.00470   0.00000  -0.02310  -0.02312   1.89743
   A13        1.83335   0.00146   0.00000   0.00506   0.00506   1.83841
   A14        1.99333  -0.00414   0.00000  -0.01758  -0.01751   1.97581
   A15        1.86169   0.00057   0.00000   0.00368   0.00369   1.86538
   A16        1.93568   0.00226   0.00000   0.00623   0.00618   1.94186
   A17        1.86429   0.00135   0.00000   0.00599   0.00595   1.87025
   A18        1.87933   0.00097   0.00000   0.00276   0.00275   1.88208
   A19        1.92839  -0.00108   0.00000  -0.00096  -0.00097   1.92741
   A20        1.94955  -0.00035   0.00000  -0.00004  -0.00009   1.94946
   A21        1.82099  -0.00160   0.00000  -0.00713  -0.00716   1.81383
   A22        1.98818   0.00700   0.00000   0.03745   0.03745   2.02563
   A23        1.93038  -0.00050   0.00000  -0.01256  -0.01267   1.91771
   A24        1.88269  -0.00388   0.00000  -0.00879  -0.00910   1.87358
   A25        1.89111  -0.00062   0.00000  -0.01016  -0.01029   1.88082
   A26        1.97260   0.00305   0.00000   0.01413   0.01418   1.98679
   A27        1.81984  -0.00123   0.00000  -0.00686  -0.00685   1.81299
   A28        1.93309  -0.00025   0.00000   0.00121   0.00119   1.93427
   A29        1.88353  -0.00018   0.00000  -0.00100  -0.00099   1.88254
   A30        1.98208  -0.00212   0.00000  -0.00670  -0.00678   1.97530
   A31        1.86098   0.00068   0.00000  -0.00189  -0.00190   1.85908
   A32        1.88380   0.00090   0.00000   0.00230   0.00228   1.88608
   A33        1.94546   0.00100   0.00000   0.00416   0.00416   1.94963
   A34        1.94838  -0.00367   0.00000  -0.01288  -0.01289   1.93550
   A35        1.87974  -0.00040   0.00000   0.00091   0.00089   1.88063
   A36        1.96059   0.00102   0.00000   0.00168   0.00166   1.96226
   A37        1.84547   0.00127   0.00000   0.00439   0.00440   1.84988
   A38        1.88890  -0.00021   0.00000  -0.00094  -0.00094   1.88796
   A39        1.84276  -0.00065   0.00000  -0.00193  -0.00193   1.84084
   A40        1.72331   0.00023   0.00000  -0.00072  -0.00073   1.72258
   A41        2.71131   0.00040   0.00000   0.00231   0.00230   2.71361
   A42        1.89622   0.00032   0.00000   0.00130   0.00131   1.89753
   A43        2.05011  -0.00098   0.00000  -0.00347  -0.00350   2.04661
   A44        2.25094   0.00049   0.00000   0.00075   0.00076   2.25171
   A45        1.88725  -0.00020   0.00000  -0.00088  -0.00088   1.88636
   A46        1.91726   0.05401   0.00000   0.23764   0.23764   2.15490
   A47        2.74983   0.04207   0.00000   0.12520   0.12520   2.87503
   A48        1.77753   0.00039   0.00000   0.00236   0.00235   1.77988
   A49        1.52286   0.00090   0.00000   0.00722   0.00721   1.53007
   A50        1.78639   0.00041   0.00000   0.00335   0.00334   1.78973
   A51        1.76514   0.00110   0.00000   0.00464   0.00464   1.76978
   A52        2.62688  -0.00004   0.00000   0.00099   0.00098   2.62786
   A53        2.31349   0.00008   0.00000   0.00096   0.00094   2.31444
    D1       -0.12589  -0.00044   0.00000  -0.00442  -0.00442  -0.13031
    D2       -2.21176   0.00131   0.00000   0.01490   0.01496  -2.19680
    D3        2.01267  -0.00059   0.00000   0.01213   0.01234   2.02501
    D4       -0.71198  -0.00017   0.00000   0.00039   0.00044  -0.71153
    D5       -2.75289  -0.00074   0.00000  -0.00134  -0.00129  -2.75418
    D6        1.53471  -0.00076   0.00000   0.00395   0.00401   1.53872
    D7        0.06515   0.00030   0.00000   0.00573   0.00568   0.07082
    D8       -1.99009   0.00063   0.00000   0.00598   0.00593  -1.98416
    D9        2.19236   0.00030   0.00000   0.00132   0.00125   2.19361
   D10       -2.02412   0.00028   0.00000   0.00800   0.00798  -2.01614
   D11        2.20383   0.00061   0.00000   0.00824   0.00824   2.21207
   D12        0.10309   0.00028   0.00000   0.00359   0.00356   0.10665
   D13        2.20800   0.00041   0.00000   0.00995   0.00993   2.21793
   D14        0.15276   0.00074   0.00000   0.01020   0.01019   0.16295
   D15       -1.94797   0.00040   0.00000   0.00554   0.00551  -1.94247
   D16        0.72118   0.00012   0.00000   0.00077   0.00073   0.72191
   D17        2.72416   0.00019   0.00000  -0.00041  -0.00039   2.72377
   D18       -1.49995  -0.00034   0.00000  -0.00743  -0.00742  -1.50737
   D19        2.81517   0.00003   0.00000  -0.00104  -0.00109   2.81408
   D20       -1.46504   0.00010   0.00000  -0.00222  -0.00222  -1.46725
   D21        0.59404  -0.00044   0.00000  -0.00924  -0.00924   0.58479
   D22       -1.37182  -0.00031   0.00000  -0.00447  -0.00452  -1.37633
   D23        0.63116  -0.00024   0.00000  -0.00565  -0.00564   0.62552
   D24        2.69023  -0.00078   0.00000  -0.01267  -0.01267   2.67757
   D25        2.83764   0.00051   0.00000  -0.00032  -0.00032   2.83733
   D26       -1.27927  -0.00051   0.00000   0.00000   0.00000  -1.27927
   D27        0.80004  -0.00008   0.00000  -0.00130  -0.00131   0.79873
   D28       -0.87654  -0.00065   0.00000  -0.00851  -0.00853  -0.88507
   D29        1.17721  -0.00143   0.00000  -0.01011  -0.01014   1.16707
   D30       -3.03441  -0.00147   0.00000  -0.00664  -0.00666  -3.04108
   D31        1.27099   0.00084   0.00000   0.00156   0.00156   1.27255
   D32       -2.95845   0.00006   0.00000  -0.00004  -0.00005  -2.95850
   D33       -0.88689   0.00001   0.00000   0.00343   0.00343  -0.88346
   D34       -2.99709   0.00231   0.00000   0.00891   0.00889  -2.98820
   D35       -0.94335   0.00153   0.00000   0.00730   0.00728  -0.93606
   D36        1.12821   0.00149   0.00000   0.01078   0.01076   1.13898
   D37        0.91718   0.00278   0.00000   0.01544   0.01546   0.93264
   D38        2.93723   0.00027   0.00000  -0.00123  -0.00118   2.93605
   D39       -1.28061  -0.00310   0.00000  -0.02596  -0.02582  -1.30643
   D40       -1.21513   0.00236   0.00000   0.01046   0.01040  -1.20473
   D41        0.80491  -0.00015   0.00000  -0.00621  -0.00623   0.79868
   D42        2.87026  -0.00352   0.00000  -0.03094  -0.03087   2.83939
   D43        3.04126   0.00330   0.00000   0.01576   0.01568   3.05695
   D44       -1.22188   0.00079   0.00000  -0.00091  -0.00095  -1.22283
   D45        0.84347  -0.00258   0.00000  -0.02564  -0.02559   0.81788
   D46        1.41430   0.00067   0.00000   0.00179   0.00179   1.41610
   D47       -1.65614   0.00082   0.00000   0.00368   0.00369  -1.65245
   D48       -0.70403  -0.00112   0.00000  -0.00099  -0.00095  -0.70498
   D49        2.50871  -0.00098   0.00000   0.00091   0.00095   2.50966
   D50       -2.80015   0.00016   0.00000   0.00274   0.00275  -2.79739
   D51        0.41259   0.00030   0.00000   0.00464   0.00465   0.41725
   D52        1.45583   0.00171   0.00000   0.00798   0.00798   1.46381
   D53       -2.07970   0.00152   0.00000   0.00521   0.00521  -2.07449
   D54       -2.63480  -0.00133   0.00000  -0.00811  -0.00808  -2.64288
   D55        0.11286  -0.00152   0.00000  -0.01088  -0.01085   0.10201
   D56       -0.60480   0.00026   0.00000   0.00012   0.00011  -0.60469
   D57        2.14285   0.00007   0.00000  -0.00265  -0.00266   2.14019
   D58       -0.15756   0.00076   0.00000   0.00844   0.00834  -0.14922
   D59        2.01726   0.00223   0.00000   0.02782   0.02784   2.04510
   D60       -2.17558  -0.00091   0.00000   0.00214   0.00223  -2.17334
   D61        0.75179  -0.00089   0.00000  -0.00820  -0.00820   0.74359
   D62       -1.30905  -0.00153   0.00000  -0.01313  -0.01313  -1.32219
   D63        2.91461  -0.00139   0.00000  -0.01295  -0.01294   2.90167
   D64        2.99336   0.00132   0.00000   0.00664   0.00663   2.99999
   D65        0.93252   0.00067   0.00000   0.00171   0.00169   0.93421
   D66       -1.12701   0.00081   0.00000   0.00189   0.00189  -1.12512
   D67       -1.21776   0.00032   0.00000   0.00027   0.00028  -1.21748
   D68        3.00459  -0.00033   0.00000  -0.00466  -0.00465   2.99993
   D69        0.94506  -0.00019   0.00000  -0.00447  -0.00446   0.94060
   D70       -1.38565   0.00028   0.00000   0.00283   0.00282  -1.38283
   D71        0.73323  -0.00048   0.00000  -0.00231  -0.00231   0.73092
   D72        2.77895   0.00035   0.00000   0.00233   0.00234   2.78129
   D73        0.34604  -0.00084   0.00000  -0.00862  -0.00862   0.33742
   D74       -2.63064  -0.00034   0.00000  -0.00326  -0.00323  -2.63388
   D75       -0.16041   0.00100   0.00000   0.00748   0.00747  -0.15294
   D76        2.49441   0.00061   0.00000   0.00386   0.00386   2.49827
   D77        0.06841   0.00510   0.00000   0.11112   0.11112   0.17952
   D78       -1.44580   0.00170   0.00000   0.05191   0.05190  -1.39390
   D79        0.33532   0.00230   0.00000   0.05679   0.05680   0.39211
   D80        1.56661   0.00111   0.00000   0.00875   0.00876   1.57537
   D81       -0.77889   0.00120   0.00000   0.00366   0.00364  -0.77524
   D82        0.75531  -0.00016   0.00000   0.00063   0.00062   0.75593
         Item               Value     Threshold  Converged?
 Maximum Force            0.054013     0.000450     NO 
 RMS     Force            0.005960     0.000300     NO 
 Maximum Displacement     1.354106     0.001800     NO 
 RMS     Displacement     0.219224     0.001200     NO 
 Predicted change in Energy=-1.527128D-02
 GradGradGradGradGradGradGradGradGradGradGradGradGradGradGradGradGradGrad

                          Input orientation:                          
 ---------------------------------------------------------------------
 Center     Atomic      Atomic             Coordinates (Angstroms)
 Number     Number       Type             X           Y           Z
 ---------------------------------------------------------------------
      1          8           0       -1.266310   -0.130806   -1.199561
      2          6           0       -0.602996    0.857541    0.993442
      3          6           0        1.044353   -0.541491   -0.402586
      4          6           0        0.620025   -0.090514    1.001241
      5          6           0       -0.164745   -1.085003   -1.180450
      6          6           0       -1.197914    1.071021   -0.406012
      7          1           0        0.322195   -0.989980    1.553812
      8          1           0       -2.250016    1.366563   -0.283762
      9          1           0       -0.284303    1.834004    1.374444
     10          1           0        1.523251    0.287862   -0.927421
     11          6           0       -0.511716    2.207303   -1.190166
     12          1           0       -0.896354    2.191863   -2.218627
     13          1           0        0.570964    2.069119   -1.237342
     14          8           0       -0.719111    3.460782   -0.552242
     15          1           0       -1.609607    3.771129   -0.777655
     16          8           0        2.029801   -1.556134   -0.327385
     17          1           0        1.539376   -2.383692   -0.162489
     18          8           0        1.748328    0.525208    1.622370
     19          1           0        1.678062    0.407471    2.581211
     20          8           0       -1.573618    0.285196    1.901517
     21          1           0       -2.215978    0.976143    2.130580
     22          1           0        0.096632   -1.207176   -2.237446
     23          8           0       -0.459564   -2.359351   -0.660983
     24          1           0       -1.339364   -2.588426   -0.197983
     25          8           0       -2.851120   -2.566275    0.384470
     26          1           0       -2.753850   -2.005754    1.180593
     27          1           0       -3.066385   -1.913346   -0.309742
     28          8           0        3.939987    0.633433   -0.359397
     29          1           0        3.443147    0.789111    0.462157
     30          1           0        3.788620   -0.316244   -0.498370
 ---------------------------------------------------------------------
                    Distance matrix (angstroms):
                    1          2          3          4          5
     1  O    0.000000
     2  C    2.495211   0.000000
     3  C    2.478506   2.572925   0.000000
     4  C    2.898864   1.547465   1.534329   0.000000
     5  C    1.457498   2.948109   1.537009   2.522825   0.000000
     6  C    1.441800   1.535569   2.761878   2.575738   2.513092
     7  H    3.292809   2.140871   2.133108   1.096848   2.778908
     8  H    2.012084   2.145467   3.808892   3.465753   3.341045
     9  H    3.383831   1.095539   3.250559   2.158902   3.881027
    10  H    2.833901   2.921502   1.092072   2.163036   2.190459
    11  C    2.456879   2.568721   3.255380   3.370914   3.310552
    12  H    2.563231   3.490539   3.812555   4.228025   3.514386
    13  H    2.866474   2.796873   2.781403   3.110896   3.239288
    14  O    3.690251   3.029766   4.376117   4.101012   4.622351
    15  H    3.939665   3.555143   5.077684   4.800835   5.082508
    16  O    3.695484   3.808153   1.416426   2.429148   2.401191
    17  H    3.744714   4.053582   1.922602   2.730960   2.372102
    18  O    4.181111   2.456567   2.394552   1.427580   3.756119
    19  H    4.822168   2.815457   3.194551   1.965639   4.446741
    20  O    3.143912   1.447165   3.584142   2.400775   3.655255
    21  H    3.635525   1.977084   4.398852   3.233585   4.406676
    22  H    2.023212   3.897585   2.169798   3.465540   1.095666
    23  O    2.430498   3.620234   2.373426   3.012660   1.407384
    24  H    2.654880   3.719734   3.148637   3.393657   2.145985
    25  O    3.309424   4.140945   4.460260   4.307975   3.443799
    26  H    3.375402   3.586037   4.367708   3.883728   3.622951
    27  H    2.685051   3.929935   4.334602   4.316366   3.140669
    28  O    5.328739   4.745428   3.125221   3.660271   4.525038
    29  H    5.078045   4.081448   2.876195   3.005723   4.384900
    30  H    5.106699   4.784304   2.755161   3.512803   4.084767
                    6          7          8          9         10
     6  C    0.000000
     7  H    3.224805   0.000000
     8  H    1.099640   3.942872   0.000000
     9  H    2.141693   2.893941   2.613843   0.000000
    10  H    2.879227   3.038410   3.976863   3.310043   0.000000
    11  C    1.541720   4.295048   2.133096   2.601594   2.809693
    12  H    2.152393   5.083334   2.501444   3.662353   3.338700
    13  H    2.194593   4.148556   3.059547   2.758294   2.043472
    14  O    2.441637   5.032799   2.607969   2.558825   3.903379
    15  H    2.756482   5.642318   2.536926   3.184402   4.687257
    16  O    4.162484   2.602950   5.182750   4.443459   2.004235
    17  H    4.414420   2.523818   5.332787   4.845299   2.778953
    18  O    3.618369   2.081910   4.508656   2.430227   2.570686
    19  H    4.199410   2.201543   4.955575   2.709642   3.514081
    20  O    2.466448   2.311077   2.530280   2.083013   4.194460
    21  H    2.734914   3.261996   2.445942   2.244780   4.879235
    22  H    3.196902   3.804167   3.993466   4.737049   2.446742
    23  O    3.518185   2.718757   4.150958   4.664537   3.318175
    24  H    3.668083   2.895616   4.059382   4.810775   4.123067
    25  O    4.072822   3.731219   4.034238   5.189514   5.385376
    26  H    3.795365   3.260850   3.710890   4.569462   5.291313
    27  H    3.522343   3.975917   3.380080   4.961763   5.127534
    28  O    5.156712   4.402755   6.233726   4.721461   2.506528
    29  H    4.729973   3.754626   5.770784   3.977179   2.422432
    30  H    5.176732   4.084296   6.272402   4.971891   2.383469
                   11         12         13         14         15
    11  C    0.000000
    12  H    1.098143   0.000000
    13  H    1.092481   1.769465   0.000000
    14  O    1.421679   2.102002   2.017519   0.000000
    15  H    1.954759   2.253711   2.804111   0.969592   0.000000
    16  O    4.622462   5.117291   4.012317   5.725079   6.467439
    17  H    5.132283   5.576395   4.681950   6.277782   6.940919
    18  O    3.980904   4.952307   3.456559   4.408491   5.250891
    19  H    4.717818   5.731502   4.309071   4.988755   5.779701
    20  O    3.792180   4.590169   4.199292   4.103104   4.396702
    21  H    3.930345   4.704783   4.506056   3.951148   4.078905
    22  H    3.622920   3.541164   3.458223   5.029432   5.461297
    23  O    4.597509   4.830175   4.583179   5.826933   6.238510
    24  H    4.966733   5.208687   5.140267   6.091234   6.391634
    25  O    5.544307   5.765163   5.985634   6.461293   6.561599
    26  H    5.328931   5.711827   5.788384   6.084890   6.206158
    27  H    4.927599   5.020520   5.472730   5.869391   5.886799
    28  O    4.794257   5.410696   3.765939   5.453282   6.388902
    29  H    4.514685   5.290140   3.574375   5.048884   5.996657
    30  H    5.033861   5.585595   4.073003   5.881197   6.776834
                   16         17         18         19         20
    16  O    0.000000
    17  H    0.975992   0.000000
    18  O    2.865791   3.419223   0.000000
    19  H    3.526952   3.916339   0.968594   0.000000
    20  O    4.619862   4.590622   3.342283   3.324208   0.000000
    21  H    5.520929   5.536185   4.022107   3.961061   0.970827
    22  H    2.739936   2.787677   4.541744   5.322354   4.706158
    23  O    2.636927   2.060303   4.290591   4.768288   3.847226
    24  H    3.526138   2.886230   4.747868   5.079781   3.566577
    25  O    5.034929   4.428200   5.678432   5.846565   3.473374
[...]
 273,0.00037667,-0.00041172,0.00031302,-0.00095035,0.00070903,0.0003680
 2,0.00022603,-0.00006868,0.00005025,-0.00015380,-0.00015580,0.00002298
 ,0.00039930,0.00010049,0.00002768,-0.00014169,-0.00192587,-0.00589181,
 0.00106184,0.02316824,-0.05123199,-0.03021891,0.00817571,0.06885538,0.
 00366802,-0.00742629,-0.00247149,-0.00145905,-0.00092277,0.00146492,-0
 .00081994,-0.00129866,0.00229224,-0.00135320,-0.00202329,0.00123463,0.
 00280295,0.01525126,-0.00961676,-0.00023024,0.00148299,0.00301049,-0.0
 0104864,-0.00020330,-0.00149324,0.00026627,-0.00068042,-0.00033696,0.0
 0012668,0.00015499,-0.00042830,-0.00043442,-0.00030689,-0.00093656,0.0
 0009449,-0.00005357,-0.00053643,0.00004263,0.00014021,-0.00015637,0.00
 001918,0.00008520,0.00001423,-0.00001220,-0.00084472,-0.00022091,-0.00
 005945,0.00006535,0.00003434,-0.00180226,-0.00220980,-0.00213805,0.002
 63789,0.00013145,0.00261953,0.00071069,0.00083738,-0.00051975,-0.00013
 057,-0.00026715,-0.00020204,0.00175803,0.00209981,-0.00063033,0.000133
 50,0.00008186,0.00006338,0.00098422,0.00136941,0.00090363,0.19035342,-
 0.00020715,-0.24951243,-0.18734460,-0.00482968,0.25754874,0.00118362,-
 0.00429344,0.00106189,-0.00040344,0.00059765,0.00044315,0.00049447,-0.
 00039535,-0.00000660,0.00065362,0.00217527,-0.00019749,0.00033141,0.00
 772557,-0.00107411,-0.00064313,0.00223521,0.00095353,-0.00077694,-0.00
 125984,0.00065530,0.00046006,-0.00054047,-0.00014418,0.00009267,-0.000
 09556,-0.00022840,-0.00021935,-0.00007938,0.00001887,0.00009497,0.0003
 3417,-0.00019722,-0.00000016,-0.00002488,0.00002826,0.00008078,0.00011
 207,-0.00005352,0.00011559,-0.00080539,-0.00004227,-0.00007150,0.00011
 377,-0.00000301,-0.00097653,-0.00037408,-0.00022332,0.00130387,-0.0001
 2621,0.00039183,-0.00109622,-0.00130693,-0.00068246,0.00004369,0.00016
 114,0.00025024,0.00408411,-0.00302766,-0.00176929,-0.00157202,-0.00151
 541,-0.00015350,-0.00031915,-0.00132040,0.00049876,-0.01011445,-0.0011
 4993,0.01332887,-0.00346519,-0.00560333,-0.00608318,0.25573602,-0.0035
 7553,-0.00054801,0.00421966,0.00358835,0.00065030,-0.00359588,0.000465
 56,-0.00004419,-0.00058687,0.00100955,-0.00043242,0.00039916,0.0027817
 5,-0.00570388,-0.00166577,0.00024380,0.00092176,-0.00041300,-0.0001055
 9,-0.00026328,0.00003714,-0.00023302,0.00042536,-0.00014784,-0.0008573
 6,-0.00022885,0.00076640,0.00014864,0.00009183,0.00016239,0.00019056,0
 .00064146,-0.00003272,-0.00002566,-0.00016695,0.00019262,-0.00007657,-
 0.00010831,0.00001014,-0.00005788,-0.00053440,0.00023591,-0.00000259,0
 .00021661,-0.00011537,-0.00053793,0.00107215,0.00028377,-0.00042324,-0
 .00035664,-0.00012470,-0.00099239,0.00021688,-0.00014756,0.00033007,-0
 .00022043,0.00023821,-0.00551819,-0.01009842,-0.00361866,-0.00184285,-
 0.00035756,0.00016322,-0.00011846,0.00086032,0.00002411,0.00488760,0.0
 0715722,-0.00340937,-0.00550567,-0.00804964,0.00210927,-0.02935325,0.4
 4397900,0.00096723,0.00641540,-0.00093834,0.00188416,-0.00053818,-0.00
 338946,-0.00007153,-0.00024405,-0.00111118,0.00041020,0.00073538,-0.00
 082936,-0.00180196,-0.00802045,0.00056174,-0.00023527,-0.00378434,-0.0
 0232876,0.00047950,-0.00044578,-0.00014683,-0.00023231,0.00031025,0.00
 021651,-0.00058435,-0.00017204,0.00096861,0.00012906,0.00016699,0.0004
 0167,0.00008003,-0.00014591,0.00041682,-0.00001603,-0.00015045,0.00019
 307,0.00000278,-0.00001542,-0.00004986,-0.00003173,0.00080706,0.000315
 50,0.00005105,-0.00007568,-0.00005578,0.00098106,0.00095355,0.00115359
 ,-0.00147530,-0.00004931,-0.00102467,-0.00030271,-0.00020427,0.0006519
 4,0.00023780,0.00020206,0.00008909,-0.00342566,-0.00630144,0.00263503,
 -0.00081430,-0.00048927,-0.00020700,0.00044302,0.00124738,-0.00038178,
 0.01563754,0.00309954,-0.00895569,-0.01091615,0.00182424,-0.00077917,0
 .27044516,0.09189922,0.40949089,-0.00011224,-0.00038063,-0.00085601,-0
 .00220082,-0.00264096,0.00129545,-0.00034973,0.00065753,0.00067499,-0.
 00151197,-0.00218231,0.00020441,-0.00024608,0.00164076,0.00114480,0.00
 087946,-0.00027850,0.00074900,-0.00143343,0.00111266,-0.00035037,-0.00
 019593,0.00015867,-0.00001282,0.00012960,0.00020748,-0.00010222,0.0000
 6066,-0.00010473,-0.00033562,-0.00023462,-0.00027230,-0.00010905,0.000
 02576,0.00013306,-0.00013953,-0.00003351,-0.00005595,0.00006425,-0.000
 05772,0.00025104,-0.00013210,0.00003274,-0.00006693,0.00002084,0.00028
 602,-0.00059265,-0.00050183,0.00018721,0.00022342,0.00028536,0.0012028
 0,0.00101741,0.00019188,-0.00022797,-0.00019458,-0.00030840,-0.0077118
 4,0.00038998,0.00019260,0.00310469,0.00344304,0.00033890,-0.00010850,-
 0.00030445,-0.00008463,-0.00331237,-0.00214036,0.00152593,0.00556146,0
 .00415402,-0.00079003,-0.04380488,-0.03036892,-0.04336097,0.05588075,0
 .00044494,-0.00289365,-0.00108245,-0.00681346,-0.00064723,0.00716303,-
 0.00018385,0.00011379,0.00079391,-0.00084460,0.00199365,-0.00110869,-0
 .00011258,0.00386951,-0.00022353,0.00031169,0.00168193,0.00154224,-0.0
 0011135,-0.00014932,0.00030414,0.00035255,-0.00041867,0.00025781,0.001
 61789,0.00055654,-0.00158193,-0.00018173,-0.00005771,-0.00005549,-0.00
 024267,-0.00069716,-0.00029117,0.00005372,0.00028426,-0.00032874,0.000
 05663,0.00009801,0.00001800,0.00002277,0.00023335,-0.00036459,-0.00000
 343,-0.00019947,0.00012857,0.00032041,-0.00098003,-0.00041377,0.000495
 55,0.00023190,0.00008785,0.00069857,-0.00100346,0.00003556,-0.00046959
 ,0.00041598,-0.00021679,0.00381777,0.00000578,-0.00232348,0.00237036,0
 .00028343,-0.00083989,-0.00001110,-0.00047302,0.00002905,-0.00335503,-
 0.00202669,0.00283417,0.00514977,-0.00066834,-0.00408060,-0.06600919,-
 0.34952772,-0.19087923,0.05525055,0.33954519,-0.00174390,-0.00228245,0
 .00117511,-0.00101839,0.00296202,0.00401104,0.00034631,0.00034882,0.00
 035902,0.00004140,0.00039892,-0.00022207,0.00218473,0.00038891,-0.0010
 4983,0.00114286,0.00309767,0.00056740,0.00004926,-0.00012358,0.0007836
 8,-0.00008214,0.00021488,-0.00008970,0.00092063,0.00023182,-0.00118872
 ,-0.00004201,-0.00003778,-0.00007586,-0.00019535,0.00024315,-0.0002558
 3,-0.00000339,0.00008941,-0.00012749,-0.00005140,-0.00007879,0.0000702
 1,0.00000271,-0.00041786,-0.00023172,-0.00001488,0.00005938,0.00002828
 ,-0.00035283,-0.00023965,-0.00041237,0.00041873,-0.00000101,0.00020011
 ,-0.00022361,-0.00035674,-0.00033699,-0.00024274,-0.00005108,0.0000353
 7,0.00136376,-0.00102502,-0.00712656,0.00065847,0.00073788,-0.00019971
 ,-0.00023246,-0.00006654,0.00011065,-0.00101442,0.00021107,0.00097156,
 0.00166991,-0.00266835,-0.00315191,-0.05566377,-0.14495491,-0.12527656
 ,0.05778631,0.17708707,0.14957870,0.00179855,0.00250622,-0.00095295,-0
 .00021438,-0.00004581,-0.00026331,-0.00012964,-0.00006685,-0.00025988,
 -0.00020296,0.00031112,-0.00049844,-0.00226758,-0.00094236,0.00092448,
 0.00022033,-0.00223901,-0.00110210,0.00002183,-0.00019709,-0.00000352,
 -0.00014948,0.00009612,0.00019621,0.00005992,0.00001278,0.00015668,0.0
 0001784,0.00003862,0.00009531,-0.00008649,-0.00023542,0.00025008,0.000
 00351,-0.00000780,-0.00000222,0.00000149,-0.00000590,-0.00000924,-0.00
 002115,0.00059476,0.00004637,0.00004671,-0.00008939,0.00001272,0.00057
 469,0.00009406,0.00033050,-0.00051391,0.00005747,-0.00029303,0.0001361
 1,-0.00009029,0.00028721,-0.00002276,0.00007255,-0.00002217,0.00020291
 ,0.00023160,0.00072540,0.00015990,0.00004496,-0.00015012,0.00020920,0.
 00009542,-0.00015841,0.00294677,0.00011169,0.00030025,-0.00781681,0.00
 270021,-0.00193357,-0.20131498,0.06587605,-0.22853731,-0.00569837,0.00
 743460,-0.00568177,0.21204755,0.00205166,-0.00015546,-0.00072035,-0.00
 043485,-0.00026270,-0.00027100,-0.00015406,-0.00019437,-0.00004929,-0.
 00035807,0.00027240,-0.00021923,-0.00122027,0.00247376,0.00015128,-0.0
 0071020,-0.00103434,-0.00020624,0.00001282,-0.00020723,0.00009736,0.00
 014421,-0.00039832,0.00005489,0.00003150,0.00000827,0.00010283,-0.0000
 7177,-0.00002360,-0.00003151,0.00006552,-0.00029672,0.00011563,-0.0000
 0422,0.00001232,-0.00001687,0.00005534,0.00008766,-0.00004155,0.000034
 56,0.00033322,-0.00001908,-0.00000482,-0.00011385,0.00004601,0.0002803
 7,-0.00029163,0.00003524,0.00005458,0.00010661,0.00005232,0.00024953,-
 0.00008975,0.00012205,-0.00004604,0.00004308,-0.00004536,0.00090086,-0
 .00107169,0.00076311,-0.00031411,-0.00054481,-0.00038486,0.00018520,-0
 .00019459,-0.00005068,-0.00084359,-0.00141470,-0.00029067,0.00169803,0
 .00099119,0.00156927,0.10381946,-0.07959581,0.10385258,-0.02905230,0.0
 1043097,-0.03377105,-0.07635514,0.07113643,-0.00058733,-0.00067575,-0.
 00081830,-0.00064058,-0.00048705,0.00064642,-0.00004692,0.00007805,0.0
 0028875,-0.00002629,-0.00012099,0.00020161,0.00107814,0.00002443,-0.00
 016367,-0.00037943,0.00107216,0.00082300,-0.00029348,0.00013430,-0.000
 05889,0.00017472,-0.00012410,0.00001934,0.00005832,0.00003436,-0.00015
 690,0.00001011,-0.00001523,-0.00005859,0.00008004,-0.00001807,-0.00014
 205,0.00001392,0.00005640,-0.00007066,-0.00000256,0.00002231,-0.000005
 63,0.00000554,-0.00024109,-0.00009740,-0.00002188,0.00001585,0.0000419
 0,-0.00020919,-0.00010082,-0.00028448,0.00018528,0.00000076,0.00018189
 ,0.00013296,0.00008961,-0.00010948,-0.00004264,-0.00003075,-0.00003327
 ,0.00138088,0.00046701,0.00013740,-0.00025262,-0.00034117,-0.00007915,
 -0.00004174,0.00003560,-0.00001005,-0.00072475,-0.00019288,-0.00189445
 ,0.00259300,-0.00042364,0.00387239,-0.22152802,0.05811048,-0.27157180,
 -0.01744497,0.01348413,-0.01815801,0.23654659,-0.07085378,0.28749028,-
 0.00099526,0.00050655,-0.00021406,0.00070048,-0.00019307,-0.00041549,-
 0.00198337,0.00206561,-0.00312249,0.00140517,-0.00016774,-0.00021441,0
 .00207974,-0.00043751,0.00229390,0.00027998,-0.00043333,-0.00001201,-0
 .00031259,-0.00011317,0.00036788,-0.00021923,0.00008477,0.00000209,0.0
 0002693,-0.00007367,0.00003869,-0.00109977,-0.00201104,0.00145001,0.00
 056633,-0.00057511,0.00000114,-0.00014557,0.00005530,-0.00005372,-0.00
 011203,-0.00009028,0.00017784,-0.00024560,0.00075781,0.00001150,-0.000
 01157,-0.00016141,0.00007206,-0.00103736,-0.00456880,-0.00049807,-0.00
 069888,0.00091840,-0.00011903,-0.00097641,0.00007495,0.00472970,-0.002
 08452,-0.00045817,-0.00047399,-0.00069636,0.00002965,0.00045739,-0.000
 01314,-0.00002384,-0.00014205,-0.00015149,-0.00005437,-0.00022317,-0.0
 0202478,-0.00158283,-0.00037513,0.00064506,0.00017026,-0.00042881,-0.0
 0065620,-0.00026524,0.00034248,0.00029507,0.00017576,-0.00012650,0.000
 25045,0.00011966,-0.00005034,0.19906082,-0.00073692,0.00069767,0.00004
 907,-0.00010069,-0.00022380,0.00015706,0.00152422,-0.00312147,0.000362
 41,-0.00001345,0.00007369,-0.00030177,0.00040095,-0.00040479,0.0002944
 4,0.00004129,-0.00057903,-0.00018384,0.00019137,0.00011179,-0.00001567
 ,-0.00000723,0.00010295,-0.00002766,-0.00008908,0.00010923,0.00008253,
 -0.00051326,-0.00042818,-0.00069364,-0.00040658,-0.00009321,0.00005206
 ,0.00009559,0.00001561,0.00000564,-0.00003736,-0.00015191,-0.00008645,
 0.00012509,0.00025365,-0.00002462,0.00001574,-0.00001529,0.00003004,-0
 .00421534,-0.00262757,-0.00099439,-0.00049849,0.00119980,-0.00016881,-
 0.00036423,0.00175772,0.00083708,-0.00019763,-0.00005444,0.00000695,0.
 00002004,0.00027296,-0.00001358,-0.00007978,-0.00003142,-0.00000281,-0
 .00000047,0.00000795,0.00000302,-0.00083555,0.00033690,-0.00021177,0.0
 0024357,-0.00001784,-0.00017080,-0.00016001,0.00009240,0.00013392,0.00
 000706,-0.00011578,-0.00005291,0.00004926,-0.00001267,-0.00001878,0.08
 282137,0.49644184,-0.00047340,0.00031354,0.00028698,0.00043080,0.00004
 611,0.00021333,-0.00027426,0.00089931,-0.00161359,-0.00190348,-0.00120
 942,-0.00277514,0.00079887,-0.00015363,0.00048383,0.00019556,-0.000310
 45,-0.00046445,0.00032290,0.00018952,0.00055986,-0.00002171,0.00000399
 ,0.00013936,-0.00009943,0.00012161,-0.00001649,0.00079766,-0.00113640,
 -0.00013426,0.00046315,-0.00018501,-0.00010083,-0.00001924,-0.00001675
 ,0.00006176,-0.00004278,-0.00005377,-0.00005239,-0.00017024,0.00021178
 ,0.00020984,0.00000430,-0.00000171,-0.00000965,-0.00061780,-0.00046814
 ,0.00163414,-0.00011510,0.00028726,0.00023864,0.00442327,0.00067924,-0
 .00001290,0.00059696,0.00025570,0.00039124,0.00003057,0.00004145,0.000
 34508,-0.00005307,-0.00002646,-0.00010416,0.00006501,0.00006619,0.0001
 8364,-0.00072286,-0.00052568,0.00014454,0.00023698,-0.00001563,-0.0003
 0069,-0.00011710,0.00004273,0.00026961,-0.00006413,-0.00005520,-0.0001
 1222,0.00008287,0.00001176,-0.00005715,-0.22061648,0.14076534,0.406731
 53,0.00007015,0.00006069,0.00028933,-0.00014137,0.00019501,0.00053190,
 0.00018979,-0.00148381,-0.00069896,-0.00357089,-0.00118903,-0.00282663
 ,-0.00062483,-0.00015616,-0.00035495,0.00000512,-0.00009152,-0.0004531
 0,0.00081073,0.00036868,0.00039532,0.00014652,-0.00003869,0.00012254,-
 0.00018353,0.00022605,-0.00001769,0.00042012,-0.00011415,-0.00092342,-
 0.00007437,0.00028478,-0.00002063,0.00006258,-0.00006259,0.00007160,0.
 00004386,0.00002847,-0.00014004,0.00005844,-0.00036015,0.00009578,0.00
 000693,0.00010750,-0.00003812,-0.00155962,0.00030654,0.00021926,-0.000
 06284,-0.00013968,-0.00001551,-0.00280396,-0.00011382,0.00024419,0.002
 79412,0.00092057,0.00079381,0.00057729,0.00004780,-0.00009321,-0.00002
 841,-0.00000733,0.00003911,0.00016240,0.00008653,0.00022728,0.00030314
 ,0.00057273,0.00013801,-0.00018606,-0.00014117,-0.00002380,0.00032950,
 0.00024821,0.00000779,-0.00027484,-0.00020215,-0.00000450,-0.00009185,
 -0.00007191,-0.00001045,-0.15570378,0.02230556,0.22707022,0.15483140,0
 .00038639,-0.00040369,-0.00002794,0.00028124,0.00037969,0.00015875,-0.
 00111163,0.00118924,-0.00067247,-0.00088309,-0.00057046,-0.00024787,-0
 .00046578,0.00020617,-0.00015849,0.00007648,0.00025574,0.00003358,-0.0
 0016333,-0.00010692,-0.00007919,0.00003714,-0.00006517,0.00004877,0.00
 009399,-0.00007122,-0.00006648,-0.00011715,0.00011669,0.00021403,0.000
 21029,0.00016517,-0.00001045,-0.00007061,-0.00002246,-0.00000154,0.000
 00524,0.00007035,0.00008895,-0.00005926,-0.00022551,-0.00001879,-0.000
 01333,0.00001717,-0.00002589,0.00077149,0.00021171,0.00098249,0.000001
 98,-0.00031187,0.00015783,0.00019305,-0.00132707,-0.00064071,0.0007351
 2,-0.00004340,0.00004373,0.00003351,-0.00023904,-0.00000259,0.00007297
 ,0.00002147,0.00000828,0.00004776,0.00000406,0.00004467,0.00046064,-0.
 00005381,0.00010879,-0.00016404,0.00000180,0.00007105,0.00012977,-0.00
 002726,-0.00006583,-0.00004252,0.00005059,0.00002882,-0.00003685,-0.00
 000231,0.00000825,-0.01244136,-0.04888753,-0.00251161,-0.01570105,0.05
 828675,0.00048055,-0.00026178,-0.00011753,-0.00056560,-0.00023867,-0.0
 0036581,-0.00133560,-0.00060900,0.00165401,0.00052803,0.00053291,0.003
 54338,-0.00064350,0.00022217,-0.00074446,-0.00022086,0.00027361,0.0003
 8290,-0.00056410,-0.00021193,-0.00054466,0.00000586,0.00000072,-0.0001
 2283,0.00009545,-0.00008725,0.00004749,-0.00070369,0.00029412,-0.00114
 060,-0.00038559,0.00007034,0.00006118,0.00007834,0.00001724,-0.0000337
 8,0.00004567,0.00004979,-0.00006815,0.00013059,-0.00013156,-0.00011128
 ,0.00000548,0.00000536,0.00000309,0.00092460,0.00079585,-0.00019609,0.
 00013335,-0.00018256,0.00020055,-0.00039294,-0.00081043,-0.00561027,0.
 00036004,0.00003590,-0.00065293,-0.00001017,-0.00000338,-0.00025605,0.
 00003380,0.00002883,0.00007692,-0.00002636,-0.00003365,-0.00005419,0.0
 0074480,0.00038921,-0.00003229,-0.00018883,0.00003089,0.00026979,0.000
 08139,-0.00004865,-0.00021123,0.00007003,0.00004895,0.00007890,-0.0000
 6611,-0.00000858,0.00004282,0.20910911,-0.05417450,-0.34025204,-0.2196
 4142,0.04982925,0.35831831,0.00111855,-0.00063063,0.00008894,-0.000412
 91,0.00008889,-0.00010379,-0.00422459,0.00224267,0.00045155,0.00004511
 ,0.00020240,0.00090644,-0.00113219,0.00011143,-0.00101053,-0.00022515,
 0.00059654,0.00019720,-0.00002864,-0.00005459,-0.00015440,0.00009887,-
 0.00009891,-0.00002165,0.00006038,-0.00006446,-0.00004821,-0.00064376,
 0.00058081,-0.00016532,-0.00011683,0.00026657,-0.00004495,0.00003082,-
 0.00002321,0.00001912,0.00008788,0.00009814,-0.00003676,0.00008204,-0.
 00045397,-0.00000226,-0.00000306,0.00008253,-0.00004353,-0.00108867,0.
 00185599,-0.00006467,0.00123860,-0.00169291,-0.00015134,-0.00102355,-0
 .00070507,-0.00065947,0.00032718,-0.00007255,0.00013332,0.00035281,-0.
 00013937,-0.00029106,0.00004896,0.00002682,0.00007739,0.00003467,0.000
 00617,0.00005137,0.00154355,0.00033053,0.00028035,-0.00049923,-0.00009
 679,0.00035602,0.00042978,0.00009019,-0.00029328,-0.00013138,-0.000032
 81,0.00010900,-0.00016737,-0.00006193,0.00004366,-0.03614213,-0.099585
 05,-0.01020806,0.00449428,0.02773294,0.01191768,0.03584597,0.00049916,
 -0.00027235,0.00004084,-0.00005581,-0.00005905,-0.00027127,-0.00078236
 ,0.00409731,-0.00044117,0.00085392,-0.00024216,0.00049771,0.00041988,-
 0.00019211,0.00006846,-0.00003794,0.00027890,0.00014239,-0.00020518,-0
 .00004689,0.00015749,-0.00001740,-0.00003550,-0.00001694,0.00005604,-0
 .00007616,-0.00002000,0.00117173,-0.00078091,0.00056203,0.00015233,-0.
 00001499,-0.00003756,-0.00001692,0.00000723,-0.00000398,-0.00000316,-0
 .00002699,0.00001646,-0.00005448,-0.00003241,0.00001558,-0.00000293,0.
 00000344,-0.00000141,-0.00044357,-0.00291153,-0.00028819,0.00012523,-0
 .00121294,-0.00015185,-0.00076088,-0.00032707,0.00018684,-0.00032620,0
 .00000403,0.00004823,-0.00003622,-0.00008944,-0.00001980,0.00003163,0.
 00001486,-0.00000075,-0.00005253,0.00000841,-0.00003496,0.00013725,-0.
 00058913,0.00007152,-0.00008865,0.00000322,0.00007561,0.00003663,-0.00
 006155,-0.00006593,0.00003141,0.00006336,0.00002791,-0.00001557,0.0000
 0863,0.00001040,-0.06412914,-0.44470922,-0.13726570,-0.00588589,-0.008
 61889,0.00417680,0.06939965,0.45580991,0.00011282,-0.00013491,-0.00020
 840,-0.00010604,-0.00000925,-0.00013162,-0.00074610,-0.00020770,0.0004
 9955,0.00146785,0.00040444,0.00083458,-0.00030325,0.00011972,0.0002192
 5,-0.00006552,0.00013852,0.00018765,-0.00005704,-0.00006707,-0.0001216
 1,-0.00001009,-0.00000781,-0.00005366,0.00003066,-0.00005458,0.0000005
 7,-0.00029424,0.00047091,0.00041961,-0.00009525,0.00001715,0.00004666,
 -0.00001921,0.00001281,-0.00003195,0.00002526,0.00002064,0.00004458,0.
 00004047,-0.00003783,-0.00008253,-0.00000443,-0.00001059,0.00001106,-0
 .00025717,-0.00050254,-0.00159092,-0.00003642,-0.00018504,-0.00074368,
 -0.00120652,0.00053926,0.00003453,-0.00016627,-0.00012539,-0.00003166,
 -0.00005498,-0.00001190,-0.00011525,0.00001880,0.00000784,0.00003118,-
 0.00007176,-0.00003920,-0.00018103,0.00011351,0.00005894,-0.00016041,-
 0.00006824,0.00001356,0.00010306,0.00001021,-0.00003308,-0.00010659,0.
 00004793,0.00003104,0.00004552,-0.00002052,0.00000577,0.00002414,0.008
 03198,-0.08563754,-0.06588741,-0.00498373,-0.04729740,-0.01416513,-0.0
 0133275,0.13252124,0.08110991\\-0.00000345,-0.00001410,0.00000239,-0.0
 0000881,-0.00000395,-0.00000623,0.00001407,-0.00000553,0.00000066,-0.0
 0000712,0.00000971,0.00000631,0.00000171,-0.00000767,0.00000162,0.0000
 0141,0.00000456,0.00001236,0.00000473,0.00000069,-0.00000078,-0.000004
 78,-0.00000722,-0.00000557,-0.00000540,0.00000040,0.00000014,-0.000004
 27,0.00000694,-0.00000215,0.00000093,-0.00000271,-0.00000310,-0.000006
 23,-0.00000563,-0.00000076,-0.00000373,-0.00000145,-0.00000397,-0.0000
 1575,-0.00000837,-0.00000131,-0.00000731,-0.00000288,-0.00000725,-0.00
 000589,0.00000413,0.00001913,0.00000750,0.00000213,-0.00000492,-0.0000
 0289,-0.00000351,-0.00002102,0.00000700,0.00001126,0.00000430,0.000001
 16,0.00000472,0.00000526,-0.00000615,-0.00000175,-0.00000324,0.0000007
 2,-0.00000174,0.00000087,0.00001769,-0.00000307,-0.00000433,0.00001439
 ,0.00001140,-0.00000954,-0.00000410,-0.00000369,0.00000415,-0.00000003
 ,-0.00001158,-0.00000089,0.00000385,-0.00000811,0.00000366,-0.00001294
 ,0.00000648,0.00000313,-0.00000318,0.00001880,0.00001045,0.00002686,0.
 00001173,0.00000065\\\@


 "I COULD HAVE DONE IT IN A MUCH MORE COMPLICATED WAY"
 SAID THE RED QUEEN, IMMENSELY PROUD.

                                      -- LEWIS CARROLL
 Job cpu time:       0 days  1 hours 19 minutes 58.5 seconds.
 File lengths (MBytes):  RWF=    334 Int=      0 D2E=      0 Chk=      7 Scr=      2
 Normal termination of Gaussian 09 at Sun Jan 22 19:40:17 2017.
