 Entering Gaussian System, Link 0=g09
 Initial command:
 /global/software/gaussian/g09.e01/l1.exe "/scratch/10464852.yak.local/Gau-31900.inp" -scrdir="/scratch/10464852.yak.local/"
 Entering Link 1 = /global/software/gaussian/g09.e01/l1.exe PID=     31901.
  
 Copyright (c) 1988,1990,1992,1993,1995,1998,2003,2009,2015,
            Gaussian, Inc.  All Rights Reserved.
  
 This is part of the Gaussian(R) 09 program.  It is based on
 the Gaussian(R) 03 system (copyright 2003, Gaussian, Inc.),
 the Gaussian(R) 98 system (copyright 1998, Gaussian, Inc.),
 the Gaussian(R) 94 system (copyright 1995, Gaussian, Inc.),
 the Gaussian 92(TM) system (copyright 1992, Gaussian, Inc.),
 the Gaussian 90(TM) system (copyright 1990, Gaussian, Inc.),
 the Gaussian 88(TM) system (copyright 1988, Gaussian, Inc.),
 the Gaussian 86(TM) system (copyright 1986, Carnegie Mellon
 University), and the Gaussian 82(TM) system (copyright 1983,
 Carnegie Mellon University). Gaussian is a federally registered
 trademark of Gaussian, Inc.
  
 This software contains proprietary and confidential information,
 including trade secrets, belonging to Gaussian, Inc.
  
 This software is provided under written license and may be
 used, copied, transmitted, or stored only in accord with that
 written license.
  
 The following legend is applicable only to US Government
 contracts under FAR:
  
                    RESTRICTED RIGHTS LEGEND
  
 Use, reproduction and disclosure by the US Government is
 subject to restrictions as set forth in subparagraphs (a)
 and (c) of the Commercial Computer Software - Restricted
 Rights clause in FAR 52.227-19.
  
 Gaussian, Inc.
 340 Quinnipiac St., Bldg. 40, Wallingford CT 06492
  
  
 ---------------------------------------------------------------
 Warning -- This program may not be used in any manner that
 competes with the business of Gaussian, Inc. or will provide
 assistance to any competitor of Gaussian, Inc.  The licensee
 of this program is prohibited from giving any competitor of
 Gaussian, Inc. access to this program.  By using this program,
 the user acknowledges that Gaussian, Inc. is engaged in the
 business of creating and licensing software in the field of
 computational chemistry and represents and warrants to the
 licensee that it is not a competitor of Gaussian, Inc. and that
 it will not use this program in any manner prohibited above.
 ---------------------------------------------------------------
  

 Cite this work as:
 Gaussian 09, Revision E.01,
 M. J. Frisch, G. W. Trucks, H. B. Schlegel, G. E. Scuseria, 
 M. A. Robb, J. R. Cheeseman, G. Scalmani, V. Barone, B. Mennucci, 
 G. A. Petersson, H. Nakatsuji, M. Caricato, X. Li, H. P. Hratchian, 
 A. F. Izmaylov, J. Bloino, G. Zheng, J. L. Sonnenberg, M. Hada, 
 M. Ehara, K. Toyota, R. Fukuda, J. Hasegawa, M. Ishida, T. Nakajima, 
 Y. Honda, O. Kitao, H. Nakai, T. Vreven, J. A. Montgomery, Jr., 
 J. E. Peralta, F. Ogliaro, M. Bearpark, J. J. Heyd, E. Brothers, 
 K. N. Kudin, V. N. Staroverov, T. Keith, R. Kobayashi, J. Normand, 
 K. Raghavachari, A. Rendell, J. C. Burant, S. S. Iyengar, J. Tomasi, 
 M. Cossi, N. Rega, J. M. Millam, M. Klene, J. E. Knox, J. B. Cross, 
 V. Bakken, C. Adamo, J. Jaramillo, R. Gomperts, R. E. Stratmann, 
 O. Yazyev, A. J. Austin, R. Cammi, C. Pomelli, J. W. Ochterski, 
 R. L. Martin, K. Morokuma, V. G. Zakrzewski, G. A. Voth, 
 P. Salvador, J. J. Dannenberg, S. Dapprich, A. D. Daniels, 
 O. Farkas, J. B. Foresman, J. V. Ortiz, J. Cioslowski, 
 and D. J. Fox, Gaussian, Inc., Wallingford CT, 2013.
 
 ******************************************
 Gaussian 09:  ES64L-G09RevE.01 30-Nov-2015
                15-Jan-2017 
 ******************************************
 -------------------------
 # b3lyp/6-31g(d) opt freq
 -------------------------
 1/14=-1,18=20,19=15,26=3,38=1/1,3;
 2/9=110,12=2,17=6,18=5,40=1/2;
 3/5=1,6=6,7=1,11=2,16=1,25=1,30=1,71=1,74=-5/1,2,3;
 4//1;
 5/5=2,38=5/2;
 6/7=2,8=2,9=2,10=2,28=1/1;
 7//1,2,3,16;
 1/14=-1,18=20,19=15,26=3/3(2);
 2/9=110/2;
 99//99;
 2/9=110/2;
 3/5=1,6=6,7=1,11=2,16=1,25=1,30=1,71=1,74=-5/1,2,3;
 4/5=5,16=3,69=1/1;
 5/5=2,38=5/2;
 7//1,2,3,16;
 1/14=-1,18=20,19=15,26=3/3(-5);
 2/9=110/2;
 6/7=2,8=2,9=2,10=2,19=2,28=1/1;
 99/9=1/99;
 ----------------------------------
 glo_2w_beta_ircf_boat5_B3LYP_631Gd
 ----------------------------------
 Symbolic Z-matrix:
 Charge =  0 Multiplicity = 1
 8                     0.39262   0.70362  -0.64645 
 6                    -1.4163   -0.18052   0.73524 
 6                     0.20031  -1.7801   -0.37291 
 6                    -0.41903  -1.34587   0.96044 
 6                     0.96688  -0.6145   -1.07448 
 6                    -1.0294    0.68576  -0.48671 
 1                    -0.99573  -2.19189   1.35663 
 1                    -1.47764   0.2295   -1.37997 
 1                    -1.42124   0.43857   1.641 
 1                     0.91363  -2.59734  -0.21502 
 6                    -1.5966    2.10751  -0.37502 
 1                    -1.24897   2.71046  -1.21991 
 1                    -1.22656   2.58215   0.54982 
 1                     0.75927  -0.64392  -2.16345 
 8                     2.28505  -0.70833  -0.77827 
 8                    -3.01592   2.08669  -0.42269 
 1                    -3.31809   1.29423   0.05745 
 8                    -0.93612  -2.22498  -1.13179 
 1                    -0.6578   -2.36056  -2.05116 
 8                     0.63616  -1.01588   1.86886 
 1                     0.24894  -0.94375   2.75521 
 8                    -2.75787  -0.65356   0.59418 
 1                    -2.74578  -1.25436  -0.17348 
 8                     3.75817   1.22289  -0.37957 
 1                     3.18139   1.38587   0.43093 
 1                     4.56984   0.80781  -0.05156 
 1                     2.84286   0.13583  -0.86921 
 8                     1.94995   1.34792   1.30039 
 1                     1.28262   1.3576    0.57818 
 1                     1.82668   0.4373    1.62901 
 
 Add virtual bond connecting atoms H27        and O24        Dist= 2.84D+00.
 Add virtual bond connecting atoms O28        and H25        Dist= 2.85D+00.
 Add virtual bond connecting atoms H29        and O1         Dist= 3.12D+00.

 GradGradGradGradGradGradGradGradGradGradGradGradGradGradGradGradGradGrad
 Berny optimization.
 Initialization pass.
                           ----------------------------
                           !    Initial Parameters    !
                           ! (Angstroms and Degrees)  !
 --------------------------                            --------------------------
 ! Name  Definition              Value          Derivative Info.                !
 --------------------------------------------------------------------------------
 ! R1    R(1,5)                  1.5001         estimate D2E/DX2                !
 ! R2    R(1,6)                  1.4311         estimate D2E/DX2                !
 ! R3    R(1,29)                 1.6491         estimate D2E/DX2                !
 ! R4    R(2,4)                  1.5503         estimate D2E/DX2                !
 ! R5    R(2,6)                  1.547          estimate D2E/DX2                !
 ! R6    R(2,9)                  1.0971         estimate D2E/DX2                !
 ! R7    R(2,22)                 1.4295         estimate D2E/DX2                !
 ! R8    R(3,4)                  1.533          estimate D2E/DX2                !
 ! R9    R(3,5)                  1.5616         estimate D2E/DX2                !
 ! R10   R(3,10)                 1.0962         estimate D2E/DX2                !
 ! R11   R(3,18)                 1.4371         estimate D2E/DX2                !
 ! R12   R(4,7)                  1.0979         estimate D2E/DX2                !
 ! R13   R(4,20)                 1.4309         estimate D2E/DX2                !
 ! R14   R(5,14)                 1.109          estimate D2E/DX2                !
 ! R15   R(5,15)                 1.3543         estimate D2E/DX2                !
 ! R16   R(6,8)                  1.0986         estimate D2E/DX2                !
 ! R17   R(6,11)                 1.5348         estimate D2E/DX2                !
 ! R18   R(11,12)                1.0946         estimate D2E/DX2                !
 ! R19   R(11,13)                1.1034         estimate D2E/DX2                !
 ! R20   R(11,16)                1.4203         estimate D2E/DX2                !
 ! R21   R(15,27)                1.0159         estimate D2E/DX2                !
 ! R22   R(16,17)                0.9746         estimate D2E/DX2                !
 ! R23   R(18,19)                0.9701         estimate D2E/DX2                !
 ! R24   R(20,21)                0.9699         estimate D2E/DX2                !
 ! R25   R(22,23)                0.9749         estimate D2E/DX2                !
 ! R26   R(24,25)                1.008          estimate D2E/DX2                !
 ! R27   R(24,26)                0.9689         estimate D2E/DX2                !
 ! R28   R(24,27)                1.5031         estimate D2E/DX2                !
 ! R29   R(25,28)                1.5079         estimate D2E/DX2                !
 ! R30   R(28,29)                0.9834         estimate D2E/DX2                !
 ! R31   R(28,30)                0.9759         estimate D2E/DX2                !
 ! A1    A(5,1,6)              113.6578         estimate D2E/DX2                !
 ! A2    A(5,1,29)             110.7162         estimate D2E/DX2                !
 ! A3    A(6,1,29)             117.2794         estimate D2E/DX2                !
 ! A4    A(4,2,6)              112.0112         estimate D2E/DX2                !
 ! A5    A(4,2,9)              107.8867         estimate D2E/DX2                !
 ! A6    A(4,2,22)             111.6728         estimate D2E/DX2                !
 ! A7    A(6,2,9)              109.7091         estimate D2E/DX2                !
 ! A8    A(6,2,22)             110.0034         estimate D2E/DX2                !
 ! A9    A(9,2,22)             105.3057         estimate D2E/DX2                !
 ! A10   A(4,3,5)              112.1892         estimate D2E/DX2                !
 ! A11   A(4,3,10)             110.4145         estimate D2E/DX2                !
 ! A12   A(4,3,18)             103.1505         estimate D2E/DX2                !
 ! A13   A(5,3,10)             107.5629         estimate D2E/DX2                !
 ! A14   A(5,3,18)             112.4586         estimate D2E/DX2                !
 ! A15   A(10,3,18)            111.0908         estimate D2E/DX2                !
 ! A16   A(2,4,3)              110.2722         estimate D2E/DX2                !
 ! A17   A(2,4,7)              107.0844         estimate D2E/DX2                !
 ! A18   A(2,4,20)             113.1566         estimate D2E/DX2                !
 ! A19   A(3,4,7)              107.9277         estimate D2E/DX2                !
 ! A20   A(3,4,20)             108.6379         estimate D2E/DX2                !
 ! A21   A(7,4,20)             109.6319         estimate D2E/DX2                !
 ! A22   A(1,5,3)              109.8619         estimate D2E/DX2                !
 ! A23   A(1,5,14)             103.4045         estimate D2E/DX2                !
 ! A24   A(1,5,15)             111.7814         estimate D2E/DX2                !
 ! A25   A(3,5,14)             109.2362         estimate D2E/DX2                !
 ! A26   A(3,5,15)             109.1368         estimate D2E/DX2                !
 ! A27   A(14,5,15)            113.2757         estimate D2E/DX2                !
 ! A28   A(1,6,2)              110.1008         estimate D2E/DX2                !
 ! A29   A(1,6,8)              108.6533         estimate D2E/DX2                !
 ! A30   A(1,6,11)             111.3335         estimate D2E/DX2                !
 ! A31   A(2,6,8)              107.9155         estimate D2E/DX2                !
 ! A32   A(2,6,11)             111.6428         estimate D2E/DX2                !
 ! A33   A(8,6,11)             107.0431         estimate D2E/DX2                !
 ! A34   A(6,11,12)            109.6773         estimate D2E/DX2                !
 ! A35   A(6,11,13)            109.6047         estimate D2E/DX2                !
 ! A36   A(6,11,16)            110.6892         estimate D2E/DX2                !
 ! A37   A(12,11,13)           107.6671         estimate D2E/DX2                !
 ! A38   A(12,11,16)           107.4296         estimate D2E/DX2                !
 ! A39   A(13,11,16)           111.6888         estimate D2E/DX2                !
 ! A40   A(5,15,27)            117.2127         estimate D2E/DX2                !
 ! A41   A(11,16,17)           107.772          estimate D2E/DX2                !
 ! A42   A(3,18,19)            108.4724         estimate D2E/DX2                !
 ! A43   A(4,20,21)            107.6321         estimate D2E/DX2                !
 ! A44   A(2,22,23)            105.664          estimate D2E/DX2                !
 ! A45   A(25,24,26)           106.0458         estimate D2E/DX2                !
 ! A46   A(25,24,27)            91.7435         estimate D2E/DX2                !
 ! A47   A(26,24,27)           108.0955         estimate D2E/DX2                !
 ! A48   A(24,25,28)           157.9405         estimate D2E/DX2                !
 ! A49   A(15,27,24)           154.9821         estimate D2E/DX2                !
 ! A50   A(25,28,29)            97.4975         estimate D2E/DX2                !
 ! A51   A(25,28,30)           108.7111         estimate D2E/DX2                !
 ! A52   A(29,28,30)            99.8334         estimate D2E/DX2                !
 ! A53   A(1,29,28)            155.1928         estimate D2E/DX2                !
 ! D1    D(6,1,5,3)            -37.4845         estimate D2E/DX2                !
 ! D2    D(6,1,5,14)            79.0158         estimate D2E/DX2                !
 ! D3    D(6,1,5,15)          -158.7972         estimate D2E/DX2                !
 ! D4    D(29,1,5,3)            96.995          estimate D2E/DX2                !
 ! D5    D(29,1,5,14)         -146.5047         estimate D2E/DX2                !
 ! D6    D(29,1,5,15)          -24.3177         estimate D2E/DX2                !
 ! D7    D(5,1,6,2)             68.9599         estimate D2E/DX2                !
 ! D8    D(5,1,6,8)            -49.0269         estimate D2E/DX2                !
 ! D9    D(5,1,6,11)          -166.6683         estimate D2E/DX2                !
 ! D10   D(29,1,6,2)           -62.3735         estimate D2E/DX2                !
 ! D11   D(29,1,6,8)           179.6398         estimate D2E/DX2                !
 ! D12   D(29,1,6,11)           61.9984         estimate D2E/DX2                !
 ! D13   D(5,1,29,28)          -14.4714         estimate D2E/DX2                !
 ! D14   D(6,1,29,28)          118.1945         estimate D2E/DX2                !
 ! D15   D(6,2,4,3)            -29.1821         estimate D2E/DX2                !
 ! D16   D(6,2,4,7)           -146.3636         estimate D2E/DX2                !
 ! D17   D(6,2,4,20)            92.7233         estimate D2E/DX2                !
 ! D18   D(9,2,4,3)           -150.026          estimate D2E/DX2                !
 ! D19   D(9,2,4,7)             92.7925         estimate D2E/DX2                !
 ! D20   D(9,2,4,20)           -28.1205         estimate D2E/DX2                !
 ! D21   D(22,2,4,3)            94.7138         estimate D2E/DX2                !
 ! D22   D(22,2,4,7)           -22.4677         estimate D2E/DX2                !
 ! D23   D(22,2,4,20)         -143.3807         estimate D2E/DX2                !
 ! D24   D(4,2,6,1)            -31.4884         estimate D2E/DX2                !
 ! D25   D(4,2,6,8)             86.9527         estimate D2E/DX2                !
 ! D26   D(4,2,6,11)          -155.6816         estimate D2E/DX2                !
 ! D27   D(9,2,6,1)             88.2944         estimate D2E/DX2                !
 ! D28   D(9,2,6,8)           -153.2645         estimate D2E/DX2                !
 ! D29   D(9,2,6,11)           -35.8988         estimate D2E/DX2                !
 ! D30   D(22,2,6,1)          -156.3138         estimate D2E/DX2                !
 ! D31   D(22,2,6,8)           -37.8726         estimate D2E/DX2                !
 ! D32   D(22,2,6,11)           79.4931         estimate D2E/DX2                !
 ! D33   D(4,2,22,23)          -59.3203         estimate D2E/DX2                !
 ! D34   D(6,2,22,23)           65.6994         estimate D2E/DX2                !
 ! D35   D(9,2,22,23)         -176.1545         estimate D2E/DX2                !
 ! D36   D(5,3,4,2)             59.455          estimate D2E/DX2                !
 ! D37   D(5,3,4,7)            176.1126         estimate D2E/DX2                !
 ! D38   D(5,3,4,20)           -65.0856         estimate D2E/DX2                !
 ! D39   D(10,3,4,2)           179.424          estimate D2E/DX2                !
 ! D40   D(10,3,4,7)           -63.9184         estimate D2E/DX2                !
 ! D41   D(10,3,4,20)           54.8834         estimate D2E/DX2                !
 ! D42   D(18,3,4,2)           -61.8084         estimate D2E/DX2                !
 ! D43   D(18,3,4,7)            54.8492         estimate D2E/DX2                !
 ! D44   D(18,3,4,20)          173.651          estimate D2E/DX2                !
 ! D45   D(4,3,5,1)            -26.3999         estimate D2E/DX2                !
 ! D46   D(4,3,5,14)          -139.1752         estimate D2E/DX2                !
 ! D47   D(4,3,5,15)            96.4858         estimate D2E/DX2                !
 ! D48   D(10,3,5,1)          -148.0156         estimate D2E/DX2                !
 ! D49   D(10,3,5,14)           99.2091         estimate D2E/DX2                !
 ! D50   D(10,3,5,15)          -25.1299         estimate D2E/DX2                !
 ! D51   D(18,3,5,1)            89.3518         estimate D2E/DX2                !
 ! D52   D(18,3,5,14)          -23.4235         estimate D2E/DX2                !
 ! D53   D(18,3,5,15)         -147.7625         estimate D2E/DX2                !
 ! D54   D(4,3,18,19)          169.3595         estimate D2E/DX2                !
 ! D55   D(5,3,18,19)           48.2789         estimate D2E/DX2                !
 ! D56   D(10,3,18,19)         -72.3442         estimate D2E/DX2                !
 ! D57   D(2,4,20,21)           70.0421         estimate D2E/DX2                !
 ! D58   D(3,4,20,21)         -167.1413         estimate D2E/DX2                !
 ! D59   D(7,4,20,21)          -49.4174         estimate D2E/DX2                !
 ! D60   D(1,5,15,27)          -36.4733         estimate D2E/DX2                !
 ! D61   D(3,5,15,27)         -158.2046         estimate D2E/DX2                !
 ! D62   D(14,5,15,27)          79.8642         estimate D2E/DX2                !
 ! D63   D(1,6,11,12)           52.7335         estimate D2E/DX2                !
 ! D64   D(1,6,11,13)          -65.269          estimate D2E/DX2                !
 ! D65   D(1,6,11,16)          171.0987         estimate D2E/DX2                !
 ! D66   D(2,6,11,12)          176.2314         estimate D2E/DX2                !
 ! D67   D(2,6,11,13)           58.2289         estimate D2E/DX2                !
 ! D68   D(2,6,11,16)          -65.4034         estimate D2E/DX2                !
 ! D69   D(8,6,11,12)          -65.8779         estimate D2E/DX2                !
 ! D70   D(8,6,11,13)          176.1195         estimate D2E/DX2                !
 ! D71   D(8,6,11,16)           52.4872         estimate D2E/DX2                !
 ! D72   D(6,11,16,17)          37.0904         estimate D2E/DX2                !
 ! D73   D(12,11,16,17)        156.8141         estimate D2E/DX2                !
 ! D74   D(13,11,16,17)        -85.3339         estimate D2E/DX2                !
 ! D75   D(5,15,27,24)         122.0298         estimate D2E/DX2                !
 ! D76   D(26,24,25,28)       -127.9555         estimate D2E/DX2                !
 ! D77   D(27,24,25,28)        -18.5593         estimate D2E/DX2                !
 ! D78   D(25,24,27,15)        -48.629          estimate D2E/DX2                !
 ! D79   D(26,24,27,15)         58.8808         estimate D2E/DX2                !
 ! D80   D(24,25,28,29)        -30.2819         estimate D2E/DX2                !
 ! D81   D(24,25,28,30)         72.8059         estimate D2E/DX2                !
 ! D82   D(25,28,29,1)          76.6708         estimate D2E/DX2                !
 ! D83   D(30,28,29,1)         -33.8898         estimate D2E/DX2                !
 --------------------------------------------------------------------------------
 Trust Radius=3.00D-01 FncErr=1.00D-07 GrdErr=1.00D-06
 Number of steps in this run=    177 maximum allowed number of steps=    180.
 GradGradGradGradGradGradGradGradGradGradGradGradGradGradGradGradGradGrad

                          Input orientation:                          
 ---------------------------------------------------------------------
 Center     Atomic      Atomic             Coordinates (Angstroms)
 Number     Number       Type             X           Y           Z
 ---------------------------------------------------------------------
      1          8           0        0.392617    0.703616   -0.646450
      2          6           0       -1.416304   -0.180517    0.735235
      3          6           0        0.200309   -1.780102   -0.372906
      4          6           0       -0.419025   -1.345867    0.960441
      5          6           0        0.966881   -0.614498   -1.074477
      6          6           0       -1.029396    0.685762   -0.486705
      7          1           0       -0.995726   -2.191892    1.356625
      8          1           0       -1.477643    0.229499   -1.379965
      9          1           0       -1.421241    0.438565    1.640997
     10          1           0        0.913628   -2.597336   -0.215022
     11          6           0       -1.596602    2.107506   -0.375023
     12          1           0       -1.248972    2.710455   -1.219909
     13          1           0       -1.226564    2.582150    0.549820
     14          1           0        0.759267   -0.643922   -2.163447
     15          8           0        2.285045   -0.708327   -0.778265
     16          8           0       -3.015919    2.086685   -0.422690
     17          1           0       -3.318093    1.294230    0.057449
     18          8           0       -0.936115   -2.224979   -1.131788
     19          1           0       -0.657801   -2.360557   -2.051156
     20          8           0        0.636157   -1.015878    1.868861
     21          1           0        0.248941   -0.943747    2.755206
     22          8           0       -2.757870   -0.653563    0.594178
     23          1           0       -2.745777   -1.254360   -0.173481
     24          8           0        3.758166    1.222889   -0.379569
     25          1           0        3.181389    1.385870    0.430934
     26          1           0        4.569836    0.807814   -0.051562
     27          1           0        2.842862    0.135827   -0.869210
     28          8           0        1.949952    1.347915    1.300386
     29          1           0        1.282622    1.357604    0.578180
     30          1           0        1.826684    0.437302    1.629011
 ---------------------------------------------------------------------
                    Distance matrix (angstroms):
                    1          2          3          4          5
     1  O    0.000000
     2  C    2.441913   0.000000
     3  C    2.506125   2.529839   0.000000
     4  C    2.727864   1.550266   1.532954   0.000000
     5  C    1.500137   3.023734   1.561559   2.568371   0.000000
     6  C    1.431069   1.547021   2.757827   2.567937   2.453828
     7  H    3.784676   2.146775   2.142743   1.097863   3.500036
     8  H    2.064147   2.155446   2.805029   3.013296   2.604103
     9  H    2.931339   1.097129   3.407009   2.156801   3.766413
    10  H    3.369550   3.488923   1.096186   2.173442   2.161746
    11  C    2.449811   2.549555   4.282802   3.885349   3.803944
    12  H    2.655386   3.494039   4.794052   4.679368   3.998308
    13  H    2.753489   2.775375   4.681520   4.031135   4.203344
    14  H    2.061934   3.653794   2.193029   3.411711   1.108975
    15  O    2.364792   4.033516   2.378895   3.277430   1.354290
    16  O    3.685250   3.006620   5.029776   4.520987   4.856327
    17  H    3.822783   2.500215   4.692108   4.023693   4.825505
    18  O    3.252345   2.810014   1.437107   2.327583   2.493657
    19  H    3.530685   3.618270   1.972259   3.186899   2.577250
    20  O    3.056593   2.489083   2.408219   1.430919   2.988933
    21  H    3.782289   2.726874   3.238354   1.956799   3.910283
    22  O    3.647830   1.429500   3.309859   2.466501   4.081630
    23  H    3.729194   1.935562   2.999266   2.589967   3.873635
    24  O    3.415815   5.476082   4.655786   5.083607   3.413233
    25  H    3.066509   4.866718   4.422259   4.550357   3.342421
    26  H    4.220653   6.117983   5.088550   5.527316   4.006321
    27  H    2.525016   4.562325   3.301543   4.022803   2.030868
    28  O    2.574992   3.739944   3.955458   3.603342   3.233801
    29  H    1.649099   3.110415   3.452704   3.217216   2.592326
    30  H    2.702812   3.420162   3.401419   2.944467   3.025623
                    6          7          8          9         10
     6  C    0.000000
     7  H    3.417586   0.000000
     8  H    1.098642   3.685689   0.000000
     9  H    2.177559   2.679783   3.028713   0.000000
    10  H    3.824642   2.506011   3.881529   4.255950   0.000000
    11  C    1.534781   4.673808   2.133300   2.623062   5.335016
    12  H    2.164528   5.543976   2.496608   3.657314   5.818873
    13  H    2.170149   4.847236   3.053208   2.413198   5.656190
    14  H    2.789057   4.226951   2.525960   4.516657   2.763334
    15  O    3.607494   4.185950   3.924205   4.572171   2.401329
    16  O    2.431657   5.055033   2.594573   3.085142   6.117558
    17  H    2.429912   4.385692   2.566528   2.614925   5.755518
    18  O    2.982825   2.489347   2.525729   3.875326   2.097775
    19  H    3.444655   3.428646   2.798397   4.695734   2.428341
    20  O    3.349379   2.075677   4.071116   2.529864   2.630697
    21  H    3.847003   2.250131   4.632196   2.437572   3.463874
    22  O    2.439205   2.460271   2.513169   2.018700   4.232370
    23  H    2.609242   2.506565   2.294691   2.812956   3.898276
    24  O    4.818790   6.105292   5.422298   5.614633   4.765773
    25  H    4.366111   5.577237   5.130607   4.852406   4.628815
    26  H    5.617441   6.477400   6.218610   6.236514   4.998962
    27  H    3.929774   5.010726   4.351598   4.957355   3.408825
    28  O    3.536758   4.605477   4.492610   3.508258   4.351486
    29  H    2.632637   4.289029   3.567354   3.047144   4.050540
    30  H    3.563030   3.866892   4.473890   3.247947   3.666491
                   11         12         13         14         15
    11  C    0.000000
    12  H    1.094635   0.000000
    13  H    1.103426   1.774515   0.000000
    14  H    4.039670   4.021832   4.659708   0.000000
    15  O    4.812349   4.936841   4.992239   2.061765   0.000000
    16  O    1.420270   2.036357   2.095961   4.973779   6.003228
    17  H    1.952430   2.814000   2.505127   5.031270   6.008644
    18  O    4.447400   4.946125   5.101045   2.537397   3.577860
    19  H    4.863574   5.172583   5.614171   2.228795   3.607001
    20  O    4.446994   5.194205   4.260916   4.051298   3.133799
    21  H    4.744945   5.603434   4.412799   4.954137   4.084919
    22  O    3.148237   4.109051   3.580043   4.469322   5.226623
    23  H    3.558562   4.365226   4.189270   4.076510   5.096380
    24  O    5.427348   5.290601   5.249656   3.957348   2.461430
    25  H    4.898931   4.909980   4.568946   4.088709   2.579003
    26  H    6.310213   6.232464   6.091649   4.592171   2.836732
    27  H    4.882682   4.847144   4.955640   2.573796   1.015887
    28  O    3.995250   4.294359   3.489547   4.169327   2.942993
    29  H    3.124241   3.387078   2.792191   3.434607   2.666996
    30  H    4.304024   4.768986   3.884244   4.085482   2.705095
                   16         17         18         19         20
    16  O    0.000000
    17  H    0.974591   0.000000
    18  O    4.839303   4.412815   0.000000
    19  H    5.290613   4.988069   0.970092   0.000000
    20  O    5.311757   4.924825   3.596924   4.341546   0.000000
    21  H    5.471915   5.001016   4.260826   5.092214   0.969921
    22  O    2.934207   2.096622   2.960929   3.784430   3.643557
    23  H    3.361200   2.622248   2.266127   3.018109   3.957968
    24  O    6.829072   7.090100   5.872810   5.927567   4.451343
    25  H    6.294954   6.510849   5.695101   5.910657   3.783416
    26  H    7.701748   7.903664   6.378105   6.431574   4.742121
    27  H    6.191166   6.337031   4.463521   4.459100   3.700406
    28  O    5.307980   5.412954   5.197155   5.637905   2.763465
    29  H    4.473338   4.630524   4.547712   4.950088   2.777983
    30  H    5.511873   5.447280   4.726818   5.248267   1.893836
                   21         22         23         24         25
    21  H    0.000000
    22  O    3.714184   0.000000
    23  H    4.200241   0.974886   0.000000
    24  O    5.180327   6.850400   6.962795   0.000000
    25  H    4.407789   6.281778   6.516704   1.008042   0.000000
    26  H    5.442063   7.499859   7.601685   0.968857   1.579473
    27  H    4.585880   5.842332   5.800823   1.503075   1.835097
    28  O    3.203382   5.164129   5.567225   2.471339   1.507921
    29  H    3.332290   4.513383   4.859563   2.657772   1.904678
    30  H    2.380102   4.824832   5.197894   2.895197   2.042155
                   26         27         28         29         30
    26  H    0.000000
    27  H    2.025476   0.000000
    28  O    2.997209   2.640756   0.000000
    29  H    3.391846   2.453982   0.983364   0.000000
    30  H    3.238285   2.713782   0.975913   1.499068   0.000000
 Stoichiometry    C6H16O8
 Framework group  C1[X(C6H16O8)]
 Deg. of freedom    84
 Full point group                 C1      NOp   1
 Largest Abelian subgroup         C1      NOp   1
 Largest concise Abelian subgroup C1      NOp   1
                         Standard orientation:                         
 ---------------------------------------------------------------------
 Center     Atomic      Atomic             Coordinates (Angstroms)
 Number     Number       Type             X           Y           Z
 ---------------------------------------------------------------------
      1          8           0        0.381946    0.693621   -0.654364
      2          6           0       -1.425550   -0.178690    0.736668
      3          6           0        0.182553   -1.788254   -0.369402
      4          6           0       -0.431310   -1.346237    0.963918
      5          6           0        0.950689   -0.628176   -1.078384
      6          6           0       -1.039622    0.681018   -0.490212
      7          1           0       -1.009492   -2.188678    1.365544
      8          1           0       -1.492053    0.222309   -1.380104
      9          1           0       -1.425741    0.444342    1.639732
     10          1           0        0.893741   -2.607074   -0.210128
     11          6           0       -1.601945    2.105044   -0.383007
     12          1           0       -1.254980    2.703193   -1.231570
     13          1           0       -1.227566    2.582522    0.538625
     14          1           0        0.739651   -0.661675   -2.166578
     15          8           0        2.269448   -0.724937   -0.785782
     16          8           0       -3.021460    2.088563   -0.426259
     17          1           0       -3.324690    1.299178    0.058251
     18          8           0       -0.957601   -2.232787   -1.122871
     19          1           0       -0.682535   -2.373257   -2.042482
     20          8           0        0.627694   -1.015679    1.867671
     21          1           0        0.243425   -0.938450    2.754868
     22          8           0       -2.769044   -0.648045    0.601764
     23          1           0       -2.761217   -1.252214   -0.163300
     24          8           0        3.749935    1.203267   -0.400004
     25          1           0        3.176163    1.371622    0.411533
     26          1           0        4.561276    0.787026   -0.072663
     27          1           0        2.829674    0.117022   -0.882107
     28          8           0        1.947278    1.341397    1.284890
     29          1           0        1.277775    1.350079    0.564684
     30          1           0        1.822112    0.432622    1.617858
 ---------------------------------------------------------------------
 Rotational constants (GHZ):      0.8384925      0.4993800      0.4140833
 Standard basis: 6-31G(d) (6D, 7F)
 There are   242 symmetry adapted cartesian basis functions of A   symmetry.
 There are   242 symmetry adapted basis functions of A   symmetry.
   242 basis functions,   456 primitive gaussians,   242 cartesian basis functions
    58 alpha electrons       58 beta electrons
       nuclear repulsion energy      1134.9172530418 Hartrees.
 NAtoms=   30 NActive=   30 NUniq=   30 SFac= 1.00D+00 NAtFMM=   60 NAOKFM=F Big=F
 Integral buffers will be    131072 words long.
 Raffenetti 2 integral format.
 Two-electron integral symmetry is turned on.
 One-electron integrals computed using PRISM.
 NBasis=   242 RedAO= T EigKep=  1.56D-03  NBF=   242
 NBsUse=   242 1.00D-06 EigRej= -1.00D+00 NBFU=   242
 ExpMin= 1.61D-01 ExpMax= 5.48D+03 ExpMxC= 8.25D+02 IAcc=1 IRadAn=         1 AccDes= 0.00D+00
 Harris functional with IExCor=  402 and IRadAn=       1 diagonalized for initial guess.
 HarFok:  IExCor=  402 AccDes= 0.00D+00 IRadAn=         1 IDoV= 1 UseB2=F ITyADJ=14
 ICtDFT=  3500011 ScaDFX=  1.000000  1.000000  1.000000  1.000000
 FoFCou: FMM=F IPFlag=           0 FMFlag=      100000 FMFlg1=           0
         NFxFlg=           0 DoJE=T BraDBF=F KetDBF=T FulRan=T
         wScrn=  0.000000 ICntrl=     500 IOpCl=  0 I1Cent=   200000004 NGrid=           0
         NMat0=    1 NMatS0=      1 NMatT0=    0 NMatD0=    1 NMtDS0=    0 NMtDT0=    0
 Petite list used in FoFCou.
 Requested convergence on RMS density matrix=1.00D-08 within 128 cycles.
 Requested convergence on MAX density matrix=1.00D-06.
 Requested convergence on             energy=1.00D-06.
 No special actions if energy rises.
 Integral accuracy reduced to 1.0D-05 until final iterations.
 Initial convergence to 1.0D-05 achieved.  Increase integral accuracy.
 SCF Done:  E(RB3LYP) =  -839.983215100     A.U. after   14 cycles
            NFock= 14  Conv=0.45D-08     -V/T= 2.0085

 **********************************************************************

            Population analysis using the SCF density.

 **********************************************************************

 Orbital symmetries:
       Occupied  (A) (A) (A) (A) (A) (A) (A) (A) (A) (A) (A) (A)
                 (A) (A) (A) (A) (A) (A) (A) (A) (A) (A) (A) (A)
                 (A) (A) (A) (A) (A) (A) (A) (A) (A) (A) (A) (A)
                 (A) (A) (A) (A) (A) (A) (A) (A) (A) (A) (A) (A)
                 (A) (A) (A) (A) (A) (A) (A) (A) (A) (A)
       Virtual   (A) (A) (A) (A) (A) (A) (A) (A) (A) (A) (A) (A)
                 (A) (A) (A) (A) (A) (A) (A) (A) (A) (A) (A) (A)
                 (A) (A) (A) (A) (A) (A) (A) (A) (A) (A) (A) (A)
                 (A) (A) (A) (A) (A) (A) (A) (A) (A) (A) (A) (A)
                 (A) (A) (A) (A) (A) (A) (A) (A) (A) (A) (A) (A)
                 (A) (A) (A) (A) (A) (A) (A) (A) (A) (A) (A) (A)
                 (A) (A) (A) (A) (A) (A) (A) (A) (A) (A) (A) (A)
                 (A) (A) (A) (A) (A) (A) (A) (A) (A) (A) (A) (A)
                 (A) (A) (A) (A) (A) (A) (A) (A) (A) (A) (A) (A)
                 (A) (A) (A) (A) (A) (A) (A) (A) (A) (A) (A) (A)
                 (A) (A) (A) (A) (A) (A) (A) (A) (A) (A) (A) (A)
                 (A) (A) (A) (A) (A) (A) (A) (A) (A) (A) (A) (A)
                 (A) (A) (A) (A) (A) (A) (A) (A) (A) (A) (A) (A)
                 (A) (A) (A) (A) (A) (A) (A) (A) (A) (A) (A) (A)
                 (A) (A) (A) (A) (A) (A) (A) (A) (A) (A) (A) (A)
                 (A) (A) (A) (A)
 The electronic state is 1-A.
 Alpha  occ. eigenvalues --  -19.18613 -19.18391 -19.17553 -19.17106 -19.13638
 Alpha  occ. eigenvalues --  -19.13318 -19.13012 -19.12838 -10.30295 -10.26435
 Alpha  occ. eigenvalues --  -10.26010 -10.25617 -10.25068 -10.23395  -1.07712
 Alpha  occ. eigenvalues --   -1.05437  -1.04852  -1.04215  -1.01428  -1.00785
 Alpha  occ. eigenvalues --   -1.00302  -0.97626  -0.79166  -0.76789  -0.69699
 Alpha  occ. eigenvalues --   -0.66783  -0.63082  -0.59141  -0.57437  -0.54681
 Alpha  occ. eigenvalues --   -0.53795  -0.52685  -0.52306  -0.50775  -0.50188
 Alpha  occ. eigenvalues --   -0.49062  -0.47094  -0.45504  -0.44604  -0.42618
 Alpha  occ. eigenvalues --   -0.42238  -0.40542  -0.40205  -0.39705  -0.38961
 Alpha  occ. eigenvalues --   -0.37659  -0.37153  -0.35792  -0.33661  -0.33335
 Alpha  occ. eigenvalues --   -0.32075  -0.31042  -0.29654  -0.28798  -0.28261
 Alpha  occ. eigenvalues --   -0.27490  -0.26542  -0.25674
 Alpha virt. eigenvalues --    0.02548   0.05566   0.06867   0.08786   0.09074
 Alpha virt. eigenvalues --    0.09875   0.11311   0.12459   0.12605   0.13678
 Alpha virt. eigenvalues --    0.15477   0.16038   0.16860   0.18552   0.18733
 Alpha virt. eigenvalues --    0.20118   0.20554   0.21685   0.23226   0.23732
 Alpha virt. eigenvalues --    0.24896   0.25605   0.27364   0.28648   0.30154
 Alpha virt. eigenvalues --    0.31411   0.32640   0.33212   0.51667   0.52945
 Alpha virt. eigenvalues --    0.53876   0.55500   0.56407   0.56821   0.57854
 Alpha virt. eigenvalues --    0.58272   0.60914   0.61915   0.63605   0.65086
 Alpha virt. eigenvalues --    0.67105   0.69375   0.72711   0.73311   0.73840
 Alpha virt. eigenvalues --    0.75279   0.77030   0.77309   0.79308   0.79882
 Alpha virt. eigenvalues --    0.81074   0.81901   0.82377   0.83979   0.84724
 Alpha virt. eigenvalues --    0.85811   0.86720   0.87357   0.88737   0.89031
 Alpha virt. eigenvalues --    0.89698   0.91501   0.92776   0.93660   0.94339
 Alpha virt. eigenvalues --    0.96389   0.97089   0.98763   1.00666   1.02866
 Alpha virt. eigenvalues --    1.04413   1.05872   1.07528   1.08122   1.08558
 Alpha virt. eigenvalues --    1.10158   1.12967   1.15012   1.15154   1.18155
 Alpha virt. eigenvalues --    1.20217   1.21001   1.23306   1.25125   1.26891
 Alpha virt. eigenvalues --    1.31265   1.32856   1.33400   1.34776   1.38115
 Alpha virt. eigenvalues --    1.40446   1.42409   1.43476   1.47197   1.48601
 Alpha virt. eigenvalues --    1.50375   1.53014   1.53755   1.55567   1.59230
 Alpha virt. eigenvalues --    1.59542   1.61539   1.64089   1.66139   1.69906
 Alpha virt. eigenvalues --    1.71401   1.72301   1.73669   1.74518   1.75121
 Alpha virt. eigenvalues --    1.76281   1.77269   1.77831   1.78775   1.80048
 Alpha virt. eigenvalues --    1.80485   1.81638   1.82392   1.83492   1.85855
 Alpha virt. eigenvalues --    1.88511   1.90416   1.91278   1.92875   1.96921
 Alpha virt. eigenvalues --    1.99340   2.00323   2.01990   2.02593   2.04975
 Alpha virt. eigenvalues --    2.05052   2.07941   2.09015   2.11374   2.12939
 Alpha virt. eigenvalues --    2.16178   2.18310   2.21373   2.26025   2.27166
 Alpha virt. eigenvalues --    2.31122   2.33376   2.35107   2.36844   2.38922
 Alpha virt. eigenvalues --    2.39875   2.42398   2.44446   2.46201   2.47672
 Alpha virt. eigenvalues --    2.51159   2.51544   2.54474   2.57239   2.58582
 Alpha virt. eigenvalues --    2.61208   2.63142   2.66853   2.69431   2.71544
 Alpha virt. eigenvalues --    2.74161   2.78377   2.81129   2.84463   2.88283
 Alpha virt. eigenvalues --    2.89980   2.92578   3.01056   3.04152   3.11000
 Alpha virt. eigenvalues --    3.71827   3.75975   3.80066   3.85089   3.92372
 Alpha virt. eigenvalues --    3.98205   4.02206   4.17554   4.30798   4.38587
 Alpha virt. eigenvalues --    4.42851   4.56699   4.66884   4.76738
          Condensed to atoms (all electrons):
               1          2          3          4          5          6
     1  O    8.470026  -0.040157  -0.029209   0.000430   0.155242   0.132670
     2  C   -0.040157   5.108451  -0.032840   0.303987  -0.021423   0.279887
     3  C   -0.029209  -0.032840   5.090798   0.337501   0.266036  -0.007210
     4  C    0.000430   0.303987   0.337501   4.949307  -0.028048  -0.042330
     5  C    0.155242  -0.021423   0.266036  -0.028048   4.674894  -0.010108
     6  C    0.132670   0.279887  -0.007210  -0.042330  -0.010108   5.037728
     7  H    0.000011  -0.064684  -0.039678   0.365658   0.004780   0.006042
     8  H   -0.031996  -0.068723  -0.004621  -0.004905  -0.005771   0.351011
     9  H    0.002621   0.361679   0.003757  -0.047654   0.000703  -0.046101
    10  H    0.003120   0.005493   0.355508  -0.035951  -0.047827   0.000303
    11  C   -0.026381  -0.030595   0.000132   0.003342   0.001389   0.347234
    12  H    0.002728   0.006455   0.000031  -0.000130  -0.000076  -0.030761
    13  H    0.002249  -0.016918   0.000012  -0.000248  -0.000104  -0.040674
    14  H   -0.054840   0.000154  -0.092492   0.003773   0.373926  -0.003678
    15  O   -0.043392   0.000494  -0.040934  -0.001903   0.293107   0.001916
    16  O    0.001253   0.003804   0.000001   0.000122  -0.000014  -0.031413
    17  H    0.000088   0.001003  -0.000006   0.000577  -0.000018  -0.009268
    18  O    0.000876   0.003912   0.186440  -0.048852  -0.027703  -0.005719
    19  H   -0.000379  -0.000198  -0.030153   0.006840  -0.002329  -0.000279
    20  O   -0.001651  -0.037887  -0.041586   0.195874   0.002307   0.001881
    21  H    0.000100  -0.002257   0.006452  -0.019054  -0.000015  -0.000207
    22  O    0.001582   0.194654   0.000144  -0.027062   0.000316  -0.031969
    23  H    0.000017  -0.030562  -0.001436  -0.007448   0.000379  -0.004846
    24  O   -0.000159   0.000001  -0.000104   0.000002   0.000991   0.000009
    25  H    0.000853  -0.000012   0.000033   0.000004  -0.000254  -0.000023
    26  H    0.000020  -0.000000  -0.000001  -0.000000   0.000026  -0.000000
    27  H    0.003498  -0.000022   0.004490  -0.000125  -0.009625  -0.000050
    28  O   -0.040955   0.000182  -0.000472   0.001257   0.005601   0.003377
    29  H    0.061770  -0.000243  -0.000070  -0.000544  -0.003620  -0.006371
    30  H    0.002932   0.000440  -0.001738  -0.003018   0.000413  -0.000161
               7          8          9         10         11         12
     1  O    0.000011  -0.031996   0.002621   0.003120  -0.026381   0.002728
     2  C   -0.064684  -0.068723   0.361679   0.005493  -0.030595   0.006455
     3  C   -0.039678  -0.004621   0.003757   0.355508   0.000132   0.000031
     4  C    0.365658  -0.004905  -0.047654  -0.035951   0.003342  -0.000130
     5  C    0.004780  -0.005771   0.000703  -0.047827   0.001389  -0.000076
     6  C    0.006042   0.351011  -0.046101   0.000303   0.347234  -0.030761
     7  H    0.602234  -0.000338   0.000207  -0.006904  -0.000152   0.000004
     8  H   -0.000338   0.632247   0.005907   0.000234  -0.042054  -0.008210
     9  H    0.000207   0.005907   0.595442  -0.000172  -0.006479   0.000082
    10  H   -0.006904   0.000234  -0.000172   0.580471   0.000015  -0.000001
    11  C   -0.000152  -0.042054  -0.006479   0.000015   4.832476   0.370602
    12  H    0.000004  -0.008210   0.000082  -0.000001   0.370602   0.585654
    13  H   -0.000006   0.007118   0.006616  -0.000000   0.351915  -0.049311
    14  H   -0.000218   0.008971   0.000030   0.002886  -0.000273  -0.000044
    15  O   -0.000128   0.000003   0.000005   0.006783  -0.000052  -0.000000
    16  O    0.000002   0.005246   0.000123  -0.000000   0.268346  -0.038025
    17  H    0.000005   0.000042  -0.001257   0.000001  -0.035482   0.005330
    18  O    0.002110   0.008769   0.000100  -0.032171   0.000324  -0.000001
    19  H   -0.000213   0.001379   0.000018  -0.001860  -0.000023  -0.000000
    20  O   -0.027657  -0.000065   0.001493   0.003480  -0.000094   0.000002
    21  H   -0.006884   0.000015   0.004778  -0.000222  -0.000009  -0.000000
    22  O    0.007462   0.001842  -0.036571  -0.000138  -0.000803  -0.000226
    23  H    0.001063   0.006491   0.006612   0.000094  -0.000150   0.000020
    24  O   -0.000000  -0.000000   0.000000   0.000002  -0.000001  -0.000000
    25  H    0.000000   0.000001  -0.000001  -0.000004   0.000003   0.000000
    26  H    0.000000   0.000000  -0.000000  -0.000001   0.000000   0.000000
    27  H    0.000008  -0.000020  -0.000003  -0.000090   0.000002   0.000003
    28  O   -0.000034  -0.000080   0.000293   0.000026  -0.000191   0.000006
    29  H    0.000024   0.000952   0.000820  -0.000093  -0.001383  -0.000054
    30  H    0.000297   0.000019   0.000074   0.000054  -0.000020   0.000000
              13         14         15         16         17         18
     1  O    0.002249  -0.054840  -0.043392   0.001253   0.000088   0.000876
     2  C   -0.016918   0.000154   0.000494   0.003804   0.001003   0.003912
     3  C    0.000012  -0.092492  -0.040934   0.000001  -0.000006   0.186440
     4  C   -0.000248   0.003773  -0.001903   0.000122   0.000577  -0.048852
     5  C   -0.000104   0.373926   0.293107  -0.000014  -0.000018  -0.027703
     6  C   -0.040674  -0.003678   0.001916  -0.031413  -0.009268  -0.005719
     7  H   -0.000006  -0.000218  -0.000128   0.000002   0.000005   0.002110
     8  H    0.007118   0.008971   0.000003   0.005246   0.000042   0.008769
     9  H    0.006616   0.000030   0.000005   0.000123  -0.001257   0.000100
    10  H   -0.000000   0.002886   0.006783  -0.000000   0.000001  -0.032171
    11  C    0.351915  -0.000273  -0.000052   0.268346  -0.035482   0.000324
    12  H   -0.049311  -0.000044  -0.000000  -0.038025   0.005330  -0.000001
    13  H    0.644805   0.000006   0.000003  -0.039377  -0.000433  -0.000006
    14  H    0.000006   0.690091  -0.042992   0.000001   0.000001   0.001565
    15  O    0.000003  -0.042992   8.382394   0.000000   0.000000   0.001405
    16  O   -0.039377   0.000001   0.000000   8.248656   0.231807  -0.000002
    17  H   -0.000433   0.000001   0.000000   0.231807   0.358616  -0.000001
    18  O   -0.000006   0.001565   0.001405  -0.000002  -0.000001   8.307414
    19  H    0.000001   0.011510  -0.000057   0.000000  -0.000002   0.235542
    20  O   -0.000020   0.000007   0.000501   0.000000  -0.000009   0.001144
    21  H    0.000006   0.000012   0.000093   0.000000  -0.000002  -0.000100
    22  O    0.000294   0.000026  -0.000000  -0.009476   0.037032  -0.005609
    23  H    0.000017  -0.000016  -0.000002   0.000562  -0.001172   0.022926
    24  O    0.000001   0.000044  -0.066134  -0.000000  -0.000000   0.000000
    25  H   -0.000006   0.000051   0.008418   0.000000  -0.000000  -0.000000
    26  H   -0.000000   0.000009   0.004440  -0.000000  -0.000000  -0.000000
    27  H   -0.000002  -0.004872   0.159942   0.000000   0.000000  -0.000044
    28  O    0.000317  -0.000085  -0.003624   0.000000  -0.000000   0.000000
    29  H    0.002868   0.000838   0.001308   0.000007   0.000004  -0.000012
    30  H   -0.000014   0.000159   0.005770  -0.000000   0.000000   0.000009
              19         20         21         22         23         24
     1  O   -0.000379  -0.001651   0.000100   0.001582   0.000017  -0.000159
     2  C   -0.000198  -0.037887  -0.002257   0.194654  -0.030562   0.000001
     3  C   -0.030153  -0.041586   0.006452   0.000144  -0.001436  -0.000104
     4  C    0.006840   0.195874  -0.019054  -0.027062  -0.007448   0.000002
     5  C   -0.002329   0.002307  -0.000015   0.000316   0.000379   0.000991
     6  C   -0.000279   0.001881  -0.000207  -0.031969  -0.004846   0.000009
     7  H   -0.000213  -0.027657  -0.006884   0.007462   0.001063  -0.000000
     8  H    0.001379  -0.000065   0.000015   0.001842   0.006491  -0.000000
     9  H    0.000018   0.001493   0.004778  -0.036571   0.006612   0.000000
    10  H   -0.001860   0.003480  -0.000222  -0.000138   0.000094   0.000002
    11  C   -0.000023  -0.000094  -0.000009  -0.000803  -0.000150  -0.000001
    12  H   -0.000000   0.000002  -0.000000  -0.000226   0.000020  -0.000000
    13  H    0.000001  -0.000020   0.000006   0.000294   0.000017   0.000001
    14  H    0.011510   0.000007   0.000012   0.000026  -0.000016   0.000044
    15  O   -0.000057   0.000501   0.000093  -0.000000  -0.000002  -0.066134
    16  O    0.000000   0.000000   0.000000  -0.009476   0.000562  -0.000000
    17  H   -0.000002  -0.000009  -0.000002   0.037032  -0.001172  -0.000000
    18  O    0.235542   0.001144  -0.000100  -0.005609   0.022926   0.000000
    19  H    0.373902  -0.000091   0.000008   0.000262  -0.000700   0.000000
    20  O   -0.000091   8.274575   0.232090   0.001446   0.000020  -0.000017
    21  H    0.000008   0.232090   0.374787   0.000033   0.000007   0.000001
    22  O    0.000262   0.001446   0.000033   8.273819   0.233893   0.000000
    23  H   -0.000700   0.000020   0.000007   0.233893   0.356765  -0.000000
    24  O    0.000000  -0.000017   0.000001   0.000000  -0.000000   8.423502
    25  H    0.000000   0.000114  -0.000007  -0.000000   0.000000   0.181596
    26  H    0.000000   0.000002  -0.000000  -0.000000   0.000000   0.234281
    27  H   -0.000021   0.000059  -0.000013  -0.000000   0.000000   0.108738
    28  O   -0.000000  -0.016824   0.001315   0.000001  -0.000000  -0.070349
    29  H    0.000004   0.001501   0.000124   0.000005   0.000004   0.005966
    30  H    0.000001   0.043099  -0.002522  -0.000001   0.000001   0.003720
              25         26         27         28         29         30
     1  O    0.000853   0.000020   0.003498  -0.040955   0.061770   0.002932
     2  C   -0.000012  -0.000000  -0.000022   0.000182  -0.000243   0.000440
     3  C    0.000033  -0.000001   0.004490  -0.000472  -0.000070  -0.001738
     4  C    0.000004  -0.000000  -0.000125   0.001257  -0.000544  -0.003018
     5  C   -0.000254   0.000026  -0.009625   0.005601  -0.003620   0.000413
     6  C   -0.000023  -0.000000  -0.000050   0.003377  -0.006371  -0.000161
     7  H    0.000000   0.000000   0.000008  -0.000034   0.000024   0.000297
     8  H    0.000001   0.000000  -0.000020  -0.000080   0.000952   0.000019
     9  H   -0.000001  -0.000000  -0.000003   0.000293   0.000820   0.000074
    10  H   -0.000004  -0.000001  -0.000090   0.000026  -0.000093   0.000054
    11  C    0.000003   0.000000   0.000002  -0.000191  -0.001383  -0.000020
    12  H    0.000000   0.000000   0.000003   0.000006  -0.000054   0.000000
    13  H   -0.000006  -0.000000  -0.000002   0.000317   0.002868  -0.000014
    14  H    0.000051   0.000009  -0.004872  -0.000085   0.000838   0.000159
    15  O    0.008418   0.004440   0.159942  -0.003624   0.001308   0.005770
    16  O    0.000000  -0.000000   0.000000   0.000000   0.000007  -0.000000
    17  H   -0.000000  -0.000000   0.000000  -0.000000   0.000004   0.000000
    18  O   -0.000000  -0.000000  -0.000044   0.000000  -0.000012   0.000009
    19  H    0.000000   0.000000  -0.000021  -0.000000   0.000004   0.000001
    20  O    0.000114   0.000002   0.000059  -0.016824   0.001501   0.043099
    21  H   -0.000007  -0.000000  -0.000013   0.001315   0.000124  -0.002522
    22  O   -0.000000  -0.000000  -0.000000   0.000001   0.000005  -0.000001
    23  H    0.000000   0.000000   0.000000  -0.000000   0.000004   0.000001
    24  O    0.181596   0.234281   0.108738  -0.070349   0.005966   0.003720
    25  H    0.309979  -0.007071  -0.014891   0.092697  -0.008661  -0.003513
    26  H   -0.007071   0.381978  -0.008717   0.003532  -0.000282  -0.000046
    27  H   -0.014891  -0.008717   0.312112   0.005854  -0.000082  -0.000947
    28  O    0.092697   0.003532   0.005854   8.425505   0.218340   0.232966
    29  H   -0.008661  -0.000282  -0.000082   0.218340   0.314926  -0.026506
    30  H   -0.003513  -0.000046  -0.000947   0.232966  -0.026506   0.323268
 Mulliken charges:
               1
     1  O   -0.572966
     2  C    0.075926
     3  C    0.071217
     4  C    0.098601
     5  C    0.376828
     6  C    0.109114
     7  H    0.156989
     8  H    0.136536
     9  H    0.146879
    10  H    0.166965
    11  C   -0.031638
    12  H    0.155924
    13  H    0.130893
    14  H    0.105450
    15  O   -0.667362
    16  O   -0.641626
    17  H    0.413144
    18  O   -0.652317
    19  H    0.406838
    20  O   -0.633693
    21  H    0.411471
    22  O   -0.640955
    23  H    0.417462
    24  O   -0.822091
    25  H    0.440694
    26  H    0.391832
    27  H    0.444818
    28  O   -0.858654
    29  H    0.438459
    30  H    0.425262
 Sum of Mulliken charges =  -0.00000
 Mulliken charges with hydrogens summed into heavy atoms:
               1
     1  O   -0.572966
     2  C    0.222805
     3  C    0.238182
     4  C    0.255591
     5  C    0.482278
     6  C    0.245649
    11  C    0.255178
    15  O   -0.222544
    16  O   -0.228482
    18  O   -0.245479
    20  O   -0.222222
    22  O   -0.223493
    24  O    0.010435
    28  O    0.005067
 Electronic spatial extent (au):  <R**2>=           2973.8824
 Charge=             -0.0000 electrons
 Dipole moment (field-independent basis, Debye):
    X=              0.1201    Y=             -4.0504    Z=              0.6551  Tot=              4.1048
 Quadrupole moment (field-independent basis, Debye-Ang):
   XX=            -92.3718   YY=            -89.8546   ZZ=            -74.0178
   XY=              2.1052   XZ=              2.0898   YZ=              2.7714
 Traceless Quadrupole moment (field-independent basis, Debye-Ang):
   XX=             -6.9571   YY=             -4.4399   ZZ=             11.3969
   XY=              2.1052   XZ=              2.0898   YZ=              2.7714
 Octapole moment (field-independent basis, Debye-Ang**2):
  XXX=             76.8560  YYY=            -20.4350  ZZZ=             12.3832  XYY=              5.2126
  XXY=            -30.2018  XXZ=             14.3879  XZZ=             -2.7223  YZZ=            -21.6276
  YYZ=             -6.0597  XYZ=             -7.3538
 Hexadecapole moment (field-independent basis, Debye-Ang**3):
 XXXX=          -1702.1239 YYYY=          -1058.4451 ZZZZ=           -424.8000 XXXY=             72.0327
 XXXZ=             70.5445 YYYX=             31.0717 YYYZ=             15.2594 ZZZX=              8.8767
 ZZZY=              6.4755 XXYY=           -606.0772 XXZZ=           -429.5777 YYZZ=           -242.4653
 XXYZ=             42.2737 YYXZ=             -8.8091 ZZXY=              1.7696
 N-N= 1.134917253042D+03 E-N=-4.241807114228D+03  KE= 8.329400485685D+02
 Calling FoFJK, ICntrl=      2127 FMM=F ISym2X=0 I1Cent= 0 IOpClX= 0 NMat=1 NMatS=1 NMatT=0.
 ***** Axes restored to original set *****
 -------------------------------------------------------------------
 Center     Atomic                   Forces (Hartrees/Bohr)
 Number     Number              X              Y              Z
 -------------------------------------------------------------------
      1        8           0.001234884   -0.008870684   -0.007565254
      2        6           0.000405466   -0.000776445   -0.000493927
      3        6          -0.000110743    0.002596694   -0.000992311
      4        6           0.000168385   -0.001215221   -0.000009118
      5        6          -0.011775802    0.006486349    0.000114066
      6        6          -0.000981329   -0.002435572   -0.002070194
      7        1          -0.000050051   -0.000138975   -0.000186935
      8        1          -0.000285589   -0.000115700   -0.000069287
      9        1           0.000091819    0.000059135   -0.000114333
     10        1           0.000414990    0.000523772   -0.000364665
     11        6           0.001981587   -0.000843103   -0.000442609
     12        1           0.000106929   -0.000015412   -0.000012245
     13        1           0.000193480   -0.000147964   -0.000006492
     14        1          -0.000355033   -0.000136882   -0.000124509
     15        8          -0.008822863   -0.010013284    0.002159926
     16        8           0.002273040   -0.000791578   -0.000308026
     17        1           0.000089563    0.000114847    0.000225846
     18        8           0.001922467    0.000613895   -0.000064268
     19        1           0.000259016   -0.000706759    0.000161625
     20        8          -0.001317032   -0.003546145   -0.000332835
     21        1          -0.000116261    0.000328430   -0.000076798
     22        8           0.000168998    0.000399425    0.000344352
     23        1          -0.000062508   -0.000072884    0.000091710
     24        8           0.016767128    0.009451427   -0.008842642
     25        1           0.000768474    0.001124767    0.000623007
     26        1           0.000373848   -0.000336443   -0.000562918
     27        1          -0.001186645   -0.000838297   -0.001494405
     28        8          -0.002901505    0.008086403    0.018867971
     29        1           0.001125934    0.001146366    0.001438799
     30        1          -0.000380648    0.000069835    0.000106470
 -------------------------------------------------------------------
 Cartesian Forces:  Max     0.018867971 RMS     0.004005801

 GradGradGradGradGradGradGradGradGradGradGradGradGradGradGradGradGradGrad
 Berny optimization.
 FormGI is forming the generalized inverse of G from B-inverse, IUseBI=4.
 Internal  Forces:  Max     0.014402972 RMS     0.003300760
 Search for a local minimum.
 Step number   1 out of a maximum of  177
 All quantities printed in internal units (Hartrees-Bohrs-Radians)
 Mixed Optimization -- RFO/linear search
 Second derivative matrix not updated -- first step.
 ITU=  0
     Eigenvalues ---    0.00296   0.00306   0.00454   0.00536   0.00547
     Eigenvalues ---    0.00924   0.01201   0.01283   0.01302   0.01407
     Eigenvalues ---    0.01424   0.02078   0.02699   0.03367   0.03763
     Eigenvalues ---    0.04143   0.04461   0.04590   0.04807   0.04967
     Eigenvalues ---    0.05033   0.05069   0.05638   0.05851   0.06276
     Eigenvalues ---    0.06369   0.06716   0.07078   0.07150   0.07421
     Eigenvalues ---    0.08023   0.08206   0.08903   0.09319   0.10115
     Eigenvalues ---    0.10375   0.11128   0.11435   0.11481   0.11765
     Eigenvalues ---    0.12895   0.13842   0.14895   0.16000   0.16000
     Eigenvalues ---    0.16000   0.16000   0.16067   0.16472   0.17025
     Eigenvalues ---    0.18077   0.18782   0.19472   0.21015   0.22017
     Eigenvalues ---    0.22080   0.25261   0.26055   0.26948   0.28226
     Eigenvalues ---    0.28986   0.30519   0.32709   0.33306   0.33833
     Eigenvalues ---    0.33920   0.34002   0.34107   0.34282   0.38310
     Eigenvalues ---    0.39985   0.40858   0.41061   0.42420   0.43067
     Eigenvalues ---    0.44932   0.49077   0.52187   0.52391   0.52450
     Eigenvalues ---    0.53034   0.53358   0.53393   0.53611
 RFO step:  Lambda=-1.25298936D-02 EMin= 2.96032575D-03
 Linear search not attempted -- first point.
 Iteration  1 RMS(Cart)=  0.09834951 RMS(Int)=  0.00293802
 Iteration  2 RMS(Cart)=  0.00474353 RMS(Int)=  0.00047155
 Iteration  3 RMS(Cart)=  0.00001688 RMS(Int)=  0.00047136
 Iteration  4 RMS(Cart)=  0.00000002 RMS(Int)=  0.00047136
 Variable       Old X    -DE/DX   Delta X   Delta X   Delta X     New X
                                 (Linear)    (Quad)   (Total)
    R1        2.83485  -0.00845   0.00000  -0.03060  -0.03067   2.80418
    R2        2.70433  -0.00176   0.00000  -0.00734  -0.00694   2.69739
    R3        3.11635   0.01440   0.00000   0.15369   0.15378   3.27012
    R4        2.92958  -0.00065   0.00000   0.00159   0.00141   2.93099
    R5        2.92345   0.00160   0.00000   0.00494   0.00509   2.92854
    R6        2.07327  -0.00006   0.00000  -0.00018  -0.00018   2.07310
    R7        2.70136  -0.00025   0.00000  -0.00059  -0.00059   2.70077
    R8        2.89686  -0.00248   0.00000  -0.00600  -0.00616   2.89070
    R9        2.95092  -0.00249   0.00000  -0.00743  -0.00769   2.94323
   R10        2.07149  -0.00017   0.00000  -0.00048  -0.00048   2.07101
   R11        2.71574  -0.00175   0.00000  -0.00425  -0.00425   2.71148
   R12        2.07466   0.00007   0.00000   0.00019   0.00019   2.07485
   R13        2.70404  -0.00206   0.00000  -0.00488  -0.00488   2.69916
   R14        2.09566   0.00019   0.00000   0.00056   0.00056   2.09622
   R15        2.55924  -0.00020   0.00000  -0.00171  -0.00217   2.55707
   R16        2.07613   0.00022   0.00000   0.00064   0.00064   2.07677
   R17        2.90032  -0.00333   0.00000  -0.01100  -0.01100   2.88931
   R18        2.06856   0.00003   0.00000   0.00010   0.00010   2.06866
   R19        2.08517  -0.00001   0.00000  -0.00003  -0.00003   2.08515
   R20        2.68392  -0.00234   0.00000  -0.00537  -0.00537   2.67856
   R21        1.91975   0.01246   0.00000   0.02791   0.02728   1.94703
   R22        1.84171  -0.00001   0.00000  -0.00001  -0.00001   1.84170
   R23        1.83321   0.00002   0.00000   0.00004   0.00004   1.83324
   R24        1.83288   0.00000   0.00000   0.00000   0.00000   1.83289
   R25        1.84227  -0.00003   0.00000  -0.00005  -0.00005   1.84222
   R26        1.90492   0.01376   0.00000   0.02965   0.03035   1.93527
   R27        1.83087   0.00026   0.00000   0.00048   0.00048   1.83135
   R28        2.84040   0.01383   0.00000   0.11232   0.11187   2.95227
   R29        2.84956   0.01318   0.00000   0.10943   0.11023   2.95979
   R30        1.85829   0.00976   0.00000   0.01993   0.02001   1.87830
   R31        1.84421   0.00001   0.00000   0.00003   0.00003   1.84424
    A1        1.98370  -0.00701   0.00000  -0.02623  -0.02720   1.95651
    A2        1.93236   0.00739   0.00000   0.06663   0.06517   1.99753
    A3        2.04691   0.00119   0.00000   0.02502   0.02457   2.07148
    A4        1.95496  -0.00073   0.00000   0.00339   0.00311   1.95808
    A5        1.88298   0.00084   0.00000   0.00663   0.00684   1.88981
    A6        1.94906  -0.00026   0.00000  -0.00612  -0.00627   1.94279
    A7        1.91478   0.00054   0.00000   0.00744   0.00728   1.92207
    A8        1.91992   0.00002   0.00000  -0.00733  -0.00705   1.91288
    A9        1.83793  -0.00033   0.00000  -0.00384  -0.00385   1.83408
   A10        1.95807   0.00151   0.00000   0.01660   0.01650   1.97457
   A11        1.92710  -0.00063   0.00000  -0.00155  -0.00148   1.92561
   A12        1.80032   0.00067   0.00000   0.00353   0.00356   1.80387
   A13        1.87733   0.00031   0.00000  -0.00150  -0.00147   1.87586
   A14        1.96277  -0.00183   0.00000  -0.00986  -0.00999   1.95278
   A15        1.93890  -0.00004   0.00000  -0.00711  -0.00718   1.93172
   A16        1.92461  -0.00400   0.00000  -0.00621  -0.00686   1.91775
   A17        1.86897   0.00120   0.00000   0.00475   0.00501   1.87399
   A18        1.97496   0.00238   0.00000   0.01083   0.01093   1.98589
   A19        1.88369   0.00132   0.00000   0.00482   0.00480   1.88849
   A20        1.89609   0.00066   0.00000  -0.00340  -0.00294   1.89315
   A21        1.91344  -0.00159   0.00000  -0.01096  -0.01110   1.90234
   A22        1.91745   0.00499   0.00000   0.02640   0.02726   1.94471
   A23        1.80475  -0.00050   0.00000   0.00320   0.00326   1.80801
   A24        1.95095  -0.00224   0.00000  -0.01291  -0.01384   1.93711
   A25        1.90653  -0.00239   0.00000  -0.02109  -0.02127   1.88526
   A26        1.90480  -0.00089   0.00000   0.00443   0.00402   1.90882
   A27        1.97703   0.00124   0.00000   0.00050   0.00114   1.97818
   A28        1.92162   0.00372   0.00000   0.01793   0.01820   1.93982
   A29        1.89636   0.00109   0.00000   0.00508   0.00522   1.90158
   A30        1.94314  -0.00588   0.00000  -0.02901  -0.02936   1.91378
   A31        1.88348  -0.00260   0.00000  -0.01163  -0.01174   1.87175
   A32        1.94853   0.00240   0.00000   0.01290   0.01302   1.96155
   A33        1.86825   0.00124   0.00000   0.00459   0.00460   1.87286
   A34        1.91423   0.00017   0.00000   0.00010   0.00010   1.91433
   A35        1.91296   0.00019   0.00000   0.00030   0.00030   1.91326
   A36        1.93189  -0.00131   0.00000  -0.00591  -0.00591   1.92598
   A37        1.87914  -0.00008   0.00000   0.00079   0.00079   1.87993
   A38        1.87500   0.00049   0.00000   0.00209   0.00208   1.87708
   A39        1.94934   0.00058   0.00000   0.00283   0.00283   1.95216
   A40        2.04575  -0.00207   0.00000  -0.01673  -0.01688   2.02887
   A41        1.88098  -0.00018   0.00000  -0.00106  -0.00106   1.87991
   A42        1.89320  -0.00016   0.00000  -0.00091  -0.00091   1.89229
   A43        1.87853  -0.00011   0.00000  -0.00064  -0.00064   1.87789
   A44        1.84418   0.00015   0.00000   0.00089   0.00089   1.84507
   A45        1.85085   0.00041   0.00000   0.00736   0.00761   1.85846
   A46        1.60123  -0.00034   0.00000   0.01659   0.01622   1.61744
   A47        1.88662   0.00094   0.00000  -0.00120  -0.00133   1.88529
   A48        2.75658  -0.00010   0.00000   0.01050   0.01073   2.76732
   A49        2.70495   0.00990   0.00000   0.04313   0.04098   2.74592
   A50        1.70165  -0.01006   0.00000  -0.04150  -0.04173   1.65992
   A51        1.89737   0.00041   0.00000  -0.00356  -0.00312   1.89424
   A52        1.74242  -0.00020   0.00000  -0.00456  -0.00469   1.73773
   A53        2.70863   0.00861   0.00000   0.03923   0.03939   2.74801
    D1       -0.65423   0.00025   0.00000   0.01386   0.01404  -0.64019
    D2        1.37909  -0.00054   0.00000   0.00300   0.00345   1.38254
    D3       -2.77153  -0.00056   0.00000  -0.00129  -0.00050  -2.77204
    D4        1.69288   0.00253   0.00000   0.09072   0.09147   1.78435
    D5       -2.55699   0.00173   0.00000   0.07986   0.08088  -2.47611
    D6       -0.42442   0.00172   0.00000   0.07556   0.07693  -0.34749
    D7        1.20358   0.00041   0.00000  -0.00254  -0.00283   1.20075
    D8       -0.85568   0.00076   0.00000  -0.00181  -0.00235  -0.85803
    D9       -2.90891   0.00201   0.00000   0.00643   0.00590  -2.90301
   D10       -1.08862  -0.00461   0.00000  -0.10233  -0.10182  -1.19044
   D11        3.13531  -0.00426   0.00000  -0.10160  -0.10134   3.03397
   D12        1.08208  -0.00301   0.00000  -0.09336  -0.09309   0.98898
   D13       -0.25257   0.00161   0.00000  -0.01225  -0.01279  -0.26537
   D14        2.06288   0.00003   0.00000   0.04317   0.04621   2.10909
   D15       -0.50932   0.00114   0.00000   0.05138   0.05104  -0.45829
   D16       -2.55453   0.00103   0.00000   0.04623   0.04614  -2.50839
   D17        1.61833   0.00073   0.00000   0.05002   0.04983   1.66815
   D18       -2.61845   0.00037   0.00000   0.03564   0.03538  -2.58307
   D19        1.61953   0.00025   0.00000   0.03049   0.03048   1.65002
   D20       -0.49080  -0.00004   0.00000   0.03428   0.03417  -0.45663
   D21        1.65307   0.00042   0.00000   0.03968   0.03943   1.69249
   D22       -0.39213   0.00030   0.00000   0.03453   0.03453  -0.35761
   D23       -2.50247   0.00001   0.00000   0.03832   0.03821  -2.46425
   D24       -0.54958  -0.00287   0.00000  -0.04066  -0.04102  -0.59059
   D25        1.51761  -0.00099   0.00000  -0.03126  -0.03145   1.48616
   D26       -2.71716   0.00029   0.00000  -0.02548  -0.02573  -2.74289
   D27        1.54103  -0.00193   0.00000  -0.02516  -0.02538   1.51564
   D28       -2.67497  -0.00005   0.00000  -0.01576  -0.01582  -2.69079
   D29       -0.62655   0.00123   0.00000  -0.00997  -0.01010  -0.63665
   D30       -2.72819  -0.00202   0.00000  -0.02970  -0.02991  -2.75810
   D31       -0.66100  -0.00013   0.00000  -0.02030  -0.02034  -0.68134
   D32        1.38742   0.00115   0.00000  -0.01452  -0.01462   1.37279
   D33       -1.03533   0.00066   0.00000   0.00503   0.00514  -1.03019
   D34        1.14667  -0.00047   0.00000  -0.00042  -0.00046   1.14621
   D35       -3.07448  -0.00001   0.00000   0.00250   0.00243  -3.07205
   D36        1.03769  -0.00132   0.00000  -0.04547  -0.04557   0.99211
   D37        3.07375  -0.00131   0.00000  -0.04039  -0.04059   3.03316
   D38       -1.13596  -0.00210   0.00000  -0.05263  -0.05275  -1.18871
   D39        3.13154  -0.00036   0.00000  -0.03740  -0.03739   3.09415
   D40       -1.11559  -0.00035   0.00000  -0.03233  -0.03240  -1.14799
   D41        0.95790  -0.00114   0.00000  -0.04457  -0.04457   0.91333
   D42       -1.07876  -0.00033   0.00000  -0.04448  -0.04449  -1.12325
   D43        0.95730  -0.00032   0.00000  -0.03940  -0.03950   0.91779
   D44        3.03078  -0.00111   0.00000  -0.05164  -0.05167   2.97911
   D45       -0.46076   0.00027   0.00000   0.00872   0.00908  -0.45169
   D46       -2.42906  -0.00049   0.00000   0.00227   0.00261  -2.42646
   D47        1.68400   0.00013   0.00000   0.01262   0.01242   1.69641
   D48       -2.58336  -0.00009   0.00000   0.00133   0.00154  -2.58182
   D49        1.73153  -0.00085   0.00000  -0.00512  -0.00493   1.72660
   D50       -0.43860  -0.00023   0.00000   0.00523   0.00488  -0.43372
   D51        1.55948   0.00091   0.00000   0.01763   0.01780   1.57728
   D52       -0.40882   0.00016   0.00000   0.01119   0.01133  -0.39749
   D53       -2.57894   0.00077   0.00000   0.02154   0.02114  -2.55780
   D54        2.95588   0.00100   0.00000   0.02491   0.02482   2.98070
   D55        0.84263  -0.00028   0.00000   0.00792   0.00805   0.85067
   D56       -1.26264   0.00062   0.00000   0.02172   0.02169  -1.24096
   D57        1.22247   0.00146   0.00000  -0.00528  -0.00505   1.21741
   D58       -2.91717  -0.00157   0.00000  -0.00837  -0.00859  -2.92576
   D59       -0.86250  -0.00051   0.00000  -0.01076  -0.01076  -0.87326
   D60       -0.63658   0.00015   0.00000  -0.05882  -0.05789  -0.69447
   D61       -2.76119  -0.00407   0.00000  -0.08667  -0.08588  -2.84707
   D62        1.39389  -0.00119   0.00000  -0.06318  -0.06233   1.33157
   D63        0.92037  -0.00108   0.00000  -0.00434  -0.00428   0.91609
   D64       -1.13916  -0.00120   0.00000  -0.00554  -0.00548  -1.14464
   D65        2.98624  -0.00117   0.00000  -0.00532  -0.00526   2.98098
   D66        3.07582   0.00120   0.00000   0.00710   0.00707   3.08289
   D67        1.01629   0.00108   0.00000   0.00591   0.00588   1.02216
   D68       -1.14150   0.00111   0.00000   0.00613   0.00609  -1.13541
   D69       -1.14979   0.00015   0.00000   0.00300   0.00297  -1.14682
   D70        3.07387   0.00003   0.00000   0.00180   0.00177   3.07564
   D71        0.91607   0.00005   0.00000   0.00202   0.00199   0.91807
   D72        0.64735   0.00013   0.00000   0.00539   0.00539   0.65274
   D73        2.73692  -0.00012   0.00000   0.00338   0.00338   2.74030
   D74       -1.48936   0.00041   0.00000   0.00723   0.00723  -1.48212
   D75        2.12982   0.00144   0.00000   0.03269   0.03149   2.16131
   D76       -2.23324   0.00138   0.00000   0.00733   0.00716  -2.22609
   D77       -0.32392   0.00231   0.00000   0.01229   0.01210  -0.31182
   D78       -0.84874   0.00046   0.00000  -0.01777  -0.01818  -0.86691
   D79        1.02766   0.00090   0.00000  -0.00428  -0.00454   1.02313
   D80       -0.52852   0.00386   0.00000   0.04230   0.04215  -0.48637
   D81        1.27070  -0.00007   0.00000   0.02093   0.02111   1.29181
   D82        1.33816  -0.00224   0.00000  -0.06145  -0.06000   1.27816
   D83       -0.59149  -0.00027   0.00000  -0.04709  -0.04664  -0.63813
         Item               Value     Threshold  Converged?
 Maximum Force            0.014403     0.000450     NO 
 RMS     Force            0.003301     0.000300     NO 
 Maximum Displacement     0.548544     0.001800     NO 
 RMS     Displacement     0.099491     0.001200     NO 
 Predicted change in Energy=-7.427353D-03
 GradGradGradGradGradGradGradGradGradGradGradGradGradGradGradGradGradGrad

                          Input orientation:                          
 ---------------------------------------------------------------------
 Center     Atomic      Atomic             Coordinates (Angstroms)
 Number     Number       Type             X           Y           Z
 ---------------------------------------------------------------------
      1          8           0        0.402356    0.679115   -0.607138
      2          6           0       -1.442597   -0.215961    0.745589
      3          6           0        0.161262   -1.811121   -0.368967
      4          6           0       -0.494965   -1.425327    0.957868
      5          6           0        0.942702   -0.636829   -1.029394
      6          6           0       -1.017585    0.655487   -0.463363
      7          1           0       -1.111187   -2.269607    1.293997
      8          1           0       -1.459876    0.203570   -1.362197
      9          1           0       -1.443365    0.385718    1.662905
     10          1           0        0.869124   -2.634141   -0.218529
     11          6           0       -1.548343    2.086009   -0.365302
     12          1           0       -1.173902    2.676738   -1.207427
     13          1           0       -1.180633    2.554810    0.563426
     14          1           0        0.743312   -0.662600   -2.120295
     15          8           0        2.256158   -0.742733   -0.721808
     16          8           0       -2.964056    2.092361   -0.434768
     17          1           0       -3.288096    1.310168    0.047918
     18          8           0       -0.946688   -2.236701   -1.175278
     19          1           0       -0.633782   -2.361116   -2.085072
     20          8           0        0.534113   -1.188862    1.919756
     21          1           0        0.114094   -1.140892    2.792701
     22          8           0       -2.796975   -0.640415    0.578041
     23          1           0       -2.794966   -1.229181   -0.198944
     24          8           0        3.800723    1.266068   -0.494033
     25          1           0        3.255998    1.519732    0.335253
     26          1           0        4.626513    0.874697   -0.171426
     27          1           0        2.827700    0.102131   -0.867104
     28          8           0        2.031531    1.591680    1.309240
     29          1           0        1.345873    1.487767    0.597187
     30          1           0        1.936864    0.727579    1.752863
 ---------------------------------------------------------------------
                    Distance matrix (angstroms):
                    1          2          3          4          5
     1  O    0.000000
     2  C    2.456600   0.000000
     3  C    2.513190   2.521732   0.000000
     4  C    2.771842   1.551012   1.529693   0.000000
     5  C    1.483908   3.002890   1.557489   2.576398   0.000000
     6  C    1.427397   1.549716   2.735460   2.573483   2.415202
     7  H    3.821006   2.151289   2.143545   1.097962   3.504650
     8  H    2.064986   2.149201   2.770122   2.994506   2.566985
     9  H    2.940385   1.097035   3.395501   2.162504   3.739972
    10  H    3.368465   3.481547   1.095930   2.169304   2.156889
    11  C    2.417243   2.558189   4.255630   3.897419   3.749690
    12  H    2.614466   3.500596   4.756738   4.687899   3.935917
    13  H    2.719247   2.789083   4.661694   4.057982   4.151167
    14  H    2.050877   3.631939   2.173714   3.404435   1.109272
    15  O    2.339098   4.013917   2.377927   3.294833   1.353141
    16  O    3.655093   3.006066   5.000911   4.517741   4.802585
    17  H    3.800890   2.494330   4.670579   4.014041   4.780278
    18  O    3.262620   2.831792   1.434856   2.326520   2.480054
    19  H    3.535658   3.642597   1.969672   3.186606   2.563771
    20  O    3.145137   2.496515   2.400932   1.428336   3.028064
    21  H    3.867095   2.733030   3.232271   1.954090   3.943233
    22  O    3.658077   1.429186   3.319419   2.461627   4.070509
    23  H    3.745809   1.935887   3.017755   2.581994   3.874363
    24  O    3.450536   5.587976   4.767641   5.273002   3.475041
    25  H    3.120578   5.025714   4.600858   4.809443   3.444468
    26  H    4.251071   6.234144   5.214509   5.726688   4.073240
    27  H    2.506549   4.575740   3.319422   4.087023   2.031162
    28  O    2.675723   3.956620   4.230052   3.950820   3.408961
    29  H    1.730474   3.271128   3.635851   3.464808   2.705960
    30  H    2.815434   3.650428   3.754986   3.343772   3.254370
                    6          7          8          9         10
     6  C    0.000000
     7  H    3.413685   0.000000
     8  H    1.098979   3.646032   0.000000
     9  H    2.185195   2.701330   3.030625   0.000000
    10  H    3.800167   2.518382   3.845104   4.243459   0.000000
    11  C    1.528959   4.681428   2.131949   2.648704   5.305234
    12  H    2.159519   5.543228   2.494453   3.682416   5.775579
    13  H    2.165250   4.879914   3.051939   2.445986   5.633664
    14  H    2.753822   4.204644   2.485760   4.493677   2.742174
    15  O    3.569202   4.211155   3.887736   4.543866   2.398870
    16  O    2.419540   5.044652   2.586545   3.102477   6.089323
    17  H    2.417692   4.371091   2.560346   2.620272   5.736815
    18  O    2.979362   2.474967   2.500644   3.896030   2.090575
    19  H    3.446322   3.413853   2.789730   4.716762   2.411898
    20  O    3.389490   2.065574   4.084859   2.540805   2.602562
    21  H    3.887110   2.240854   4.641998   2.456147   3.444905
    22  O    2.435182   2.451273   2.502932   2.015474   4.248499
    23  H    2.604030   2.479208   2.277805   2.810907   3.924265
    24  O    4.856937   6.310697   5.436590   5.738280   4.886901
    25  H    4.432631   5.860937   5.181997   5.013249   4.822707
    26  H    5.655893   6.704872   6.237988   6.359819   5.141219
    27  H    3.905820   5.080386   4.317259   4.972259   3.426931
    28  O    3.649067   4.978599   4.610136   3.695176   4.641426
    29  H    2.720917   4.543187   3.655213   3.182785   4.228807
    30  H    3.693998   4.299337   4.638538   3.398663   4.040745
                   11         12         13         14         15
    11  C    0.000000
    12  H    1.094687   0.000000
    13  H    1.103413   1.775057   0.000000
    14  H    3.985792   3.957299   4.610385   0.000000
    15  O    4.754272   4.867640   4.933269   2.061768   0.000000
    16  O    1.417430   2.035472   2.095435   4.916847   5.947334
    17  H    1.949211   2.813044   2.501256   4.984497   5.962015
    18  O    4.438905   4.918795   5.102588   2.495386   3.563116
    19  H    4.854993   5.142175   5.610697   2.186913   3.581816
    20  O    4.503653   5.257323   4.335327   4.079550   3.184702
    21  H    4.811401   5.677522   4.506019   4.976165   4.135062
    22  O    3.143624   4.101922   3.580816   4.451420   5.218642
    23  H    3.545734   4.347538   4.184001   4.065959   5.101360
    24  O    5.413075   5.219753   5.252902   3.963868   2.544178
    25  H    4.888061   4.831412   4.561484   4.135926   2.689945
    26  H    6.295531   6.161613   6.089806   4.608755   2.921915
    27  H    4.830873   4.770455   4.912106   2.549505   1.030323
    28  O    3.982957   4.217317   3.435383   4.301511   3.102434
    29  H    3.108177   3.319571   2.742801   3.517366   2.746542
    30  H    4.298677   4.715867   3.804251   4.284684   2.896163
                   16         17         18         19         20
    16  O    0.000000
    17  H    0.974584   0.000000
    18  O    4.833105   4.422520   0.000000
    19  H    5.290287   5.007330   0.970110   0.000000
    20  O    5.342976   4.935404   3.587475   4.333221   0.000000
    21  H    5.508675   5.011630   4.250990   5.083398   0.969923
    22  O    2.919207   2.080146   3.007626   3.838279   3.632786
    23  H    3.334193   2.598540   2.320443   3.083744   3.946299
    24  O    6.815314   7.109642   5.938973   5.945814   4.745924
    25  H    6.293640   6.553750   5.835672   6.004111   4.154009
[...]
 567,-0.00104051,-0.00013786,0.00023856,0.00034738,0.00022130,0.0000994
 5,0.00040857,0.00058425,-0.00020526,-0.00014165,-0.00005332,-0.0005076
 4,0.00009144,0.00004563,0.00027536,-0.00007970,-0.00002425,-0.14131208
 ,0.07908930,-0.00016865,0.00125441,0.00176216,-0.00016614,-0.00012802,
 -0.00017162,-0.00014561,0.00011174,-0.00026904,-0.00067715,-0.00038035
 ,-0.00103953,0.00252958,-0.00146828,-0.00047488,-0.00029643,0.00017932
 ,-0.00003315,0.00016033,0.00010846,0.00020624,0.00021575,0.00005106,0.
 00010243,-0.00009994,0.00007904,0.00012790,0.00000510,0.00009516,-0.00
 007534,-0.00028332,-0.00009413,-0.00043813,0.00000273,-0.00004253,0.00
 005153,0.00000449,0.00009731,0.00019965,0.00016972,0.00031991,0.000257
 97,-0.00393841,-0.00211243,0.00571279,0.00021367,0.00002911,0.00017171
 ,-0.00005893,0.00000935,-0.00003518,-0.00022112,-0.00001759,0.00029631
 ,0.00006368,0.00004532,-0.00001421,0.00106362,0.00117538,0.00089458,-0
 .00029253,-0.00039363,0.00010093,0.00027011,0.00006518,0.00019132,0.00
 001300,-0.00004098,-0.00007357,-0.05591012,0.02079467,0.43469585,0.000
 90962,0.00167068,0.00148025,-0.00019704,-0.00021585,-0.00001278,-0.000
 24085,0.00001069,-0.00018181,-0.00053925,-0.00037520,-0.00075891,0.001
 78699,-0.00272758,-0.00120770,-0.00107133,0.00040022,0.00014583,0.0001
 6735,0.00012506,0.00014341,0.00037880,0.00006090,0.00010427,-0.0000834
 4,0.00005921,0.00007206,0.00001559,0.00013134,-0.00006651,-0.00042268,
 -0.00000586,-0.00033866,-0.00002578,0.00000682,-0.00000166,-0.00001383
 ,0.00008780,0.00018671,-0.00001904,0.00032449,0.00029730,-0.00425620,-
 0.00136530,0.00231812,0.00047023,-0.00004691,0.00009756,-0.00011833,0.
 00001535,0.00001390,-0.00006193,0.00017450,0.00022980,0.00001096,-0.00
 007337,-0.00001945,0.00088473,0.00111924,0.00054709,-0.00018983,-0.000
 40401,0.00017120,0.00045138,0.00023374,0.00004581,-0.00005011,-0.00009
 993,-0.00004812,-0.10399482,0.02159868,0.08842379,0.12877943,0.0011468
 6,-0.00090933,0.00006050,-0.00011910,-0.00004085,0.00001858,-0.0000746
 2,-0.00030096,-0.00006422,-0.00023534,-0.00003863,-0.00002866,-0.00321
 037,0.00079626,-0.00070605,-0.00063361,0.00005223,0.00001986,0.0000763
 9,0.00001164,-0.00003318,0.00009969,0.00001678,0.00001809,0.00000787,-
 0.00000570,-0.00002429,-0.00000766,-0.00009550,0.00002303,0.00012163,0
 .00033783,-0.00000172,0.00001702,-0.00003054,0.00009221,-0.00000172,-0
 .00001320,-0.00007850,0.00052962,-0.00006725,0.00033780,0.00222479,0.0
 0125462,0.00217392,0.00007318,-0.00026682,-0.00002208,-0.00008845,0.00
 010312,0.00002161,0.00041409,0.00025839,0.00011124,-0.00006302,-0.0001
 0404,-0.00006113,0.00011094,-0.00005551,-0.00006777,0.00003759,0.00000
 031,0.00005039,0.00026899,-0.00000822,0.00000253,-0.00009076,0.0000109
 9,-0.00000662,0.02481235,-0.02320341,-0.03069040,-0.03036362,0.0388225
 1,0.00059189,-0.00165067,-0.00240647,0.00021702,0.00012570,0.00027743,
 0.00014632,-0.00020291,0.00027632,0.00084987,0.00043978,0.00131725,-0.
 00369531,0.00172198,0.00035568,0.00001071,-0.00011608,0.00003071,-0.00
 019461,-0.00012756,-0.00027276,-0.00018051,-0.00003828,-0.00010716,0.0
 0012528,-0.00009935,-0.00016813,-0.00000366,-0.00010056,0.00007158,0.0
 0028099,0.00015460,0.00053829,-0.00002594,0.00005395,-0.00010216,-0.00
 001104,-0.00013020,-0.00021705,0.00022704,-0.00029961,-0.00014046,0.00
 511758,0.00352964,-0.00127565,-0.00014306,-0.00005078,-0.00020260,0.00
 005031,-0.00001638,0.00004644,0.00036799,0.00013946,-0.00029359,-0.000
 07133,-0.00007955,-0.00002383,-0.00134966,-0.00149822,-0.00107778,0.00
 036690,0.00051126,-0.00013022,-0.00023229,-0.00000640,-0.00026816,-0.0
 0003384,0.00002315,0.00007746,0.14491582,-0.04667827,-0.35376322,-0.12
 379236,0.04873097,0.34491306,0.00027920,-0.00023474,0.00003761,-0.0000
 6901,-0.00000993,-0.00000469,-0.00001927,-0.00015857,-0.00000360,-0.00
 007403,0.00000229,-0.00001638,-0.00095637,0.00053828,-0.00023630,-0.00
 013933,-0.00007402,-0.00000881,0.00003160,0.00000778,-0.00001191,0.000
 00764,0.00001217,0.00000619,0.00000330,-0.00000365,-0.00000261,-0.0000
 0239,-0.00002994,0.00001272,-0.00001604,0.00006136,-0.00002371,-0.0000
 0088,-0.00000549,0.00000940,0.00000010,-0.00000080,0.00000375,0.000159
 86,-0.00002809,0.00011770,0.00192184,0.00012951,0.00030084,0.00007823,
 -0.00005304,0.00000282,-0.00003149,0.00002045,0.00000627,0.00016818,0.
 00011959,0.00004219,-0.00003002,-0.00004988,-0.00002291,0.00008949,0.0
 0004399,0.00000184,0.00000642,-0.00001419,0.00001877,0.00009672,0.0000
 0601,0.00000778,-0.00003785,0.00000039,-0.00000142,-0.44914171,0.12437
 002,-0.05121241,-0.01896627,0.00574595,-0.01190125,0.47010151,0.000138
 41,-0.00018003,0.00000050,-0.00004811,0.00001255,-0.00000645,-0.000109
 60,-0.00007290,-0.00001423,-0.00006138,0.00001264,-0.00001209,-0.00030
 505,0.00048286,-0.00004321,-0.00004954,-0.00007225,-0.00001188,0.00001
 591,0.00000033,-0.00000412,-0.00000860,0.00000492,-0.00000146,0.000006
 23,-0.00000645,-0.00000583,-0.00001354,-0.00003262,0.00000544,0.000007
 51,0.00005796,0.00000447,-0.00000261,-0.00000448,0.00000941,-0.0000008
 0,-0.00000361,-0.00000938,0.00010957,-0.00001911,0.00006758,0.00030223
 ,-0.00371010,0.00067565,0.00003671,-0.00005568,-0.00000584,-0.00002075
 ,0.00002897,0.00000567,0.00009479,0.00001773,0.00003432,-0.00003301,-0
 .00000780,-0.00001612,0.00007644,-0.00003646,0.00001579,0.00000434,0.0
 0002122,0.00000699,0.00006676,-0.00002804,0.00001251,-0.00003161,0.000
 01476,-0.00000178,0.12718608,-0.04228506,0.00952625,0.00644730,-0.0019
 9658,0.00488924,-0.12988143,0.04236359,-0.00023629,-0.00008819,-0.0000
 4981,0.00003210,0.00002235,-0.00000798,0.00002828,0.00005472,0.0000204
 5,0.00007959,0.00003716,0.00008003,0.00046730,0.00019862,0.00015086,0.
 00018535,-0.00002674,0.00002846,-0.00002375,-0.00001272,-0.00000316,-0
 .00003238,-0.00000984,-0.00001420,0.00000366,-0.00000555,-0.00000319,-
 0.00000362,0.00000599,0.00000973,0.00005782,-0.00001974,0.00002211,0.0
 0000860,-0.00000342,0.00000420,-0.00000200,-0.00000424,-0.00001551,-0.
 00010500,0.00000372,-0.00009556,-0.00030278,-0.00102552,-0.00002624,-0
 .00008430,0.00001911,-0.00001264,0.00002298,-0.00000607,0.00000085,-0.
 00009561,-0.00008816,-0.00006217,0.00000166,0.00003386,0.00002518,-0.0
 0010603,-0.00004974,-0.00007681,0.00002087,0.00001264,0.00000077,-0.00
 009260,-0.00003140,-0.00000758,0.00002026,0.00001288,0.00001091,-0.106
 21521,0.02458512,-0.06220391,0.04353233,-0.01282479,0.01025886,0.06341
 525,-0.01445103,0.05494382,0.00687640,-0.00366182,-0.00121738,-0.00016
 979,-0.00032927,0.00032961,-0.00276388,0.00124208,-0.00326079,0.000164
 87,-0.00015368,0.00068087,-0.03985140,-0.02885853,0.00998775,-0.002462
 32,-0.00064456,-0.00032611,0.00006622,0.00002763,-0.00023862,0.0003405
 0,0.00008090,0.00008088,0.00008451,-0.00006246,-0.00015689,0.00006158,
 -0.00060204,0.00013758,0.00027650,0.00103930,0.00014601,-0.00002624,0.
 00000151,0.00005929,-0.00001286,-0.00010555,-0.00014752,0.00253704,0.0
 0022651,0.00083291,-0.12253072,-0.11597491,0.03273077,0.00074993,-0.00
 072751,-0.00013118,-0.00029567,0.00014940,0.00012113,0.00036764,-0.000
 21582,0.00039531,-0.00025527,-0.00036726,-0.00005806,-0.00026828,-0.00
 010945,-0.00078211,0.00036195,0.00007839,0.00014234,0.00084848,0.00040
 785,-0.00028563,-0.00024871,-0.00014724,0.00000550,-0.00398965,0.01403
 226,0.00502468,0.00704156,-0.00068408,-0.00634538,-0.00413430,-0.00360
 202,-0.00072509,0.15936844,0.00331183,-0.00347433,-0.00121190,-0.00047
 117,0.00009930,-0.00000261,0.00165066,-0.00178205,0.00071431,-0.000146
 98,0.00058210,0.00106381,-0.00352454,0.01492355,-0.00541357,-0.0004365
 8,-0.00118146,-0.00007593,0.00016867,-0.00007267,-0.00041199,-0.000312
 88,0.00008844,-0.00007411,0.00014712,-0.00012085,-0.00014081,-0.000112
 76,-0.00001389,0.00012411,0.00045448,0.00082321,0.00006323,0.00003178,
 -0.00009408,0.00013195,0.00001187,-0.00014176,-0.00018422,0.00277422,-
 0.00053329,0.00183492,-0.15383203,-0.27623405,0.09274625,0.00021961,-0
 .00060275,-0.00008200,-0.00019614,0.00022611,0.00006635,0.00250623,0.0
 0202040,0.00017820,-0.00031626,-0.00061862,-0.00023210,-0.00034981,-0.
 00067217,-0.00104037,0.00033456,0.00022962,0.00001640,0.00043476,-0.00
 020466,-0.00004612,-0.00035074,0.00013832,0.00006983,0.00812041,-0.002
 43619,0.00100001,0.00235318,-0.00497189,-0.00917205,-0.00004391,0.0055
 9571,0.00256001,0.13845306,0.26791413,-0.00128323,0.00186831,-0.000044
 32,0.00015683,0.00009729,-0.00012216,-0.00123088,0.00178454,0.00129565
 ,-0.00025416,-0.00012200,0.00035768,-0.00696326,-0.01324478,0.00200628
 ,0.00083998,0.00023192,-0.00016435,-0.00006086,-0.00003797,0.00004347,
 -0.00037721,-0.00003708,-0.00006559,0.00003775,-0.00001952,-0.00003540
 ,-0.00013182,-0.00024150,-0.00000136,-0.00003775,-0.00021588,0.0001346
 6,0.00001162,0.00003270,-0.00001421,0.00001051,-0.00002877,-0.00007679
 ,-0.00054026,-0.00050929,0.00069276,0.05274653,0.10267481,-0.05422025,
 -0.00027477,0.00014430,-0.00005541,0.00007605,-0.00000052,-0.00000961,
 -0.00015903,-0.00059814,-0.00031765,-0.00009635,-0.00005288,0.00010887
 ,-0.00024944,-0.00048071,-0.00049299,0.00015695,0.00010092,-0.00008869
 ,-0.00023594,-0.00016277,-0.00000972,-0.00000319,0.00008051,0.00005595
 ,0.00281080,0.00253968,-0.00925244,-0.00459230,-0.00836223,-0.00191637
 ,-0.00095843,-0.00064932,-0.00021584,-0.04126318,-0.08609917,0.0632542
 5,-0.00287834,-0.00540559,-0.00784385,0.00055635,0.00065536,0.00049350
 ,0.00004203,0.00005180,0.00024272,0.00124853,0.00057545,0.00183283,-0.
 00675607,0.00436771,0.00048000,0.00224991,-0.00074539,-0.00062725,-0.0
 0043510,-0.00029372,-0.00040520,-0.00087067,-0.00008678,-0.00020251,0.
 00026811,-0.00018704,-0.00027960,-0.00002888,-0.00030990,0.00006509,0.
 00067542,-0.00006603,0.00078134,-0.00001684,0.00001907,-0.00018573,-0.
 00002147,-0.00022037,-0.00026392,0.00069486,-0.00101545,-0.00039170,0.
 00598847,0.00206058,0.00062425,-0.00067766,0.00019647,-0.00018817,0.00
 024765,-0.00008155,-0.00000702,0.00024694,-0.00030071,-0.00036651,-0.0
 0001272,0.00012652,-0.00001034,-0.00246661,-0.00519012,-0.00090763,0.0
 0028990,0.00134685,-0.00072604,-0.00078686,-0.00042515,-0.00023908,0.0
 0004780,0.00017136,0.00007673,-0.00542246,0.00008554,0.01711851,-0.002
 33862,0.00538726,-0.00721714,0.00110542,0.00013769,-0.00010537,-0.0040
 7984,-0.00396459,-0.00105398,0.34302857,-0.00377344,0.00246537,-0.0022
 1550,0.00037431,-0.00018617,-0.00002383,0.00004788,0.00052295,0.000456
 46,0.00157039,-0.00012524,0.00240605,0.00282237,-0.00011042,0.00159394
 ,0.00107226,-0.00049253,-0.00034208,-0.00055458,-0.00014288,-0.0004695
 6,-0.00032550,0.00004924,-0.00006018,-0.00000330,-0.00008827,0.0000563
 1,-0.00000509,0.00011273,0.00000417,-0.00056546,-0.00087720,-0.0008148
 4,-0.00004609,0.00013256,-0.00011522,-0.00001548,0.00018319,0.00048674
 ,-0.00047756,0.00007690,-0.00044172,-0.00025649,-0.00174051,-0.0048701
 6,0.00031578,0.00062560,0.00022009,0.00014309,-0.00032516,-0.00000647,
 -0.00035059,-0.00022902,-0.00046467,0.00004121,0.00008875,0.00003621,-
 0.00401211,-0.00324463,-0.00108069,-0.00009710,-0.00009409,-0.00038399
 ,-0.00066477,0.00032395,-0.00020339,0.00016914,-0.00007097,0.00008960,
 -0.00253679,0.00673255,0.00282925,0.00519322,-0.01078581,-0.00280960,-
 0.00050728,-0.00007970,0.00111036,-0.00197545,-0.00198052,0.00182718,-
 0.00966898,0.53286820,-0.00867713,-0.00236789,-0.00268560,-0.00006462,
 0.00011160,-0.00097262,0.00060143,0.00039326,-0.00053456,-0.00135054,-
 0.00009513,-0.00254770,0.00267111,0.00216486,0.00096326,0.00355779,-0.
 00107245,-0.00218493,0.00032210,0.00011457,0.00053996,-0.00107500,-0.0
 0005751,0.00006468,-0.00024928,0.00016223,0.00039387,-0.00003406,-0.00
 008159,0.00001875,-0.00011024,-0.00083575,-0.00068526,0.00006947,-0.00
 008517,0.00017242,0.00001744,0.00029656,0.00030277,-0.00046737,-0.0004
 4375,-0.00053404,-0.00251814,-0.00505507,-0.00332110,-0.00039547,0.000
 46516,0.00041840,0.00013411,-0.00003932,-0.00020671,-0.00072560,-0.000
 62401,0.00048174,0.00017776,0.00036744,0.00009503,0.00244709,0.0023138
 9,0.00341062,-0.00150559,-0.00150777,0.00000979,-0.00020337,-0.0004661
 7,0.00079447,0.00019277,0.00018215,-0.00015539,0.01429720,-0.00023364,
 -0.01332336,-0.00986787,-0.00258100,-0.00122667,0.00035162,-0.00017566
 ,-0.00289317,0.00104114,0.00331219,0.00211072,0.23254269,-0.07844684,0
 .23874719,-0.00525254,0.00497473,0.00138441,-0.00047243,-0.00083458,-0
 .00022560,-0.00034110,0.00010288,0.00019091,0.00018960,-0.00081596,0.0
 0056190,0.00761419,-0.00415434,0.00139108,-0.00341107,-0.00035254,-0.0
 0076621,-0.00011160,0.00010619,-0.00013025,0.00063222,0.00011991,0.000
 19922,-0.00018637,0.00004511,0.00019089,0.00004734,0.00032939,-0.00008
 088,-0.00081743,-0.00009932,-0.00130962,0.00000560,0.00006333,0.000198
 06,-0.00014315,0.00052928,0.00056563,-0.00074148,0.00135043,0.00039378
 ,-0.00355131,-0.00215048,-0.00209285,0.00094028,-0.00006998,0.00029252
 ,-0.00020562,-0.00005435,0.00007890,-0.00013880,0.00027708,-0.00007473
 ,-0.00003283,-0.00015843,-0.00001893,-0.00142007,0.00036651,-0.0007033
 8,0.00015081,-0.00038496,0.00036172,0.00042989,0.00064176,-0.00004290,
 0.00000349,-0.00019937,0.00001467,0.00254532,-0.00110558,-0.00175122,-
 0.01002404,-0.00033182,0.00240815,0.00009021,-0.00007885,-0.00051349,0
 .00098983,0.00247941,0.00170237,-0.29118951,0.04095519,-0.21795672,0.3
 0673173,0.00371322,-0.00213462,0.00183837,-0.00043832,-0.00015473,0.00
 013312,-0.00019990,-0.00058958,-0.00020392,-0.00124031,-0.00080336,-0.
 00073106,-0.00064083,-0.00313255,-0.00298833,-0.00313362,0.00113578,0.
 00097587,0.00024514,0.00011162,0.00006323,0.00095624,-0.00005772,0.000
 11852,0.00002720,0.00010888,-0.00012969,0.00002587,0.00004058,-0.00001
 764,0.00091073,0.00139584,0.00126492,0.00006132,-0.00012292,0.00014148
 ,-0.00000623,-0.00027074,-0.00079280,0.00002723,0.00041602,0.00057650,
 -0.00093776,0.00100471,0.00179168,-0.00040201,-0.00089773,-0.00039030,
 -0.00019259,0.00034441,0.00003582,0.00031197,0.00034027,0.00021693,-0.
 00005396,-0.00015575,-0.00003603,0.00052672,0.00184338,-0.00058694,0.0
 0024901,0.00002968,0.00033965,0.00068723,-0.00000222,-0.00002641,-0.00
 014982,-0.00003365,-0.00002298,-0.00006423,-0.00138553,0.00033183,-0.0
 0137829,0.00211543,-0.00066887,0.00008536,-0.00009547,-0.00009723,0.00
 159953,0.00089830,-0.00104536,-0.00683828,-0.05236355,0.00339845,-0.03
 796263,0.06387709,0.00089411,0.00278190,-0.00373734,0.00024139,-0.0001
 2165,0.00131229,-0.00090707,0.00010105,0.00065542,0.00134253,0.0001971
 7,0.00215908,0.00405888,-0.00539279,-0.00121518,-0.00470679,0.00175230
 ,0.00247375,-0.00028929,-0.00007571,-0.00041060,0.00152683,0.00004179,
 0.00001558,0.00025776,-0.00015739,-0.00045030,0.00012577,0.00034079,-0
 .00015677,-0.00007025,0.00105212,0.00077241,-0.00009922,0.00007412,-0.
 00024862,-0.00000423,-0.00034732,-0.00030514,-0.00026112,0.00100485,0.
 00052819,-0.00177392,0.00058531,-0.00058397,0.00048344,-0.00053354,-0.
 00043190,-0.00015847,0.00005588,0.00021808,0.00040839,0.00052613,-0.00
 036289,-0.00011875,-0.00031967,-0.00008073,-0.00157542,-0.00245547,-0.
 00162378,0.00054226,0.00096994,-0.00029874,0.00040946,0.00059184,-0.00
 088457,-0.00019361,-0.00025685,0.00010929,-0.00073292,-0.00000019,-0.0
 0341415,0.00364534,-0.00098386,0.00549678,-0.00034733,0.00001074,0.000
 42400,0.00188704,-0.00034349,-0.00063486,-0.21427509,0.04053726,-0.185
 34404,0.22080854,-0.03877128,0.19101945,-0.00013858,-0.00045614,0.0014
 5035,-0.00051423,0.00011128,-0.00020499,0.00030322,-0.00034611,-0.0005
 9409,-0.00219431,-0.00024761,-0.00376090,0.00230680,-0.00085092,-0.001
 74497,-0.00014295,0.00030618,-0.00039964,0.00086264,0.00037032,0.00077
 111,0.00008028,-0.00003558,0.00011321,-0.00014145,0.00016458,0.0001238
 5,0.00001725,0.00007362,-0.00000989,-0.00006646,0.00020044,0.00014305,
 0.00002891,-0.00010004,0.00007933,0.00002895,0.00000916,-0.00007574,-0
 .00041830,0.00006466,0.00003408,-0.00324651,-0.00044197,-0.00018938,0.
 00000853,-0.00021041,0.00002283,-0.00011923,0.00019128,-0.00004175,-0.
 00014844,0.00010487,0.00062271,0.00005939,0.00001734,0.00003982,0.0020
 1693,0.00254677,0.00254241,-0.00004058,-0.00062614,0.00078907,0.000712
 53,-0.00020512,0.00042761,-0.00007268,0.00002384,-0.00014919,-0.001158
 55,0.00180032,-0.00005678,0.00171675,-0.00517006,-0.00047849,-0.000520
 74,-0.00038306,0.00076745,0.00095348,0.00060654,0.00121666,-0.03870832
 ,-0.02686877,-0.01322273,-0.00233116,0.04421201,-0.01111827,0.04086682
 ,-0.00068962,-0.00136916,-0.00118612,-0.00009423,0.00054439,0.00018249
 ,-0.00016514,-0.00023664,-0.00050593,-0.00097465,-0.00009015,-0.002450
 71,-0.00155250,0.00146865,-0.00020141,0.00073544,-0.00008498,-0.000304
 41,0.00043333,0.00009441,0.00042326,-0.00022972,-0.00003875,-0.0000331
 4,0.00004300,0.00001727,-0.00006031,-0.00000543,-0.00020733,-0.0000371
 6,0.00019553,0.00016772,0.00030212,0.00001812,-0.00007950,0.00002105,0
 .00001772,-0.00008338,-0.00013871,0.00028315,-0.00026742,0.00004799,0.
 00014396,-0.00189750,0.00027258,-0.00020385,-0.00014379,-0.00004792,-0
 .00002186,0.00015083,-0.00002278,0.00018466,-0.00004276,0.00044308,0.0
 0001383,0.00004280,-0.00002205,0.00060708,-0.00242050,0.00201864,0.000
 79650,0.00094935,0.00018000,0.00037269,-0.00045527,0.00022693,-0.00010
 434,0.00010287,-0.00009712,0.00114912,-0.00063522,-0.00273441,-0.00295
 650,-0.00088587,0.00342561,-0.00004820,0.00007311,0.00008784,0.0008832
 3,0.00159603,0.00052574,0.01961800,-0.47124531,0.08088635,-0.00358800,
 -0.01146187,-0.00086398,-0.01486130,0.48643797,0.00252214,-0.00125436,
 -0.00015056,-0.00013151,-0.00018673,0.00026118,-0.00053896,-0.00049971
 ,0.00015782,0.00031862,-0.00027494,0.00174349,-0.00534019,-0.00026948,
 -0.00184750,-0.00158787,-0.00002176,0.00041349,-0.00021097,-0.00007597
 ,-0.00037339,0.00027621,0.00005374,0.00000416,0.00009622,-0.00009166,-
 0.00012253,-0.00002607,-0.00007727,0.00001989,0.00007969,0.00039468,0.
 00012825,-0.00001748,0.00003397,-0.00001964,-0.00004997,-0.00006230,-0
 .00009095,0.00092551,-0.00007119,0.00049284,0.00223143,0.00180199,0.00
 347693,0.00028138,-0.00024697,-0.00013137,-0.00008994,0.00001319,0.000
 08930,0.00060263,0.00042103,-0.00020241,-0.00011508,-0.00023043,-0.000
 07935,-0.00106271,-0.00016543,-0.00421693,0.00179026,0.00114171,0.0001
 3425,0.00010157,0.00026710,-0.00032332,-0.00010736,-0.00006412,0.00008
 959,0.00000117,-0.00224364,-0.00018962,-0.00056665,0.00487579,-0.00006
 759,0.00041703,0.00014385,-0.00029248,0.00133512,0.00064887,-0.0023223
 1,-0.01896155,0.04109510,-0.03190851,-0.00507593,0.03528245,-0.0050007
 3,0.02290327,-0.08033751,0.04032800\\0.00006391,0.00000038,0.00002859,
 0.00000258,-0.00000293,-0.00000067,0.00002204,-0.00001009,0.00003166,0
 .00001101,-0.00000385,0.00000355,-0.00005618,0.00005801,-0.00000707,-0
 .00005207,0.00000460,-0.00001920,0.00000316,-0.00000036,0.00000002,0.0
 0000345,-0.00000637,0.00000792,-0.00000125,-0.00000454,-0.00000153,0.0
 0000466,0.00000392,-0.00000106,0.00002412,-0.00000789,-0.00000515,-0.0
 0000269,-0.00000422,-0.00000047,-0.00000925,-0.00000214,-0.00000465,0.
 00000336,-0.00001535,0.00000322,0.00001669,-0.00002506,-0.00001603,-0.
 00002386,-0.00001130,0.00000487,-0.00001304,-0.00000827,-0.00000487,-0
 .00000667,-0.00000074,-0.00000874,0.00000771,-0.00000510,0.00000460,0.
 00000147,-0.00000968,-0.00001400,0.00000350,0.00000135,-0.00000435,-0.
 00000137,0.00000004,-0.00000357,0.00000422,-0.00001250,-0.00000153,0.0
 0003054,0.00003387,-0.00000787,-0.00003481,0.00001243,0.00002071,-0.00
 000569,0.00000933,-0.00000526,0.00000693,-0.00000235,0.00002361,0.0000
 3561,-0.00001034,-0.00001925,-0.00003029,0.00000744,-0.00001274,-0.000
 00778,0.00001173,0.00000926\\\@


 WE ARE PERHAPS NOT FAR REMOVED FROM THE TIME WHEN WE SHALL BE ABLE TO SUBMIT
 THE BULK OF CHEMICAL PHENOMENA TO CALCULATION.

            -- JOSEPH LOUIS GAY-LUSSAC
               MEMOIRES DE LA SOCIETE D'ARCUEIL, 2, 207 (1808)
 Job cpu time:       0 days  0 hours 32 minutes 36.0 seconds.
 File lengths (MBytes):  RWF=    221 Int=      0 D2E=      0 Chk=      6 Scr=      1
 Normal termination of Gaussian 09 at Sun Jan 15 22:12:42 2017.
