 Entering Gaussian System, Link 0=g09
 Initial command:
 /global/software/gaussian/g09.d01/l1.exe "/home/iawad/Gau-31064.inp" -scrdir="/home/iawad/"
 Entering Link 1 = /global/software/gaussian/g09.d01/l1.exe PID=     31065.
  
 Copyright (c) 1988,1990,1992,1993,1995,1998,2003,2009,2013,
            Gaussian, Inc.  All Rights Reserved.
  
 This is part of the Gaussian(R) 09 program.  It is based on
 the Gaussian(R) 03 system (copyright 2003, Gaussian, Inc.),
 the Gaussian(R) 98 system (copyright 1998, Gaussian, Inc.),
 the Gaussian(R) 94 system (copyright 1995, Gaussian, Inc.),
 the Gaussian 92(TM) system (copyright 1992, Gaussian, Inc.),
 the Gaussian 90(TM) system (copyright 1990, Gaussian, Inc.),
 the Gaussian 88(TM) system (copyright 1988, Gaussian, Inc.),
 the Gaussian 86(TM) system (copyright 1986, Carnegie Mellon
 University), and the Gaussian 82(TM) system (copyright 1983,
 Carnegie Mellon University). Gaussian is a federally registered
 trademark of Gaussian, Inc.
  
 This software contains proprietary and confidential information,
 including trade secrets, belonging to Gaussian, Inc.
  
 This software is provided under written license and may be
 used, copied, transmitted, or stored only in accord with that
 written license.
  
 The following legend is applicable only to US Government
 contracts under FAR:
  
                    RESTRICTED RIGHTS LEGEND
  
 Use, reproduction and disclosure by the US Government is
 subject to restrictions as set forth in subparagraphs (a)
 and (c) of the Commercial Computer Software - Restricted
 Rights clause in FAR 52.227-19.
  
 Gaussian, Inc.
 340 Quinnipiac St., Bldg. 40, Wallingford CT 06492
  
  
 ---------------------------------------------------------------
 Warning -- This program may not be used in any manner that
 competes with the business of Gaussian, Inc. or will provide
 assistance to any competitor of Gaussian, Inc.  The licensee
 of this program is prohibited from giving any competitor of
 Gaussian, Inc. access to this program.  By using this program,
 the user acknowledges that Gaussian, Inc. is engaged in the
 business of creating and licensing software in the field of
 computational chemistry and represents and warrants to the
 licensee that it is not a competitor of Gaussian, Inc. and that
 it will not use this program in any manner prohibited above.
 ---------------------------------------------------------------
  

 Cite this work as:
 Gaussian 09, Revision D.01,
 M. J. Frisch, G. W. Trucks, H. B. Schlegel, G. E. Scuseria, 
 M. A. Robb, J. R. Cheeseman, G. Scalmani, V. Barone, B. Mennucci, 
 G. A. Petersson, H. Nakatsuji, M. Caricato, X. Li, H. P. Hratchian, 
 A. F. Izmaylov, J. Bloino, G. Zheng, J. L. Sonnenberg, M. Hada, 
 M. Ehara, K. Toyota, R. Fukuda, J. Hasegawa, M. Ishida, T. Nakajima, 
 Y. Honda, O. Kitao, H. Nakai, T. Vreven, J. A. Montgomery, Jr., 
 J. E. Peralta, F. Ogliaro, M. Bearpark, J. J. Heyd, E. Brothers, 
 K. N. Kudin, V. N. Staroverov, T. Keith, R. Kobayashi, J. Normand, 
 K. Raghavachari, A. Rendell, J. C. Burant, S. S. Iyengar, J. Tomasi, 
 M. Cossi, N. Rega, J. M. Millam, M. Klene, J. E. Knox, J. B. Cross, 
 V. Bakken, C. Adamo, J. Jaramillo, R. Gomperts, R. E. Stratmann, 
 O. Yazyev, A. J. Austin, R. Cammi, C. Pomelli, J. W. Ochterski, 
 R. L. Martin, K. Morokuma, V. G. Zakrzewski, G. A. Voth, 
 P. Salvador, J. J. Dannenberg, S. Dapprich, A. D. Daniels, 
 O. Farkas, J. B. Foresman, J. V. Ortiz, J. Cioslowski, 
 and D. J. Fox, Gaussian, Inc., Wallingford CT, 2013.
 
 ******************************************
 Gaussian 09:  ES64L-G09RevD.01 24-Apr-2013
                22-Jan-2017 
 ******************************************
 %nprocshared=20
 Will use up to   20 processors via shared memory.
 -------------------------
 # b3lyp/6-31g(d) opt freq
 -------------------------
 1/14=-1,18=20,19=15,26=3,38=1/1,3;
 2/9=110,12=2,17=6,18=5,40=1/2;
 3/5=1,6=6,7=1,11=2,16=1,25=1,30=1,71=1,74=-5/1,2,3;
 4//1;
 5/5=2,38=5/2;
 6/7=2,8=2,9=2,10=2,28=1/1;
 7//1,2,3,16;
 1/14=-1,18=20,19=15,26=3/3(2);
 2/9=110/2;
 99//99;
 2/9=110/2;
 3/5=1,6=6,7=1,11=2,16=1,25=1,30=1,71=1,74=-5/1,2,3;
 4/5=5,16=3,69=1/1;
 5/5=2,38=5/2;
 7//1,2,3,16;
 1/14=-1,18=20,19=15,26=3/3(-5);
 2/9=110/2;
 6/7=2,8=2,9=2,10=2,19=2,28=1/1;
 99/9=1/99;
 -------------------
 Title Card Required
 -------------------
 Symbolic Z-matrix:
 Charge =  0 Multiplicity = 1
 O                    -1.4691   -0.14514  -1.15617 
 C                    -0.64691   0.74189   1.01086 
 C                     1.08057  -0.64293  -0.40479 
 C                     0.60852  -0.17242   0.98556 
 C                     0.04244  -1.45483  -1.17615 
 C                    -1.33027   1.00928  -0.34302 
 H                     0.34468  -1.07835   1.5449 
 H                    -2.34318   1.38543  -0.11847 
 H                    -0.33913   1.71509   1.4108 
 H                     1.48761   0.19016  -0.9786 
 C                    -0.64229   2.10792  -1.16369 
 H                    -1.03691   2.0679   -2.18782 
 H                     0.44025   1.97107  -1.21696 
 O                    -0.84451   3.37128  -0.54913 
 H                    -1.74829   3.65872  -0.75045 
 O                     2.15524  -1.57234  -0.27669 
 H                     1.74493  -2.42248  -0.03575 
 O                     1.7166    0.48855   1.60613 
 H                     1.6487    0.36767   2.56474 
 O                    -1.57194   0.11759   1.9356 
 H                    -2.25435   0.76997   2.16246 
 H                     0.05095  -1.34746  -2.27103 
 O                    -0.38184  -2.48733  -0.63705 
 H                    -2.02226  -2.47798   0.03827 
 O                    -2.74975  -1.85168   0.24407 
 H                    -2.46304  -1.42237   1.07598 
 H                    -2.13565  -0.77421  -0.71499 
 O                     3.90104   0.68775  -0.37795 
 H                     3.40266   0.83293   0.44416 
 H                     3.79963  -0.27149  -0.49107 
 
 Add virtual bond connecting atoms H27        and O25        Dist= 2.96D+00.
 Add virtual bond connecting atoms H29        and O18        Dist= 3.92D+00.
 Add virtual bond connecting atoms H30        and O16        Dist= 3.98D+00.

 GradGradGradGradGradGradGradGradGradGradGradGradGradGradGradGradGradGrad
 Berny optimization.
 Initialization pass.
                           ----------------------------
                           !    Initial Parameters    !
                           ! (Angstroms and Degrees)  !
 --------------------------                            --------------------------
 ! Name  Definition              Value          Derivative Info.                !
 --------------------------------------------------------------------------------
 ! R1    R(1,6)                  1.4189         estimate D2E/DX2                !
 ! R2    R(1,27)                 1.0172         estimate D2E/DX2                !
 ! R3    R(2,4)                  1.5533         estimate D2E/DX2                !
 ! R4    R(2,6)                  1.54           estimate D2E/DX2                !
 ! R5    R(2,9)                  1.0963         estimate D2E/DX2                !
 ! R6    R(2,20)                 1.4493         estimate D2E/DX2                !
 ! R7    R(3,4)                  1.5419         estimate D2E/DX2                !
 ! R8    R(3,5)                  1.5271         estimate D2E/DX2                !
 ! R9    R(3,10)                 1.0904         estimate D2E/DX2                !
 ! R10   R(3,16)                 1.4266         estimate D2E/DX2                !
 ! R11   R(4,7)                  1.0969         estimate D2E/DX2                !
 ! R12   R(4,18)                 1.4317         estimate D2E/DX2                !
 ! R13   R(5,22)                 1.1002         estimate D2E/DX2                !
 ! R14   R(5,23)                 1.2396         estimate D2E/DX2                !
 ! R15   R(6,8)                  1.1036         estimate D2E/DX2                !
 ! R16   R(6,11)                 1.5342         estimate D2E/DX2                !
 ! R17   R(11,12)                1.0983         estimate D2E/DX2                !
 ! R18   R(11,13)                1.0925         estimate D2E/DX2                !
 ! R19   R(11,14)                1.4194         estimate D2E/DX2                !
 ! R20   R(14,15)                0.9695         estimate D2E/DX2                !
 ! R21   R(16,17)                0.9743         estimate D2E/DX2                !
 ! R22   R(16,30)                2.1076         estimate D2E/DX2                !
 ! R23   R(18,19)                0.9686         estimate D2E/DX2                !
 ! R24   R(18,29)                2.0764         estimate D2E/DX2                !
 ! R25   R(20,21)                0.971          estimate D2E/DX2                !
 ! R26   R(24,25)                0.9818         estimate D2E/DX2                !
 ! R27   R(25,26)                0.9791         estimate D2E/DX2                !
 ! R28   R(25,27)                1.5678         estimate D2E/DX2                !
 ! R29   R(28,29)                0.9723         estimate D2E/DX2                !
 ! R30   R(28,30)                0.9712         estimate D2E/DX2                !
 ! A1    A(6,1,27)             108.5866         estimate D2E/DX2                !
 ! A2    A(4,2,6)              116.522          estimate D2E/DX2                !
 ! A3    A(4,2,9)              107.5523         estimate D2E/DX2                !
 ! A4    A(4,2,20)             105.8248         estimate D2E/DX2                !
 ! A5    A(6,2,9)              106.9285         estimate D2E/DX2                !
 ! A6    A(6,2,20)             110.6415         estimate D2E/DX2                !
 ! A7    A(9,2,20)             109.1967         estimate D2E/DX2                !
 ! A8    A(4,3,5)              114.1803         estimate D2E/DX2                !
 ! A9    A(4,3,10)             110.8346         estimate D2E/DX2                !
 ! A10   A(4,3,16)             110.3937         estimate D2E/DX2                !
 ! A11   A(5,3,10)             113.2145         estimate D2E/DX2                !
 ! A12   A(5,3,16)             102.1865         estimate D2E/DX2                !
 ! A13   A(10,3,16)            105.2958         estimate D2E/DX2                !
 ! A14   A(2,4,3)              116.2164         estimate D2E/DX2                !
 ! A15   A(2,4,7)              106.4652         estimate D2E/DX2                !
 ! A16   A(2,4,18)             110.2877         estimate D2E/DX2                !
 ! A17   A(3,4,7)              106.3456         estimate D2E/DX2                !
 ! A18   A(3,4,18)             107.1443         estimate D2E/DX2                !
 ! A19   A(7,4,18)             110.2691         estimate D2E/DX2                !
 ! A20   A(3,5,22)             116.4587         estimate D2E/DX2                !
 ! A21   A(3,5,23)             117.1195         estimate D2E/DX2                !
 ! A22   A(22,5,23)            121.1135         estimate D2E/DX2                !
 ! A23   A(1,6,2)              113.9538         estimate D2E/DX2                !
 ! A24   A(1,6,8)              107.7047         estimate D2E/DX2                !
 ! A25   A(1,6,11)             108.6597         estimate D2E/DX2                !
 ! A26   A(2,6,8)              106.7139         estimate D2E/DX2                !
 ! A27   A(2,6,11)             113.3052         estimate D2E/DX2                !
 ! A28   A(8,6,11)             106.0421         estimate D2E/DX2                !
 ! A29   A(6,11,12)            108.155          estimate D2E/DX2                !
 ! A30   A(6,11,13)            112.3795         estimate D2E/DX2                !
 ! A31   A(6,11,14)            109.9915         estimate D2E/DX2                !
 ! A32   A(12,11,13)           107.8197         estimate D2E/DX2                !
 ! A33   A(12,11,14)           112.6431         estimate D2E/DX2                !
 ! A34   A(13,11,14)           105.8897         estimate D2E/DX2                !
 ! A35   A(11,14,15)           107.8661         estimate D2E/DX2                !
 ! A36   A(3,16,17)            105.8695         estimate D2E/DX2                !
 ! A37   A(3,16,30)            100.1659         estimate D2E/DX2                !
 ! A38   A(17,16,30)           153.1673         estimate D2E/DX2                !
 ! A39   A(4,18,19)            108.4879         estimate D2E/DX2                !
 ! A40   A(4,18,29)            117.5462         estimate D2E/DX2                !
 ! A41   A(19,18,29)           129.1578         estimate D2E/DX2                !
 ! A42   A(2,20,21)            107.9525         estimate D2E/DX2                !
 ! A43   A(24,25,26)           103.9365         estimate D2E/DX2                !
 ! A44   A(24,25,27)            91.1428         estimate D2E/DX2                !
 ! A45   A(26,25,27)            95.954          estimate D2E/DX2                !
 ! A46   A(1,27,25)            161.2714         estimate D2E/DX2                !
 ! A47   A(29,28,30)           101.0953         estimate D2E/DX2                !
 ! A48   A(18,29,28)           149.8403         estimate D2E/DX2                !
 ! A49   A(16,30,28)           132.7835         estimate D2E/DX2                !
 ! D1    D(27,1,6,2)            67.7972         estimate D2E/DX2                !
 ! D2    D(27,1,6,8)           -50.3777         estimate D2E/DX2                !
 ! D3    D(27,1,6,11)         -164.8328         estimate D2E/DX2                !
 ! D4    D(6,1,27,25)          -79.5988         estimate D2E/DX2                !
 ! D5    D(6,2,4,3)              3.5173         estimate D2E/DX2                !
 ! D6    D(6,2,4,7)           -114.689          estimate D2E/DX2                !
 ! D7    D(6,2,4,18)           125.6812         estimate D2E/DX2                !
 ! D8    D(9,2,4,3)           -116.4278         estimate D2E/DX2                !
 ! D9    D(9,2,4,7)            125.3658         estimate D2E/DX2                !
 ! D10   D(9,2,4,18)             5.736          estimate D2E/DX2                !
 ! D11   D(20,2,4,3)           126.9499         estimate D2E/DX2                !
 ! D12   D(20,2,4,7)             8.7435         estimate D2E/DX2                !
 ! D13   D(20,2,4,18)         -110.8862         estimate D2E/DX2                !
 ! D14   D(4,2,6,1)             43.7716         estimate D2E/DX2                !
 ! D15   D(4,2,6,8)            162.5127         estimate D2E/DX2                !
 ! D16   D(4,2,6,11)           -81.1587         estimate D2E/DX2                !
 ! D17   D(9,2,6,1)            164.0505         estimate D2E/DX2                !
 ! D18   D(9,2,6,8)            -77.2083         estimate D2E/DX2                !
 ! D19   D(9,2,6,11)            39.1202         estimate D2E/DX2                !
 ! D20   D(20,2,6,1)           -77.1373         estimate D2E/DX2                !
 ! D21   D(20,2,6,8)            41.6038         estimate D2E/DX2                !
 ! D22   D(20,2,6,11)          157.9324         estimate D2E/DX2                !
 ! D23   D(4,2,20,21)          164.8154         estimate D2E/DX2                !
 ! D24   D(6,2,20,21)          -68.1179         estimate D2E/DX2                !
 ! D25   D(9,2,20,21)           49.3099         estimate D2E/DX2                !
 ! D26   D(5,3,4,2)            -59.9991         estimate D2E/DX2                !
 ! D27   D(5,3,4,7)             58.2728         estimate D2E/DX2                !
 ! D28   D(5,3,4,18)           176.1958         estimate D2E/DX2                !
 ! D29   D(10,3,4,2)            69.2865         estimate D2E/DX2                !
 ! D30   D(10,3,4,7)          -172.4416         estimate D2E/DX2                !
 ! D31   D(10,3,4,18)          -54.5186         estimate D2E/DX2                !
 ! D32   D(16,3,4,2)          -174.4428         estimate D2E/DX2                !
 ! D33   D(16,3,4,7)           -56.1708         estimate D2E/DX2                !
 ! D34   D(16,3,4,18)           61.7522         estimate D2E/DX2                !
 ! D35   D(4,3,5,22)           147.3292         estimate D2E/DX2                !
 ! D36   D(4,3,5,23)           -58.065          estimate D2E/DX2                !
 ! D37   D(10,3,5,22)           19.2461         estimate D2E/DX2                !
 ! D38   D(10,3,5,23)          173.8519         estimate D2E/DX2                !
 ! D39   D(16,3,5,22)          -93.4775         estimate D2E/DX2                !
 ! D40   D(16,3,5,23)           61.1283         estimate D2E/DX2                !
 ! D41   D(4,3,16,17)           78.4218         estimate D2E/DX2                !
 ! D42   D(4,3,16,30)          -95.0204         estimate D2E/DX2                !
 ! D43   D(5,3,16,17)          -43.4057         estimate D2E/DX2                !
 ! D44   D(5,3,16,30)          143.1521         estimate D2E/DX2                !
 ! D45   D(10,3,16,17)        -161.9041         estimate D2E/DX2                !
 ! D46   D(10,3,16,30)          24.6537         estimate D2E/DX2                !
 ! D47   D(2,4,18,19)           82.9439         estimate D2E/DX2                !
 ! D48   D(2,4,18,29)         -119.335          estimate D2E/DX2                !
 ! D49   D(3,4,18,19)         -149.689          estimate D2E/DX2                !
 ! D50   D(3,4,18,29)            8.0321         estimate D2E/DX2                !
 ! D51   D(7,4,18,19)          -34.3557         estimate D2E/DX2                !
 ! D52   D(7,4,18,29)          123.3654         estimate D2E/DX2                !
 ! D53   D(1,6,11,12)           39.0734         estimate D2E/DX2                !
 ! D54   D(1,6,11,13)          -79.8281         estimate D2E/DX2                !
 ! D55   D(1,6,11,14)          162.4702         estimate D2E/DX2                !
 ! D56   D(2,6,11,12)          166.8125         estimate D2E/DX2                !
 ! D57   D(2,6,11,13)           47.911          estimate D2E/DX2                !
 ! D58   D(2,6,11,14)          -69.7907         estimate D2E/DX2                !
 ! D59   D(8,6,11,12)          -76.4635         estimate D2E/DX2                !
 ! D60   D(8,6,11,13)          164.6351         estimate D2E/DX2                !
 ! D61   D(8,6,11,14)           46.9334         estimate D2E/DX2                !
 ! D62   D(6,11,14,15)         -77.1105         estimate D2E/DX2                !
 ! D63   D(12,11,14,15)         43.6211         estimate D2E/DX2                !
 ! D64   D(13,11,14,15)        161.2342         estimate D2E/DX2                !
 ! D65   D(3,16,30,28)          21.0419         estimate D2E/DX2                !
 ! D66   D(17,16,30,28)       -144.8728         estimate D2E/DX2                !
 ! D67   D(4,18,29,28)         -10.0925         estimate D2E/DX2                !
 ! D68   D(19,18,29,28)        142.2821         estimate D2E/DX2                !
 ! D69   D(24,25,26,27)         92.6675         estimate D2E/DX2                !
 ! D70   D(24,25,27,1)         -51.2713         estimate D2E/DX2                !
 ! D71   D(26,25,27,1)          52.868          estimate D2E/DX2                !
 ! D72   D(30,28,29,18)        -44.8041         estimate D2E/DX2                !
 ! D73   D(29,28,30,16)         43.2608         estimate D2E/DX2                !
 --------------------------------------------------------------------------------
 Trust Radius=3.00D-01 FncErr=1.00D-07 GrdErr=1.00D-06
 Number of steps in this run=    162 maximum allowed number of steps=    180.
 GradGradGradGradGradGradGradGradGradGradGradGradGradGradGradGradGradGrad

                          Input orientation:                          
 ---------------------------------------------------------------------
 Center     Atomic      Atomic             Coordinates (Angstroms)
 Number     Number       Type             X           Y           Z
 ---------------------------------------------------------------------
      1          8           0       -1.469104   -0.145137   -1.156165
      2          6           0       -0.646912    0.741892    1.010865
      3          6           0        1.080571   -0.642925   -0.404794
      4          6           0        0.608520   -0.172416    0.985564
      5          6           0        0.042443   -1.454834   -1.176149
      6          6           0       -1.330266    1.009281   -0.343015
      7          1           0        0.344675   -1.078349    1.544895
      8          1           0       -2.343178    1.385429   -0.118474
      9          1           0       -0.339134    1.715092    1.410804
     10          1           0        1.487606    0.190156   -0.978598
     11          6           0       -0.642287    2.107917   -1.163687
     12          1           0       -1.036913    2.067900   -2.187815
     13          1           0        0.440253    1.971072   -1.216960
     14          8           0       -0.844509    3.371275   -0.549127
     15          1           0       -1.748287    3.658720   -0.750448
     16          8           0        2.155242   -1.572336   -0.276689
     17          1           0        1.744926   -2.422485   -0.035745
     18          8           0        1.716601    0.488548    1.606128
     19          1           0        1.648699    0.367670    2.564735
     20          8           0       -1.571942    0.117590    1.935603
     21          1           0       -2.254354    0.769969    2.162457
     22          1           0        0.050945   -1.347455   -2.271029
     23          8           0       -0.381839   -2.487333   -0.637048
     24          1           0       -2.022265   -2.477982    0.038274
     25          8           0       -2.749750   -1.851678    0.244074
     26          1           0       -2.463038   -1.422373    1.075981
     27          1           0       -2.135649   -0.774213   -0.714987
     28          8           0        3.901042    0.687752   -0.377945
     29          1           0        3.402662    0.832927    0.444162
     30          1           0        3.799625   -0.271488   -0.491073
 ---------------------------------------------------------------------
                    Distance matrix (angstroms):
                    1          2          3          4          5
     1  O    0.000000
     2  C    2.481701   0.000000
     3  C    2.704292   2.627928   0.000000
     4  C    2.984002   1.553290   1.541852   0.000000
     5  C    2.000120   3.175507   1.527054   2.576440   0.000000
     6  C    1.418862   1.539955   2.923309   2.630669   2.941140
     7  H    3.384731   2.140493   2.128949   1.096896   2.763542
     8  H    2.045346   2.137022   3.989769   3.515438   3.857066
     9  H    3.365504   1.096265   3.297302   2.154429   4.109301
    10  H    2.980954   2.969603   1.090391   2.182243   2.198526
    11  C    2.399987   2.568019   3.333360   3.373976   3.627975
    12  H    2.479642   3.484530   3.874464   4.218625   3.820750
    13  H    2.850909   2.766951   2.811157   3.077981   3.449167
    14  O    3.622674   3.063703   4.454275   4.126053   4.946834
    15  H    3.835607   3.580941   5.160045   4.821398   5.434737
    16  O    3.993277   3.855582   1.426581   2.438321   2.299294
    17  H    4.095320   4.102385   1.935045   2.719798   2.266124
    18  O    4.263864   2.450452   2.393444   1.431718   3.784257
    19  H    4.881471   2.797210   3.187817   1.966582   4.460470
    20  O    3.104614   1.449336   3.618241   2.396058   3.842103
    21  H    3.530905   1.977580   4.439456   3.235617   4.622912
    22  H    2.235853   3.952620   2.244844   3.506708   1.100166
    23  O    2.633915   3.635076   2.365254   2.995417   1.239637
    24  H    2.678589   3.633885   3.631988   3.624089   2.604741
    25  O    2.552059   3.425858   4.068596   3.827232   3.157667
    26  H    2.757120   2.826057   3.918852   3.317384   3.369062
    27  H    1.017181   2.737422   3.233810   3.283976   2.328089
    28  O    5.489790   4.755587   3.118730   3.666026   4.485152
    29  H    5.220322   4.090048   2.879405   3.018453   4.376109
    30  H    5.312045   4.801505   2.745663   3.517588   3.998256
                    6          7          8          9         10
     6  C    0.000000
     7  H    3.275337   0.000000
     8  H    1.103584   4.007687   0.000000
     9  H    2.134571   2.879043   2.542353   0.000000
    10  H    3.002555   3.046869   4.104071   3.372188   0.000000
    11  C    1.534216   4.296836   2.123085   2.621873   2.872022
    12  H    2.147095   5.073538   2.540525   3.682584   3.370656
    13  H    2.196260   4.115331   3.049121   2.752837   2.079766
    14  O    2.420219   5.059470   2.524887   2.615277   3.967710
    15  H    2.712982   5.664708   2.433339   3.230234   4.749104
    16  O    4.337962   2.615405   5.386018   4.458332   2.011167
    17  H    4.618251   2.503163   5.587454   4.853386   2.789458
    18  O    3.654274   2.083530   4.501161   2.401793   2.611950
    19  H    4.211996   2.198073   4.916353   2.664317   3.551432
    20  O    2.458784   2.292672   2.534059   2.085004   4.225952
    21  H    2.681156   3.248479   2.364176   2.264135   4.919825
    22  H    3.343529   3.836661   4.223029   4.804919   2.469538
    23  O    3.634870   2.697023   4.371962   4.675029   3.283356
    24  H    3.575646   3.135488   3.879884   4.722143   4.524620
    25  O    3.247260   3.444654   3.282621   4.460289   4.859959
    26  H    3.034743   2.867313   3.053660   3.803520   4.735941
    27  H    1.991948   3.369209   2.250100   3.734045   3.758653
    28  O    5.241296   4.411822   6.288431   4.715309   2.536348
    29  H    4.801183   3.770394   5.799698   3.964045   2.470797
    30  H    5.289430   4.090583   6.373243   4.969201   2.407536
                   11         12         13         14         15
    11  C    0.000000
    12  H    1.098257   0.000000
    13  H    1.092455   1.770298   0.000000
    14  O    1.419384   2.102642   2.014245   0.000000
    15  H    1.949100   2.258935   2.802766   0.969520   0.000000
    16  O    4.707143   5.205149   4.047349   5.788957   6.544153
    17  H    5.243623   5.703822   4.732947   6.366819   7.049425
    18  O    3.982284   4.946736   3.434642   4.417525   5.254416
    19  H    4.709374   5.717519   4.281642   4.993382   5.775895
    20  O    3.798850   4.592662   4.174084   4.158065   4.448097
    21  H    3.930916   4.700176   4.485980   4.013371   4.133522
    22  H    3.694100   3.585388   3.503604   5.102274   5.532738
    23  O    4.632656   4.856351   4.570504   5.877506   6.297143
    24  H    4.937562   5.156688   5.237718   5.995495   6.193243
    25  O    4.701232   4.920466   5.188849   5.615901   5.688276
    26  H    4.560065   4.986803   5.020174   5.314101   5.446487
    27  H    3.276909   3.384383   3.797873   4.345069   4.449966
    28  O    4.824531   5.437264   3.785223   5.454434   6.393773
    29  H    4.535680   5.306815   3.581978   5.046612   5.995371
    30  H    5.083755   5.634161   4.103824   5.902633   6.803906
                   16         17         18         19         20
    16  O    0.000000
    17  H    0.974252   0.000000
    18  O    2.825712   3.342254   0.000000
    19  H    3.477628   3.815327   0.968581   0.000000
    20  O    4.652095   4.619503   3.325760   3.291030   0.000000
    21  H    5.557010   5.569389   4.019600   3.944299   0.970952
    22  H    2.907925   3.003624   4.601920   5.373926   4.740872
    23  O    2.721003   2.211086   4.276816   4.746108   3.849741
    24  H    4.286136   3.768327   5.023702   5.287411   3.246482
    25  O    4.940463   4.539409   5.223039   5.445854   2.850705
    26  H    4.814636   4.465772   4.626236   4.725148   1.975978
    27  H    4.386439   4.270484   4.671399   5.136318   2.852842
    28  O    2.857633   3.799936   2.957704   3.719525   5.969183
    29  H    2.803743   3.684577   2.076430   2.791000   5.242403
    30  H    2.107644   3.009302   3.052031   3.791170   5.907103
                   21         22         23         24         25
    21  H    0.000000
    22  H    5.427125   0.000000
    23  O    4.685462   2.038754   0.000000
    24  H    3.887828   3.302903   1.774019   0.000000
    25  O    3.286129   3.797878   2.605271   0.981756   0.000000
    26  H    2.455676   4.186669   2.898275   1.544483   0.979069
    27  H    3.267763   2.744279   2.452897   1.866303   1.567753
    28  O    6.659527   4.748587   5.337731   6.729092   7.146233
    29  H    5.912557   4.833253   5.149329   6.368414   6.715602
    30  H    6.691526   4.287021   4.734545   6.248458   6.777297
                   26         27         28         29         30
    26  H    0.000000
    27  H    1.932579   0.000000
    28  O    6.860615   6.220336   0.000000
    29  H    6.316012   5.882127   0.972275   0.000000
    30  H    6.557526   5.960734   0.971198   1.500659   0.000000
 Stoichiometry    C6H16O8
 Framework group  C1[X(C6H16O8)]
 Deg. of freedom    84
 Full point group                 C1      NOp   1
 Largest Abelian subgroup         C1      NOp   1
 Largest concise Abelian subgroup C1      NOp   1
                         Standard orientation:                         
 ---------------------------------------------------------------------
 Center     Atomic      Atomic             Coordinates (Angstroms)
 Number     Number       Type             X           Y           Z
 ---------------------------------------------------------------------
      1          8           0       -1.451094   -0.196334   -1.167428
      2          6           0       -0.667167    0.706659    1.007175
      3          6           0        1.107212   -0.624048   -0.402365
      4          6           0        0.613828   -0.171598    0.986580
      5          6           0        0.097095   -1.462574   -1.182385
      6          6           0       -1.349854    0.958929   -0.349939
      7          1           0        0.372506   -1.086447    1.541554
      8          1           0       -2.374334    1.305479   -0.130304
      9          1           0       -0.389484    1.686900    1.411918
     10          1           0        1.493816    0.222085   -0.971178
     11          6           0       -0.688506    2.079270   -1.163125
     12          1           0       -1.075804    2.031383   -2.189710
     13          1           0        0.397776    1.973347   -1.210349
     14          8           0       -0.930104    3.334399   -0.545926
     15          1           0       -1.840473    3.596750   -0.751763
     16          8           0        2.207048   -1.523022   -0.270683
     17          1           0        1.819607   -2.385236   -0.034794
     18          8           0        1.699039    0.518514    1.615769
     19          1           0        1.628954    0.392669    2.573580
     20          8           0       -1.579537    0.053401    1.924459
     21          1           0       -2.281507    0.685434    2.149225
     22          1           0        0.108990   -1.351468   -2.276861
     23          8           0       -0.300886   -2.508421   -0.648986
     24          1           0       -1.944863   -2.547764    0.016550
     25          8           0       -2.691023   -1.943006    0.219914
     26          1           0       -2.421507   -1.508429    1.054827
     27          1           0       -2.102107   -0.845475   -0.732164
     28          8           0        3.888586    0.785972   -0.354602
     29          1           0        3.381458    0.914306    0.464954
     30          1           0        3.815093   -0.175388   -0.471264
 ---------------------------------------------------------------------
 Rotational constants (GHZ):      0.6603986      0.5511256      0.4130659
 Standard basis: 6-31G(d) (6D, 7F)
 There are   242 symmetry adapted cartesian basis functions of A   symmetry.
 There are   242 symmetry adapted basis functions of A   symmetry.
   242 basis functions,   456 primitive gaussians,   242 cartesian basis functions
    58 alpha electrons       58 beta electrons
       nuclear repulsion energy      1113.3939453437 Hartrees.
 NAtoms=   30 NActive=   30 NUniq=   30 SFac= 1.00D+00 NAtFMM=   60 NAOKFM=F Big=F
 Integral buffers will be    131072 words long.
 Raffenetti 2 integral format.
 Two-electron integral symmetry is turned on.
 One-electron integrals computed using PRISM.
 NBasis=   242 RedAO= T EigKep=  1.62D-03  NBF=   242
 NBsUse=   242 1.00D-06 EigRej= -1.00D+00 NBFU=   242
 ExpMin= 1.61D-01 ExpMax= 5.48D+03 ExpMxC= 8.25D+02 IAcc=1 IRadAn=         1 AccDes= 0.00D+00
 Harris functional with IExCor=  402 and IRadAn=       1 diagonalized for initial guess.
 HarFok:  IExCor=  402 AccDes= 0.00D+00 IRadAn=         1 IDoV= 1 UseB2=F ITyADJ=14
 ICtDFT=  3500011 ScaDFX=  1.000000  1.000000  1.000000  1.000000
 FoFCou: FMM=F IPFlag=           0 FMFlag=      100000 FMFlg1=           0
         NFxFlg=           0 DoJE=T BraDBF=F KetDBF=T FulRan=T
         wScrn=  0.000000 ICntrl=     500 IOpCl=  0 I1Cent=   200000004 NGrid=           0
         NMat0=    1 NMatS0=      1 NMatT0=    0 NMatD0=    1 NMtDS0=    0 NMtDT0=    0
 Petite list used in FoFCou.
 Requested convergence on RMS density matrix=1.00D-08 within 128 cycles.
 Requested convergence on MAX density matrix=1.00D-06.
 Requested convergence on             energy=1.00D-06.
 No special actions if energy rises.
 Integral accuracy reduced to 1.0D-05 until final iterations.
 Initial convergence to 1.0D-05 achieved.  Increase integral accuracy.
 SCF Done:  E(RB3LYP) =  -839.957144284     A.U. after   14 cycles
            NFock= 14  Conv=0.77D-08     -V/T= 2.0084

 **********************************************************************

            Population analysis using the SCF density.

 **********************************************************************

 Orbital symmetries:
       Occupied  (A) (A) (A) (A) (A) (A) (A) (A) (A) (A) (A) (A)
                 (A) (A) (A) (A) (A) (A) (A) (A) (A) (A) (A) (A)
                 (A) (A) (A) (A) (A) (A) (A) (A) (A) (A) (A) (A)
                 (A) (A) (A) (A) (A) (A) (A) (A) (A) (A) (A) (A)
                 (A) (A) (A) (A) (A) (A) (A) (A) (A) (A)
       Virtual   (A) (A) (A) (A) (A) (A) (A) (A) (A) (A) (A) (A)
                 (A) (A) (A) (A) (A) (A) (A) (A) (A) (A) (A) (A)
                 (A) (A) (A) (A) (A) (A) (A) (A) (A) (A) (A) (A)
                 (A) (A) (A) (A) (A) (A) (A) (A) (A) (A) (A) (A)
                 (A) (A) (A) (A) (A) (A) (A) (A) (A) (A) (A) (A)
                 (A) (A) (A) (A) (A) (A) (A) (A) (A) (A) (A) (A)
                 (A) (A) (A) (A) (A) (A) (A) (A) (A) (A) (A) (A)
                 (A) (A) (A) (A) (A) (A) (A) (A) (A) (A) (A) (A)
                 (A) (A) (A) (A) (A) (A) (A) (A) (A) (A) (A) (A)
                 (A) (A) (A) (A) (A) (A) (A) (A) (A) (A) (A) (A)
                 (A) (A) (A) (A) (A) (A) (A) (A) (A) (A) (A) (A)
                 (A) (A) (A) (A) (A) (A) (A) (A) (A) (A) (A) (A)
                 (A) (A) (A) (A) (A) (A) (A) (A) (A) (A) (A) (A)
                 (A) (A) (A) (A) (A) (A) (A) (A) (A) (A) (A) (A)
                 (A) (A) (A) (A) (A) (A) (A) (A) (A) (A) (A) (A)
                 (A) (A) (A) (A)
 The electronic state is 1-A.
 Alpha  occ. eigenvalues --  -19.19089 -19.17737 -19.17322 -19.16749 -19.16241
 Alpha  occ. eigenvalues --  -19.15614 -19.13442 -19.09683 -10.28960 -10.26392
 Alpha  occ. eigenvalues --  -10.26372 -10.26144 -10.25037 -10.24897  -1.07315
 Alpha  occ. eigenvalues --   -1.05494  -1.05125  -1.04066  -1.03489  -1.01742
 Alpha  occ. eigenvalues --   -1.01062  -0.95712  -0.80015  -0.75908  -0.70977
 Alpha  occ. eigenvalues --   -0.65487  -0.62955  -0.58742  -0.56629  -0.55174
 Alpha  occ. eigenvalues --   -0.53925  -0.53515  -0.51444  -0.50553  -0.49650
 Alpha  occ. eigenvalues --   -0.47367  -0.46909  -0.46229  -0.45213  -0.44493
 Alpha  occ. eigenvalues --   -0.43647  -0.41714  -0.40641  -0.38830  -0.38274
 Alpha  occ. eigenvalues --   -0.37523  -0.36955  -0.35380  -0.34404  -0.32991
 Alpha  occ. eigenvalues --   -0.32815  -0.31291  -0.30257  -0.29411  -0.29164
 Alpha  occ. eigenvalues --   -0.27436  -0.25638  -0.24964
 Alpha virt. eigenvalues --   -0.00485   0.03504   0.04669   0.05094   0.08403
 Alpha virt. eigenvalues --    0.09080   0.09442   0.11427   0.12099   0.12652
 Alpha virt. eigenvalues --    0.14214   0.15338   0.16528   0.17679   0.18355
 Alpha virt. eigenvalues --    0.19469   0.21284   0.21637   0.22446   0.22628
 Alpha virt. eigenvalues --    0.24118   0.25025   0.25723   0.27375   0.28795
 Alpha virt. eigenvalues --    0.29769   0.32581   0.35601   0.50671   0.51938
 Alpha virt. eigenvalues --    0.52768   0.54717   0.55355   0.57984   0.59243
 Alpha virt. eigenvalues --    0.62998   0.63316   0.64407   0.64544   0.66174
 Alpha virt. eigenvalues --    0.67332   0.69020   0.71080   0.72899   0.74420
 Alpha virt. eigenvalues --    0.76887   0.78685   0.79505   0.79869   0.80615
 Alpha virt. eigenvalues --    0.81227   0.82327   0.83285   0.84103   0.84207
 Alpha virt. eigenvalues --    0.85485   0.85938   0.87187   0.87571   0.89917
 Alpha virt. eigenvalues --    0.90698   0.91827   0.92241   0.94001   0.95393
 Alpha virt. eigenvalues --    0.96113   0.97385   0.98458   0.99898   1.01875
 Alpha virt. eigenvalues --    1.02007   1.03337   1.04950   1.05139   1.06504
 Alpha virt. eigenvalues --    1.08196   1.10914   1.13061   1.13780   1.16513
 Alpha virt. eigenvalues --    1.18237   1.18973   1.20800   1.22850   1.24114
 Alpha virt. eigenvalues --    1.25371   1.27539   1.30040   1.32163   1.34767
 Alpha virt. eigenvalues --    1.37788   1.40637   1.42254   1.44205   1.46528
 Alpha virt. eigenvalues --    1.47228   1.48746   1.50999   1.57153   1.59813
 Alpha virt. eigenvalues --    1.60864   1.62970   1.64671   1.65651   1.66870
 Alpha virt. eigenvalues --    1.68075   1.70910   1.71555   1.73031   1.74485
 Alpha virt. eigenvalues --    1.75133   1.77156   1.77758   1.78235   1.78770
 Alpha virt. eigenvalues --    1.79166   1.79584   1.80694   1.82809   1.84757
 Alpha virt. eigenvalues --    1.86297   1.88217   1.89402   1.90797   1.92066
 Alpha virt. eigenvalues --    1.92765   1.97390   2.00013   2.01665   2.03332
 Alpha virt. eigenvalues --    2.06652   2.08900   2.09718   2.11853   2.14975
 Alpha virt. eigenvalues --    2.17472   2.20099   2.23689   2.25825   2.26919
 Alpha virt. eigenvalues --    2.29541   2.32379   2.34938   2.36410   2.37523
 Alpha virt. eigenvalues --    2.39880   2.42273   2.44555   2.44932   2.47016
 Alpha virt. eigenvalues --    2.48828   2.51597   2.53417   2.53778   2.55669
 Alpha virt. eigenvalues --    2.61318   2.61876   2.63329   2.64572   2.66638
 Alpha virt. eigenvalues --    2.70362   2.73162   2.80928   2.83759   2.87598
 Alpha virt. eigenvalues --    2.91460   2.94380   2.97204   3.00390   3.05502
 Alpha virt. eigenvalues --    3.69696   3.72356   3.79495   3.80812   3.86059
 Alpha virt. eigenvalues --    3.88014   3.95677   4.06516   4.29408   4.30120
 Alpha virt. eigenvalues --    4.42638   4.54273   4.62151   4.74843
          Condensed to atoms (all electrons):
               1          2          3          4          5          6
     1  O    8.485315  -0.041176  -0.009549  -0.005637   0.039338   0.170445
     2  C   -0.041176   5.145285  -0.037791   0.268047  -0.000627   0.280401
     3  C   -0.009549  -0.037791   5.170002   0.278952   0.249498  -0.000699
     4  C   -0.005637   0.268047   0.278952   5.008911  -0.021772  -0.029020
     5  C    0.039338  -0.000627   0.249498  -0.021772   4.755094  -0.006076
     6  C    0.170445   0.280401  -0.000699  -0.029020  -0.006076   5.053119
     7  H    0.000142  -0.050999  -0.036470   0.341915  -0.008375   0.002724
     8  H   -0.030548  -0.054616   0.000082   0.003914   0.001069   0.349850
     9  H    0.003617   0.345941   0.001275  -0.038773   0.000123  -0.046164
    10  H    0.000030  -0.002448   0.332322  -0.048678  -0.022860  -0.000417
    11  C   -0.038013  -0.037148  -0.003540  -0.002837  -0.000734   0.297987
    12  H    0.007671   0.005506   0.000002  -0.000072  -0.000004  -0.042741
    13  H    0.002333  -0.008418  -0.000605   0.001684   0.000429  -0.044883
    14  O    0.001591  -0.002444   0.000050   0.000205   0.000006  -0.047081
    15  H   -0.000047  -0.000518   0.000000  -0.000012   0.000000  -0.003652
    16  O    0.000413   0.003521   0.226401  -0.039958  -0.024903  -0.000079
    17  H    0.000231  -0.000021  -0.039358  -0.003376  -0.009880  -0.000032
    18  O    0.000000  -0.046914  -0.047251   0.227157   0.001978   0.002992
    19  H    0.000000   0.000353   0.006398  -0.021891  -0.000112   0.000001
    20  O    0.000220   0.172452   0.001619  -0.033102   0.000340  -0.033288
    21  H   -0.000108  -0.017600  -0.000229   0.005815   0.000005  -0.002816
    22  H   -0.018630  -0.000296  -0.088244   0.005729   0.359433   0.001565
    23  O   -0.029525   0.000417  -0.065103  -0.003602   0.410941   0.001035
    24  H    0.003811   0.000182   0.000894   0.000127  -0.005559  -0.000168
    25  O   -0.054234   0.002010  -0.000868  -0.000120   0.003958   0.002891
    26  H    0.005677  -0.005319  -0.000316  -0.000698   0.000707   0.000326
    27  H    0.152334   0.001056   0.001011  -0.000094  -0.005749  -0.006110
    28  O    0.000000  -0.000053  -0.000749  -0.001908   0.000284   0.000014
    29  H    0.000001   0.000274   0.000659  -0.002702   0.000058  -0.000026
    30  H    0.000000  -0.000002  -0.001562   0.000396   0.000324  -0.000001
               7          8          9         10         11         12
     1  O    0.000142  -0.030548   0.003617   0.000030  -0.038013   0.007671
     2  C   -0.050999  -0.054616   0.345941  -0.002448  -0.037148   0.005506
     3  C   -0.036470   0.000082   0.001275   0.332322  -0.003540   0.000002
     4  C    0.341915   0.003914  -0.038773  -0.048678  -0.002837  -0.000072
     5  C   -0.008375   0.001069   0.000123  -0.022860  -0.000734  -0.000004
     6  C    0.002724   0.349850  -0.046164  -0.000417   0.297987  -0.042741
     7  H    0.609347  -0.000325   0.004744   0.006088   0.000050   0.000006
     8  H   -0.000325   0.657435   0.001184  -0.000038  -0.045707  -0.004778
     9  H    0.004744   0.001184   0.573334   0.000221  -0.001555   0.000498
    10  H    0.006088  -0.000038   0.000221   0.573340  -0.000526   0.000210
    11  C    0.000050  -0.045707  -0.001555  -0.000526   4.969374   0.351000
    12  H    0.000006  -0.004778   0.000498   0.000210   0.351000   0.596977
    13  H   -0.000012   0.005713   0.000095   0.007160   0.379998  -0.035354
    14  O   -0.000003   0.002456   0.013813  -0.000014   0.232496  -0.024521
    15  H    0.000000   0.006365  -0.000322   0.000002  -0.027773  -0.008997
    16  O   -0.002088   0.000001  -0.000053  -0.041667   0.000042  -0.000002
    17  H    0.005598   0.000001   0.000003   0.007489  -0.000001   0.000000
    18  O   -0.031110  -0.000082   0.004948  -0.001210   0.000201   0.000003
    19  H   -0.007642   0.000005   0.000526  -0.000052  -0.000014   0.000000
    20  O    0.001044  -0.002124  -0.031006  -0.000044   0.003145  -0.000077
    21  H    0.000073   0.006468  -0.005544   0.000006  -0.000200  -0.000002
    22  H    0.000422  -0.000105  -0.000002   0.002013   0.000226   0.000166
    23  O    0.012612  -0.000121  -0.000017   0.003309   0.000000   0.000007
    24  H    0.000190  -0.000100  -0.000001  -0.000020  -0.000003   0.000000
    25  O    0.000285   0.001017  -0.000020  -0.000004   0.000017   0.000000
    26  H    0.001288  -0.000361   0.000476   0.000002   0.000098   0.000000
    27  H   -0.000061  -0.007502  -0.000175   0.000001   0.002779   0.000154
    28  O   -0.000049   0.000000  -0.000004   0.023005  -0.000049   0.000000
    29  H    0.000286   0.000000   0.000051  -0.001855   0.000001  -0.000001
    30  H   -0.000032   0.000000   0.000001  -0.005034   0.000005   0.000000
              13         14         15         16         17         18
     1  O    0.002333   0.001591  -0.000047   0.000413   0.000231   0.000000
     2  C   -0.008418  -0.002444  -0.000518   0.003521  -0.000021  -0.046914
     3  C   -0.000605   0.000050   0.000000   0.226401  -0.039358  -0.047251
     4  C    0.001684   0.000205  -0.000012  -0.039958  -0.003376   0.227157
     5  C    0.000429   0.000006   0.000000  -0.024903  -0.009880   0.001978
     6  C   -0.044883  -0.047081  -0.003652  -0.000079  -0.000032   0.002992
     7  H   -0.000012  -0.000003   0.000000  -0.002088   0.005598  -0.031110
     8  H    0.005713   0.002456   0.006365   0.000001   0.000001  -0.000082
     9  H    0.000095   0.013813  -0.000322  -0.000053   0.000003   0.004948
    10  H    0.007160  -0.000014   0.000002  -0.041667   0.007489  -0.001210
    11  C    0.379998   0.232496  -0.027773   0.000042  -0.000001   0.000201
    12  H   -0.035354  -0.024521  -0.008997  -0.000002   0.000000   0.000003
    13  H    0.534880  -0.034371   0.006900   0.000016   0.000003   0.000236
    14  O   -0.034371   8.232023   0.234684   0.000000   0.000000  -0.000010
    15  H    0.006900   0.234684   0.398568   0.000000   0.000000   0.000000
    16  O    0.000016   0.000000   0.000000   8.282094   0.227924   0.002501
    17  H    0.000003   0.000000   0.000000   0.227924   0.374332  -0.000067
    18  O    0.000236  -0.000010   0.000000   0.002501  -0.000067   8.257523
    19  H   -0.000003  -0.000001   0.000000  -0.000347   0.000049   0.236001
    20  O    0.000025  -0.000046  -0.000009  -0.000012  -0.000005   0.001185
    21  H    0.000018   0.000048  -0.000001   0.000001   0.000000  -0.000217
    22  H   -0.000080   0.000000   0.000000   0.002862   0.002168  -0.000034
    23  O    0.000003   0.000000   0.000000  -0.014366   0.029622   0.000041
    24  H    0.000000   0.000000   0.000000   0.000021  -0.000036   0.000002
    25  O    0.000001   0.000000   0.000000   0.000000   0.000012   0.000000
    26  H   -0.000001  -0.000001   0.000000  -0.000002  -0.000004   0.000003
    27  H   -0.000165  -0.000041  -0.000012  -0.000018  -0.000022   0.000001
    28  O    0.000060   0.000000   0.000000  -0.007925   0.000262  -0.007295
    29  H    0.000132   0.000000   0.000000   0.001395   0.000019   0.031664
    30  H   -0.000017   0.000000   0.000000   0.024458  -0.000400   0.000640
              19         20         21         22         23         24
     1  O    0.000000   0.000220  -0.000108  -0.018630  -0.029525   0.003811
     2  C    0.000353   0.172452  -0.017600  -0.000296   0.000417   0.000182
     3  C    0.006398   0.001619  -0.000229  -0.088244  -0.065103   0.000894
     4  C   -0.021891  -0.033102   0.005815   0.005729  -0.003602   0.000127
     5  C   -0.000112   0.000340   0.000005   0.359433   0.410941  -0.005559
     6  C    0.000001  -0.033288  -0.002816   0.001565   0.001035  -0.000168
     7  H   -0.007642   0.001044   0.000073   0.000422   0.012612   0.000190
     8  H    0.000005  -0.002124   0.006468  -0.000105  -0.000121  -0.000100
     9  H    0.000526  -0.031006  -0.005544  -0.000002  -0.000017  -0.000001
    10  H   -0.000052  -0.000044   0.000006   0.002013   0.003309  -0.000020
    11  C   -0.000014   0.003145  -0.000200   0.000226   0.000000  -0.000003
    12  H    0.000000  -0.000077  -0.000002   0.000166   0.000007   0.000000
    13  H   -0.000003   0.000025   0.000018  -0.000080   0.000003   0.000000
    14  O   -0.000001  -0.000046   0.000048   0.000000   0.000000   0.000000
    15  H    0.000000  -0.000009  -0.000001   0.000000   0.000000   0.000000
    16  O   -0.000347  -0.000012   0.000001   0.002862  -0.014366   0.000021
    17  H    0.000049  -0.000005   0.000000   0.002168   0.029622  -0.000036
    18  O    0.236001   0.001185  -0.000217  -0.000034   0.000041   0.000002
    19  H    0.378793   0.000545  -0.000064   0.000005   0.000014  -0.000001
    20  O    0.000545   8.306845   0.227927   0.000002  -0.000167   0.000334
    21  H   -0.000064   0.227927   0.382744  -0.000001  -0.000002  -0.000034
    22  H    0.000005   0.000002  -0.000001   0.637199  -0.048580   0.000401
    23  O    0.000014  -0.000167  -0.000002  -0.048580   8.213362   0.049855
    24  H   -0.000001   0.000334  -0.000034   0.000401   0.049855   0.310582
    25  O    0.000000  -0.015023   0.001005   0.000072  -0.026283   0.221849
    26  H    0.000002   0.048581  -0.002903   0.000040   0.001815  -0.011585
    27  H   -0.000001   0.001577  -0.000070   0.000367   0.006377  -0.012303
    28  O    0.000402   0.000000   0.000000  -0.000003  -0.000001   0.000000
    29  H   -0.001276  -0.000001   0.000000  -0.000003   0.000000   0.000000
    30  H   -0.000006   0.000000   0.000000  -0.000022   0.000004   0.000000
              25         26         27         28         29         30
     1  O   -0.054234   0.005677   0.152334   0.000000   0.000001   0.000000
     2  C    0.002010  -0.005319   0.001056  -0.000053   0.000274  -0.000002
     3  C   -0.000868  -0.000316   0.001011  -0.000749   0.000659  -0.001562
     4  C   -0.000120  -0.000698  -0.000094  -0.001908  -0.002702   0.000396
     5  C    0.003958   0.000707  -0.005749   0.000284   0.000058   0.000324
     6  C    0.002891   0.000326  -0.006110   0.000014  -0.000026  -0.000001
     7  H    0.000285   0.001288  -0.000061  -0.000049   0.000286  -0.000032
     8  H    0.001017  -0.000361  -0.007502   0.000000   0.000000   0.000000
     9  H   -0.000020   0.000476  -0.000175  -0.000004   0.000051   0.000001
    10  H   -0.000004   0.000002   0.000001   0.023005  -0.001855  -0.005034
    11  C    0.000017   0.000098   0.002779  -0.000049   0.000001   0.000005
    12  H    0.000000   0.000000   0.000154   0.000000  -0.000001   0.000000
    13  H    0.000001  -0.000001  -0.000165   0.000060   0.000132  -0.000017
    14  O    0.000000  -0.000001  -0.000041   0.000000   0.000000   0.000000
    15  H    0.000000   0.000000  -0.000012   0.000000   0.000000   0.000000
    16  O    0.000000  -0.000002  -0.000018  -0.007925   0.001395   0.024458
    17  H    0.000012  -0.000004  -0.000022   0.000262   0.000019  -0.000400
    18  O    0.000000   0.000003   0.000001  -0.007295   0.031664   0.000640
    19  H    0.000000   0.000002  -0.000001   0.000402  -0.001276  -0.000006
    20  O   -0.015023   0.048581   0.001577   0.000000  -0.000001   0.000000
    21  H    0.001005  -0.002903  -0.000070   0.000000   0.000000   0.000000
    22  H    0.000072   0.000040   0.000367  -0.000003  -0.000003  -0.000022
    23  O   -0.026283   0.001815   0.006377  -0.000001   0.000000   0.000004
    24  H    0.221849  -0.011585  -0.012303   0.000000   0.000000   0.000000
    25  O    8.356927   0.218278   0.115320   0.000000   0.000000   0.000000
    26  H    0.218278   0.338493  -0.012315   0.000000   0.000000   0.000000
    27  H    0.115320  -0.012315   0.310988   0.000000   0.000000   0.000000
    28  O    0.000000   0.000000   0.000000   8.343281   0.240615   0.244449
    29  H    0.000000   0.000000   0.000000   0.240615   0.354777  -0.028880
    30  H    0.000000   0.000000   0.000000   0.244449  -0.028880   0.359778
 Mulliken charges:
               1
     1  O   -0.645704
     2  C    0.080942
     3  C    0.063168
     4  C    0.111401
     5  C    0.283066
     6  C    0.099904
     7  H    0.150352
     8  H    0.110847
     9  H    0.172784
    10  H    0.169667
    11  C   -0.079319
    12  H    0.154347
    13  H    0.184222
    14  O   -0.608839
    15  H    0.394822
    16  O   -0.640232
    17  H    0.405487
    18  O   -0.632889
    19  H    0.408315
    20  O   -0.650938
    21  H    0.405682
    22  H    0.143328
    23  O   -0.541647
    24  H    0.441560
    25  O   -0.827092
    26  H    0.417716
    27  H    0.452672
    28  O   -0.834335
    29  H    0.404811
    30  H    0.405902
 Sum of Mulliken charges =   0.00000
 Mulliken charges with hydrogens summed into heavy atoms:
               1
     1  O   -0.193031
     2  C    0.253727
     3  C    0.232834
     4  C    0.261752
     5  C    0.426394
     6  C    0.210751
    11  C    0.259250
    14  O   -0.214017
    16  O   -0.234745
    18  O   -0.224573
    20  O   -0.245256
    23  O   -0.541647
    25  O    0.032185
    28  O   -0.023623
 Electronic spatial extent (au):  <R**2>=           3037.0767
 Charge=              0.0000 electrons
 Dipole moment (field-independent basis, Debye):
    X=             -4.5757    Y=              1.2096    Z=              2.8384  Tot=              5.5188
 Quadrupole moment (field-independent basis, Debye-Ang):
   XX=            -98.3548   YY=            -88.5167   ZZ=            -74.3521
   XY=            -18.8693   XZ=              2.7563   YZ=             -0.8696
 Traceless Quadrupole moment (field-independent basis, Debye-Ang):
   XX=            -11.2803   YY=             -1.4422   ZZ=             12.7224
   XY=            -18.8693   XZ=              2.7563   YZ=             -0.8696
 Octapole moment (field-independent basis, Debye-Ang**2):
  XXX=            -75.6845  YYY=             -7.1446  ZZZ=             24.7476  XYY=            -13.6385
  XXY=              7.8966  XXZ=             27.6001  XZZ=              3.2209  YZZ=              5.9464
  YYZ=              5.1003  XYZ=              6.9051
 Hexadecapole moment (field-independent basis, Debye-Ang**3):
 XXXX=          -1964.4507 YYYY=          -1326.7051 ZZZZ=           -540.8875 XXXY=           -215.8627
 XXXZ=             28.9610 YYYX=           -101.7614 YYYZ=            -33.8587 ZZZX=             18.1513
 ZZZY=             18.0029 XXYY=           -459.8205 XXZZ=           -328.6182 YYZZ=           -298.0804
 XXYZ=             19.4740 YYXZ=             23.8521 ZZXY=            -12.4924
 N-N= 1.113393945344D+03 E-N=-4.198633158122D+03  KE= 8.329710447677D+02
 Calling FoFJK, ICntrl=      2127 FMM=F ISym2X=0 I1Cent= 0 IOpClX= 0 NMat=1 NMatS=1 NMatT=0.
 ***** Axes restored to original set *****
 -------------------------------------------------------------------
 Center     Atomic                   Forces (Hartrees/Bohr)
 Number     Number              X              Y              Z
 -------------------------------------------------------------------
      1        8          -0.007055544    0.007024509   -0.002916988
      2        6          -0.000290470    0.000005699   -0.000878844
      3        6           0.001778999   -0.002228429   -0.000405467
      4        6          -0.000675883   -0.000786130   -0.001379534
      5        6           0.006330250   -0.006678405   -0.001245132
      6        6          -0.002584193    0.002626387    0.000413061
      7        1          -0.000109255   -0.000019708   -0.000077152
      8        1          -0.000034211    0.000409556    0.000256286
      9        1           0.000084460   -0.000056640   -0.000026028
     10        1           0.000074946   -0.000174272   -0.000127557
     11        6          -0.000898311    0.001865225    0.000963787
     12        1          -0.000041784    0.000128356    0.000058872
     13        1          -0.000105223    0.000029555    0.000135877
     14        8           0.001278841    0.003343012   -0.000042293
     15        1           0.000034793    0.000194953    0.000115399
     16        8           0.006451234    0.001180289    0.002594097
     17        1           0.000663454    0.000109496    0.000797661
     18        8          -0.000778539   -0.001118364   -0.001170809
     19        1          -0.000197557    0.000109452   -0.000044988
     20        8           0.001051051   -0.000034583    0.000565849
     21        1          -0.000077431   -0.000080641   -0.000130758
     22        1           0.000151110   -0.000262464   -0.000035280
     23        8           0.002944205   -0.004737258   -0.001634325
     24        1          -0.000777560   -0.000302377    0.000116951
     25        8          -0.007846996   -0.001881456    0.004662152
     26        1          -0.000016496   -0.000049776    0.000045312
     27        1           0.000423158    0.000832201   -0.000599122
     28        8           0.000108577    0.000484723   -0.000148746
     29        1          -0.000021413    0.000056698   -0.000018271
     30        1           0.000135789    0.000010393    0.000155990
 -------------------------------------------------------------------
 Cartesian Forces:  Max     0.007846996 RMS     0.002151829

 GradGradGradGradGradGradGradGradGradGradGradGradGradGradGradGradGradGrad
 Berny optimization.
 FormGI is forming the generalized inverse of G from B-inverse, IUseBI=4.
 Internal  Forces:  Max     0.046799073 RMS     0.008635833
 Search for a local minimum.
 Step number   1 out of a maximum of  162
 All quantities printed in internal units (Hartrees-Bohrs-Radians)
 Mixed Optimization -- RFO/linear search
 Second derivative matrix not updated -- first step.
 ITU=  0
     Eigenvalues ---    0.00230   0.00230   0.00237   0.00313   0.00399
     Eigenvalues ---    0.00408   0.00619   0.00728   0.00801   0.01039
     Eigenvalues ---    0.01096   0.01338   0.01435   0.01442   0.01587
     Eigenvalues ---    0.02637   0.03572   0.03801   0.03840   0.03868
     Eigenvalues ---    0.04161   0.04307   0.04661   0.04692   0.04804
     Eigenvalues ---    0.05052   0.05750   0.06044   0.06616   0.07371
     Eigenvalues ---    0.07673   0.07804   0.07955   0.09746   0.10983
     Eigenvalues ---    0.11416   0.11426   0.13784   0.14740   0.15420
     Eigenvalues ---    0.16000   0.16000   0.16000   0.16000   0.16000
     Eigenvalues ---    0.16402   0.16927   0.17213   0.17404   0.17474
     Eigenvalues ---    0.19255   0.19816   0.20114   0.20519   0.21979
     Eigenvalues ---    0.22267   0.25000   0.27373   0.27709   0.28523
     Eigenvalues ---    0.29037   0.29697   0.33289   0.33664   0.33876
     Eigenvalues ---    0.34028   0.34099   0.34530   0.34767   0.38332
     Eigenvalues ---    0.39222   0.40293   0.42553   0.42632   0.44791
     Eigenvalues ---    0.50671   0.51045   0.51400   0.51566   0.52518
     Eigenvalues ---    0.53183   0.53475   0.53668   0.87186
 RFO step:  Lambda=-6.20833337D-02 EMin= 2.30000000D-03
 Linear search not attempted -- first point.
 Maximum step size (   0.300) exceeded in Quadratic search.
    -- Step size scaled by   0.792
 Iteration  1 RMS(Cart)=  0.31219526 RMS(Int)=  0.01361914
 Iteration  2 RMS(Cart)=  0.04757275 RMS(Int)=  0.00112660
 Iteration  3 RMS(Cart)=  0.00130320 RMS(Int)=  0.00107857
 Iteration  4 RMS(Cart)=  0.00000189 RMS(Int)=  0.00107857
 Iteration  5 RMS(Cart)=  0.00000000 RMS(Int)=  0.00107857
 Variable       Old X    -DE/DX   Delta X   Delta X   Delta X     New X
                                 (Linear)    (Quad)   (Total)
    R1        2.68126  -0.00382   0.00000  -0.00619  -0.00619   2.67507
    R2        1.92219   0.00809   0.00000   0.01255   0.01255   1.93475
    R3        2.93529   0.02193   0.00000   0.05172   0.05172   2.98701
    R4        2.91009   0.00743   0.00000   0.01693   0.01693   2.92702
    R5        2.07164  -0.00004   0.00000  -0.00008  -0.00008   2.07157
    R6        2.73885  -0.00028   0.00000  -0.00051  -0.00051   2.73834
    R7        2.91368   0.01340   0.00000   0.02918   0.02840   2.94208
    R8        2.88571   0.00127   0.00000   0.00281   0.00281   2.88852
    R9        2.06054  -0.00003   0.00000  -0.00006  -0.00006   2.06048
   R10        2.69585   0.00383   0.00000   0.01038   0.01017   2.70601
   R11        2.07283   0.00000   0.00000   0.00001   0.00001   2.07284
   R12        2.70556  -0.00106   0.00000   0.00032  -0.00006   2.70549
   R13        2.07901   0.00002   0.00000   0.00003   0.00003   2.07904
   R14        2.34257   0.00222   0.00000   0.00188   0.00188   2.34446
   R15        2.08547   0.00023   0.00000   0.00045   0.00045   2.08592
   R16        2.89925   0.00341   0.00000   0.00766   0.00766   2.90691
   R17        2.07541  -0.00005   0.00000  -0.00010  -0.00010   2.07531
   R18        2.06444  -0.00012   0.00000  -0.00024  -0.00024   2.06420
   R19        2.68225   0.00301   0.00000   0.00488   0.00488   2.68713
   R20        1.83213   0.00001   0.00000   0.00001   0.00001   1.83214
   R21        1.84107  -0.00019   0.00000  -0.00025  -0.00025   1.84082
   R22        3.98287   0.00249   0.00000  -0.00320  -0.00313   3.97974
   R23        1.83035  -0.00005   0.00000  -0.00006  -0.00006   1.83029
   R24        3.92388  -0.00339   0.00000  -0.01081  -0.01041   3.91348
   R25        1.83483  -0.00004   0.00000  -0.00005  -0.00005   1.83478
   R26        1.85525  -0.00040   0.00000  -0.00055  -0.00055   1.85470
   R27        1.85017   0.00001   0.00000   0.00001   0.00001   1.85019
   R28        2.96262   0.00788   0.00000   0.03908   0.03908   3.00171
   R29        1.83733  -0.00399   0.00000  -0.00369  -0.00299   1.83434
   R30        1.83530   0.00154   0.00000  -0.00283  -0.00240   1.83289
    A1        1.89519  -0.01429   0.00000  -0.05094  -0.05094   1.84425
    A2        2.03369   0.04680   0.00000   0.15651   0.15698   2.19067
    A3        1.87714  -0.01876   0.00000  -0.07932  -0.07707   1.80007
    A4        1.84699  -0.01060   0.00000  -0.01038  -0.01392   1.83307
    A5        1.86626  -0.01226   0.00000  -0.04981  -0.04679   1.81947
    A6        1.93106  -0.01419   0.00000  -0.02476  -0.02911   1.90195
    A7        1.90584   0.00800   0.00000   0.00090  -0.00133   1.90451
    A8        1.99282   0.01089   0.00000   0.04931   0.04983   2.04265
    A9        1.93443  -0.00292   0.00000  -0.00694  -0.00821   1.92622
   A10        1.92673  -0.00017   0.00000  -0.01260  -0.01290   1.91384
   A11        1.97597  -0.00003   0.00000   0.00786   0.00699   1.98296
   A12        1.78349  -0.00723   0.00000  -0.03545  -0.03486   1.74863
   A13        1.83776  -0.00190   0.00000  -0.01029  -0.01018   1.82758
   A14        2.02836   0.03827   0.00000   0.14700   0.14615   2.17451
   A15        1.85817  -0.00165   0.00000   0.00875   0.00465   1.86282
   A16        1.92488  -0.02455   0.00000  -0.09677  -0.09398   1.83091
   A17        1.85608  -0.00905   0.00000  -0.02435  -0.02744   1.82865
   A18        1.87002  -0.00787   0.00000  -0.03198  -0.03005   1.83997
   A19        1.92456   0.00514   0.00000  -0.00296  -0.00406   1.92050
   A20        2.03259  -0.00070   0.00000  -0.00650  -0.00675   2.02584
   A21        2.04412   0.00007   0.00000  -0.00269  -0.00294   2.04118
   A22        2.11383  -0.00090   0.00000  -0.00770  -0.00798   2.10585
   A23        1.98887   0.01015   0.00000   0.04290   0.04289   2.03176
   A24        1.87980  -0.00840   0.00000  -0.04391  -0.04354   1.83626
   A25        1.89647   0.00513   0.00000   0.02549   0.02524   1.92171
   A26        1.86251   0.00048   0.00000  -0.00766  -0.00753   1.85498
   A27        1.97755  -0.01049   0.00000  -0.02125  -0.02202   1.95553
   A28        1.85078   0.00238   0.00000  -0.00168  -0.00175   1.84903
   A29        1.88766  -0.00087   0.00000  -0.00157  -0.00159   1.88607
   A30        1.96139  -0.00106   0.00000  -0.00356  -0.00355   1.95784
   A31        1.91971   0.00412   0.00000   0.01197   0.01197   1.93168
   A32        1.88181   0.00046   0.00000  -0.00011  -0.00012   1.88169
   A33        1.96599  -0.00109   0.00000  -0.00168  -0.00170   1.96430
   A34        1.84812  -0.00168   0.00000  -0.00543  -0.00542   1.84270
   A35        1.88262   0.00043   0.00000   0.00153   0.00153   1.88415
   A36        1.84777   0.00174   0.00000  -0.00277  -0.00255   1.84522
   A37        1.74823  -0.00339   0.00000   0.01217   0.01178   1.76001
   A38        2.67327   0.00219   0.00000  -0.00501  -0.00523   2.66805
   A39        1.89347  -0.00244   0.00000  -0.00892  -0.00796   1.88551
   A40        2.05157   0.00740   0.00000   0.03006   0.02779   2.07936
   A41        2.25423  -0.00496   0.00000  -0.01023  -0.00952   2.24471
   A42        1.88413   0.00004   0.00000   0.00013   0.00013   1.88426
   A43        1.81403   0.00020   0.00000   0.00107   0.00107   1.81511
   A44        1.59074   0.00053   0.00000   0.00291   0.00291   1.59365
   A45        1.67471   0.00000   0.00000   0.00025   0.00025   1.67496
   A46        2.81472   0.01626   0.00000   0.04124   0.04124   2.85596
   A47        1.76445  -0.00414   0.00000  -0.02508  -0.02505   1.73939
   A48        2.61521  -0.00091   0.00000  -0.00250  -0.00299   2.61222
   A49        2.31751   0.00293   0.00000  -0.00369  -0.00370   2.31381
    D1        1.18329   0.00908   0.00000   0.07053   0.06969   1.25298
    D2       -0.87926   0.00807   0.00000   0.08399   0.08408  -0.79518
    D3       -2.87687   0.00703   0.00000   0.09577   0.09652  -2.78036
    D4       -1.38926   0.00291   0.00000   0.03291   0.03291  -1.35636
    D5        0.06139   0.00310   0.00000   0.00061   0.00183   0.06322
    D6       -2.00170  -0.00721   0.00000  -0.06298  -0.06536  -2.06706
    D7        2.19355   0.00112   0.00000  -0.01137  -0.01524   2.17831
    D8       -2.03205   0.00265   0.00000   0.02309   0.02716  -2.00489
    D9        2.18805  -0.00766   0.00000  -0.04049  -0.04003   2.14801
   D10        0.10011   0.00066   0.00000   0.01112   0.01009   0.11020
   D11        2.21569   0.00761   0.00000   0.06493   0.06834   2.28404
   D12        0.15260  -0.00270   0.00000   0.00134   0.00115   0.15375
   D13       -1.93533   0.00563   0.00000   0.05295   0.05127  -1.88406
   D14        0.76396   0.01339   0.00000   0.13950   0.13991   0.90387
   D15        2.83638   0.00923   0.00000   0.10500   0.10531   2.94169
   D16       -1.41649   0.00669   0.00000   0.08647   0.08693  -1.32956
   D17        2.86322   0.01007   0.00000   0.10032   0.09996   2.96318
   D18       -1.34754   0.00591   0.00000   0.06581   0.06536  -1.28218
   D19        0.68278   0.00336   0.00000   0.04729   0.04698   0.72976
   D20       -1.34630   0.00451   0.00000   0.05791   0.05791  -1.28839
   D21        0.72612   0.00035   0.00000   0.02341   0.02331   0.74943
   D22        2.75644  -0.00219   0.00000   0.00488   0.00492   2.76136
   D23        2.87657  -0.02171   0.00000  -0.08867  -0.08727   2.78930
   D24       -1.18888   0.02022   0.00000   0.08329   0.08172  -1.10716
   D25        0.86062   0.00178   0.00000   0.00853   0.00870   0.86932
   D26       -1.04718  -0.01961   0.00000  -0.13480  -0.13466  -1.18184
   D27        1.01705  -0.00531   0.00000  -0.05330  -0.05347   0.96359
   D28        3.07520  -0.00782   0.00000  -0.08486  -0.08486   2.99033
   D29        1.20928  -0.01291   0.00000  -0.08767  -0.08728   1.12200
   D30       -3.00967   0.00139   0.00000  -0.00617  -0.00609  -3.01576
   D31       -0.95153  -0.00111   0.00000  -0.03773  -0.03748  -0.98901
   D32       -3.04460  -0.01710   0.00000  -0.11215  -0.11208   3.12650
   D33       -0.98037  -0.00280   0.00000  -0.03065  -0.03089  -1.01126
   D34        1.07778  -0.00531   0.00000  -0.06221  -0.06229   1.01549
   D35        2.57138   0.00172   0.00000   0.01695   0.01748   2.58886
   D36       -1.01342  -0.00195   0.00000  -0.02294  -0.02232  -1.03575
   D37        0.33591  -0.00388   0.00000  -0.02458  -0.02476   0.31115
   D38        3.03429  -0.00755   0.00000  -0.06446  -0.06456   2.96973
   D39       -1.63149   0.00235   0.00000   0.00384   0.00336  -1.62813
   D40        1.06689  -0.00132   0.00000  -0.03605  -0.03644   1.03045
   D41        1.36872   0.00195   0.00000   0.00724   0.00859   1.37731
   D42       -1.65842  -0.00051   0.00000  -0.00992  -0.00851  -1.66693
   D43       -0.75757  -0.00660   0.00000  -0.02418  -0.02379  -0.78136
   D44        2.49848  -0.00906   0.00000  -0.04134  -0.04088   2.45759
   D45       -2.82576  -0.00272   0.00000  -0.01366  -0.01342  -2.83918
   D46        0.43029  -0.00518   0.00000  -0.03082  -0.03052   0.39977
   D47        1.44764  -0.01560   0.00000  -0.05652  -0.05709   1.39055
   D48       -2.08279  -0.01706   0.00000  -0.03617  -0.03682  -2.11960
   D49       -2.61257   0.01062   0.00000   0.04132   0.04235  -2.57021
   D50        0.14019   0.00917   0.00000   0.06167   0.06263   0.20282
   D51       -0.59962  -0.00180   0.00000  -0.00678  -0.00765  -0.60727
   D52        2.15313  -0.00326   0.00000   0.01357   0.01263   2.16576
   D53        0.68196  -0.00543   0.00000  -0.03326  -0.03319   0.64877
   D54       -1.39326  -0.00480   0.00000  -0.02996  -0.02989  -1.42316
   D55        2.83564  -0.00474   0.00000  -0.02879  -0.02872   2.80692
   D56        2.91143   0.00421   0.00000   0.02809   0.02798   2.93940
   D57        0.83620   0.00484   0.00000   0.03139   0.03128   0.86748
   D58       -1.21808   0.00490   0.00000   0.03256   0.03245  -1.18562
   D59       -1.33454   0.00063   0.00000   0.00627   0.00631  -1.32823
   D60        2.87342   0.00126   0.00000   0.00957   0.00961   2.88304
   D61        0.81914   0.00132   0.00000   0.01074   0.01079   0.82993
   D62       -1.34583  -0.00034   0.00000  -0.00198  -0.00199  -1.34782
   D63        0.76133   0.00071   0.00000   0.00328   0.00328   0.76461
   D64        2.81407  -0.00036   0.00000  -0.00112  -0.00111   2.81296
   D65        0.36725   0.00180   0.00000   0.02927   0.02967   0.39692
   D66       -2.52851  -0.00260   0.00000  -0.01047  -0.00953  -2.53804
   D67       -0.17615  -0.00382   0.00000  -0.03514  -0.03527  -0.21142
   D68        2.48329  -0.00400   0.00000  -0.00635  -0.00697   2.47633
   D69        1.61735   0.00057   0.00000   0.00321   0.00321   1.62056
   D70       -0.89485  -0.00056   0.00000  -0.00595  -0.00595  -0.90080
   D71        0.92272  -0.00030   0.00000  -0.00453  -0.00453   0.91820
   D72       -0.78198  -0.00335   0.00000  -0.01951  -0.02020  -0.80218
   D73        0.75504   0.00191   0.00000   0.00083   0.00102   0.75606
         Item               Value     Threshold  Converged?
 Maximum Force            0.046799     0.000450     NO 
 RMS     Force            0.008636     0.000300     NO 
 Maximum Displacement     1.511906     0.001800     NO 
 RMS     Displacement     0.344315     0.001200     NO 
 Predicted change in Energy=-3.846549D-02
 GradGradGradGradGradGradGradGradGradGradGradGradGradGradGradGradGradGrad

                          Input orientation:                          
 ---------------------------------------------------------------------
 Center     Atomic      Atomic             Coordinates (Angstroms)
 Number     Number       Type             X           Y           Z
 ---------------------------------------------------------------------
      1          8           0       -1.905663   -0.002872   -1.195036
      2          6           0       -0.630068    0.628104    0.885439
      3          6           0        1.325971   -0.807685   -0.466921
      4          6           0        0.668632   -0.271711    0.838649
      5          6           0        0.539402   -1.847670   -1.264528
      6          6           0       -1.482162    1.042650   -0.339804
      7          1           0        0.452796   -1.168797    1.431810
      8          1           0       -2.411364    1.481187    0.063549
      9          1           0       -0.261013    1.577325    1.291009
     10          1           0        1.695314    0.019910   -1.073181
     11          6           0       -0.810212    2.157226   -1.159854
     12          1           0       -1.352040    2.254716   -2.110103
     13          1           0        0.232186    1.927297   -1.391636
     14          8           0       -0.778406    3.373054   -0.423143
     15          1           0       -1.664355    3.765496   -0.455714
     16          8           0        2.494017   -1.569066   -0.140611
     17          1           0        2.168718   -2.440130    0.149797
     18          8           0        1.681334    0.509655    1.481783
     19          1           0        1.559496    0.428839    2.439233
     20          8           0       -1.490202   -0.004286    1.865262
     21          1           0       -2.135969    0.655106    2.166727
     22          1           0        0.682425   -1.830022   -2.355232
     23          8           0        0.252209   -2.904280   -0.681204
     24          1           0       -2.822331   -2.234355    0.069631
     25          8           0       -3.377348   -1.472543    0.343251
     26          1           0       -2.935042   -1.134467    1.148645
     27          1           0       -2.624845   -0.512202   -0.673907
     28          8           0        3.976498    0.860569   -0.337614
     29          1           0        3.401821    0.989896    0.433921
     30          1           0        3.994585   -0.108760   -0.366424
 ---------------------------------------------------------------------
                    Distance matrix (angstroms):
                    1          2          3          4          5
     1  O    0.000000
     2  C    2.520644   0.000000
     3  C    3.409007   2.777851   0.000000
     4  C    3.291678   1.580658   1.556880   0.000000
     5  C    3.063731   3.481304   1.528541   2.631293   0.000000
     6  C    1.415588   1.548913   3.365339   2.782483   3.646339
     7  H    3.717798   2.167941   2.120852   1.096899   2.781835
     8  H    2.010523   2.139221   4.414522   3.627645   4.642424
     9  H    3.373768   1.096225   3.361117   2.118444   4.347646
    10  H    3.603110   3.100564   1.090357   2.189570   2.204678
    11  C    2.422245   2.560057   3.719426   3.475735   4.227483
    12  H    2.498109   3.484305   4.387492   4.377339   4.595881
    13  H    2.886971   2.759793   3.087327   3.162325   3.789580
    14  O    3.641895   3.044526   4.680694   4.119509   5.449817
    15  H    3.847782   3.565343   5.464079   4.839137   6.084272
    16  O    4.787688   3.954775   1.431961   2.444199   2.271857
    17  H    4.934509   4.217634   1.937896   2.725218   2.237408
    18  O    4.504951   2.390029   2.378889   1.431684   3.795157
    19  H    5.040001   2.692244   3.166900   1.961193   4.465527
    20  O    3.088370   1.449068   3.743708   2.405413   4.160882
    21  H    3.433282   1.977414   4.589214   3.238606   5.019463
    22  H    3.373831   4.273988   2.241661   3.553787   1.100183
    23  O    3.652206   3.963650   2.365290   3.068189   1.240634
    24  H    2.723817   3.696651   4.419466   4.078012   3.637410
    25  O    2.586913   3.500605   4.818674   4.249397   4.250482
    26  H    2.798744   2.913561   4.568705   3.718456   4.289968
    27  H    1.023824   2.776867   3.967253   3.632169   3.484934
    28  O    6.006706   4.771829   3.134499   3.688853   4.472959
    29  H    5.639900   4.073192   2.889977   3.037397   4.373781
    30  H    5.959088   4.847427   2.760452   3.541287   3.970981
                    6          7          8          9         10
     6  C    0.000000
     7  H    3.431206   0.000000
     8  H    1.103823   4.134969   0.000000
     9  H    2.106332   2.840869   2.477884   0.000000
    10  H    3.417630   3.038397   4.504697   3.441243   0.000000
    11  C    1.538271   4.401629   2.125425   2.577719   3.294434
    12  H    2.149417   5.246239   2.538755   3.635487   3.918665
    13  H    2.197258   4.195988   3.050399   2.749965   2.424930
    14  O    2.435775   5.058173   2.546091   2.535873   4.217276
    15  H    2.731396   5.691425   2.458806   3.131853   5.069325
    16  O    4.761380   2.607548   5.780008   4.420351   2.008098
    17  H    5.069358   2.490829   6.030035   4.831760   2.787756
    18  O    3.689170   2.080626   4.439081   2.224641   2.601517
    19  H    4.165513   2.189093   4.745423   2.439609   3.538746
    20  O    2.440995   2.306341   2.510247   2.083786   4.333883
    21  H    2.619228   3.250912   2.276315   2.265575   5.057590
    22  H    4.123061   3.851186   5.136745   5.078894   2.468167
    23  O    4.324680   2.741708   5.184748   4.923191   3.284370
    24  H    3.564050   3.703702   3.738206   4.751949   5.176567
    25  O    3.222498   3.993398   3.120238   4.462229   5.474084
    26  H    3.011009   3.399825   2.879812   3.811104   5.263962
    27  H    1.958294   3.786427   2.136122   3.716816   4.371080
    28  O    5.461696   4.434598   6.430465   4.595939   2.539993
    29  H    4.945172   3.788468   5.845654   3.807365   2.474752
    30  H    5.596535   4.111154   6.614302   4.868273   2.408881
                   11         12         13         14         15
    11  C    0.000000
    12  H    1.098206   0.000000
    13  H    1.092330   1.770077   0.000000
    14  O    1.421968   2.103704   2.012334   0.000000
    15  H    1.952410   2.262079   2.802105   0.969524   0.000000
    16  O    5.083507   5.769954   4.348045   5.934065   6.771182
    17  H    5.632486   6.288439   5.020019   6.542698   7.319077
    18  O    3.987548   5.014803   3.516572   4.228252   5.054506
    19  H    4.642873   5.701520   4.322347   4.725186   5.468749
    20  O    3.779662   4.574462   4.159930   4.141241   4.430408
    21  H    3.883315   4.632988   4.459661   3.992198   4.095625
    22  H    4.422109   4.569926   3.904956   5.739251   6.358095
    23  O    5.193909   5.588436   4.883570   6.366607   6.943341
    24  H    4.984601   5.202380   5.365140   5.988614   6.133116
    25  O    4.693052   4.900335   5.253331   5.551727   5.568640
    26  H    4.547451   4.961038   5.085151   5.238257   5.310203
    27  H    3.264182   3.367273   3.824777   4.308995   4.389630
    28  O    5.026927   5.786077   4.033453   5.378569   6.346004
    29  H    4.652312   5.538143   3.775972   4.887565   5.844788
    30  H    5.371248   6.100233   4.399117   5.908273   6.858676
                   16         17         18         19         20
    16  O    0.000000
    17  H    0.974119   0.000000
    18  O    2.759293   3.273066   0.000000
    19  H    3.394193   3.720706   0.968548   0.000000
    20  O    4.727162   4.718458   3.235712   3.133320   0.000000
    21  H    5.630943   5.672638   3.880993   3.712400   0.970925
    22  H    2.873066   2.975981   4.603758   5.372020   5.085881
    23  O    2.664722   2.139860   4.286708   4.749295   4.234436
    24  H    5.361937   4.995932   5.459557   5.648719   3.157858
    25  O    5.892060   5.633160   5.551183   5.690415   2.834364
    26  H    5.596941   5.361979   4.911725   4.930559   1.969368
    27  H    5.253962   5.231982   4.922841   5.299614   2.827149
    28  O    2.853014   3.794767   2.949767   3.706639   5.956966
    29  H    2.775335   3.656002   2.070923   2.780328   5.193171
    30  H    2.105988   3.005920   3.024803   3.753715   5.922349
                   21         22         23         24         25
    21  H    0.000000
    22  H    5.879398   0.000000
    23  O    5.146196   2.035064   0.000000
    24  H    3.635642   4.280977   3.235019   0.000000
    25  O    3.064797   4.887879   4.033988   0.981463   0.000000
    26  H    2.208525   5.083996   4.079112   1.544905   0.979076
    27  H    3.109793   3.937199   3.741594   1.886176   1.588435
    28  O    6.608797   4.707545   5.306833   7.481209   7.745066
    29  H    5.812213   4.808994   5.131098   7.019158   7.213111
    30  H    6.677128   4.229480   4.681815   7.153925   7.530533
                   26         27         28         29         30
    26  H    0.000000
    27  H    1.950675   0.000000
    28  O    7.345647   6.750950   0.000000
    29  H    6.721576   6.309064   0.970693   0.000000
    30  H    7.167094   6.638837   0.969926   1.482891   0.000000
 Stoichiometry    C6H16O8
 Framework group  C1[X(C6H16O8)]
 Deg. of freedom    84
 Full point group                 C1      NOp   1
 Largest Abelian subgroup         C1      NOp   1
 Largest concise Abelian subgroup C1      NOp   1
                         Standard orientation:                         
 ---------------------------------------------------------------------
 Center     Atomic      Atomic             Coordinates (Angstroms)
 Number     Number       Type             X           Y           Z
 ---------------------------------------------------------------------
      1          8           0       -1.869395   -0.357405   -1.224299
      2          6           0       -0.773477    0.520157    0.869142
      3          6           0        1.436435   -0.564228   -0.418046
      4          6           0        0.665015   -0.134974    0.864346
      5          6           0        0.865180   -1.738853   -1.212000
[...]
 0196,0.00011930,0.00036474,0.00005846,-0.00000067,-0.00008284,0.000004
 71,0.00040373,-0.00003353,0.00005814,-0.00006092,0.00007189,-0.0000233
 0,0.00023334,0.00003815,0.00008774,-0.00007178,0.00001232,-0.00006011,
 0.00001611,0.00054254,0.00011906,0.00012095,0.00007186,-0.00001667,-0.
 00019731,0.00030219,0.00030527,0.00150509,-0.00173649,0.00034675,-0.18
 765374,0.38302721,0.00167280,0.00029250,-0.00140928,-0.00016785,-0.000
 15109,-0.00008464,-0.00000386,-0.00005733,-0.00032671,-0.00016165,-0.0
 0016923,0.00003085,0.00070632,-0.00005147,0.00215911,-0.00014637,-0.00
 013850,0.00012754,-0.00004250,0.00002122,-0.00004674,-0.00002619,-0.00
 015954,-0.00004695,-0.00000067,0.00000454,0.00000031,0.00006187,0.0000
 6889,0.00003234,0.00001025,-0.00006759,-0.00002844,-0.00000288,0.00003
 116,-0.00002206,-0.00000232,0.00001046,0.00001086,-0.00000105,0.000022
 28,-0.00004518,-0.00001043,-0.00001927,0.00001979,0.00015686,0.0000857
 3,-0.00000306,-0.00005412,0.00001223,-0.00000612,0.00009096,0.00010612
 ,-0.00002595,-0.00001100,-0.00002812,-0.00000125,-0.00146558,-0.000243
 68,-0.00088537,0.00020098,0.00030215,0.00027050,0.00031762,0.00020166,
 -0.00051033,0.00131168,-0.00048475,-0.00292954,-0.03529180,0.10362634,
 0.06942197,-0.00701455,-0.01362044,0.00425846,0.00077749,0.00032150,-0
 .00045835,0.00115207,-0.00002006,0.00064440,0.00057729,0.00032208,0.00
 071922,0.00220178,0.00284041,-0.00355329,-0.00130800,0.00342082,0.0043
 5578,-0.00000384,0.00003540,0.00002651,0.00060846,-0.00093955,-0.00075
 363,-0.00034164,-0.00020072,-0.00022740,0.00004366,-0.00006113,-0.0001
 5931,0.00062363,0.00017815,-0.00086928,0.00004972,0.00003915,0.0000242
 1,0.00008718,0.00012938,-0.00002799,-0.00039279,-0.00141191,-0.0002202
 2,-0.00005347,0.00023763,-0.00001139,-0.00124063,-0.00016921,-0.000369
 55,0.00032744,-0.00004802,0.00020668,-0.00062344,-0.00041160,-0.000419
 07,0.00016415,-0.00000781,0.00013849,0.00095376,-0.00376969,-0.0045227
 6,-0.00182787,-0.00177514,-0.00093160,-0.00014874,-0.00024079,0.000241
 64,-0.00941442,0.00139760,0.00168405,-0.12590338,0.17484615,0.01420851
 ,0.26529403,-0.01592052,-0.00983294,0.00561805,0.00203735,0.00068231,-
 0.00122736,0.00014372,-0.00024667,-0.00004960,0.00101809,-0.00055648,0
 .00017375,-0.00137562,-0.00496833,0.00274697,0.00004831,0.00316610,0.0
 0426874,-0.00014782,0.00007171,-0.00016574,0.00013551,0.00013939,-0.00
 037222,-0.00057403,-0.00027986,-0.00017045,0.00033110,0.00023992,0.000
 00207,0.00061830,0.00055831,-0.00068614,0.00001345,0.00003229,0.000025
 05,-0.00002481,-0.00010398,0.00002974,-0.00049999,-0.00137052,-0.00020
 133,0.00002147,0.00033091,-0.00003741,-0.00042192,0.00092785,0.0000697
 8,-0.00012538,-0.00024363,-0.00017018,-0.00087277,0.00037346,-0.000024
 11,0.00035271,-0.00004148,0.00026862,-0.00711474,-0.00327634,-0.007110
 74,-0.00008818,0.00045896,0.00152606,0.00010745,-0.00002967,-0.0002476
 1,0.00627325,0.00244614,-0.00202673,0.20896125,-0.36261002,-0.06394347
 ,-0.14947020,0.44750611,0.00947424,0.01171496,0.00351321,0.00390157,0.
 00199401,-0.00449439,-0.00028549,-0.00004902,-0.00050854,0.00037745,-0
 .00022631,-0.00005001,-0.00113425,0.00054380,-0.00181063,0.00089635,-0
 .00313241,-0.00546116,0.00023622,-0.00019392,0.00011406,-0.00056798,0.
 00074017,0.00055804,-0.00094820,-0.00067873,0.00099605,-0.00022458,-0.
 00005171,0.00011505,-0.00029975,0.00016772,0.00107851,-0.00013252,-0.0
 0032202,0.00023162,-0.00004096,-0.00008749,-0.00003833,0.00029730,0.00
 089198,0.00054850,0.00006698,-0.00003892,-0.00009117,0.00012502,0.0001
 2415,0.00047050,0.00003833,-0.00012014,-0.00010917,-0.00071718,0.00001
 353,0.00025203,0.00018635,0.00008094,0.00008640,-0.00935593,-0.0091292
 2,-0.00221171,-0.00019046,0.00040276,0.00015037,-0.00009166,0.00000384
 ,0.00058258,-0.00070193,0.00008113,0.00256968,0.04464800,-0.10391290,-
 0.05914671,0.14447422,0.18576497,0.39665334,-0.00208555,-0.00065214,-0
 .00124428,-0.00400318,-0.00202965,0.00208120,-0.00039756,-0.00014260,0
 .00023455,-0.00097937,-0.00030642,-0.00046454,-0.00155179,-0.00064131,
 0.00210134,0.00098696,-0.00074161,0.00068385,-0.00019541,0.00009360,-0
 .00013007,-0.00016478,0.00019517,0.00012457,0.00081020,0.00062352,-0.0
 0032346,0.00005009,-0.00000752,-0.00003302,-0.00032875,-0.00030766,-0.
 00027626,0.00008074,0.00019802,-0.00015550,-0.00002950,-0.00003288,0.0
 0005072,0.00003401,0.00034019,-0.00013604,0.00000276,-0.00011675,0.000
 02642,0.00074341,-0.00011795,-0.00006616,-0.00017558,0.00014196,-0.000
 02835,0.00079633,0.00028766,0.00009441,-0.00022099,-0.00002961,-0.0001
 5605,-0.00312823,0.00128422,0.00011731,0.00295992,0.00313036,0.0013811
 7,-0.00010264,0.00030767,-0.00044520,0.00097942,-0.00044412,-0.0014327
 6,0.00936418,0.01183749,0.02178691,-0.11937700,-0.05000081,-0.18677756
 ,0.11232381,-0.00146540,-0.00300845,-0.00174324,-0.00588037,-0.0033399
 7,0.00402945,-0.00004172,0.00053025,0.00062972,-0.00093075,0.00080890,
 -0.00034369,0.00154471,0.00312280,-0.00120835,-0.00005836,0.00066697,0
 .00173766,-0.00003941,0.00010473,0.00009532,0.00041958,-0.00064870,-0.
 00006777,0.00107525,0.00087027,-0.00043184,-0.00007289,-0.00012827,-0.
 00009445,-0.00022066,-0.00065409,-0.00042142,0.00012028,0.00027901,-0.
 00022126,0.00007567,0.00015846,-0.00001349,0.00010411,0.00031902,-0.00
 021887,-0.00005238,-0.00020653,0.00007512,0.00004498,-0.00085771,-0.00
 046085,0.00008559,0.00025705,0.00018915,0.00119327,-0.00035843,-0.0000
 9228,-0.00041458,-0.00000195,-0.00028349,0.00784812,0.00056528,0.00125
 525,-0.00046394,-0.00230174,-0.00373153,-0.00007936,-0.00030406,0.0001
 3627,-0.00356773,-0.00141194,0.00119593,-0.01810161,-0.01477306,-0.041
 69163,-0.01939792,-0.07250371,-0.07449988,0.03583778,0.08893997,-0.003
 46481,-0.00480140,0.00055160,-0.00409794,-0.00033485,0.00647677,0.0004
 3207,0.00033107,0.00074711,-0.00050135,0.00043574,0.00002581,0.0019960
 0,0.00113544,-0.00076488,0.00165035,0.00341793,0.00311475,-0.00024426,
 0.00018331,-0.00005404,0.00012736,-0.00015481,-0.00026377,0.00140512,0
 .00102748,-0.00108439,0.00008333,-0.00006677,-0.00014345,-0.00019266,0
 .00008784,-0.00049204,0.00009756,0.00025514,-0.00020044,-0.00000001,-0
 .00002688,0.00005775,-0.00010339,-0.00035683,-0.00045869,-0.00001997,0
 .00000305,0.00005361,-0.00027033,-0.00051162,-0.00053325,0.00005501,0.
 00017156,0.00019341,0.00086581,-0.00019056,-0.00027882,-0.00027879,-0.
 00006284,-0.00015874,0.00594319,0.00168356,-0.00910553,-0.00034967,-0.
 00154178,-0.00083670,-0.00009153,-0.00011644,-0.00015348,-0.00273818,-
 0.00032665,0.00013058,-0.00840785,-0.00038266,-0.00924426,-0.15505348,
 -0.11695365,-0.32706369,0.15922273,0.11109193,0.34801196,-0.25278706,-
 0.18217968,0.07704562,0.00141860,0.00170345,-0.00119215,-0.00129470,-0
 .00047420,-0.00029328,-0.00093283,0.00000179,-0.00054164,-0.00308913,0
 .00457267,-0.00196865,0.00072245,-0.00108838,-0.00435304,0.00021473,-0
 .00018501,0.00010215,0.00064328,0.00252341,0.00153436,0.00002835,-0.00
 032049,0.00115096,-0.00027459,0.00006981,-0.00009552,-0.00005015,0.000
 48938,0.00149883,-0.00018250,-0.00020963,0.00016591,0.00013045,0.00005
 013,-0.00012882,0.00114678,0.00279067,0.00091007,0.00008592,-0.0003528
 8,-0.00001233,0.00096393,-0.00015770,0.00020681,-0.00012255,0.00011121
 ,-0.00007314,0.00038276,0.00006823,0.00029586,-0.00016961,0.00005357,-
 0.00014973,-0.00337392,-0.00240660,-0.00025152,0.00065914,0.00065349,0
 .00055611,0.00024657,0.00017603,0.00039765,-0.00166257,-0.00190732,0.0
 0140951,0.00390819,0.00041424,-0.00312304,-0.00521351,0.00662098,-0.00
 335323,0.00367019,0.00247129,0.00401718,0.25489003,-0.15082285,-0.1464
 7375,0.03148974,0.00161382,0.00322661,-0.00145098,0.00040103,0.0007769
 2,-0.00113973,-0.00079396,0.00015353,-0.00000056,0.00407168,0.00548311
 ,-0.00194337,-0.02254697,-0.02682830,0.00009418,0.00035816,-0.00021274
 ,0.00027376,-0.00094216,0.00228086,0.00261155,0.00001541,-0.00044444,0
 .00112343,-0.00062909,-0.00048129,0.00027431,0.00089737,-0.00254115,-0
 .00365445,0.00015115,-0.00004814,0.00007072,-0.00020925,0.00022722,0.0
 0006830,-0.00056152,-0.00009575,0.00032965,-0.00015006,-0.00032970,0.0
 0006893,0.00041856,-0.00108068,0.00048084,0.00028711,0.00010103,0.0001
 8844,0.00022911,-0.00032560,0.00005264,-0.00020069,0.00004886,-0.00015
 970,-0.00242457,-0.00287854,0.00004221,0.00025408,0.00048802,-0.000465
 74,0.00012824,-0.00011436,-0.00023161,-0.00405403,-0.00241025,0.001574
 29,-0.00121744,-0.00601739,0.00242625,0.00778035,-0.00091113,-0.010110
 18,0.00131358,0.00392036,0.00603511,0.16653511,0.17449773,0.10144750,0
 .05566581,-0.06765456,-0.00349942,-0.00381692,0.00076937,-0.00017735,-
 0.00029473,0.00022847,-0.00032189,-0.00020658,-0.00026586,-0.00216672,
 -0.00097848,0.00318565,-0.02740482,-0.01988163,0.00635955,-0.00016905,
 0.00013990,-0.00010472,0.00133310,-0.00093617,-0.00009419,0.00037809,0
 .00026859,-0.00044428,0.00002370,0.00013562,-0.00015461,0.00117998,-0.
 00070134,-0.00432779,0.00022616,0.00002384,0.00007479,-0.00005089,0.00
 014039,-0.00002343,-0.00062517,-0.00212290,-0.00007586,-0.00011449,0.0
 0008136,0.00007503,0.00016173,0.00020610,-0.00020958,-0.00013582,0.000
 02673,-0.00004850,0.00036980,0.00026824,-0.00007044,-0.00003210,-0.000
 06481,0.00000795,0.00287207,0.00185572,0.00095293,-0.00004423,-0.00034
 640,-0.00060962,0.00007877,-0.00004151,-0.00055453,0.00214497,0.000382
 04,-0.00159464,-0.00199290,0.00026952,0.00268006,-0.00337703,-0.007100
 18,-0.00687780,0.00370954,0.00504633,-0.00858387,-0.07375437,-0.028014
 10,0.07730944,-0.00075213,-0.00029459,-0.00012427,0.00067042,0.0000417
 4,-0.00061851,-0.00341237,0.00002843,-0.00322087,0.00116245,-0.0000795
 4,-0.00041295,0.00186624,0.00084455,0.00194490,0.00020141,0.00042518,-
 0.00004329,-0.00019850,-0.00007917,0.00046511,-0.00037921,-0.00009389,
 0.00017512,-0.00005105,0.00002758,0.00003480,0.00018077,-0.00073251,0.
 00221818,0.00121493,-0.00099769,-0.00052094,-0.00048116,0.00019280,-0.
 00001025,-0.00076303,-0.00067662,-0.00000311,-0.00052008,0.00136459,0.
 00056651,-0.00011455,-0.00012116,0.00019602,0.00184701,-0.00107704,0.0
 0081295,-0.00062402,-0.00026173,-0.00012667,-0.00002638,0.00081860,0.0
 0471916,-0.00119709,-0.00119999,0.00038511,-0.00058162,-0.00029861,0.0
 0050902,0.00006372,0.00003453,-0.00019227,-0.00018578,-0.00012013,-0.0
 0026446,-0.00155215,-0.00149606,0.00013547,0.00031127,0.00015565,0.000
 05596,-0.00060972,-0.00035598,0.00008521,0.00029838,0.00017610,-0.0000
 5578,0.00044774,0.00036434,-0.00001478,0.11426055,-0.00040922,0.001014
 52,0.00001376,0.00040514,-0.00018545,0.00028791,0.00020554,-0.00120744
 ,-0.00125543,-0.00011896,-0.00092856,-0.00089807,0.00150482,0.00063629
 ,0.00121694,0.00017947,-0.00116750,-0.00023765,0.00010018,0.00033385,0
 .00027959,0.00003701,0.00029906,-0.00008847,-0.00014246,0.00006066,0.0
 0017461,0.00054501,-0.00126744,0.00089430,-0.00055864,0.00017405,0.000
 06879,0.00019929,-0.00000650,-0.00001639,-0.00076692,-0.00102586,-0.00
 008849,0.00038551,0.00043192,-0.00018030,0.00003107,-0.00006654,0.0000
 7840,-0.00205685,-0.00238336,0.00143482,-0.00107380,-0.00032992,-0.000
 43339,0.00036664,0.00353682,0.00146556,-0.00077226,-0.00071938,0.00071
 273,-0.00014168,0.00032131,-0.00012417,-0.00003747,-0.00002907,0.00000
 907,0.00002469,-0.00013613,-0.00014929,-0.00126307,-0.00094631,0.00021
 470,0.00027919,0.00003130,0.00003263,-0.00028533,0.00013539,0.00002096
 ,0.00012990,-0.00012496,-0.00008891,0.00007224,-0.00009325,0.00010663,
 -0.13727016,0.52392448,0.00003321,0.00000901,0.00050577,-0.00017504,0.
 00020660,0.00006557,-0.00052105,0.00050123,-0.00090456,-0.00236682,-0.
 00251629,-0.00207307,-0.00016096,-0.00009799,-0.00048415,-0.00005355,0
 .00000210,-0.00053102,0.00054826,0.00056401,0.00033247,0.00001879,-0.0
 0006083,0.00015306,-0.00002197,0.00020926,0.00005879,0.00132511,0.0002
 0442,-0.00064012,0.00025137,-0.00009695,-0.00008782,0.00015828,-0.0000
 9129,0.00011278,-0.00037618,-0.00015199,-0.00078760,-0.00016153,0.0000
 9614,0.00042153,0.00003243,0.00007443,-0.00000585,0.00127907,0.0020839
 1,0.00089014,0.00001098,-0.00025425,0.00008410,0.00549491,0.00083152,-
 0.00349441,0.00110807,0.00147479,-0.00051801,0.00064735,0.00002268,0.0
 0011753,0.00002585,0.00000636,-0.00005943,0.00011107,0.00020874,0.0002
 5703,-0.00001871,0.00009472,0.00038494,-0.00003381,-0.00002633,-0.0000
 5570,0.00008915,0.00006285,0.00017303,-0.00013493,-0.00013591,-0.00014
 184,-0.00003867,0.00003745,-0.00008725,-0.17085090,0.02265516,0.464083
 27,0.00029055,0.00042498,0.00031850,-0.00056923,-0.00003285,0.00046897
 ,0.00086235,-0.00142882,0.00031942,-0.00329288,-0.00244474,-0.00094729
 ,-0.00047210,-0.00023537,-0.00036061,-0.00028763,-0.00043641,-0.000385
 56,0.00067266,0.00070304,0.00000093,0.00022360,0.00005857,0.00000422,-
 0.00006444,0.00013815,0.00007905,0.00024775,-0.00055643,-0.00102815,-0
 .00085867,0.00053738,0.00037115,0.00047344,-0.00019592,0.00004558,-0.0
 0060188,0.00024114,-0.00104362,0.00020300,-0.00061243,-0.00005561,0.00
 011254,0.00013424,-0.00003423,-0.00168562,0.00003864,0.00008559,0.0001
 2291,-0.00010301,-0.00000156,-0.00208259,-0.00033113,0.00040896,0.0014
 6626,0.00165566,-0.00020249,0.00069261,0.00026415,-0.00023903,-0.00002
 764,-0.00001560,0.00007853,0.00018535,0.00010951,0.00019104,0.00029274
 ,0.00046595,0.00010254,-0.00009778,-0.00008664,-0.00003593,0.00028937,
 0.00026319,0.00004534,-0.00020213,-0.00021198,-0.00008037,-0.00023648,
 -0.00020049,0.00000066,-0.07366240,0.04123182,0.14948175,0.08076274,0.
 00023130,-0.00052260,0.00010184,-0.00016775,0.00031601,-0.00004147,-0.
 00148653,-0.00041829,0.00008566,-0.00107024,-0.00117447,0.00049037,-0.
 00089468,-0.00035163,-0.00054564,-0.00008463,0.00057652,-0.00004768,0.
 00000848,-0.00006504,-0.00009780,0.00004172,-0.00016713,0.00007008,0.0
 0008550,0.00005739,-0.00011324,-0.00035018,-0.00018916,-0.00063982,0.0
 0041421,0.00034898,0.00011293,-0.00012907,-0.00004539,0.00000489,0.000
 21723,0.00052328,0.00026049,-0.00028687,-0.00048355,-0.00001237,-0.000
 05360,0.00001925,-0.00010955,0.00106945,0.00135930,0.00068240,0.000140
 58,-0.00012658,0.00007881,-0.00120155,-0.00421981,-0.00086015,0.001919
 02,0.00161346,-0.00135509,0.00034991,-0.00018385,0.00005166,0.00005191
 ,0.00002711,-0.00000742,0.00004723,0.00013125,0.00016444,0.00062944,0.
 00053125,-0.00007338,-0.00015991,-0.00003075,-0.00002845,0.00019480,-0
 .00002928,0.00002454,-0.00011611,0.00001526,0.00000989,-0.00006593,0.0
 0002448,-0.00008112,0.02062945,-0.05676901,-0.02013656,-0.04116868,0.0
 7253342,0.00010403,0.00009045,-0.00037970,0.00000429,-0.00052536,-0.00
 003613,-0.00060564,0.00023451,0.00209994,0.00275611,0.00299909,0.00414
 139,-0.00020682,-0.00017067,-0.00042939,0.00009058,-0.00031517,0.00058
 535,-0.00097091,-0.00087072,-0.00038213,0.00005796,0.00015837,-0.00023
 151,0.00009103,-0.00027900,-0.00003515,-0.00099156,-0.00056734,-0.0006
 5026,-0.00082056,0.00046583,0.00050577,0.00019769,-0.00001285,-0.00009
 184,-0.00074497,0.00008389,0.00004807,0.00029731,-0.00023557,-0.000499
 76,0.00000840,-0.00005929,-0.00004845,0.00056539,0.00005100,-0.0010423
 5,0.00026167,0.00058125,0.00019608,-0.00078858,-0.00188036,-0.00694091
 ,-0.00068470,-0.00095876,-0.00043463,-0.00076481,0.00008369,-0.0002134
 8,-0.00007296,-0.00002274,0.00009112,-0.00013108,-0.00009905,-0.000114
 62,0.00036843,0.00022506,-0.00032260,-0.00002076,0.00000739,0.00002470
 ,-0.00000404,-0.00002753,-0.00016850,0.00010311,0.00013231,0.00016540,
 -0.00003124,-0.00008165,0.00009177,0.16514630,-0.07966106,-0.41191001,
 -0.16251565,0.07277582,0.41843352,0.00043418,-0.00039885,0.00004692,-0
 .00042188,0.00001251,-0.00003077,-0.00240531,-0.00090831,0.00148242,-0
 .00020542,0.00064746,0.00048650,-0.00128218,-0.00067319,-0.00080443,-0
 .00014687,0.00049846,0.00009581,0.00003437,-0.00014875,-0.00023929,0.0
 0006479,-0.00013694,0.00001244,0.00009844,-0.00005054,-0.00008183,-0.0
 0210172,0.00010355,-0.00044892,0.00005853,0.00002452,-0.00004280,-0.00
 003990,-0.00002055,0.00001888,0.00044902,0.00048733,0.00002666,-0.0000
 5306,-0.00031625,0.00001887,0.00000858,0.00007042,-0.00002798,-0.00090
 733,0.00103297,-0.00109474,0.00146710,0.00050928,0.00007197,-0.0005939
 0,-0.00106062,-0.00014960,0.00041151,0.00019203,-0.00012466,0.00023965
 ,-0.00005178,-0.00007157,-0.00000439,-0.00000266,0.00004746,-0.0000019
 8,0.00008161,0.00014120,0.00096364,0.00084623,-0.00021475,-0.00022951,
 -0.00006699,-0.00003345,0.00032298,0.00004660,-0.00003089,-0.00015792,
 0.00000233,0.00005465,-0.00016951,-0.00006600,-0.00004503,-0.03741366,
 0.09919929,0.01429849,-0.00275642,0.02120550,-0.00069800,0.04433816,0.
 00010538,-0.00036251,0.00000369,-0.00015116,-0.00009166,-0.00021897,-0
 .00245446,0.00130127,-0.00048202,0.00091336,0.00064970,0.00052813,-0.0
 0001812,-0.00048981,0.00002144,0.00003678,0.00029556,0.00009696,-0.000
 13842,-0.00014045,0.00006860,-0.00001860,-0.00007224,0.00000808,0.0000
 8394,-0.00008984,-0.00005628,0.00028257,0.00023853,0.00031831,0.000193
 71,-0.00005821,-0.00006756,-0.00004510,0.00000603,0.00000118,0.0005234
 9,-0.00000166,0.00007410,-0.00010398,-0.00004058,0.00003714,-0.0000095
 6,0.00002013,-0.00000407,0.00006803,-0.00184299,-0.00066221,0.00124710
 ,-0.00000195,0.00013752,-0.00102171,-0.00061543,0.00046661,-0.00013275
 ,-0.00006908,0.00011015,-0.00007092,-0.00009539,0.00002442,0.00000101,
 0.00000447,0.00000932,-0.00013364,0.00007725,0.00001204,0.00012771,0.0
 0021290,-0.00013861,-0.00009365,-0.00000759,-0.00001006,0.00008611,-0.
 00006483,-0.00001660,-0.00003397,0.00006522,0.00004761,-0.00002989,0.0
 0005773,-0.00002996,0.12005132,-0.46351299,-0.00577699,0.00179406,-0.0
 1330041,0.00787845,-0.12105865,0.47792883,-0.00011330,0.00005177,-0.00
 022910,0.00011894,-0.00000140,0.00000518,0.00143885,-0.00097658,0.0008
 2582,0.00066907,0.00075669,-0.00005999,0.00015124,0.00051989,0.0005670
 5,0.00000658,0.00001958,0.00016238,-0.00002329,-0.00007224,-0.00009186
 ,-0.00004339,0.00001840,-0.00003175,-0.00004590,-0.00003187,0.00000060
 ,-0.00058993,0.00023354,0.00031087,0.00001452,-0.00015747,0.00008739,-
 0.00003289,0.00004173,-0.00003689,0.00025143,0.00015829,-0.00008404,0.
 00000923,0.00008212,-0.00006423,-0.00001023,-0.00002950,0.00002602,-0.
 00179801,-0.00113478,-0.00089225,-0.00019959,0.00000157,-0.00030393,-0
 .00048457,0.00080281,-0.00009352,-0.00031879,-0.00023395,0.00016916,-0
 .00022871,-0.00001791,-0.00000220,0.00000046,0.00000046,0.00000505,0.0
 0000042,-0.00020089,-0.00021109,-0.00015310,-0.00028405,-0.00015033,0.
 00006459,0.00002964,0.00004026,-0.00011292,-0.00004222,-0.00006116,0.0
 0008635,0.00004551,0.00003316,0.00006936,0.00001026,0.00004655,-0.0009
 9076,0.05355508,-0.04585917,0.01492789,-0.05076408,-0.00245170,-0.0126
 6356,-0.00238041,0.04834372\\0.00000014,0.00000270,-0.00002612,0.00000
 574,-0.00001439,-0.00001248,0.00004062,-0.00004068,-0.00001334,0.00001
 974,0.00002493,0.00002769,-0.00001656,0.00004179,-0.00001462,-0.000018
 92,0.00000120,-0.00000201,-0.00000688,0.00000053,-0.00000067,0.0000068
 6,0.00000845,0.00000129,-0.00000192,-0.00000227,0.00000348,-0.00000484
 ,0.00001244,0.00000906,0.00001644,-0.00000809,-0.00000782,0.00000019,0
 .00000233,0.00000527,0.00000023,0.00000851,0.00000194,-0.00000577,0.00
 000735,0.00002247,0.00000102,0.00000201,0.00000808,-0.00003384,-0.0000
 1329,-0.00003492,0.00001851,0.00001968,0.00000800,-0.00002711,-0.00003
 189,-0.00000408,0.00000725,-0.00000644,0.00000228,-0.00000227,-0.00000
 789,-0.00000371,0.00000028,-0.00000457,-0.00000032,0.00000357,-0.00000
 061,-0.00000788,0.00000434,-0.00002354,0.00000052,-0.00000114,-0.00000
 399,-0.00000220,0.00000131,0.00001445,-0.00002658,-0.00000633,-0.00000
 241,-0.00000347,0.00000196,-0.00001012,0.00004116,0.00000640,-0.000017
 11,-0.00000076,0.00002253,0.00004341,0.00000304,-0.00003153,-0.0000024
 7,0.00002669\\\@


 NECESSARY EVIL: ONE WE LIKE TOO MUCH TO RELINQUISH.
 Job cpu time:       0 days  1 hours 16 minutes 43.6 seconds.
 File lengths (MBytes):  RWF=    334 Int=      0 D2E=      0 Chk=      6 Scr=      2
 Normal termination of Gaussian 09 at Sun Jan 22 19:42:48 2017.
