 Entering Gaussian System, Link 0=g09
 Initial command:
 /global/software/gaussian/g09.e01/l1.exe "/scratch/10461044.yak.local/Gau-16783.inp" -scrdir="/scratch/10461044.yak.local/"
 Entering Link 1 = /global/software/gaussian/g09.e01/l1.exe PID=     16784.
  
 Copyright (c) 1988,1990,1992,1993,1995,1998,2003,2009,2015,
            Gaussian, Inc.  All Rights Reserved.
  
 This is part of the Gaussian(R) 09 program.  It is based on
 the Gaussian(R) 03 system (copyright 2003, Gaussian, Inc.),
 the Gaussian(R) 98 system (copyright 1998, Gaussian, Inc.),
 the Gaussian(R) 94 system (copyright 1995, Gaussian, Inc.),
 the Gaussian 92(TM) system (copyright 1992, Gaussian, Inc.),
 the Gaussian 90(TM) system (copyright 1990, Gaussian, Inc.),
 the Gaussian 88(TM) system (copyright 1988, Gaussian, Inc.),
 the Gaussian 86(TM) system (copyright 1986, Carnegie Mellon
 University), and the Gaussian 82(TM) system (copyright 1983,
 Carnegie Mellon University). Gaussian is a federally registered
 trademark of Gaussian, Inc.
  
 This software contains proprietary and confidential information,
 including trade secrets, belonging to Gaussian, Inc.
  
 This software is provided under written license and may be
 used, copied, transmitted, or stored only in accord with that
 written license.
  
 The following legend is applicable only to US Government
 contracts under FAR:
  
                    RESTRICTED RIGHTS LEGEND
  
 Use, reproduction and disclosure by the US Government is
 subject to restrictions as set forth in subparagraphs (a)
 and (c) of the Commercial Computer Software - Restricted
 Rights clause in FAR 52.227-19.
  
 Gaussian, Inc.
 340 Quinnipiac St., Bldg. 40, Wallingford CT 06492
  
  
 ---------------------------------------------------------------
 Warning -- This program may not be used in any manner that
 competes with the business of Gaussian, Inc. or will provide
 assistance to any competitor of Gaussian, Inc.  The licensee
 of this program is prohibited from giving any competitor of
 Gaussian, Inc. access to this program.  By using this program,
 the user acknowledges that Gaussian, Inc. is engaged in the
 business of creating and licensing software in the field of
 computational chemistry and represents and warrants to the
 licensee that it is not a competitor of Gaussian, Inc. and that
 it will not use this program in any manner prohibited above.
 ---------------------------------------------------------------
  

 Cite this work as:
 Gaussian 09, Revision E.01,
 M. J. Frisch, G. W. Trucks, H. B. Schlegel, G. E. Scuseria, 
 M. A. Robb, J. R. Cheeseman, G. Scalmani, V. Barone, B. Mennucci, 
 G. A. Petersson, H. Nakatsuji, M. Caricato, X. Li, H. P. Hratchian, 
 A. F. Izmaylov, J. Bloino, G. Zheng, J. L. Sonnenberg, M. Hada, 
 M. Ehara, K. Toyota, R. Fukuda, J. Hasegawa, M. Ishida, T. Nakajima, 
 Y. Honda, O. Kitao, H. Nakai, T. Vreven, J. A. Montgomery, Jr., 
 J. E. Peralta, F. Ogliaro, M. Bearpark, J. J. Heyd, E. Brothers, 
 K. N. Kudin, V. N. Staroverov, T. Keith, R. Kobayashi, J. Normand, 
 K. Raghavachari, A. Rendell, J. C. Burant, S. S. Iyengar, J. Tomasi, 
 M. Cossi, N. Rega, J. M. Millam, M. Klene, J. E. Knox, J. B. Cross, 
 V. Bakken, C. Adamo, J. Jaramillo, R. Gomperts, R. E. Stratmann, 
 O. Yazyev, A. J. Austin, R. Cammi, C. Pomelli, J. W. Ochterski, 
 R. L. Martin, K. Morokuma, V. G. Zakrzewski, G. A. Voth, 
 P. Salvador, J. J. Dannenberg, S. Dapprich, A. D. Daniels, 
 O. Farkas, J. B. Foresman, J. V. Ortiz, J. Cioslowski, 
 and D. J. Fox, Gaussian, Inc., Wallingford CT, 2013.
 
 ******************************************
 Gaussian 09:  ES64L-G09RevE.01 30-Nov-2015
                14-Jan-2017 
 ******************************************
 -------------------------------------
 # b3lyp/6-31g(d) irc=(calcfc,reverse)
 -------------------------------------
 1/10=4,14=-1,18=10,22=2,26=3,38=1,44=3/1,23;
 2/12=2,17=6,18=5,29=1,40=1/2;
 3/5=1,6=6,7=1,11=2,16=1,25=1,30=1,71=2,74=-5,140=1/1,2,3;
 4//1;
 5/5=2,38=5/2;
 8/6=4,10=90,11=11/1;
 11/6=1,8=1,9=11,15=111,16=1/1,2,10;
 10/6=1,13=1/2;
 6/7=2,8=2,9=2,10=2,28=1/1;
 7/10=1,18=20,25=1/1,2,3,16;
 1/10=4,14=-1,18=10,22=2,26=3,44=3/23(2);
 2/29=1/2;
 99/5=20/99;
 2/29=1/2;
 3/5=1,6=6,7=1,11=2,16=1,25=1,30=1,71=2,74=-5,140=1/1,2,3;
 4/5=5,16=3,69=1/1;
 5/5=2,38=5/2;
 8/6=4,10=90,11=11/1;
 11/6=1,8=1,9=11,15=111,16=1/1,2,10;
 10/6=1,13=1/2;
 7/10=1,18=20,25=1/1,2,3,16;
 1/14=-1,18=10,22=2,26=3,44=3/23(-8);
 2/29=1/2;
 6/7=2,8=2,9=2,10=2,19=2,28=1/1;
 99/5=20,9=1/99;
 ---------------------------------
 glo_2w_alpha_ts_boat6_B3LYP_631Gd
 ---------------------------------
 Symbolic Z-matrix:
 Charge =  0 Multiplicity = 1
 6                    -0.14503   0.97985  -0.20139 
 6                    -2.20614  -0.25717   0.61172 
 6                    -1.69584   1.01862  -0.09793 
 6                    -1.46958  -1.49221   0.07148 
 1                    -1.89016  -2.39897   0.53139 
 1                    -3.27495  -0.3462    0.39459 
 1                     0.12401   0.56918  -1.18178 
 1                    -2.01551   1.87343   0.51148 
 6                     0.05841  -1.46848   0.38682 
 8                     0.3701    0.10289   0.81646 
 6                     0.4388    2.37686  -0.09513 
 1                    -0.15025   3.02956  -0.75058 
 1                     0.36246   2.74301   0.9384 
 8                     1.8189    2.38349  -0.53113 
 1                     2.13344   3.30062  -0.52256 
 8                    -1.62646  -1.53596  -1.34378 
 1                    -0.72519  -1.80888  -1.64571 
 8                    -2.09004  -0.16661   2.02587 
 1                    -1.14818   0.01406   2.19211 
 8                    -2.2682    1.19927  -1.38098 
 1                    -2.17079   0.32571  -1.81194 
 8                     3.28217  -1.73067  -0.33025 
 1                     2.25996  -1.91438  -0.46532 
 1                     3.17379  -0.49957   0.31285 
 1                     3.65137  -1.6562   -1.22415 
 8                     0.77896  -1.8335   -0.6309 
 1                     0.29884  -1.89896   1.37086 
 8                     2.84498   0.37299   0.8789 
 1                     2.81848   1.17334   0.29073 
 1                     1.78561   0.21425   0.97263 
 
 IRC-IRC-IRC-IRC-IRC-IRC-IRC-IRC-IRC-IRC-IRC-IRC-IRC-IRC-IRC-IRC-IRC-IRC
 ------------------------------------------------------------------------
 INPUT DATA FOR L123
 ------------------------------------------------------------------------
 GENERAL PARAMETERS:
 Rxn path following direction = Reverse
 Maximum points per path      =  10
 Step size                    =   0.100 bohr
 Integration scheme           = HPC                                 
    Redo corrector integration= Yes                                 
    DWI Weight Power          =  2
    DWI will use Hessian update vectors when possible.
    Max correction cycles     =  20
 Initial Hessian              = CalcFC
 Hessian evaluation           = All updating
 Hessian updating method      = Bofill                              
 ------------------------------------------------------------------------
 IRC-IRC-IRC-IRC-IRC-IRC-IRC-IRC-IRC-IRC-IRC-IRC-IRC-IRC-IRC-IRC-IRC-IRC
                          Input orientation:                          
 ---------------------------------------------------------------------
 Center     Atomic      Atomic             Coordinates (Angstroms)
 Number     Number       Type             X           Y           Z
 ---------------------------------------------------------------------
      1          6           0       -0.145029    0.979851   -0.201387
      2          6           0       -2.206143   -0.257173    0.611724
      3          6           0       -1.695840    1.018616   -0.097932
      4          6           0       -1.469578   -1.492209    0.071482
      5          1           0       -1.890162   -2.398973    0.531391
      6          1           0       -3.274953   -0.346202    0.394590
      7          1           0        0.124012    0.569181   -1.181778
      8          1           0       -2.015512    1.873426    0.511478
      9          6           0        0.058405   -1.468477    0.386821
     10          8           0        0.370104    0.102891    0.816460
     11          6           0        0.438803    2.376861   -0.095132
     12          1           0       -0.150246    3.029560   -0.750584
     13          1           0        0.362456    2.743011    0.938397
     14          8           0        1.818897    2.383490   -0.531127
     15          1           0        2.133442    3.300619   -0.522555
     16          8           0       -1.626458   -1.535957   -1.343777
     17          1           0       -0.725186   -1.808882   -1.645714
     18          8           0       -2.090039   -0.166606    2.025874
     19          1           0       -1.148184    0.014060    2.192107
     20          8           0       -2.268197    1.199271   -1.380984
     21          1           0       -2.170790    0.325706   -1.811939
     22          8           0        3.282171   -1.730674   -0.330251
     23          1           0        2.259962   -1.914382   -0.465321
     24          1           0        3.173787   -0.499572    0.312849
     25          1           0        3.651369   -1.656204   -1.224151
     26          8           0        0.778963   -1.833504   -0.630904
     27          1           0        0.298838   -1.898955    1.370857
     28          8           0        2.844981    0.372991    0.878903
     29          1           0        2.818481    1.173343    0.290728
     30          1           0        1.785609    0.214245    0.972629
 ---------------------------------------------------------------------
                    Distance matrix (angstroms):
                    1          2          3          4          5
     1  C    0.000000
     2  C    2.537631   0.000000
     3  C    1.554741   1.546499   0.000000
     4  C    2.817795   1.536133   2.526685   0.000000
     5  H    3.872842   2.166473   3.480477   1.100285   0.000000
     6  H    3.451091   1.094271   2.144506   2.162663   2.479966
     7  H    1.096449   3.054363   2.165312   2.891283   3.975146
     8  H    2.192113   2.141458   1.097393   3.437898   4.274284
     9  C    2.526200   2.577987   3.081881   1.560363   2.164171
    10  O    1.438900   2.609332   2.437784   2.546324   3.383695
    11  C    1.517823   3.799147   2.530126   4.317335   5.350252
    12  H    2.122016   4.109162   2.618914   4.781509   5.842922
    13  H    2.159949   3.963019   2.878211   4.695208   5.628494
    14  O    2.436378   4.947743   3.795249   5.118422   6.144755
    15  H    3.268110   5.725074   4.477861   6.025432   7.055887
    16  O    3.135120   2.407344   2.843024   1.424599   2.081007
    17  H    3.193696   3.114010   3.366384   1.898200   2.538732
    18  O    3.171454   1.421796   2.463878   2.441689   2.693862
    19  H    2.769095   1.921056   2.559949   2.620914   3.021794
    20  O    2.438737   2.469001   1.416493   3.160936   4.092365
    21  H    2.669362   2.493018   1.908801   2.709942   3.604695
    22  O    4.371413   5.760218   5.691499   4.774660   5.286027
    23  H    3.772297   4.883898   4.938200   3.791551   4.295555
    24  H    3.669833   5.393675   5.117314   4.754411   5.412861
    25  H    4.733653   6.295885   6.084051   5.284852   5.860222
    26  O    2.992192   3.597194   3.813568   2.380287   2.965622
    27  H    3.310059   3.089767   3.827310   2.231841   2.397174
    28  O    3.236582   5.097288   4.689360   4.769310   5.497829
    29  H    3.010317   5.234144   4.533662   5.053779   5.915292
    30  H    2.385755   4.035662   3.730094   3.784216   4.531544
                    6          7          8          9         10
     6  H    0.000000
     7  H    3.856919   0.000000
     8  H    2.554722   3.024191   0.000000
     9  C    3.517220   2.572325   3.935097   0.000000
    10  O    3.696769   2.066626   2.986465   1.658597   0.000000
    11  C    4.631078   2.132510   2.577806   3.894047   2.450849
    12  H    4.740357   2.512889   2.531534   4.644304   3.360325
    13  H    4.803094   3.045905   2.567717   4.258323   2.642945
    14  O    5.852818   2.566651   4.006231   4.333545   3.019292
    15  H    6.587199   3.454437   4.507763   5.279869   3.889446
    16  O    2.674878   2.742626   3.900926   2.416255   3.367300
    17  H    3.578210   2.567403   4.458454   2.204788   3.304064
    18  O    2.024195   3.966413   2.541787   2.999529   2.754562
    19  H    2.807847   3.648252   2.652171   2.629226   2.050730
    20  O    2.560216   2.481806   2.024783   3.956651   3.604364
    21  H    2.557226   2.392175   2.796036   3.608732   3.662550
    22  O    6.740774   3.998550   6.462468   3.312945   3.627264
    23  H    5.816693   3.353159   5.794938   2.402463   3.046952
    24  H    6.451081   3.560515   5.709588   3.263411   2.911567
    25  H    7.232590   4.170897   6.898133   3.942063   4.245610
    26  O    4.438236   2.550553   4.780738   1.299312   2.451867
    27  H    4.016979   3.555025   4.508393   1.100657   2.078418
    28  O    6.181051   3.418855   5.100068   3.376115   2.490355
    29  H    6.280903   3.129449   4.889411   3.821841   2.723382
    30  H    5.124209   2.743785   4.173016   2.481523   1.428441
                   11         12         13         14         15
    11  C    0.000000
    12  H    1.096637   0.000000
    13  H    1.099126   1.788192   0.000000
    14  O    1.447341   2.084009   2.099994   0.000000
    15  H    1.976821   2.310996   2.362562   0.969607   0.000000
    16  O    4.597234   4.834773   5.241533   5.281376   6.180916
    17  H    4.612984   4.954022   5.346057   5.028981   5.961564
    18  O    4.166885   4.656930   3.957677   5.321750   6.029422
    19  H    3.651413   4.329960   3.361695   4.672662   5.379584
    20  O    3.219935   2.869334   3.831840   4.339236   4.952473
    21  H    3.736929   3.538347   4.452533   4.668250   5.388788
    22  O    5.001186   5.883706   5.490725   4.371255   5.164346
    23  H    4.676369   5.507544   5.221328   4.320946   5.216849
    24  H    3.990044   4.963351   4.336962   3.295462   4.027613
    25  H    5.278340   6.052514   5.903106   4.489695   5.231294
    26  O    4.257926   4.952489   4.855994   4.344474   5.310892
    27  H    4.522313   5.384464   4.662501   4.926201   5.829781
    28  O    3.279319   4.322496   3.432705   2.661417   3.322857
    29  H    2.694478   3.652836   2.985865   1.771742   2.378237
    30  H    2.762410   3.826617   2.901929   2.639700   3.447067
                   16         17         18         19         20
    16  O    0.000000
    17  H    0.988911   0.000000
    18  O    3.666685   4.247405   0.000000
    19  H    3.890215   4.269768   0.973326   0.000000
    20  O    2.809748   3.391158   3.674785   3.927612   0.000000
    21  H    1.995310   2.583383   3.870103   4.144301   0.978941
    22  O    5.015953   4.218468   6.071102   5.388361   6.363584
    23  H    4.002393   3.211786   5.308793   4.732470   5.571131
    24  H    5.182746   4.555464   5.545555   4.740766   5.947296
    25  H    5.280552   4.399461   6.763529   6.123423   6.574161
    26  O    2.526415   1.814638   4.250669   3.885457   4.364118
    27  H    3.347801   3.186917   3.022716   2.535340   4.874557
    28  O    5.345854   4.886753   5.095207   4.218851   5.651055
    29  H    5.456134   5.020065   5.375850   4.549023   5.354399
    30  H    4.480083   4.153656   4.034231   3.183448   4.789897
                   21         22         23         24         25
    21  H    0.000000
    22  O    6.013226   0.000000
    23  H    5.144214   1.047332   0.000000
    24  H    5.810362   1.393175   1.855347   0.000000
    25  H    6.178268   0.970005   1.605768   1.981982   0.000000
    26  O    3.841624   2.523295   1.492420   2.899177   2.938383
    27  H    4.601996   3.438366   2.686595   3.367935   4.246464
    28  O    5.692172   2.465481   2.716848   1.090824   3.031622
    29  H    5.480194   3.005651   3.227631   1.710373   3.315855
    30  H    4.839353   2.778472   2.612234   1.694663   3.435911
                   26         27         28         29         30
    26  O    0.000000
    27  H    2.059575   0.000000
    28  O    3.378841   3.447695   0.000000
    29  H    3.748355   4.117559   0.993587   0.000000
    30  H    2.788894   2.614324   1.075292   1.565785   0.000000
 Symmetry turned off by external request.
 Stoichiometry    C6H16O8
 Framework group  C1[X(C6H16O8)]
 Deg. of freedom    84
 Full point group                 C1      NOp   1
 Rotational constants (GHZ):      0.7881522      0.5379237      0.4189413
 Standard basis: 6-31G(d) (6D, 7F)
   242 basis functions,   456 primitive gaussians,   242 cartesian basis functions
    58 alpha electrons       58 beta electrons
       nuclear repulsion energy      1135.8457031325 Hartrees.
 NAtoms=   30 NActive=   30 NUniq=   30 SFac= 1.00D+00 NAtFMM=   60 NAOKFM=F Big=F
 Integral buffers will be    131072 words long.
 Raffenetti 2 integral format.
 Two-electron integral symmetry is turned off.
 One-electron integrals computed using PRISM.
 NBasis=   242 RedAO= T EigKep=  1.37D-03  NBF=   242
 NBsUse=   242 1.00D-06 EigRej= -1.00D+00 NBFU=   242
 ExpMin= 1.61D-01 ExpMax= 5.48D+03 ExpMxC= 8.25D+02 IAcc=1 IRadAn=         1 AccDes= 0.00D+00
 Harris functional with IExCor=  402 and IRadAn=       1 diagonalized for initial guess.
 HarFok:  IExCor=  402 AccDes= 0.00D+00 IRadAn=         1 IDoV= 1 UseB2=F ITyADJ=14
 ICtDFT=  3500011 ScaDFX=  1.000000  1.000000  1.000000  1.000000
 FoFCou: FMM=F IPFlag=           0 FMFlag=      100000 FMFlg1=           0
         NFxFlg=           0 DoJE=T BraDBF=F KetDBF=T FulRan=T
         wScrn=  0.000000 ICntrl=     500 IOpCl=  0 I1Cent=   200000004 NGrid=           0
         NMat0=    1 NMatS0=      1 NMatT0=    0 NMatD0=    1 NMtDS0=    0 NMtDT0=    0
 Symmetry not used in FoFCou.
 Requested convergence on RMS density matrix=1.00D-08 within 128 cycles.
 Requested convergence on MAX density matrix=1.00D-06.
 Requested convergence on             energy=1.00D-06.
 No special actions if energy rises.
 Integral accuracy reduced to 1.0D-05 until final iterations.
 Initial convergence to 1.0D-05 achieved.  Increase integral accuracy.
 SCF Done:  E(RB3LYP) =  -839.982550016     A.U. after   14 cycles
            NFock= 14  Conv=0.66D-08     -V/T= 2.0087
 DoSCS=F DFT=T ScalE2(SS,OS)=  1.000000  1.000000
 Range of M.O.s used for correlation:     1   242
 NBasis=   242 NAE=    58 NBE=    58 NFC=     0 NFV=     0
 NROrb=    242 NOA=    58 NOB=    58 NVA=   184 NVB=   184
 Symmetrizing basis deriv contribution to polar:
 IMax=3 JMax=2 DiffMx= 0.00D+00
 G2DrvN: will do    31 centers at a time, making    1 passes.
 Calling FoFCou, ICntrl=  3107 FMM=F I1Cent=   0 AccDes= 0.00D+00.
 End of G2Drv F.D. properties file   721 does not exist.
 End of G2Drv F.D. properties file   722 does not exist.
 End of G2Drv F.D. properties file   788 does not exist.
          IDoAtm=111111111111111111111111111111
          Differentiating once with respect to nuclear coordinates.
          There are    93 degrees of freedom in the 1st order CPHF.  IDoFFX=6 NUNeed=     0.
     87 vectors produced by pass  0 Test12= 1.15D-14 1.08D-09 XBig12= 1.23D-01 9.28D-02.
 AX will form    87 AO Fock derivatives at one time.
     87 vectors produced by pass  1 Test12= 1.15D-14 1.08D-09 XBig12= 1.36D-02 1.50D-02.
     87 vectors produced by pass  2 Test12= 1.15D-14 1.08D-09 XBig12= 1.62D-04 1.57D-03.
     87 vectors produced by pass  3 Test12= 1.15D-14 1.08D-09 XBig12= 4.70D-07 5.24D-05.
     87 vectors produced by pass  4 Test12= 1.15D-14 1.08D-09 XBig12= 6.52D-10 2.24D-06.
     69 vectors produced by pass  5 Test12= 1.15D-14 1.08D-09 XBig12= 5.85D-13 7.71D-08.
      2 vectors produced by pass  6 Test12= 1.15D-14 1.08D-09 XBig12= 5.02D-16 1.70D-09.
 InvSVY:  IOpt=1 It=  1 EMax= 5.00D-16
 Solved reduced A of dimension   506 with    93 vectors.
 End of Minotr F.D. properties file   721 does not exist.
 End of Minotr F.D. properties file   722 does not exist.
 End of Minotr F.D. properties file   788 does not exist.

 **********************************************************************

            Population analysis using the SCF density.

 **********************************************************************

 Alpha  occ. eigenvalues --  -19.20964 -19.20054 -19.16840 -19.16787 -19.13675
 Alpha  occ. eigenvalues --  -19.13285 -19.12966 -19.10551 -10.27816 -10.26302
 Alpha  occ. eigenvalues --  -10.24533 -10.23179 -10.22627 -10.22585  -1.08726
 Alpha  occ. eigenvalues --   -1.06081  -1.04542  -1.02192  -1.00972  -1.00945
 Alpha  occ. eigenvalues --   -1.00177  -0.96631  -0.77745  -0.74690  -0.68688
 Alpha  occ. eigenvalues --   -0.63441  -0.61547  -0.58995  -0.56528  -0.55735
 Alpha  occ. eigenvalues --   -0.54713  -0.53910  -0.52552  -0.50909  -0.49741
 Alpha  occ. eigenvalues --   -0.47343  -0.45821  -0.45555  -0.44754  -0.42720
 Alpha  occ. eigenvalues --   -0.42287  -0.41063  -0.40778  -0.39450  -0.38284
 Alpha  occ. eigenvalues --   -0.37944  -0.36940  -0.34947  -0.33994  -0.33190
 Alpha  occ. eigenvalues --   -0.32113  -0.31585  -0.30087  -0.28351  -0.26475
 Alpha  occ. eigenvalues --   -0.25531  -0.24899  -0.23747
 Alpha virt. eigenvalues --    0.02687   0.06085   0.07154   0.09100   0.10148
 Alpha virt. eigenvalues --    0.11703   0.12418   0.13153   0.14425   0.14887
 Alpha virt. eigenvalues --    0.15070   0.15948   0.16702   0.18634   0.19642
 Alpha virt. eigenvalues --    0.20903   0.22199   0.23176   0.23590   0.24237
 Alpha virt. eigenvalues --    0.25300   0.25361   0.27085   0.28226   0.30756
 Alpha virt. eigenvalues --    0.32248   0.34763   0.38420   0.51474   0.52207
 Alpha virt. eigenvalues --    0.54139   0.55207   0.57063   0.58728   0.59099
 Alpha virt. eigenvalues --    0.59484   0.61019   0.62940   0.63734   0.64952
 Alpha virt. eigenvalues --    0.68391   0.68667   0.71327   0.72448   0.74200
 Alpha virt. eigenvalues --    0.76136   0.76661   0.77065   0.78634   0.80144
 Alpha virt. eigenvalues --    0.80529   0.81600   0.82804   0.83266   0.84678
 Alpha virt. eigenvalues --    0.85401   0.85979   0.86802   0.88061   0.89309
 Alpha virt. eigenvalues --    0.91051   0.91999   0.92633   0.93837   0.95160
 Alpha virt. eigenvalues --    0.96981   0.98215   1.00447   1.02393   1.03879
 Alpha virt. eigenvalues --    1.05036   1.06219   1.07827   1.08815   1.10572
 Alpha virt. eigenvalues --    1.12278   1.13150   1.14111   1.15480   1.17325
 Alpha virt. eigenvalues --    1.20299   1.21492   1.23651   1.25379   1.27397
 Alpha virt. eigenvalues --    1.27864   1.32984   1.33881   1.36065   1.37518
 Alpha virt. eigenvalues --    1.39444   1.42561   1.46185   1.48507   1.50974
 Alpha virt. eigenvalues --    1.52584   1.53853   1.58172   1.58439   1.60111
 Alpha virt. eigenvalues --    1.62721   1.63903   1.66032   1.67073   1.68175
 Alpha virt. eigenvalues --    1.69761   1.70272   1.70628   1.72295   1.73309
 Alpha virt. eigenvalues --    1.73543   1.74536   1.76351   1.77319   1.79096
 Alpha virt. eigenvalues --    1.80647   1.82268   1.83088   1.85830   1.87692
 Alpha virt. eigenvalues --    1.88797   1.89409   1.93354   1.94508   1.96593
 Alpha virt. eigenvalues --    1.96919   1.98539   1.99717   2.02846   2.05689
 Alpha virt. eigenvalues --    2.06921   2.08898   2.10489   2.15859   2.16757
 Alpha virt. eigenvalues --    2.18882   2.23582   2.25573   2.26606   2.31268
 Alpha virt. eigenvalues --    2.32868   2.35284   2.35687   2.37845   2.38600
 Alpha virt. eigenvalues --    2.41611   2.45376   2.48381   2.50713   2.51816
 Alpha virt. eigenvalues --    2.53751   2.54750   2.56587   2.59658   2.62428
 Alpha virt. eigenvalues --    2.63941   2.66280   2.69755   2.70578   2.72974
 Alpha virt. eigenvalues --    2.76107   2.80184   2.82044   2.87323   2.90873
 Alpha virt. eigenvalues --    2.92815   2.94394   2.98520   3.05762   3.12497
 Alpha virt. eigenvalues --    3.75697   3.79079   3.79590   3.90050   3.91111
 Alpha virt. eigenvalues --    4.02226   4.10789   4.15929   4.30657   4.39424
 Alpha virt. eigenvalues --    4.44951   4.57490   4.78881   4.91789
          Condensed to atoms (all electrons):
               1          2          3          4          5          6
     1  C    5.023276  -0.041742   0.284005  -0.015445   0.000268   0.006333
     2  C   -0.041742   4.956587   0.312348   0.296751  -0.052684   0.377450
     3  C    0.284005   0.312348   4.985892  -0.031648   0.006358  -0.053516
     4  C   -0.015445   0.296751  -0.031648   5.071275   0.364403  -0.046066
     5  H    0.000268  -0.052684   0.006358   0.364403   0.625637  -0.007123
     6  H    0.006333   0.377450  -0.053516  -0.046066  -0.007123   0.589233
     7  H    0.340315  -0.004740  -0.040943  -0.002523   0.000121  -0.000250
     8  H   -0.061760  -0.048741   0.366819   0.006606  -0.000203  -0.004036
     9  C   -0.001804  -0.029612  -0.019835   0.304770  -0.047938   0.004747
    10  O    0.134644  -0.000091  -0.032670  -0.022131   0.002731  -0.000028
    11  C    0.346208   0.002097  -0.021549   0.000225   0.000020  -0.000125
    12  H   -0.038616   0.000557  -0.000818   0.000007  -0.000000  -0.000011
    13  H   -0.033418  -0.000287  -0.004585   0.000025  -0.000001   0.000001
    14  O   -0.035862  -0.000038   0.001816   0.000000  -0.000000   0.000000
    15  H    0.005108   0.000003  -0.000182   0.000000   0.000000  -0.000000
    16  O    0.000156  -0.045008   0.005975   0.215572  -0.038995   0.001875
    17  H   -0.000741   0.005735   0.000584  -0.048586   0.002728  -0.000512
    18  O    0.004130   0.235480  -0.033715  -0.046421   0.004915  -0.034950
    19  H   -0.000252  -0.035634  -0.008835  -0.007242  -0.000662   0.006554
    20  O   -0.043493  -0.025135   0.227882   0.001679  -0.000248   0.004915
    21  H   -0.003690  -0.010569  -0.032453  -0.003812   0.000419   0.000667
    22  O   -0.000080   0.000001   0.000000  -0.000123   0.000001  -0.000000
    23  H    0.000127  -0.000024  -0.000011   0.002105  -0.000060   0.000001
    24  H    0.000030  -0.000003   0.000007   0.000048  -0.000000   0.000000
    25  H    0.000008  -0.000000   0.000000   0.000003  -0.000000   0.000000
    26  O   -0.004717   0.001512   0.000664  -0.056804   0.001330  -0.000082
    27  H    0.004531  -0.001150   0.000874  -0.062600  -0.000534  -0.000233
    28  O    0.007235   0.000006  -0.000030  -0.000042   0.000001   0.000000
    29  H   -0.002046   0.000001   0.000081   0.000001  -0.000000  -0.000000
    30  H   -0.010546   0.000094   0.001032   0.001057  -0.000042   0.000004
               7          8          9         10         11         12
     1  C    0.340315  -0.061760  -0.001804   0.134644   0.346208  -0.038616
     2  C   -0.004740  -0.048741  -0.029612  -0.000091   0.002097   0.000557
     3  C   -0.040943   0.366819  -0.019835  -0.032670  -0.021549  -0.000818
     4  C   -0.002523   0.006606   0.304770  -0.022131   0.000225   0.000007
     5  H    0.000121  -0.000203  -0.047938   0.002731   0.000020  -0.000000
     6  H   -0.000250  -0.004036   0.004747  -0.000028  -0.000125  -0.000011
     7  H    0.605683   0.005223  -0.002384  -0.045987  -0.047541   0.000115
     8  H    0.005223   0.623709   0.000119   0.003303  -0.007990   0.000285
     9  C   -0.002384   0.000119   4.744128   0.060337   0.001764  -0.000073
    10  O   -0.045987   0.003303   0.060337   8.623155  -0.032783   0.003167
    11  C   -0.047541  -0.007990   0.001764  -0.032783   4.959664   0.365027
    12  H    0.000115   0.000285  -0.000073   0.003167   0.365027   0.564425
    13  H    0.006532   0.004851  -0.000077  -0.000835   0.350254  -0.040476
    14  O    0.001816   0.000089  -0.000057   0.000914   0.200304  -0.033257
    15  H   -0.000009  -0.000001   0.000005  -0.000069  -0.017321  -0.003376
    16  O    0.005499  -0.000102  -0.028197  -0.000353   0.000236   0.000001
    17  H    0.001054   0.000032  -0.020162   0.000846   0.000002  -0.000003
    18  O   -0.000149   0.005193   0.003427  -0.015316  -0.000173  -0.000012
    19  H    0.000779   0.001062   0.004251   0.032076  -0.000681   0.000002
    20  O    0.003236  -0.037974  -0.000114   0.001470  -0.001413   0.006450
    21  H    0.003810   0.006260   0.000830   0.000019   0.000141  -0.000082
    22  O    0.000057   0.000000   0.005562  -0.000520   0.000010   0.000000
    23  H   -0.000340  -0.000000  -0.011247   0.001719  -0.000020  -0.000000
    24  H    0.000046  -0.000000  -0.000047   0.002686  -0.000069  -0.000001
    25  H    0.000027   0.000000  -0.000168  -0.000006  -0.000004   0.000000
    26  O    0.016737  -0.000015   0.326019  -0.051793   0.000069   0.000009
    27  H    0.001162   0.000011   0.365489  -0.050348  -0.000227   0.000005
    28  O    0.000011   0.000003   0.003978  -0.075413   0.003673  -0.000068
    29  H    0.000075  -0.000001  -0.000263   0.005048  -0.006471   0.000738
    30  H    0.000985  -0.000084  -0.003095   0.110223  -0.003616   0.000078
              13         14         15         16         17         18
     1  C   -0.033418  -0.035862   0.005108   0.000156  -0.000741   0.004130
     2  C   -0.000287  -0.000038   0.000003  -0.045008   0.005735   0.235480
     3  C   -0.004585   0.001816  -0.000182   0.005975   0.000584  -0.033715
     4  C    0.000025   0.000000   0.000000   0.215572  -0.048586  -0.046421
     5  H   -0.000001  -0.000000   0.000000  -0.038995   0.002728   0.004915
     6  H    0.000001   0.000000  -0.000000   0.001875  -0.000512  -0.034950
     7  H    0.006532   0.001816  -0.000009   0.005499   0.001054  -0.000149
     8  H    0.004851   0.000089  -0.000001  -0.000102   0.000032   0.005193
     9  C   -0.000077  -0.000057   0.000005  -0.028197  -0.020162   0.003427
    10  O   -0.000835   0.000914  -0.000069  -0.000353   0.000846  -0.015316
    11  C    0.350254   0.200304  -0.017321   0.000236   0.000002  -0.000173
    12  H   -0.040476  -0.033257  -0.003376   0.000001  -0.000003  -0.000012
    13  H    0.608390  -0.038480  -0.002381  -0.000003  -0.000001  -0.000012
    14  O   -0.038480   8.276100   0.234656  -0.000000  -0.000001   0.000000
    15  H   -0.002381   0.234656   0.369474   0.000000   0.000000  -0.000000
    16  O   -0.000003  -0.000000   0.000000   8.344310   0.211392   0.001499
    17  H   -0.000001  -0.000001   0.000000   0.211392   0.355307  -0.000102
    18  O   -0.000012   0.000000  -0.000000   0.001499  -0.000102   8.289719
    19  H    0.000639   0.000000  -0.000000  -0.000004  -0.000012   0.229019
    20  O    0.000122  -0.000024   0.000006  -0.016616   0.000556   0.001583
    21  H   -0.000005   0.000001   0.000000   0.047600  -0.001458   0.000063
    22  O    0.000000  -0.000026   0.000001  -0.000002   0.000124  -0.000000
    23  H   -0.000000   0.000017  -0.000000   0.000132  -0.000830   0.000001
    24  H    0.000008   0.000110  -0.000018   0.000000  -0.000009   0.000000
    25  H    0.000000   0.000008  -0.000001   0.000001  -0.000024  -0.000000
    26  O    0.000001  -0.000007  -0.000000  -0.031712   0.071942   0.000054
    27  H   -0.000006   0.000002  -0.000000   0.002275   0.002878   0.002107
    28  O    0.000040  -0.030309   0.001274   0.000000   0.000003  -0.000001
    29  H   -0.000242   0.071436  -0.003466  -0.000000  -0.000000   0.000000
    30  H    0.000441   0.001985  -0.000207  -0.000028  -0.000052   0.000020
              19         20         21         22         23         24
     1  C   -0.000252  -0.043493  -0.003690  -0.000080   0.000127   0.000030
     2  C   -0.035634  -0.025135  -0.010569   0.000001  -0.000024  -0.000003
     3  C   -0.008835   0.227882  -0.032453   0.000000  -0.000011   0.000007
     4  C   -0.007242   0.001679  -0.003812  -0.000123   0.002105   0.000048
     5  H   -0.000662  -0.000248   0.000419   0.000001  -0.000060  -0.000000
     6  H    0.006554   0.004915   0.000667  -0.000000   0.000001   0.000000
     7  H    0.000779   0.003236   0.003810   0.000057  -0.000340   0.000046
     8  H    0.001062  -0.037974   0.006260   0.000000  -0.000000  -0.000000
     9  C    0.004251  -0.000114   0.000830   0.005562  -0.011247  -0.000047
    10  O    0.032076   0.001470   0.000019  -0.000520   0.001719   0.002686
    11  C   -0.000681  -0.001413   0.000141   0.000010  -0.000020  -0.000069
    12  H    0.000002   0.006450  -0.000082   0.000000  -0.000000  -0.000001
    13  H    0.000639   0.000122  -0.000005   0.000000  -0.000000   0.000008
    14  O    0.000000  -0.000024   0.000001  -0.000026   0.000017   0.000110
    15  H   -0.000000   0.000006   0.000000   0.000001  -0.000000  -0.000018
    16  O   -0.000004  -0.016616   0.047600  -0.000002   0.000132   0.000000
    17  H   -0.000012   0.000556  -0.001458   0.000124  -0.000830  -0.000009
    18  O    0.229019   0.001583   0.000063  -0.000000   0.000001   0.000000
    19  H    0.374852   0.000010   0.000030   0.000000  -0.000001  -0.000001
    20  O    0.000010   8.303937   0.227032  -0.000000   0.000000  -0.000000
    21  H    0.000030   0.227032   0.347919   0.000000  -0.000000  -0.000000
    22  O    0.000000  -0.000000   0.000000   8.435952   0.154710   0.135858
    23  H   -0.000001   0.000000  -0.000000   0.154710   0.302153  -0.011231
    24  H   -0.000001  -0.000000  -0.000000   0.135858  -0.011231   0.271874
    25  H    0.000000  -0.000000  -0.000000   0.236423  -0.007973  -0.005805
    26  O    0.000173   0.000009  -0.000074  -0.064470   0.112747   0.003556
    27  H    0.000560  -0.000006  -0.000025   0.000921  -0.003586  -0.000057
    28  O    0.000005   0.000000  -0.000000  -0.083323   0.006957   0.141177
    29  H   -0.000002  -0.000001  -0.000000   0.002329  -0.000149   0.001051
    30  H    0.000353  -0.000018  -0.000001   0.003381   0.000148  -0.004544
              25         26         27         28         29         30
     1  C    0.000008  -0.004717   0.004531   0.007235  -0.002046  -0.010546
     2  C   -0.000000   0.001512  -0.001150   0.000006   0.000001   0.000094
     3  C    0.000000   0.000664   0.000874  -0.000030   0.000081   0.001032
     4  C    0.000003  -0.056804  -0.062600  -0.000042   0.000001   0.001057
     5  H   -0.000000   0.001330  -0.000534   0.000001  -0.000000  -0.000042
     6  H    0.000000  -0.000082  -0.000233   0.000000  -0.000000   0.000004
     7  H    0.000027   0.016737   0.001162   0.000011   0.000075   0.000985
     8  H    0.000000  -0.000015   0.000011   0.000003  -0.000001  -0.000084
     9  C   -0.000168   0.326019   0.365489   0.003978  -0.000263  -0.003095
    10  O   -0.000006  -0.051793  -0.050348  -0.075413   0.005048   0.110223
    11  C   -0.000004   0.000069  -0.000227   0.003673  -0.006471  -0.003616
    12  H    0.000000   0.000009   0.000005  -0.000068   0.000738   0.000078
    13  H    0.000000   0.000001  -0.000006   0.000040  -0.000242   0.000441
    14  O    0.000008  -0.000007   0.000002  -0.030309   0.071436   0.001985
    15  H   -0.000001  -0.000000  -0.000000   0.001274  -0.003466  -0.000207
    16  O    0.000001  -0.031712   0.002275   0.000000  -0.000000  -0.000028
    17  H   -0.000024   0.071942   0.002878   0.000003  -0.000000  -0.000052
    18  O   -0.000000   0.000054   0.002107  -0.000001   0.000000   0.000020
    19  H    0.000000   0.000173   0.000560   0.000005  -0.000002   0.000353
    20  O   -0.000000   0.000009  -0.000006   0.000000  -0.000001  -0.000018
    21  H   -0.000000  -0.000074  -0.000025  -0.000000  -0.000000  -0.000001
    22  O    0.236423  -0.064470   0.000921  -0.083323   0.002329   0.003381
    23  H   -0.007973   0.112747  -0.003586   0.006957  -0.000149   0.000148
    24  H   -0.005805   0.003556  -0.000057   0.141177   0.001051  -0.004544
    25  H    0.365072   0.003388  -0.000022   0.003363  -0.000057  -0.000055
    26  O    0.003388   8.382682  -0.047292  -0.001659   0.000127   0.004415
    27  H   -0.000022  -0.047292   0.665895  -0.000006   0.000029  -0.000474
    28  O    0.003363  -0.001659  -0.000006   8.478154   0.206256   0.157607
    29  H   -0.000057   0.000127   0.000029   0.206256   0.292830  -0.014486
    30  H   -0.000055   0.004415  -0.000474   0.157607  -0.014486   0.280052
 Mulliken charges:
               1
     1  C    0.137839
     2  C    0.106837
     3  C    0.086448
     4  C    0.078915
     5  H    0.139558
     6  H    0.155151
     7  H    0.151583
     8  H    0.137341
     9  C    0.339649
    10  O   -0.653998
    11  C   -0.089708
    12  H    0.175927
    13  H    0.149504
    14  O   -0.651195
    15  H    0.416503
    16  O   -0.675503
    17  H    0.419310
    18  O   -0.646358
    19  H    0.402958
    20  O   -0.653846
    21  H    0.417377
    22  O   -0.826785
    23  H    0.454656
    24  H    0.465334
    25  H    0.405822
    26  O   -0.666809
    27  H    0.119826
    28  O   -0.818894
    29  H    0.447182
    30  H    0.475375
 Sum of Mulliken charges =  -0.00000
 Mulliken charges with hydrogens summed into heavy atoms:
               1
     1  C    0.289422
     2  C    0.261988
     3  C    0.223790
     4  C    0.218472
     9  C    0.459475
    10  O   -0.653998
    11  C    0.235724
    14  O   -0.234692
    16  O   -0.256193
    18  O   -0.243400
    20  O   -0.236469
    22  O    0.033693
    26  O   -0.666809
    28  O    0.568997
 APT charges:
               1
     1  C   -0.156890
     2  C   -0.478713
     3  C   -0.347255
     4  C   -0.393513
     5  H    0.562502
     6  H    0.622050
     7  H    0.261479
     8  H    0.477163
     9  C   -0.254339
    10  O   -0.459813
    11  C   -0.624308
    12  H    0.510555
    13  H    0.411915
    14  O   -1.160843
    15  H    0.975604
    16  O   -0.588990
    17  H    0.430457
    18  O   -0.460249
    19  H    0.321652
    20  O   -0.590119
    21  H    0.446234
    22  O   -1.015942
    23  H    0.248829
    24  H    0.459048
    25  H    0.779080
    26  O   -0.543649
    27  H    0.431468
    28  O   -0.642148
    29  H    0.487434
    30  H    0.291300
 Sum of APT charges =  -0.00000
 APT charges with hydrogens summed into heavy atoms:
               1
     1  C    0.104590
     2  C    0.143338
     3  C    0.129907
     4  C    0.168989
     9  C    0.177130
    10  O   -0.459813
    11  C    0.298162
    14  O   -0.185239
    16  O   -0.158533
    18  O   -0.138597
    20  O   -0.143885
    22  O    0.011967
    26  O   -0.543649
    28  O    0.595634
 Electronic spatial extent (au):  <R**2>=           2924.7485
 Charge=              0.0000 electrons
 Dipole moment (field-independent basis, Debye):
    X=              5.1224    Y=              3.7731    Z=             -0.8429  Tot=              6.4176
 Quadrupole moment (field-independent basis, Debye-Ang):
   XX=            -86.6580   YY=            -75.5144   ZZ=            -87.7469
   XY=              9.0345   XZ=             -6.3518   YZ=              1.6656
 Traceless Quadrupole moment (field-independent basis, Debye-Ang):
   XX=             -3.3516   YY=              7.7920   ZZ=             -4.4405
   XY=              9.0345   XZ=             -6.3518   YZ=              1.6656
 Octapole moment (field-independent basis, Debye-Ang**2):
  XXX=             64.1565  YYY=             54.7326  ZZZ=            -17.0625  XYY=             30.3222
  XXY=             10.4903  XXZ=            -31.4419  XZZ=             29.8857  YZZ=             -8.2454
  YYZ=              3.3165  XYZ=              1.8835
 Hexadecapole moment (field-independent basis, Debye-Ang**3):
 XXXX=          -1732.4848 YYYY=           -997.6853 ZZZZ=           -484.7026 XXXY=             63.8889
 XXXZ=           -105.6712 YYYX=            115.6635 YYYZ=            -11.4706 ZZZX=             17.1164
 ZZZY=             23.4833 XXYY=           -474.9025 XXZZ=           -412.7277 YYZZ=           -274.4988
 XXYZ=             37.5525 YYXZ=            -40.3242 ZZXY=            -20.0489
 N-N= 1.135845703132D+03 E-N=-4.244094550581D+03  KE= 8.327769240923D+02
  Exact polarizability:   0.000   0.000   0.000   0.000   0.000   0.000
 Approx polarizability: 138.858  -2.764 132.923  -2.003   4.322 134.662
 Calling FoFJK, ICntrl=    100147 FMM=F ISym2X=0 I1Cent= 0 IOpClX= 0 NMat=1 NMatS=1 NMatT=0.
 -------------------------------------------------------------------
 Center     Atomic                   Forces (Hartrees/Bohr)
 Number     Number              X              Y              Z
 -------------------------------------------------------------------
      1        6          -0.000004472   -0.000003190    0.000001132
      2        6           0.000002273   -0.000007970   -0.000004237
      3        6          -0.000003514   -0.000007734   -0.000005475
      4        6          -0.000005317   -0.000014668   -0.000008425
      5        1           0.000010356    0.000016395   -0.000008390
      6        1          -0.000000418   -0.000003779    0.000000034
      7        1          -0.000001575    0.000001662   -0.000000509
      8        1          -0.000005215    0.000005392    0.000008168
      9        6           0.000002374    0.000005209   -0.000004023
     10        8          -0.000002719   -0.000000377    0.000000013
     11        6          -0.000005565    0.000000261    0.000006889
     12        1          -0.000002917    0.000001801    0.000000765
     13        1          -0.000004967    0.000000544    0.000008171
     14        8          -0.000001989    0.000016217    0.000020773
     15        1          -0.000002273   -0.000008158   -0.000000298
     16        8           0.000013897   -0.000000956    0.000008492
     17        1           0.000003368    0.000001357   -0.000004363
     18        8          -0.000012512   -0.000016227    0.000000086
     19        1           0.000009190    0.000002174    0.000000571
     20        8          -0.000003571   -0.000014462    0.000003257
     21        1           0.000003905    0.000010632   -0.000003464
     22        8          -0.000011827    0.000034701   -0.000026683
     23        1          -0.000007818   -0.000006081    0.000007272
     24        1           0.000003310   -0.000012237   -0.000003739
     25        1           0.000012452   -0.000005814    0.000006053
     26        8           0.000005778    0.000003809   -0.000007435
     27        1           0.000000529    0.000000983    0.000003581
     28        8           0.000001466    0.000004155    0.000001622
     29        1           0.000002768    0.000000678   -0.000000315
     30        1           0.000005004   -0.000004317    0.000000477
 -------------------------------------------------------------------
 Cartesian Forces:  Max     0.000034701 RMS     0.000008241
 IRC-IRC-IRC-IRC-IRC-IRC-IRC-IRC-IRC-IRC-IRC-IRC-IRC-IRC-IRC-IRC-IRC-IRC
          ******** Start new reaction path calculation ********
 Supplied step size of   0.1000 bohr.
    Integration on MW PES will use step size of   0.1848 sqrt(amu)*bohr.
 Point Number:   0          Path Number:   1
 Calculating another point on the path.
 IRC-IRC-IRC-IRC-IRC-IRC-IRC-IRC-IRC-IRC-IRC-IRC-IRC-IRC-IRC-IRC-IRC-IRC
                          Input orientation:                          
 ---------------------------------------------------------------------
 Center     Atomic      Atomic             Coordinates (Angstroms)
 Number     Number       Type             X           Y           Z
 ---------------------------------------------------------------------
      1          6           0       -0.122424    0.989938   -0.202755
      2          6           0       -2.183045   -0.245195    0.610810
      3          6           0       -1.672984    1.030723   -0.099069
      4          6           0       -1.443950   -1.479107    0.071360
      5          1           0       -1.862119   -2.386853    0.531186
      6          1           0       -3.251747   -0.335105    0.393617
      7          1           0        0.146284    0.581148   -1.183882
      8          1           0       -1.992003    1.885737    0.510415
      9          6           0        0.084302   -1.445378    0.389385
     10          8           0        0.390778    0.108747    0.812898
     11          6           0        0.463157    2.386240   -0.093665
     12          1           0       -0.126496    3.040080   -0.747454
     13          1           0        0.387704    2.750948    0.940464
     14          8           0        1.842856    2.394187   -0.531045
     15          1           0        2.156931    3.311474   -0.521154
     16          8           0       -1.600574   -1.523722   -1.344086
     17          1           0       -0.699283   -1.797506   -1.645175
     18          8           0       -2.067103   -0.153987    2.025151
     19          1           0       -1.125065    0.025638    2.191194
     20          8           0       -2.245231    1.211634   -1.382052
     21          1           0       -2.147228    0.338225   -1.813186
     22          8           0        3.296979   -1.712387   -0.327501
     23          1           0        2.263314   -1.892098   -0.464644
     24          1           0        3.200152   -0.508594    0.298286
     25          1           0        3.669011   -1.636337   -1.220336
     26          8           0        0.806629   -1.817982   -0.630736
     27          1           0        0.321610   -1.884213    1.370669
     28          8           0        2.878729    0.382498    0.875728
     29          1           0        2.844889    1.183048    0.287855
     30          1           0        1.837170    0.225574    0.983781
 ---------------------------------------------------------------------
                    Distance matrix (angstroms):
                    1          2          3          4          5
     1  C    0.000000
     2  C    2.536454   0.000000
     3  C    1.554558   1.546628   0.000000
     4  C    2.813851   1.536167   2.526015   0.000000
     5  H    3.868841   2.167033   3.480348   1.100140   0.000000
     6  H    3.450226   1.094249   2.144928   2.163497   2.481866
     7  H    1.096322   3.054429   2.165334   2.889486   3.972930
     8  H    2.192349   2.141833   1.097403   3.437341   4.274615
     9  C    2.514783   2.574942   3.075340   1.561355   2.166803
    10  O    1.439245   2.605893   2.437383   2.537201   3.373860
    11  C    1.518047   3.797778   2.529932   4.313375   5.346005
    12  H    2.121272   4.106982   2.617163   4.777991   5.839427
    13  H    2.160633   3.961602   2.878582   4.690806   5.623719
    14  O    2.437625   4.947529   3.795624   5.115505   6.141133
    15  H    3.269001   5.724214   4.477525   6.022216   7.052030
    16  O    3.131462   2.407389   2.842622   1.424784   2.080876
    17  H    3.191111   3.114593   3.367108   1.897999   2.536940
    18  O    3.170790   1.422013   2.463976   2.441631   2.694372
    19  H    2.768782   1.921011   2.560413   2.619091   3.019766
    20  O    2.438483   2.469356   1.416418   3.161416   4.093454
    21  H    2.667967   2.493475   1.908575   2.710870   3.606025
    22  O    4.360097   5.750108   5.681317   4.763393   5.273381
    23  H    3.750529   4.861995   4.916398   3.768510   4.272664
    24  H    3.679151   5.398690   5.125899   4.749849   5.404506
    25  H    4.723110   6.287680   6.075142   5.275942   5.850171
    26  O    2.988431   3.599062   3.813957   2.381781   2.965787
    27  H    3.306596   3.088213   3.825623   2.229241   2.392917
    28  O    3.246387   5.107420   4.699842   4.774739   5.501242
    29  H    3.013791   5.236821   4.536969   5.052532   5.912641
    30  H    2.414980   4.064832   3.760586   3.808438   4.551303
                    6          7          8          9         10
     6  H    0.000000
     7  H    3.856765   0.000000
     8  H    2.555922   3.024048   0.000000
     9  C    3.515955   2.566285   3.927088   0.000000
    10  O    3.693344   2.066415   2.987781   1.639694   0.000000
    11  C    4.630731   2.132449   2.577446   3.880486   2.452361
    12  H    4.739315   2.512215   2.528806   4.632081   3.360802
    13  H    4.802954   3.046171   2.568372   4.243217   2.645280
    14  O    5.853119   2.567423   4.006158   4.322264   3.022904
    15  H    6.586967   3.454937   4.506719   5.268066   3.893129
    16  O    2.675592   2.740011   3.900872   2.418650   3.359021
    17  H    3.579156   2.566276   4.459145   2.208492   3.296083
    18  O    2.024373   3.967039   2.541759   2.995324   2.753138
    19  H    2.807881   3.649117   2.652653   2.621635   2.050459
    20  O    2.560952   2.481156   2.024838   3.952775   3.603153
    21  H    2.557990   2.390656   2.796071   3.607255   3.659297
    22  O    6.730730   3.990059   6.451507   3.302501   3.614283
    23  H    5.794543   3.334076   5.773258   2.382650   3.023555
    24  H    6.454934   3.565174   5.721564   3.254902   2.922074
    25  H    7.224606   4.162712   6.888221   3.934184   4.233931
    26  O    4.440567   2.549088   4.780387   1.304315   2.443214
    27  H    4.015376   3.554501   4.506148   1.100822   2.070696
    28  O    6.191132   3.427493   5.110501   3.374387   2.503755
    29  H    6.283704   3.132213   4.892732   3.813105   2.729918
    30  H    5.153613   2.772055   4.200331   2.493579   1.461129
                   11         12         13         14         15
    11  C    0.000000
    12  H    1.096648   0.000000
    13  H    1.099148   1.788034   0.000000
    14  O    1.447388   2.083832   2.100020   0.000000
    15  H    1.976784   2.310607   2.362346   0.969617   0.000000
    16  O    4.594600   4.832925   5.238819   5.279039   6.178608
    17  H    4.611094   4.953406   5.343735   5.027330   5.960123
    18  O    4.164655   4.653532   3.954905   5.321194   6.027898
    19  H    3.649037   4.326621   3.358587   4.672169   5.378201
    20  O    3.221026   2.869664   3.833525   4.339942   4.952728
    21  H    3.737009   3.538243   4.453055   4.668151   5.388446
    22  O    4.988384   5.872179   5.476584   4.361176   5.155230
    23  H    4.656433   5.487946   5.200973   4.307370   5.204967
    24  H    4.003102   4.975263   4.352800   3.310012   4.043848
    25  H    5.265740   6.041388   5.889338   4.478291   5.220735
    26  O    4.252282   4.948243   4.849668   4.338902   5.305341
    27  H    4.516756   5.379211   4.655552   4.922948   5.826025
    28  O    3.284767   4.327683   3.437870   2.664383   3.324330
    29  H    2.695529   3.653705   2.986966   1.772435   2.378651
    30  H    2.777999   3.843775   2.912102   2.645300   3.448167
                   16         17         18         19         20
    16  O    0.000000
    17  H    0.988908   0.000000
    18  O    3.666822   4.247750   0.000000
    19  H    3.889065   4.268825   0.973279   0.000000
    20  O    2.810551   3.393245   3.675008   3.928033   0.000000
    21  H    1.996430   2.585753   3.870598   4.144585   0.978941
    22  O    5.005504   4.208756   6.061102   5.377641   6.354375
    23  H    3.979793   3.190546   5.288915   4.712992   5.549935
    24  H    5.174441   4.543559   5.554438   4.751421   5.952724
    25  H    5.272241   4.391862   6.755261   6.114234   6.566228
    26  O    2.527862   1.815841   4.252170   3.885056   4.365421
    27  H    3.345840   3.185131   3.021255   2.532520   4.873440
    28  O    5.350272   4.889739   5.105903   4.229440   5.660390
    29  H    5.454537   5.018114   5.378989   4.552233   5.357120
    30  H    4.505229   4.175866   4.058555   3.205098   4.820320
                   21         22         23         24         25
    21  H    0.000000
    22  O    6.004304   0.000000
    23  H    5.123065   1.058096   0.000000
    24  H    5.811187   1.360185   1.836794   0.000000
    25  H    6.170819   0.970230   1.616313   1.948806   0.000000
    26  O    3.843526   2.510965   1.467995   2.882105   2.928114
    27  H    4.601231   3.430179   2.671826   3.365760   4.240265
    28  O    5.700217   2.451782   2.710926   1.109413   3.015580
    29  H    5.481727   2.994427   3.218852   1.728575   3.301931
    30  H    4.869409   2.757933   2.600782   1.693111   3.417673
                   26         27         28         29         30
    26  O    0.000000
    27  H    2.060401   0.000000
    28  O    3.377150   3.452797   0.000000
    29  H    3.742257   4.116736   0.993790   0.000000
    30  H    2.800857   2.626368   1.058842   1.554531   0.000000
 Symmetry turned off by external request.
 Stoichiometry    C6H16O8
 Framework group  C1[X(C6H16O8)]
 Deg. of freedom    84
 Full point group                 C1      NOp   1
 Rotational constants (GHZ):      0.7901281      0.5380021      0.4194149
 Standard basis: 6-31G(d) (6D, 7F)
   242 basis functions,   456 primitive gaussians,   242 cartesian basis functions
    58 alpha electrons       58 beta electrons
       nuclear repulsion energy      1136.3838787269 Hartrees.
 NAtoms=   30 NActive=   30 NUniq=   30 SFac= 1.00D+00 NAtFMM=   60 NAOKFM=F Big=F
 Integral buffers will be    131072 words long.
 Raffenetti 2 integral format.
 Two-electron integral symmetry is turned off.
 One-electron integrals computed using PRISM.
 NBasis=   242 RedAO= T EigKep=  1.37D-03  NBF=   242
 NBsUse=   242 1.00D-06 EigRej= -1.00D+00 NBFU=   242
 Initial guess from the checkpoint file:  "/scratch/10461044.yak.local/Gau-16784.chk"
 B after Tr=     0.045581    0.023400   -0.000735
         Rot=    1.000000   -0.000026   -0.000024    0.000027 Ang=  -0.01 deg.
 ExpMin= 1.61D-01 ExpMax= 5.48D+03 ExpMxC= 8.25D+02 IAcc=1 IRadAn=         1 AccDes= 0.00D+00
 Harris functional with IExCor=  402 and IRadAn=       1 diagonalized for initial guess.
 HarFok:  IExCor=  402 AccDes= 0.00D+00 IRadAn=         1 IDoV= 1 UseB2=F ITyADJ=14
 ICtDFT=  3500011 ScaDFX=  1.000000  1.000000  1.000000  1.000000
 FoFCou: FMM=F IPFlag=           0 FMFlag=      100000 FMFlg1=           0
         NFxFlg=           0 DoJE=T BraDBF=F KetDBF=T FulRan=T
         wScrn=  0.000000 ICntrl=     500 IOpCl=  0 I1Cent=   200000004 NGrid=           0
         NMat0=    1 NMatS0=      1 NMatT0=    0 NMatD0=    1 NMtDS0=    0 NMtDT0=    0
 Symmetry not used in FoFCou.
 Requested convergence on RMS density matrix=1.00D-08 within 128 cycles.
 Requested convergence on MAX density matrix=1.00D-06.
 Requested convergence on             energy=1.00D-06.
 No special actions if energy rises.
 Integral accuracy reduced to 1.0D-05 until final iterations.
 Initial convergence to 1.0D-05 achieved.  Increase integral accuracy.
 SCF Done:  E(RB3LYP) =  -839.982613062     A.U. after   11 cycles
            NFock= 11  Conv=0.68D-08     -V/T= 2.0087
 DoSCS=F DFT=T ScalE2(SS,OS)=  1.000000  1.000000
 Range of M.O.s used for correlation:     1   242
 NBasis=   242 NAE=    58 NBE=    58 NFC=     0 NFV=     0
 NROrb=    242 NOA=    58 NOB=    58 NVA=   184 NVB=   184
 Symmetrizing basis deriv contribution to polar:
 IMax=3 JMax=2 DiffMx= 0.00D+00
 Calling FoFJK, ICntrl=      2147 FMM=F ISym2X=0 I1Cent= 0 IOpClX= 0 NMat=1 NMatS=1 NMatT=0.
 -------------------------------------------------------------------
 Center     Atomic                   Forces (Hartrees/Bohr)
 Number     Number              X              Y              Z
 -------------------------------------------------------------------
      1        6          -0.000128278   -0.000167798   -0.000094792
      2        6          -0.000076375   -0.000044095   -0.000040497
      3        6          -0.000096440   -0.000037023   -0.000056811
      4        6           0.000122010    0.000024860    0.000008931
      5        1           0.000037529    0.000016026   -0.000006669
      6        1          -0.000004799   -0.000014133   -0.000004275
      7        1          -0.000014511   -0.000001200   -0.000007714
      8        1          -0.000007946    0.000003181    0.000002932
      9        6           0.000057773    0.000711066    0.000267490
     10        8          -0.000284633   -0.000569486   -0.000316307
     11        6           0.000035358   -0.000236509    0.000149173
     12        1          -0.000007965   -0.000012627    0.000025281
     13        1           0.000000675   -0.000030805    0.000023420
     14        8          -0.000042252   -0.000155240    0.000062324
     15        1          -0.000008129   -0.000019414    0.000012591
     16        8           0.000210349   -0.000027034    0.000015338
     17        1          -0.000003365   -0.000003210   -0.000005885
     18        8          -0.000126135   -0.000001116   -0.000035179
     19        1          -0.000001543   -0.000003069    0.000004415
     20        8          -0.000117211   -0.000027532   -0.000060815
     21        1          -0.000000855    0.000013570   -0.000010322
     22        8          -0.000613342    0.000684858    0.000293273
     23        1          -0.000555350   -0.000003731   -0.000023481
     24        1           0.000174584   -0.000615926   -0.000349117
     25        1          -0.000020198    0.000035610    0.000044029
     26        8           0.000451956    0.000307151    0.000025942
     27        1          -0.000005135    0.000027692   -0.000021977
     28        8           0.001383444    0.000299404   -0.000147782
     29        1           0.000011106   -0.000071961    0.000056732
     30        1          -0.000370323   -0.000081510    0.000189752
 -------------------------------------------------------------------
 Cartesian Forces:  Max     0.001383444 RMS     0.000250856
 IRC-IRC-IRC-IRC-IRC-IRC-IRC-IRC-IRC-IRC-IRC-IRC-IRC-IRC-IRC-IRC-IRC-IRC
 Pt  1 Step number   1 out of a maximum of  20
 Modified Bulirsch-Stoer Extrapolation Cycles:
    EPS =    0.000010000000000
 Maximum DWI energy   std dev =  0.000002089 at pt    24
 Maximum DWI gradient std dev =  0.638356816 at pt     4
 CORRECTOR INTEGRATION CONVERGENCE:
   Recorrection delta-x convergence threshold:    0.010000
   Delta-x Convergence Met
 Point Number:   1          Path Number:   1
   CHANGE IN THE REACTION COORDINATE =    0.18438
   NET REACTION COORDINATE UP TO THIS POINT =    0.18438
  # OF POINTS ALONG THE PATH =   1
  # OF STEPS =   1

 Calculating another point on the path.
 IRC-IRC-IRC-IRC-IRC-IRC-IRC-IRC-IRC-IRC-IRC-IRC-IRC-IRC-IRC-IRC-IRC-IRC
                          Input orientation:                          
 ---------------------------------------------------------------------
 Center     Atomic      Atomic             Coordinates (Angstroms)
 Number     Number       Type             X           Y           Z
 ---------------------------------------------------------------------
      1          6           0       -0.123730    0.988071   -0.203674
      2          6           0       -2.183674   -0.245843    0.610311
      3          6           0       -1.674007    1.030315   -0.099696
      4          6           0       -1.442152   -1.478789    0.071424
      5          1           0       -1.858071   -2.387448    0.531072
      6          1           0       -3.252210   -0.336923    0.392896
      7          1           0        0.144786    0.581067   -1.185455
      8          1           0       -1.992613    1.885341    0.510009
      9          6           0        0.086050   -1.435865    0.392226
     10          8           0        0.387689    0.103017    0.810089
     11          6           0        0.463335    2.383781   -0.091885
     12          1           0       -0.127583    3.038650   -0.743580
     13          1           0        0.388653    2.746653    0.943017
     14          8           0        1.842205    2.393224   -0.530885
     15          1           0        2.155770    3.310657   -0.519018
     16          8           0       -1.598964   -1.523956   -1.344153
     17          1           0       -0.698408   -1.799025   -1.645514
     18          8           0       -2.068069   -0.154115    2.024811
     19          1           0       -1.126022    0.025222    2.190896
     20          8           0       -2.246257    1.211589   -1.382546
     21          1           0       -2.147476    0.338619   -1.814265
     22          8           0        3.286979   -1.706475   -0.324415
     23          1           0        2.238528   -1.881457   -0.464114
     24          1           0        3.202257   -0.535731    0.282046
     25          1           0        3.662467   -1.626919   -1.215790
     26          8           0        0.810699   -1.815559   -0.630180
     27          1           0        0.320666   -1.882195    1.370781
     28          8           0        2.888379    0.379050    0.873459
     29          1           0        2.848619    1.179314    0.286415
     30          1           0        1.861605    0.225299    0.996174
 ---------------------------------------------------------------------
                    Distance matrix (angstroms):
                    1          2          3          4          5
     1  C    0.000000
     2  C    2.535446   0.000000
     3  C    1.554334   1.546755   0.000000
     4  C    2.810572   1.536362   2.525598   0.000000
     5  H    3.865477   2.167664   3.480352   1.099966   0.000000
     6  H    3.449477   1.094228   2.145394   2.164142   2.483419
     7  H    1.096197   3.054552   2.165342   2.888101   3.971144
     8  H    2.192524   2.142081   1.097415   3.436966   4.274958
     9  C    2.504909   2.572034   3.069500   1.562101   2.168961
    10  O    1.439647   2.602599   2.436838   2.529043   3.365071
    11  C    1.518272   3.796665   2.529854   4.310105   5.342436
    12  H    2.120469   4.104684   2.615229   4.774891   5.836254
    13  H    2.161029   3.960126   2.878825   4.686778   5.619293
    14  O    2.438529   4.947192   3.795680   5.112951   6.137965
    15  H    3.269552   5.723186   4.476938   6.019341   7.048546
    16  O    3.128464   2.407361   2.842289   1.424951   2.080678
    17  H    3.190150   3.115627   3.368458   1.898310   2.535465
    18  O    3.170360   1.422177   2.464080   2.441773   2.695019
    19  H    2.768688   1.921029   2.560725   2.618043   3.018589
    20  O    2.438201   2.469718   1.416346   3.162080   4.094592
    21  H    2.666710   2.494289   1.908498   2.712245   3.607742
    22  O    4.348343   5.738920   5.670264   4.751127   5.259954
    23  H    3.725894   4.835855   4.890721   3.741170   4.246003
    24  H    3.690540   5.403706   5.135774   4.743865   5.394236
    25  H    4.711459   6.278486   6.065024   5.266498   5.840057
    26  O    2.985867   3.601263   3.814993   2.383485   2.966124
    27  H    3.303759   3.086695   3.824100   2.226790   2.388993
    28  O    3.256366   5.117173   4.710259   4.779993   5.504500
    29  H    3.018546   5.240225   4.541523   5.051975   5.910548
    30  H    2.441928   4.090862   3.788078   3.830652   4.569327
                    6          7          8          9         10
     6  H    0.000000
     7  H    3.856616   0.000000
     8  H    2.557100   3.023939   0.000000
     9  C    3.514492   2.561356   3.919837   0.000000
    10  O    3.690049   2.066333   2.988739   1.622884   0.000000
    11  C    4.630607   2.132404   2.577285   3.868643   2.453806
    12  H    4.738077   2.511803   2.525856   4.621361   3.361151
    13  H    4.802808   3.046248   2.569004   4.229467   2.646976
    14  O    5.853216   2.567802   4.005900   4.312556   3.026364
    15  H    6.586553   3.455265   4.505497   5.257716   3.896356
    16  O    2.675745   2.738060   3.900793   2.421165   3.351804
    17  H    3.579771   2.566606   4.460471   2.213514   3.290495
    18  O    2.024538   3.967748   2.541594   2.991395   2.751801
    19  H    2.807958   3.650160   2.652622   2.615168   2.050365
    20  O    2.561645   2.480623   2.024857   3.949492   3.601979
    21  H    2.558976   2.389278   2.796174   3.606388   3.656474
    22  O    6.719464   3.980906   6.439837   3.291314   3.601006
    23  H    5.767864   3.311814   5.748064   2.359032   2.997889
    24  H    6.458479   3.570564   5.735872   3.245477   2.934045
    25  H    7.215589   4.153337   6.877084   3.925937   4.221498
    26  O    4.443003   2.548644   4.780716   1.309427   2.436031
    27  H    4.013673   3.554284   4.504056   1.100829   2.063961
    28  O    6.200838   3.436166   5.121044   3.373210   2.516677
    29  H    6.287323   3.136083   4.897550   3.805541   2.736572
    30  H    5.179879   2.798847   4.224582   2.505357   1.490641
                   11         12         13         14         15
    11  C    0.000000
    12  H    1.096697   0.000000
    13  H    1.099216   1.787840   0.000000
    14  O    1.447098   2.083717   2.100027   0.000000
    15  H    1.976329   2.310436   2.361853   0.969612   0.000000
    16  O    4.592566   4.831462   5.236399   5.277059   6.176760
    17  H    4.610778   4.954031   5.342788   5.027133   5.960216
    18  O    4.162850   4.650078   3.952242   5.320785   6.026319
    19  H    3.646909   4.323053   3.355239   4.671820   5.376605
    20  O    3.222070   2.869706   3.835026   4.340174   4.952738
    21  H    3.737060   3.537867   4.453447   4.667550   5.387820
    22  O    4.975664   5.860985   5.462328   4.351728   5.146758
    23  H    4.634881   5.466630   5.178944   4.293534   5.193064
    24  H    4.020580   4.991587   4.373476   3.330072   4.065900
    25  H    5.251983   6.029511   5.874219   4.465871   5.209154
    26  O    4.247926   4.945359   4.844259   4.334480   5.300911
    27  H    4.512017   5.374586   4.649069   4.920429   5.822771
    28  O    3.291151   4.334088   3.443692   2.669000   3.327166
    29  H    2.698784   3.657295   2.989835   1.776071   2.381468
    30  H    2.792504   3.859866   2.920555   2.651827   3.449895
                   16         17         18         19         20
    16  O    0.000000
    17  H    0.988677   0.000000
    18  O    3.666939   4.248880   0.000000
    19  H    3.888469   4.269516   0.973241   0.000000
    20  O    2.811347   3.395406   3.675184   3.928344   0.000000
    21  H    1.997763   2.588010   3.871382   4.145226   0.978885
    22  O    4.994558   4.199663   6.050224   5.366576   6.344402
    23  H    3.953305   3.166717   5.265475   4.690916   5.524831
    24  H    5.164574   4.530627   5.564098   4.763651   5.959052
    25  H    5.264004   4.385376   6.746087   6.104482   6.557283
    26  O    2.530072   1.818950   4.254019   3.885592   4.367455
    27  H    3.344275   3.184880   3.019946   2.530560   4.872516
    28  O    5.354949   4.894310   5.116273   4.239841   5.669848
    29  H    5.454119   5.018392   5.382738   4.555957   5.361366
    30  H    4.529080   4.198818   4.079753   3.223865   4.848259
                   21         22         23         24         25
    21  H    0.000000
    22  O    5.994611   0.000000
    23  H    5.097909   1.072093   0.000000
    24  H    5.811940   1.321217   1.815629   0.000000
    25  H    6.162544   0.970499   1.630156   1.909450   0.000000
    26  O    3.846211   2.497469   1.438964   2.861759   2.917380
    27  H    4.600898   3.421049   2.654248   3.361825   4.233574
    28  O    5.708356   2.437868   2.705790   1.133628   2.998013
    29  H    5.484578   2.982122   3.209957   1.751130   3.285409
    30  H    4.897361   2.739963   2.590933   1.698968   3.400971
                   26         27         28         29         30
    26  O    0.000000
    27  H    2.061169   0.000000
    28  O    3.375499   3.457413   0.000000
    29  H    3.736647   4.115730   0.993289   0.000000
    30  H    2.813278   2.637490   1.045449   1.545348   0.000000
 Symmetry turned off by external request.
 Stoichiometry    C6H16O8
 Framework group  C1[X(C6H16O8)]
 Deg. of freedom    84
 Full point group                 C1      NOp   1
 Rotational constants (GHZ):      0.7918159      0.5381517      0.4198716
 Standard basis: 6-31G(d) (6D, 7F)
   242 basis functions,   456 primitive gaussians,   242 cartesian basis functions
    58 alpha electrons       58 beta electrons
       nuclear repulsion energy      1136.8682243945 Hartrees.
 NAtoms=   30 NActive=   30 NUniq=   30 SFac= 1.00D+00 NAtFMM=   60 NAOKFM=F Big=F
 Integral buffers will be    131072 words long.
 Raffenetti 2 integral format.
 Two-electron integral symmetry is turned off.
 One-electron integrals computed using PRISM.
 NBasis=   242 RedAO= T EigKep=  1.36D-03  NBF=   242
 NBsUse=   242 1.00D-06 EigRej= -1.00D+00 NBFU=   242
 Initial guess from the checkpoint file:  "/scratch/10461044.yak.local/Gau-16784.chk"
 B after Tr=    -0.000014   -0.000178    0.000038
         Rot=    1.000000   -0.000061   -0.000028    0.000023 Ang=  -0.01 deg.
 ExpMin= 1.61D-01 ExpMax= 5.48D+03 ExpMxC= 8.25D+02 IAcc=1 IRadAn=         1 AccDes= 0.00D+00
 Harris functional with IExCor=  402 and IRadAn=       1 diagonalized for initial guess.
 HarFok:  IExCor=  402 AccDes= 0.00D+00 IRadAn=         1 IDoV= 1 UseB2=F ITyADJ=14
 ICtDFT=  3500011 ScaDFX=  1.000000  1.000000  1.000000  1.000000
 FoFCou: FMM=F IPFlag=           0 FMFlag=      100000 FMFlg1=           0
         NFxFlg=           0 DoJE=T BraDBF=F KetDBF=T FulRan=T
         wScrn=  0.000000 ICntrl=     500 IOpCl=  0 I1Cent=   200000004 NGrid=           0
         NMat0=    1 NMatS0=      1 NMatT0=    0 NMatD0=    1 NMtDS0=    0 NMtDT0=    0
 Symmetry not used in FoFCou.
 Requested convergence on RMS density matrix=1.00D-08 within 128 cycles.
 Requested convergence on MAX density matrix=1.00D-06.
 Requested convergence on             energy=1.00D-06.
 No special actions if energy rises.
 Integral accuracy reduced to 1.0D-05 until final iterations.
 Initial convergence to 1.0D-05 achieved.  Increase integral accuracy.
 SCF Done:  E(RB3LYP) =  -839.982840869     A.U. after   11 cycles
            NFock= 11  Conv=0.65D-08     -V/T= 2.0087
 DoSCS=F DFT=T ScalE2(SS,OS)=  1.000000  1.000000
 Range of M.O.s used for correlation:     1   242
 NBasis=   242 NAE=    58 NBE=    58 NFC=     0 NFV=     0
 NROrb=    242 NOA=    58 NOB=    58 NVA=   184 NVB=   184
 Symmetrizing basis deriv contribution to polar:
 IMax=3 JMax=2 DiffMx= 0.00D+00
 Calling FoFJK, ICntrl=      2147 FMM=F ISym2X=0 I1Cent= 0 IOpClX= 0 NMat=1 NMatS=1 NMatT=0.
 -------------------------------------------------------------------
 Center     Atomic                   Forces (Hartrees/Bohr)
 Number     Number              X              Y              Z
 -------------------------------------------------------------------
      1        6          -0.000248362   -0.000323381   -0.000191870
      2        6          -0.000128613   -0.000100944   -0.000080470
      3        6          -0.000181646   -0.000071202   -0.000103758
      4        6           0.000313314    0.000051299    0.000016051
      5        1           0.000050601   -0.000000959    0.000003993
      6        1          -0.000004015   -0.000020614   -0.000008437
      7        1          -0.000019095   -0.000001897   -0.000015285
      8        1          -0.000003162   -0.000003677   -0.000009781
      9        6           0.000143800    0.001556943    0.000610136
     10        8          -0.000599558   -0.001229676   -0.000674407
     11        6           0.000075680   -0.000453529    0.000309714
     12        1          -0.000013395   -0.000024012    0.000046483
     13        1           0.000012927   -0.000057090    0.000025060
     14        8          -0.000163850   -0.000250119    0.000037438
     15        1          -0.000013413   -0.000019020    0.000023900
     16        8           0.000414461   -0.000061088   -0.000014829
     17        1          -0.000033111   -0.000013867   -0.000016024
     18        8          -0.000219898   -0.000018064   -0.000085042
     19        1          -0.000016669   -0.000000633    0.000007984
     20        8          -0.000238126   -0.000017941   -0.000116681
     21        1          -0.000007895    0.000009808   -0.000014318
     22        8          -0.001239535    0.001444633    0.000663108
     23        1          -0.001477275   -0.000065990   -0.000091907
     24        1           0.000462592   -0.001569976   -0.000881702
     25        1          -0.000063149    0.000086160    0.000097137
     26        8           0.001100213    0.000575130    0.000062882
     27        1          -0.000006149    0.000045850   -0.000044536
     28        8           0.002532800    0.000769671   -0.000005106
     29        1           0.000027171   -0.000131496    0.000130535
     30        1          -0.000456646   -0.000104321    0.000319731
 -------------------------------------------------------------------
 Cartesian Forces:  Max     0.002532800 RMS     0.000525917
 IRC-IRC-IRC-IRC-IRC-IRC-IRC-IRC-IRC-IRC-IRC-IRC-IRC-IRC-IRC-IRC-IRC-IRC
 Pt  2 Step number   1 out of a maximum of  20
 Modified Bulirsch-Stoer Extrapolation Cycles:
    EPS =    0.000010000000000
 Maximum DWI energy   std dev =  0.000009718 at pt    70
 Maximum DWI gradient std dev =  0.461122075 at pt    55
 CORRECTOR INTEGRATION CONVERGENCE:
   Recorrection delta-x convergence threshold:    0.010000
   Delta-x Convergence NOT Met
 IRC-IRC-IRC-IRC-IRC-IRC-IRC-IRC-IRC-IRC-IRC-IRC-IRC-IRC-IRC-IRC-IRC-IRC
                          Input orientation:                          
 ---------------------------------------------------------------------
 Center     Atomic      Atomic             Coordinates (Angstroms)
 Number     Number       Type             X           Y           Z
 ---------------------------------------------------------------------
      1          6           0       -0.123626    0.988284   -0.203639
      2          6           0       -2.183556   -0.245802    0.610371
      3          6           0       -1.673884    1.030341   -0.099634
      4          6           0       -1.442163   -1.478920    0.071359
      5          1           0       -1.858251   -2.387481    0.531022
      6          1           0       -3.252070   -0.336983    0.392889
      7          1           0        0.144915    0.581195   -1.185382
      8          1           0       -1.992553    1.885346    0.510046
      9          6           0        0.085833   -1.436456    0.392257
     10          8           0        0.387822    0.103432    0.810278
     11          6           0        0.463414    2.384036   -0.092026
     12          1           0       -0.127781    3.038746   -0.743645
     13          1           0        0.388591    2.746801    0.942911
     14          8           0        1.842066    2.393459   -0.530998
     15          1           0        2.155654    3.310862   -0.519047
     16          8           0       -1.599125   -1.523937   -1.344191
     17          1           0       -0.699098   -1.799240   -1.646258
     18          8           0       -2.067970   -0.154176    2.024831
     19          1           0       -1.126015    0.025564    2.191020
     20          8           0       -2.246183    1.211605   -1.382469
     21          1           0       -2.147456    0.338742   -1.814330
     22          8           0        3.287327   -1.706748   -0.324550
     23          1           0        2.234310   -1.881060   -0.464339
     24          1           0        3.202971   -0.541871    0.279056
     25          1           0        3.662873   -1.626225   -1.215824
     26          8           0        0.810941   -1.815887   -0.630290
     27          1           0        0.320802   -1.882444    1.370637
     28          8           0        2.887968    0.379323    0.873778
     29          1           0        2.848856    1.179194    0.287238
     30          1           0        1.860096    0.225932    0.996950
 ---------------------------------------------------------------------
                    Distance matrix (angstroms):
                    1          2          3          4          5
     1  C    0.000000
     2  C    2.535525   0.000000
     3  C    1.554312   1.546742   0.000000
     4  C    2.810918   1.536482   2.525732   0.000000
     5  H    3.865804   2.167696   3.480406   1.099956   0.000000
     6  H    3.449542   1.094228   2.145419   2.164062   2.483214
     7  H    1.096200   3.054575   2.165321   2.888302   3.971367
     8  H    2.192477   2.142040   1.097402   3.437100   4.274988
     9  C    2.505660   2.572034   3.069796   1.561906   2.168679
    10  O    1.439642   2.602674   2.436746   2.529562   3.365631
    11  C    1.518288   3.796822   2.529939   4.310493   5.342817
    12  H    2.120381   4.104610   2.615124   4.775053   5.836372
    13  H    2.160862   3.960075   2.878704   4.687001   5.619502
    14  O    2.438366   4.947126   3.795533   5.113151   6.138210
    15  H    3.269399   5.723127   4.476834   6.019541   7.048772
    16  O    3.128771   2.407385   2.842332   1.424937   2.080692
    17  H    3.191020   3.115952   3.368796   1.898673   2.535786
    18  O    3.170452   1.422130   2.464089   2.441850   2.695013
    19  H    2.768755   1.921064   2.560631   2.618470   3.019031
    20  O    2.438188   2.469689   1.416351   3.162118   4.094552
    21  H    2.666855   2.494427   1.908603   2.712408   3.607853
    22  O    4.348842   5.739251   5.670614   4.751497   5.260454
    23  H    3.723032   4.831833   4.887049   3.736997   4.242200
    24  H    3.693321   5.404821   5.137993   4.743254   5.393118
    25  H    4.711449   6.278637   6.064998   5.266871   5.840702
    26  O    2.986440   3.601585   3.815359   2.383765   2.966471
    27  H    3.304079   3.086812   3.824236   2.226881   2.389202
    28  O    3.255974   5.116690   4.709762   4.779851   5.504478
    29  H    3.018785   5.240248   4.541697   5.052229   5.910792
    30  H    2.440850   4.089388   3.786633   3.829902   4.568711
                    6          7          8          9         10
     6  H    0.000000
     7  H    3.856618   0.000000
     8  H    2.557118   3.023914   0.000000
     9  C    3.514319   2.561904   3.920195   0.000000
    10  O    3.690121   2.066378   2.988568   1.623944   0.000000
    11  C    4.630757   2.132394   2.577394   3.869529   2.453777
    12  H    4.737978   2.511782   2.525757   4.622049   3.361040
    13  H    4.802777   3.046122   2.568915   4.230192   2.646694
    14  O    5.853128   2.567653   4.005778   4.313352   3.026231
    15  H    6.586492   3.455163   4.505414   5.258485   3.896145
    16  O    2.675544   2.738335   3.900794   2.421155   3.352317
    17  H    3.579662   2.567341   4.460812   2.214334   3.291827
    18  O    2.024536   3.967757   2.541635   2.991388   2.751802
    19  H    2.807993   3.650217   2.652424   2.615650   2.050418
    20  O    2.561607   2.480648   2.024813   3.949706   3.601967
    21  H    2.559022   2.389419   2.796195   3.606651   3.656716
    22  O    6.719724   3.981265   6.440250   3.291874   3.601627
    23  H    5.763626   3.308802   5.744703   2.355289   2.995393
    24  H    6.459294   3.571772   5.739182   3.244941   2.936610
    25  H    7.215715   4.153271   6.877034   3.926469   4.221702
    26  O    4.443209   2.549063   4.781116   1.309715   2.436812
    27  H    4.013708   3.554390   4.504272   1.100610   2.064509
    28  O    6.200356   3.435875   5.120537   3.373555   2.516124
    29  H    6.287389   3.136480   4.897708   3.806173   2.736334
    30  H    5.178417   2.798326   4.222989   2.505433   1.489109
                   11         12         13         14         15
    11  C    0.000000
    12  H    1.096706   0.000000
    13  H    1.099224   1.787832   0.000000
    14  O    1.446881   2.083726   2.099964   0.000000
    15  H    1.976115   2.310534   2.361779   0.969592   0.000000
    16  O    4.592846   4.831520   5.236512   5.277222   6.176934
    17  H    4.611602   4.954515   5.343534   5.027927   5.960986
    18  O    4.163113   4.650112   3.952330   5.320816   6.026342
    19  H    3.647051   4.322961   3.355136   4.671811   5.376523
    20  O    3.222073   2.869524   3.834874   4.339996   4.952631
    21  H    3.737138   3.537722   4.453388   4.667450   5.387765
    22  O    4.976250   5.861597   5.462896   4.352367   5.147322
    23  H    4.633112   5.464611   5.177270   4.292996   5.192805
    24  H    4.025395   4.996063   4.379132   3.335328   4.071535
[...]
 Harris functional with IExCor=  402 and IRadAn=       1 diagonalized for initial guess.
 HarFok:  IExCor=  402 AccDes= 0.00D+00 IRadAn=         1 IDoV= 1 UseB2=F ITyADJ=14
 ICtDFT=  3500011 ScaDFX=  1.000000  1.000000  1.000000  1.000000
 FoFCou: FMM=F IPFlag=           0 FMFlag=      100000 FMFlg1=           0
         NFxFlg=           0 DoJE=T BraDBF=F KetDBF=T FulRan=T
         wScrn=  0.000000 ICntrl=     500 IOpCl=  0 I1Cent=   200000004 NGrid=           0
         NMat0=    1 NMatS0=      1 NMatT0=    0 NMatD0=    1 NMtDS0=    0 NMtDT0=    0
 Symmetry not used in FoFCou.
 Requested convergence on RMS density matrix=1.00D-08 within 128 cycles.
 Requested convergence on MAX density matrix=1.00D-06.
 Requested convergence on             energy=1.00D-06.
 No special actions if energy rises.
 Integral accuracy reduced to 1.0D-05 until final iterations.
 Initial convergence to 1.0D-05 achieved.  Increase integral accuracy.
 SCF Done:  E(RB3LYP) =  -840.001318853     A.U. after   10 cycles
            NFock= 10  Conv=0.35D-08     -V/T= 2.0084
 DoSCS=F DFT=T ScalE2(SS,OS)=  1.000000  1.000000
 Range of M.O.s used for correlation:     1   242
 NBasis=   242 NAE=    58 NBE=    58 NFC=     0 NFV=     0
 NROrb=    242 NOA=    58 NOB=    58 NVA=   184 NVB=   184
 Symmetrizing basis deriv contribution to polar:
 IMax=3 JMax=2 DiffMx= 0.00D+00
 Calling FoFJK, ICntrl=      2147 FMM=F ISym2X=0 I1Cent= 0 IOpClX= 0 NMat=1 NMatS=1 NMatT=0.
 -------------------------------------------------------------------
 Center     Atomic                   Forces (Hartrees/Bohr)
 Number     Number              X              Y              Z
 -------------------------------------------------------------------
      1        6          -0.001317824   -0.001259548   -0.002233738
      2        6           0.000009243   -0.001032593   -0.000638875
      3        6          -0.000635327   -0.000439497   -0.000802894
      4        6           0.002759708    0.000024632    0.000266119
      5        1           0.000558989   -0.000145605   -0.000043491
      6        1           0.000016968   -0.000159405   -0.000052821
      7        1          -0.000080717    0.000073858   -0.000209174
      8        1           0.000010076   -0.000041395   -0.000037678
      9        6          -0.001681369    0.014601828    0.006634053
     10        8          -0.005094667   -0.011771658   -0.005703148
     11        6           0.000597513   -0.001934021    0.001807482
     12        1          -0.000255545   -0.000216668    0.000392362
     13        1           0.000108293   -0.000294287    0.000214842
     14        8          -0.003143369    0.001716185   -0.002144581
     15        1          -0.000259721    0.000118717    0.000084842
     16        8          -0.000421959    0.000595872   -0.000432722
     17        1          -0.000614410   -0.000999921   -0.000518291
     18        8          -0.000777915   -0.000929593   -0.000578166
     19        1          -0.000209796    0.000314241    0.000196626
     20        8          -0.001285880    0.000535253   -0.000182848
     21        1          -0.000026799    0.000108599   -0.000157519
     22        8           0.010063181   -0.010967572   -0.004162877
     23        1          -0.001949880   -0.000385398    0.000198041
     24        1           0.001679858   -0.001935374   -0.000309987
     25        1           0.000366256   -0.000009256   -0.000301607
     26        8          -0.011554036    0.001559841   -0.003137621
     27        1           0.000040812    0.000344361    0.000007061
     28        8           0.014822965    0.012488585    0.009009779
     29        1          -0.000015576    0.000403676    0.000675928
     30        1          -0.001709073   -0.000363858    0.002160903
 -------------------------------------------------------------------
 Cartesian Forces:  Max     0.014822965 RMS     0.003899795
 IRC-IRC-IRC-IRC-IRC-IRC-IRC-IRC-IRC-IRC-IRC-IRC-IRC-IRC-IRC-IRC-IRC-IRC
 Error in corrector energy =          -0.0000220976
 Magnitude of corrector gradient =     0.0364129565
 Magnitude of analytic gradient =      0.0369967038
 Magnitude of difference =             0.0049397561
 Angle between gradients (degrees)=    7.6628
 Pt  9 Step number  19 out of a maximum of  20
 Modified Bulirsch-Stoer Extrapolation Cycles:
    EPS =    0.000010000000000
 Maximum DWI energy   std dev =  0.000034718 at pt    30
 Maximum DWI gradient std dev =  0.118700104 at pt    29
 CORRECTOR INTEGRATION CONVERGENCE:
   Recorrection delta-x convergence threshold:    0.010000
   Delta-x Convergence NOT Met
 IRC-IRC-IRC-IRC-IRC-IRC-IRC-IRC-IRC-IRC-IRC-IRC-IRC-IRC-IRC-IRC-IRC-IRC
                          Input orientation:                          
 ---------------------------------------------------------------------
 Center     Atomic      Atomic             Coordinates (Angstroms)
 Number     Number       Type             X           Y           Z
 ---------------------------------------------------------------------
      1          6           0       -0.128166    0.983808   -0.208604
      2          6           0       -2.183049   -0.247189    0.609525
      3          6           0       -1.675671    1.029565   -0.102010
      4          6           0       -1.431436   -1.481354    0.070301
      5          1           0       -1.841127   -2.392400    0.527660
      6          1           0       -3.249526   -0.348136    0.388839
      7          1           0        0.142664    0.587758   -1.192928
      8          1           0       -1.993211    1.883613    0.508884
      9          6           0        0.086438   -1.383725    0.419478
     10          8           0        0.370613    0.072622    0.796671
     11          6           0        0.467357    2.378437   -0.087380
     12          1           0       -0.139136    3.029965   -0.729857
     13          1           0        0.390522    2.735750    0.949914
     14          8           0        1.834769    2.396038   -0.534914
     15          1           0        2.146606    3.313819   -0.512663
     16          8           0       -1.596998   -1.524141   -1.345616
     17          1           0       -0.729503   -1.825117   -1.686475
     18          8           0       -2.069643   -0.155920    2.023347
     19          1           0       -1.131818    0.036925    2.195643
     20          8           0       -2.249235    1.212168   -1.383158
     21          1           0       -2.149263    0.345100   -1.823096
     22          8           0        3.278066   -1.709267   -0.323278
     23          1           0        1.842541   -1.855117   -0.467682
     24          1           0        3.296726   -0.801722    0.140887
     25          1           0        3.665083   -1.585771   -1.202613
     26          8           0        0.823957   -1.814226   -0.635487
     27          1           0        0.325294   -1.882713    1.364598
     28          8           0        2.917538    0.393915    0.886019
     29          1           0        2.863265    1.186704    0.315794
     30          1           0        1.958983    0.237524    1.068433
 ---------------------------------------------------------------------
                    Distance matrix (angstroms):
                    1          2          3          4          5
     1  C    0.000000
     2  C    2.531251   0.000000
     3  C    1.551847   1.547196   0.000000
     4  C    2.802379   1.542351   2.528647   0.000000
     5  H    3.856825   2.173831   3.483347   1.098648   0.000000
     6  H    3.445853   1.093740   2.148491   2.165895   2.486338
     7  H    1.095033   3.058580   2.166019   2.890461   3.972051
     8  H    2.191537   2.141607   1.097005   3.439614   4.278757
     9  C    2.458812   2.545270   3.033306   1.560576   2.178218
    10  O    1.445551   2.580406   2.431182   2.487938   3.322724
    11  C    1.521293   3.795292   2.532240   4.304447   5.335566
    12  H    2.111536   4.087940   2.599371   4.760493   5.820667
    13  H    2.163447   3.954372   2.878674   4.677309   5.608607
    14  O    2.440079   4.943607   3.791812   5.105737   6.129471
    15  H    3.270473   5.717167   4.471717   6.011316   7.038837
    16  O    3.120908   2.407620   2.841506   1.426206   2.079095
    17  H    3.230444   3.142335   3.399261   1.922797   2.541636
    18  O    3.170161   1.421297   2.465306   2.445091   2.700212
    19  H    2.772059   1.923949   2.561313   2.629072   3.030991
    20  O    2.435295   2.470807   1.415507   3.168028   4.100084
    21  H    2.664464   2.503915   1.911785   2.726933   3.621451
    22  O    4.343755   5.729883   5.664774   4.731412   5.234205
    23  H    3.465587   4.466674   4.564309   3.338869   3.853413
    24  H    3.878163   5.527663   5.304464   4.777280   5.392345
    25  H    4.688232   6.267080   6.047724   5.254115   5.827765
    26  O    2.986261   3.612166   3.823595   2.386575   2.964771
    27  H    3.301141   3.088180   3.825724   2.218646   2.377735
    28  O    3.289754   5.148150   4.741078   4.805789   5.526017
    29  H    3.043816   5.254294   4.560832   5.061942   5.914911
    30  H    2.558115   4.195470   3.899740   3.930108   4.652932
                    6          7          8          9         10
     6  H    0.000000
     7  H    3.858088   0.000000
     8  H    2.563872   3.022808   0.000000
     9  C    3.493142   2.547501   3.874071   0.000000
    10  O    3.667257   2.067809   2.991684   1.531006   0.000000
    11  C    4.634243   2.129365   2.579686   3.815216   2.471374
    12  H    4.726264   2.501644   2.507228   4.566456   3.366899
    13  H    4.803656   3.044187   2.569597   4.164601   2.667607
    14  O    5.850971   2.562436   4.000690   4.272486   3.052070
    15  H    6.583378   3.451080   4.497459   5.213454   3.920952
    16  O    2.668740   2.740411   3.899864   2.443201   3.318213
    17  H    3.583144   2.612705   4.491240   2.301223   3.313259
    18  O    2.025016   3.973888   2.541482   2.954418   2.740769
    19  H    2.810250   3.661986   2.645262   2.580146   2.053216
    20  O    2.564197   2.479366   2.023910   3.929826   3.593582
    21  H    2.565894   2.389335   2.798126   3.607816   3.645162
    22  O    6.705911   3.982883   6.433322   3.293046   3.589247
    23  H    5.379012   3.063201   5.444701   2.023156   2.735203
    24  H    6.566631   3.695650   5.943894   3.274491   3.123566
    25  H    7.202519   4.139053   6.854352   3.934299   4.195347
    26  O    4.448812   2.558208   4.787487   1.357283   2.411803
    27  H    4.010782   3.560551   4.504766   1.095122   2.036647
    28  O    6.231413   3.472682   5.145569   3.375322   2.568665
    29  H    6.302958   3.168067   4.910022   3.785317   2.772315
    30  H    5.285207   2.921546   4.317700   2.560472   1.619865
                   11         12         13         14         15
    11  C    0.000000
    12  H    1.097770   0.000000
    13  H    1.099798   1.785701   0.000000
    14  O    1.438892   2.082347   2.099039   0.000000
    15  H    1.968675   2.313518   2.357356   0.969566   0.000000
    16  O    4.590733   4.821245   5.231287   5.272766   6.173673
    17  H    4.653971   4.983520   5.385769   5.071462   6.004873
    18  O    4.161070   4.632154   3.945431   5.319927   6.020564
    19  H    3.640362   4.301425   3.339613   4.671402   5.368521
    20  O    3.227862   2.860717   3.838339   4.335914   4.949557
    21  H    3.740838   3.527646   4.455929   4.662432   5.383774
    22  O    4.966392   5.856867   5.451339   4.356768   5.152422
    23  H    4.467520   5.278239   5.019362   4.251694   5.178067
    24  H    4.262728   5.219691   4.649113   3.580461   4.322914
    25  H    5.213841   6.000051   5.833667   4.432909   5.175692
    26  O    4.243348   4.939903   4.837731   4.331071   5.297294
    27  H    4.503979   5.360676   4.637501   4.918778   5.817666
    28  O    3.299882   4.347766   3.445879   2.683270   3.328135
    29  H    2.706132   3.674971   2.985985   1.801110   2.392605
    30  H    2.853832   3.928572   2.952160   2.691716   3.463908
                   16         17         18         19         20
    16  O    0.000000
    17  H    0.979449   0.000000
    18  O    3.666788   4.283104   0.000000
    19  H    3.897927   4.324338   0.972827   0.000000
    20  O    2.813221   3.409793   3.675350   3.929076   0.000000
    21  H    2.006749   2.596964   3.879754   4.156974   0.977419
    22  O    4.984545   4.234658   6.042973   5.370402   6.341071
    23  H    3.565212   2.846360   4.939401   4.418137   5.195090
    24  H    5.165280   4.538404   5.723516   4.953519   6.093944
    25  H    5.264384   4.427617   6.733378   6.098487   6.545244
    26  O    2.539578   1.875615   4.265243   3.907315   4.377509
    27  H    3.342011   3.228771   3.025143   2.549279   4.874080
    28  O    5.388893   4.984249   5.144687   4.270812   5.702127
    29  H    5.477490   5.097855   5.389986   4.562511   5.387461
    30  H    4.645007   4.367146   4.158904   3.296041   4.966823
                   21         22         23         24         25
    21  H    0.000000
    22  O    5.993811   0.000000
    23  H    4.755270   1.450123   0.000000
    24  H    5.901799   1.019527   1.895957   0.000000
    25  H    6.157912   0.968640   1.983515   1.598566   0.000000
    26  O    3.861753   2.476114   1.033123   2.782536   2.906169
    27  H    4.609552   3.405565   2.379086   3.390490   4.222906
    28  O    5.745795   2.452704   2.836595   1.458957   2.973276
    29  H    5.514397   2.994515   3.302784   2.042626   3.261149
    30  H    5.024957   2.732551   2.598529   1.931303   3.375327
                   26         27         28         29         30
    26  O    0.000000
    27  H    2.062449   0.000000
    28  O    3.402051   3.483074   0.000000
    29  H    3.750905   4.118569   0.978068   0.000000
    30  H    2.898500   2.692965   0.988211   1.511666   0.000000
 Symmetry turned off by external request.
 Stoichiometry    C6H16O8
 Framework group  C1[X(C6H16O8)]
 Deg. of freedom    84
 Full point group                 C1      NOp   1
 Rotational constants (GHZ):      0.7927999      0.5372784      0.4200855
 Standard basis: 6-31G(d) (6D, 7F)
   242 basis functions,   456 primitive gaussians,   242 cartesian basis functions
    58 alpha electrons       58 beta electrons
       nuclear repulsion energy      1137.5716593989 Hartrees.
 NAtoms=   30 NActive=   30 NUniq=   30 SFac= 1.00D+00 NAtFMM=   60 NAOKFM=F Big=F
 Integral buffers will be    131072 words long.
 Raffenetti 2 integral format.
 Two-electron integral symmetry is turned off.
 One-electron integrals computed using PRISM.
 NBasis=   242 RedAO= T EigKep=  1.35D-03  NBF=   242
 NBsUse=   242 1.00D-06 EigRej= -1.00D+00 NBFU=   242
 Initial guess from the checkpoint file:  "/scratch/10461044.yak.local/Gau-16784.chk"
 B after Tr=    -0.000061   -0.000028    0.000016
         Rot=    1.000000   -0.000005    0.000001    0.000004 Ang=  -0.00 deg.
 ExpMin= 1.61D-01 ExpMax= 5.48D+03 ExpMxC= 8.25D+02 IAcc=1 IRadAn=         1 AccDes= 0.00D+00
 Harris functional with IExCor=  402 and IRadAn=       1 diagonalized for initial guess.
 HarFok:  IExCor=  402 AccDes= 0.00D+00 IRadAn=         1 IDoV= 1 UseB2=F ITyADJ=14
 ICtDFT=  3500011 ScaDFX=  1.000000  1.000000  1.000000  1.000000
 FoFCou: FMM=F IPFlag=           0 FMFlag=      100000 FMFlg1=           0
         NFxFlg=           0 DoJE=T BraDBF=F KetDBF=T FulRan=T
         wScrn=  0.000000 ICntrl=     500 IOpCl=  0 I1Cent=   200000004 NGrid=           0
         NMat0=    1 NMatS0=      1 NMatT0=    0 NMatD0=    1 NMtDS0=    0 NMtDT0=    0
 Symmetry not used in FoFCou.
 Requested convergence on RMS density matrix=1.00D-08 within 128 cycles.
 Requested convergence on MAX density matrix=1.00D-06.
 Requested convergence on             energy=1.00D-06.
 No special actions if energy rises.
 Integral accuracy reduced to 1.0D-05 until final iterations.
 Initial convergence to 1.0D-05 achieved.  Increase integral accuracy.
 SCF Done:  E(RB3LYP) =  -840.001319703     A.U. after    9 cycles
            NFock=  9  Conv=0.87D-08     -V/T= 2.0085
 DoSCS=F DFT=T ScalE2(SS,OS)=  1.000000  1.000000
 Range of M.O.s used for correlation:     1   242
 NBasis=   242 NAE=    58 NBE=    58 NFC=     0 NFV=     0
 NROrb=    242 NOA=    58 NOB=    58 NVA=   184 NVB=   184
 Symmetrizing basis deriv contribution to polar:
 IMax=3 JMax=2 DiffMx= 0.00D+00
 Calling FoFJK, ICntrl=      2147 FMM=F ISym2X=0 I1Cent= 0 IOpClX= 0 NMat=1 NMatS=1 NMatT=0.
 -------------------------------------------------------------------
 Center     Atomic                   Forces (Hartrees/Bohr)
 Number     Number              X              Y              Z
 -------------------------------------------------------------------
      1        6          -0.001292629   -0.001193699   -0.002254412
      2        6           0.000019028   -0.001042955   -0.000630150
      3        6          -0.000624355   -0.000464428   -0.000805107
      4        6           0.002817425    0.000021870    0.000252436
      5        1           0.000532183   -0.000147929   -0.000038616
      6        1           0.000018901   -0.000151696   -0.000046884
      7        1          -0.000066245    0.000064718   -0.000203807
      8        1           0.000009858   -0.000034165   -0.000030172
      9        6          -0.001723811    0.014575896    0.006652971
     10        8          -0.005219351   -0.011790268   -0.005686206
     11        6           0.000642688   -0.001938678    0.001835013
     12        1          -0.000258523   -0.000189191    0.000375682
     13        1           0.000106319   -0.000287642    0.000199008
     14        8          -0.003238585    0.001762578   -0.002179197
     15        1          -0.000248984    0.000124120    0.000084352
     16        8          -0.000414666    0.000594295   -0.000439428
     17        1          -0.000643910   -0.000990329   -0.000497607
     18        8          -0.000820129   -0.000944860   -0.000585390
     19        1          -0.000186405    0.000322474    0.000201657
     20        8          -0.001271634    0.000534642   -0.000173985
     21        1          -0.000024632    0.000111446   -0.000150002
     22        8           0.010082070   -0.011817479   -0.004681625
     23        1          -0.001323969   -0.000456044    0.000259200
     24        1           0.001694010   -0.001034237    0.000211601
     25        1           0.000361129   -0.000053575   -0.000293966
     26        8          -0.012161385    0.001600920   -0.003218639
     27        1           0.000053273    0.000302766    0.000027367
     28        8           0.009977836    0.011180415    0.010401608
     29        1          -0.000124137    0.000738496    0.000442039
     30        1           0.003328632    0.000602540    0.000972259
 -------------------------------------------------------------------
 Cartesian Forces:  Max     0.014575896 RMS     0.003780954
 IRC-IRC-IRC-IRC-IRC-IRC-IRC-IRC-IRC-IRC-IRC-IRC-IRC-IRC-IRC-IRC-IRC-IRC
 Error in corrector energy =          -0.0000217034
 Magnitude of corrector gradient =     0.0364453931
 Magnitude of analytic gradient =      0.0358692789
 Magnitude of difference =             0.0047478543
 Angle between gradients (degrees)=    7.4735
 Pt  9 Step number  20 out of a maximum of  20
 Modified Bulirsch-Stoer Extrapolation Cycles:
    EPS =    0.000010000000000
 Maximum DWI energy   std dev =  0.000033577 at pt    32
 Maximum DWI gradient std dev =  0.065519789 at pt    29
 CORRECTOR INTEGRATION CONVERGENCE:
   Recorrection delta-x convergence threshold:    0.010000
   Delta-x Convergence NOT Met
 Maximum number of corrector steps exceded.
 Error termination via Lnk1e in /global/software/gaussian/g09.e01/l123.exe at Sat Jan 14 02:24:59 2017.
 Job cpu time:       0 days  2 hours 24 minutes 11.3 seconds.
 File lengths (MBytes):  RWF=    220 Int=      0 D2E=      0 Chk=      8 Scr=      1
