 Entering Gaussian System, Link 0=g09
 Initial command:
 /global/software/gaussian/g09.e01/l1.exe "/scratch/10464847.yak.local/Gau-28522.inp" -scrdir="/scratch/10464847.yak.local/"
 Entering Link 1 = /global/software/gaussian/g09.e01/l1.exe PID=     28523.
  
 Copyright (c) 1988,1990,1992,1993,1995,1998,2003,2009,2015,
            Gaussian, Inc.  All Rights Reserved.
  
 This is part of the Gaussian(R) 09 program.  It is based on
 the Gaussian(R) 03 system (copyright 2003, Gaussian, Inc.),
 the Gaussian(R) 98 system (copyright 1998, Gaussian, Inc.),
 the Gaussian(R) 94 system (copyright 1995, Gaussian, Inc.),
 the Gaussian 92(TM) system (copyright 1992, Gaussian, Inc.),
 the Gaussian 90(TM) system (copyright 1990, Gaussian, Inc.),
 the Gaussian 88(TM) system (copyright 1988, Gaussian, Inc.),
 the Gaussian 86(TM) system (copyright 1986, Carnegie Mellon
 University), and the Gaussian 82(TM) system (copyright 1983,
 Carnegie Mellon University). Gaussian is a federally registered
 trademark of Gaussian, Inc.
  
 This software contains proprietary and confidential information,
 including trade secrets, belonging to Gaussian, Inc.
  
 This software is provided under written license and may be
 used, copied, transmitted, or stored only in accord with that
 written license.
  
 The following legend is applicable only to US Government
 contracts under FAR:
  
                    RESTRICTED RIGHTS LEGEND
  
 Use, reproduction and disclosure by the US Government is
 subject to restrictions as set forth in subparagraphs (a)
 and (c) of the Commercial Computer Software - Restricted
 Rights clause in FAR 52.227-19.
  
 Gaussian, Inc.
 340 Quinnipiac St., Bldg. 40, Wallingford CT 06492
  
  
 ---------------------------------------------------------------
 Warning -- This program may not be used in any manner that
 competes with the business of Gaussian, Inc. or will provide
 assistance to any competitor of Gaussian, Inc.  The licensee
 of this program is prohibited from giving any competitor of
 Gaussian, Inc. access to this program.  By using this program,
 the user acknowledges that Gaussian, Inc. is engaged in the
 business of creating and licensing software in the field of
 computational chemistry and represents and warrants to the
 licensee that it is not a competitor of Gaussian, Inc. and that
 it will not use this program in any manner prohibited above.
 ---------------------------------------------------------------
  

 Cite this work as:
 Gaussian 09, Revision E.01,
 M. J. Frisch, G. W. Trucks, H. B. Schlegel, G. E. Scuseria, 
 M. A. Robb, J. R. Cheeseman, G. Scalmani, V. Barone, B. Mennucci, 
 G. A. Petersson, H. Nakatsuji, M. Caricato, X. Li, H. P. Hratchian, 
 A. F. Izmaylov, J. Bloino, G. Zheng, J. L. Sonnenberg, M. Hada, 
 M. Ehara, K. Toyota, R. Fukuda, J. Hasegawa, M. Ishida, T. Nakajima, 
 Y. Honda, O. Kitao, H. Nakai, T. Vreven, J. A. Montgomery, Jr., 
 J. E. Peralta, F. Ogliaro, M. Bearpark, J. J. Heyd, E. Brothers, 
 K. N. Kudin, V. N. Staroverov, T. Keith, R. Kobayashi, J. Normand, 
 K. Raghavachari, A. Rendell, J. C. Burant, S. S. Iyengar, J. Tomasi, 
 M. Cossi, N. Rega, J. M. Millam, M. Klene, J. E. Knox, J. B. Cross, 
 V. Bakken, C. Adamo, J. Jaramillo, R. Gomperts, R. E. Stratmann, 
 O. Yazyev, A. J. Austin, R. Cammi, C. Pomelli, J. W. Ochterski, 
 R. L. Martin, K. Morokuma, V. G. Zakrzewski, G. A. Voth, 
 P. Salvador, J. J. Dannenberg, S. Dapprich, A. D. Daniels, 
 O. Farkas, J. B. Foresman, J. V. Ortiz, J. Cioslowski, 
 and D. J. Fox, Gaussian, Inc., Wallingford CT, 2013.
 
 ******************************************
 Gaussian 09:  ES64L-G09RevE.01 30-Nov-2015
                15-Jan-2017 
 ******************************************
 -------------------------
 # b3lyp/6-31g(d) opt freq
 -------------------------
 1/14=-1,18=20,19=15,26=3,38=1/1,3;
 2/9=110,12=2,17=6,18=5,40=1/2;
 3/5=1,6=6,7=1,11=2,16=1,25=1,30=1,71=1,74=-5/1,2,3;
 4//1;
 5/5=2,38=5/2;
 6/7=2,8=2,9=2,10=2,28=1/1;
 7//1,2,3,16;
 1/14=-1,18=20,19=15,26=3/3(2);
 2/9=110/2;
 99//99;
 2/9=110/2;
 3/5=1,6=6,7=1,11=2,16=1,25=1,30=1,71=1,74=-5/1,2,3;
 4/5=5,16=3,69=1/1;
 5/5=2,38=5/2;
 7//1,2,3,16;
 1/14=-1,18=20,19=15,26=3/3(-5);
 2/9=110/2;
 6/7=2,8=2,9=2,10=2,19=2,28=1/1;
 99/9=1/99;
 ----------------------------------
 glo_2w_beta_ircr_boat3_B3LYP_631Gd
 ----------------------------------
 Symbolic Z-matrix:
 Charge =  0 Multiplicity = 1
 6                     1.19542   0.19355   0.87504 
 6                    -0.49439   1.76344  -0.21245 
 8                    -0.12177  -0.80211  -0.93982 
 6                    -1.09603   0.8101   -1.28276 
 6                     1.1807   -0.4936   -0.50772 
 6                    -0.02849   1.10741   1.09431 
 1                    -0.55679   0.89865  -2.24184 
 1                     0.30058   1.91011   1.77346 
 1                    -1.31895   2.44736   0.02809 
 1                     1.57419   0.23313  -1.2308 
 1                     1.18962  -0.57506   1.6664 
 6                     2.06056  -1.73834  -0.54131 
 1                     1.99937  -2.21874  -1.52593 
 1                     1.72421  -2.45958   0.21113 
 8                    -2.29066   0.48069  -1.28291 
 8                     3.41515  -1.40355  -0.20021 
 1                     3.84416  -1.06702  -1.00257 
 8                     0.56634   2.51782  -0.79092 
 1                     1.38767   2.33073  -0.30177 
 8                    -1.14045   0.41277   1.62565 
 1                    -0.88148  -0.01527   2.45597 
 8                     2.36356   1.01011   0.99986 
 1                     3.11123   0.41914   0.78523 
 8                    -1.47424  -2.28306   0.48295 
 1                    -2.3507   -1.74769   0.56767 
 1                    -0.65632  -1.41067  -0.28688 
 1                    -1.68098  -3.05642  -0.06364 
 8                    -3.46273  -0.81406   0.49313 
 1                    -4.16836  -1.15558  -0.07749 
 1                    -3.02515  -0.10274  -0.06559 
 
 Add virtual bond connecting atoms H26        and O24        Dist= 2.69D+00.
 Add virtual bond connecting atoms O28        and H25        Dist= 2.75D+00.
 Add virtual bond connecting atoms H30        and O15        Dist= 2.90D+00.

 GradGradGradGradGradGradGradGradGradGradGradGradGradGradGradGradGradGrad
 Berny optimization.
 Initialization pass.
                           ----------------------------
                           !    Initial Parameters    !
                           ! (Angstroms and Degrees)  !
 --------------------------                            --------------------------
 ! Name  Definition              Value          Derivative Info.                !
 --------------------------------------------------------------------------------
 ! R1    R(1,5)                  1.5442         estimate D2E/DX2                !
 ! R2    R(1,6)                  1.5431         estimate D2E/DX2                !
 ! R3    R(1,11)                 1.1032         estimate D2E/DX2                !
 ! R4    R(1,22)                 1.4307         estimate D2E/DX2                !
 ! R5    R(2,4)                  1.5545         estimate D2E/DX2                !
 ! R6    R(2,6)                  1.5346         estimate D2E/DX2                !
 ! R7    R(2,9)                  1.098          estimate D2E/DX2                !
 ! R8    R(2,18)                 1.4244         estimate D2E/DX2                !
 ! R9    R(3,5)                  1.4065         estimate D2E/DX2                !
 ! R10   R(3,26)                 1.0404         estimate D2E/DX2                !
 ! R11   R(4,7)                  1.1038         estimate D2E/DX2                !
 ! R12   R(4,15)                 1.2392         estimate D2E/DX2                !
 ! R13   R(5,10)                 1.0981         estimate D2E/DX2                !
 ! R14   R(5,12)                 1.5247         estimate D2E/DX2                !
 ! R15   R(6,8)                  1.1018         estimate D2E/DX2                !
 ! R16   R(6,20)                 1.4147         estimate D2E/DX2                !
 ! R17   R(12,13)                1.0973         estimate D2E/DX2                !
 ! R18   R(12,14)                1.0952         estimate D2E/DX2                !
 ! R19   R(12,16)                1.4364         estimate D2E/DX2                !
 ! R20   R(15,30)                1.5368         estimate D2E/DX2                !
 ! R21   R(16,17)                0.9701         estimate D2E/DX2                !
 ! R22   R(18,19)                0.9741         estimate D2E/DX2                !
 ! R23   R(20,21)                0.9694         estimate D2E/DX2                !
 ! R24   R(22,23)                0.9769         estimate D2E/DX2                !
 ! R25   R(24,25)                1.0305         estimate D2E/DX2                !
 ! R26   R(24,26)                1.4222         estimate D2E/DX2                !
 ! R27   R(24,27)                0.9693         estimate D2E/DX2                !
 ! R28   R(25,28)                1.4539         estimate D2E/DX2                !
 ! R29   R(28,29)                0.9696         estimate D2E/DX2                !
 ! R30   R(28,30)                1.0048         estimate D2E/DX2                !
 ! A1    A(5,1,6)              112.5333         estimate D2E/DX2                !
 ! A2    A(5,1,11)             109.4065         estimate D2E/DX2                !
 ! A3    A(5,1,22)             109.8695         estimate D2E/DX2                !
 ! A4    A(6,1,11)             107.8492         estimate D2E/DX2                !
 ! A5    A(6,1,22)             107.2891         estimate D2E/DX2                !
 ! A6    A(11,1,22)            109.8375         estimate D2E/DX2                !
 ! A7    A(4,2,6)              116.2078         estimate D2E/DX2                !
 ! A8    A(4,2,9)              104.016          estimate D2E/DX2                !
 ! A9    A(4,2,18)             109.4759         estimate D2E/DX2                !
 ! A10   A(6,2,9)              107.9224         estimate D2E/DX2                !
 ! A11   A(6,2,18)             110.2517         estimate D2E/DX2                !
 ! A12   A(9,2,18)             108.5622         estimate D2E/DX2                !
 ! A13   A(5,3,26)             114.2855         estimate D2E/DX2                !
 ! A14   A(2,4,7)              111.0984         estimate D2E/DX2                !
 ! A15   A(2,4,15)             122.4276         estimate D2E/DX2                !
 ! A16   A(7,4,15)             119.482          estimate D2E/DX2                !
 ! A17   A(1,5,3)              112.4285         estimate D2E/DX2                !
 ! A18   A(1,5,10)             106.9626         estimate D2E/DX2                !
 ! A19   A(1,5,12)             112.1802         estimate D2E/DX2                !
 ! A20   A(3,5,10)             105.9441         estimate D2E/DX2                !
 ! A21   A(3,5,12)             110.3982         estimate D2E/DX2                !
 ! A22   A(10,5,12)            108.6026         estimate D2E/DX2                !
 ! A23   A(1,6,2)              111.8984         estimate D2E/DX2                !
 ! A24   A(1,6,8)              106.3894         estimate D2E/DX2                !
 ! A25   A(1,6,20)             112.7063         estimate D2E/DX2                !
 ! A26   A(2,6,8)              107.7052         estimate D2E/DX2                !
 ! A27   A(2,6,20)             106.9241         estimate D2E/DX2                !
 ! A28   A(8,6,20)             111.1608         estimate D2E/DX2                !
 ! A29   A(5,12,13)            110.1826         estimate D2E/DX2                !
 ! A30   A(5,12,14)            110.1983         estimate D2E/DX2                !
 ! A31   A(5,12,16)            110.407          estimate D2E/DX2                !
 ! A32   A(13,12,14)           108.122          estimate D2E/DX2                !
 ! A33   A(13,12,16)           111.5748         estimate D2E/DX2                !
 ! A34   A(14,12,16)           106.2579         estimate D2E/DX2                !
 ! A35   A(4,15,30)            124.1636         estimate D2E/DX2                !
 ! A36   A(12,16,17)           107.5467         estimate D2E/DX2                !
 ! A37   A(2,18,19)            108.7989         estimate D2E/DX2                !
 ! A38   A(6,20,21)            109.18           estimate D2E/DX2                !
 ! A39   A(1,22,23)            105.0973         estimate D2E/DX2                !
 ! A40   A(25,24,26)           102.4124         estimate D2E/DX2                !
 ! A41   A(25,24,27)           106.2271         estimate D2E/DX2                !
 ! A42   A(26,24,27)           107.8689         estimate D2E/DX2                !
 ! A43   A(25,28,29)           111.1379         estimate D2E/DX2                !
 ! A44   A(25,28,30)            98.6276         estimate D2E/DX2                !
 ! A45   A(29,28,30)           103.8296         estimate D2E/DX2                !
 ! A46   A(15,30,28)           156.5417         estimate D2E/DX2                !
 ! A47   L(24,25,28,2,-1)      170.0827         estimate D2E/DX2                !
 ! A48   L(3,26,24,8,-1)       184.9868         estimate D2E/DX2                !
 ! A49   L(24,25,28,2,-2)      174.1086         estimate D2E/DX2                !
 ! A50   L(3,26,24,8,-2)       175.9539         estimate D2E/DX2                !
 ! D1    D(6,1,5,3)            -34.0831         estimate D2E/DX2                !
 ! D2    D(6,1,5,10)            81.8035         estimate D2E/DX2                !
 ! D3    D(6,1,5,12)          -159.2158         estimate D2E/DX2                !
 ! D4    D(11,1,5,3)            85.7845         estimate D2E/DX2                !
 ! D5    D(11,1,5,10)         -158.3289         estimate D2E/DX2                !
 ! D6    D(11,1,5,12)          -39.3482         estimate D2E/DX2                !
 ! D7    D(22,1,5,3)          -153.5595         estimate D2E/DX2                !
 ! D8    D(22,1,5,10)          -37.6729         estimate D2E/DX2                !
 ! D9    D(22,1,5,12)           81.3078         estimate D2E/DX2                !
 ! D10   D(5,1,6,2)            -33.0788         estimate D2E/DX2                !
 ! D11   D(5,1,6,8)           -150.4579         estimate D2E/DX2                !
 ! D12   D(5,1,6,20)            87.4719         estimate D2E/DX2                !
 ! D13   D(11,1,6,2)          -153.8442         estimate D2E/DX2                !
 ! D14   D(11,1,6,8)            88.7767         estimate D2E/DX2                !
 ! D15   D(11,1,6,20)          -33.2935         estimate D2E/DX2                !
 ! D16   D(22,1,6,2)            87.8868         estimate D2E/DX2                !
 ! D17   D(22,1,6,8)           -29.4923         estimate D2E/DX2                !
 ! D18   D(22,1,6,20)         -151.5626         estimate D2E/DX2                !
 ! D19   D(5,1,22,23)          -52.9432         estimate D2E/DX2                !
 ! D20   D(6,1,22,23)         -175.5756         estimate D2E/DX2                !
 ! D21   D(11,1,22,23)          67.4522         estimate D2E/DX2                !
 ! D22   D(6,2,4,7)           -123.9002         estimate D2E/DX2                !
 ! D23   D(6,2,4,15)            85.6317         estimate D2E/DX2                !
 ! D24   D(9,2,4,7)            117.6502         estimate D2E/DX2                !
 ! D25   D(9,2,4,15)           -32.8179         estimate D2E/DX2                !
 ! D26   D(18,2,4,7)             1.7826         estimate D2E/DX2                !
 ! D27   D(18,2,4,15)         -148.6855         estimate D2E/DX2                !
 ! D28   D(4,2,6,1)             67.4855         estimate D2E/DX2                !
 ! D29   D(4,2,6,8)           -175.9279         estimate D2E/DX2                !
 ! D30   D(4,2,6,20)           -56.3748         estimate D2E/DX2                !
 ! D31   D(9,2,6,1)           -176.2248         estimate D2E/DX2                !
 ! D32   D(9,2,6,8)            -59.6382         estimate D2E/DX2                !
 ! D33   D(9,2,6,20)            59.9149         estimate D2E/DX2                !
 ! D34   D(18,2,6,1)           -57.8041         estimate D2E/DX2                !
 ! D35   D(18,2,6,8)            58.7825         estimate D2E/DX2                !
 ! D36   D(18,2,6,20)          178.3356         estimate D2E/DX2                !
 ! D37   D(4,2,18,19)         -120.0464         estimate D2E/DX2                !
 ! D38   D(6,2,18,19)            8.9872         estimate D2E/DX2                !
 ! D39   D(9,2,18,19)          127.015          estimate D2E/DX2                !
 ! D40   D(26,3,5,1)           -57.4176         estimate D2E/DX2                !
 ! D41   D(26,3,5,10)         -173.9157         estimate D2E/DX2                !
 ! D42   D(26,3,5,12)           68.6845         estimate D2E/DX2                !
 ! D43   D(5,3,24,25)          129.7222         estimate D2E/DX2                !
 ! D44   D(5,3,24,27)         -119.4947         estimate D2E/DX2                !
 ! D45   D(2,4,15,30)          -52.1321         estimate D2E/DX2                !
 ! D46   D(7,4,15,30)          159.7567         estimate D2E/DX2                !
 ! D47   D(1,5,12,13)          178.0782         estimate D2E/DX2                !
 ! D48   D(1,5,12,14)           58.8469         estimate D2E/DX2                !
 ! D49   D(1,5,12,16)          -58.2277         estimate D2E/DX2                !
 ! D50   D(3,5,12,13)           51.8368         estimate D2E/DX2                !
 ! D51   D(3,5,12,14)          -67.3944         estimate D2E/DX2                !
 ! D52   D(3,5,12,16)          175.5309         estimate D2E/DX2                !
 ! D53   D(10,5,12,13)         -63.9101         estimate D2E/DX2                !
 ! D54   D(10,5,12,14)         176.8587         estimate D2E/DX2                !
 ! D55   D(10,5,12,16)          59.784          estimate D2E/DX2                !
 ! D56   D(1,6,20,21)           56.6893         estimate D2E/DX2                !
 ! D57   D(2,6,20,21)         -179.949          estimate D2E/DX2                !
 ! D58   D(8,6,20,21)          -62.6486         estimate D2E/DX2                !
 ! D59   D(5,12,16,17)         -82.6123         estimate D2E/DX2                !
 ! D60   D(13,12,16,17)         40.273          estimate D2E/DX2                !
 ! D61   D(14,12,16,17)        157.9004         estimate D2E/DX2                !
 ! D62   D(4,15,30,28)        -106.3624         estimate D2E/DX2                !
 ! D63   D(26,24,28,29)        107.5675         estimate D2E/DX2                !
 ! D64   D(26,24,28,30)          0.9619         estimate D2E/DX2                !
 ! D65   D(27,24,28,29)         -3.292          estimate D2E/DX2                !
 ! D66   D(27,24,28,30)       -109.8976         estimate D2E/DX2                !
 ! D67   D(25,28,30,15)         56.2302         estimate D2E/DX2                !
 ! D68   D(29,28,30,15)        -58.162          estimate D2E/DX2                !
 --------------------------------------------------------------------------------
 Trust Radius=3.00D-01 FncErr=1.00D-07 GrdErr=1.00D-06
 Number of steps in this run=    158 maximum allowed number of steps=    180.
 GradGradGradGradGradGradGradGradGradGradGradGradGradGradGradGradGradGrad

                          Input orientation:                          
 ---------------------------------------------------------------------
 Center     Atomic      Atomic             Coordinates (Angstroms)
 Number     Number       Type             X           Y           Z
 ---------------------------------------------------------------------
      1          6           0        1.195418    0.193552    0.875044
      2          6           0       -0.494386    1.763440   -0.212451
      3          8           0       -0.121773   -0.802113   -0.939817
      4          6           0       -1.096033    0.810103   -1.282757
      5          6           0        1.180704   -0.493595   -0.507720
      6          6           0       -0.028493    1.107406    1.094310
      7          1           0       -0.556792    0.898648   -2.241844
      8          1           0        0.300578    1.910106    1.773457
      9          1           0       -1.318948    2.447360    0.028088
     10          1           0        1.574188    0.233125   -1.230797
     11          1           0        1.189624   -0.575058    1.666397
     12          6           0        2.060561   -1.738337   -0.541306
     13          1           0        1.999367   -2.218742   -1.525932
     14          1           0        1.724209   -2.459579    0.211125
     15          8           0       -2.290658    0.480686   -1.282914
     16          8           0        3.415152   -1.403546   -0.200208
     17          1           0        3.844161   -1.067024   -1.002573
     18          8           0        0.566342    2.517821   -0.790920
     19          1           0        1.387667    2.330734   -0.301768
     20          8           0       -1.140455    0.412768    1.625651
     21          1           0       -0.881484   -0.015265    2.455968
     22          8           0        2.363559    1.010112    0.999856
     23          1           0        3.111227    0.419137    0.785232
     24          8           0       -1.474240   -2.283063    0.482946
     25          1           0       -2.350699   -1.747687    0.567665
     26          1           0       -0.656318   -1.410665   -0.286877
     27          1           0       -1.680984   -3.056422   -0.063638
     28          8           0       -3.462728   -0.814060    0.493131
     29          1           0       -4.168361   -1.155576   -0.077485
     30          1           0       -3.025145   -0.102738   -0.065592
 ---------------------------------------------------------------------
                    Distance matrix (angstroms):
                    1          2          3          4          5
     1  C    0.000000
     2  C    2.550026   0.000000
     3  O    2.453581   2.692576   0.000000
     4  C    3.207333   1.554473   1.914688   0.000000
     5  C    1.544158   2.826184   1.406534   2.735661   0.000000
     6  C    1.543102   1.534621   2.791529   2.622685   2.567462
     7  H    3.644501   2.206852   2.185659   1.103843   2.822130
     8  H    2.134114   2.144134   3.859581   3.535671   3.428727
     9  H    3.481238   1.097956   3.595712   2.109174   3.896738
    10  H    2.140000   2.767289   2.008151   2.732340   1.098086
    11  H    1.103193   3.440136   2.926374   3.980001   2.175661
    12  C    2.546903   4.347222   2.407885   4.124122   1.524683
    13  H    3.497168   4.878710   2.617175   4.337573   2.164046
    14  H    2.785590   4.789099   2.734869   4.569056   2.162690
    15  O    4.109982   2.453149   2.543099   1.239211   3.687886
    16  O    2.938385   5.031346   3.663138   5.140325   2.432146
    17  H    3.482863   5.240115   3.975267   5.292223   2.769062
    18  O    2.928037   1.424381   3.393764   2.433453   3.086465
    19  H    2.447324   1.967720   3.535569   3.073015   2.839381
    20  O    2.463284   2.370725   3.015837   2.935760   3.280327
    21  H    2.618482   3.230185   3.567583   3.834753   3.642096
    22  O    1.430700   3.194533   3.636395   4.149591   2.435789
    23  H    1.931134   3.975295   3.862581   4.704303   2.496342
    24  O    3.662572   4.221123   2.458991   3.581679   3.351469
    25  H    4.054360   4.047529   2.852144   3.397137   3.898719
    26  H    2.711549   3.179104   1.040387   2.473244   2.065052
    27  H    4.440399   4.966007   2.877627   4.096149   3.867111
    28  O    4.781157   3.994046   3.635308   3.375341   4.760868
    29  H    5.612271   4.694354   4.152521   3.841324   5.407016
    30  H    4.334251   3.147845   3.111746   2.456877   4.247047
                    6          7          8          9         10
     6  C    0.000000
     7  H    3.384170   0.000000
     8  H    1.101751   4.228566   0.000000
     9  H    2.144197   2.851663   2.440864   0.000000
    10  H    2.956193   2.450758   3.668772   3.854590   0.000000
    11  H    2.154479   4.527265   2.641572   4.255820   3.032290
    12  C    3.890712   4.086081   4.665491   5.409746   2.144439
    13  H    4.694800   4.094460   5.551508   5.932849   2.505900
    14  H    4.071285   4.743175   4.854045   5.776881   3.058153
    15  O    3.340863   2.024977   4.254309   2.555534   3.873117
    16  O    4.454138   5.024412   4.957440   6.106824   2.670197
    17  H    4.911468   4.976751   5.396909   6.330154   2.625881
    18  O    2.428413   2.447107   2.648769   2.056710   2.535563
    19  H    2.334754   3.097690   2.380178   2.729134   2.301706
    20  O    1.414675   3.941352   2.083373   2.592997   3.944725
    21  H    1.960127   4.796884   2.360116   3.485756   4.436695
    22  O    2.395892   4.364572   2.379987   4.070734   2.490508
    23  H    3.229100   4.779904   3.331565   4.930863   2.541941
    24  O    3.736205   4.288295   4.732659   4.754778   4.308251
    25  H    3.717735   4.256117   4.675752   4.353628   4.750034
    26  H    2.939817   3.027330   4.023450   3.927167   2.927147
    27  H    4.626990   4.653060   5.654017   5.516439   4.772790
    28  O    3.980882   4.342571   4.819003   3.930511   5.425776
    29  H    4.861347   4.684839   5.726762   4.594720   6.019592
    30  H    3.433620   3.439711   4.300474   3.069672   4.756508
                   11         12         13         14         15
    11  H    0.000000
    12  C    2.643048   0.000000
    13  H    3.680808   1.097279   0.000000
    14  H    2.440290   1.095206   1.775129   0.000000
    15  O    4.682456   4.940360   5.074474   5.195813   0.000000
    16  O    3.020527   1.436436   2.103933   2.035605   6.105641
    17  H    3.796314   1.960780   2.236878   2.811844   6.333246
    18  O    3.999098   4.517729   5.002882   5.207616   3.543223
    19  H    3.515184   4.131284   4.750841   4.829433   4.232659
    20  O    2.531152   4.423738   5.168733   4.296226   3.128471
    21  H    2.286106   4.539632   5.386106   4.219434   4.026286
    22  O    2.082106   3.165590   4.115548   3.615193   5.210860
    23  H    2.336115   2.741951   3.679146   3.246602   5.784581
    24  O    3.378462   3.720301   4.013187   3.214828   3.379809
    25  H    3.887950   4.548529   4.850579   4.151962   2.897222
    26  H    2.814431   2.748369   3.039886   2.648610   2.690793
    27  H    4.170201   3.995582   4.047838   3.468005   3.790708
    28  O    4.803962   5.694828   5.990345   5.448998   2.490874
    29  H    5.664462   6.273293   6.424110   6.042028   2.766980
    30  H    4.581173   5.363385   5.644093   5.309203   1.536791
                   16         17         18         19         20
    16  O    0.000000
    17  H    0.970096   0.000000
    18  O    4.882804   4.862099   0.000000
    19  H    4.250395   4.250912   0.974087   0.000000
    20  O    5.233193   5.826126   3.631008   3.712807   0.000000
    21  H    5.238671   5.949741   4.365204   4.272922   0.969384
    22  O    2.893397   3.242900   2.951280   2.095384   3.609232
    23  H    2.094191   2.437645   3.655840   2.793999   4.333953
    24  O    5.014619   5.654282   5.369841   5.485746   2.946980
    25  H    5.826929   6.426915   5.343168   5.600430   2.692878
    26  H    4.072399   4.569969   4.145113   4.263351   2.686459
    27  H    5.359221   5.946977   6.054056   6.204416   3.896299
    28  O    6.937827   7.462690   5.383644   5.835060   2.860185
    29  H    7.588558   8.066234   6.034919   6.563087   3.811639
    30  H    6.571731   6.999653   4.504687   5.044846   2.584203
                   21         22         23         24         25
    21  H    0.000000
    22  O    3.701616   0.000000
    23  H    4.349920   0.976894   0.000000
    24  O    3.063835   5.083394   5.331020   0.000000
    25  H    2.953907   5.478729   5.880059   1.030527   0.000000
    26  H    3.085618   4.078664   4.323423   1.422217   1.927369
    27  H    4.029423   5.833185   5.980416   0.969320   1.599953
    28  O    3.339704   6.126173   6.694997   2.472278   1.453899
    29  H    4.303749   6.965404   7.497760   2.973819   2.017600
    30  H    3.310770   5.604618   6.217018   2.731303   1.887260
                   26         27         28         29         30
    26  H    0.000000
    27  H    1.951485   0.000000
    28  O    2.973262   2.917669   0.000000
    29  H    3.527515   3.130567   0.969615   0.000000
    30  H    2.714955   3.245154   1.004803   1.554205   0.000000
 Stoichiometry    C6H16O8
 Framework group  C1[X(C6H16O8)]
 Deg. of freedom    84
 Full point group                 C1      NOp   1
 Largest Abelian subgroup         C1      NOp   1
 Largest concise Abelian subgroup C1      NOp   1
                         Standard orientation:                         
 ---------------------------------------------------------------------
 Center     Atomic      Atomic             Coordinates (Angstroms)
 Number     Number       Type             X           Y           Z
 ---------------------------------------------------------------------
      1          6           0        1.191192    0.216639    0.875203
      2          6           0       -0.503811    1.786545   -0.204144
      3          8           0       -0.119205   -0.772459   -0.948147
      4          6           0       -1.099885    0.837841   -1.281661
      5          6           0        1.181339   -0.461280   -0.512151
      6          6           0       -0.036924    1.123764    1.098852
      7          1           0       -0.559699    0.935117   -2.239370
      8          1           0        0.287764    1.923293    1.783824
      9          1           0       -1.331627    2.465307    0.039802
     10          1           0        1.572709    0.271945   -1.229788
     11          1           0        1.187593   -0.557275    1.661382
     12          6           0        2.066565   -1.701998   -0.552827
     13          1           0        2.008794   -2.176049   -1.540734
     14          1           0        1.732262   -2.429698    0.194280
     15          8           0       -2.293086    0.503330   -1.285715
     16          8           0        3.419235   -1.363714   -0.207578
     17          1           0        3.847911   -1.019992   -1.007064
     18          8           0        0.554477    2.549313   -0.776047
     19          1           0        1.375917    2.362463   -0.286997
     20          8           0       -1.146637    0.420834    1.623955
     21          1           0       -0.886986   -0.011644    2.451753
     22          8           0        2.355651    1.037329    1.007134
     23          1           0        3.106140    0.451007    0.789615
     24          8           0       -1.467287   -2.268679    0.462751
     25          1           0       -2.346148   -1.737633    0.549813
     26          1           0       -0.652043   -1.387653   -0.300054
     27          1           0       -1.669959   -3.039233   -0.089292
     28          8           0       -3.462061   -0.808289    0.479959
     29          1           0       -4.165433   -1.148985   -0.093929
     30          1           0       -3.026755   -0.091374   -0.073368
 ---------------------------------------------------------------------
 Rotational constants (GHZ):      0.8499638      0.5149662      0.4228994
 Standard basis: 6-31G(d) (6D, 7F)
 There are   242 symmetry adapted cartesian basis functions of A   symmetry.
 There are   242 symmetry adapted basis functions of A   symmetry.
   242 basis functions,   456 primitive gaussians,   242 cartesian basis functions
    58 alpha electrons       58 beta electrons
       nuclear repulsion energy      1134.8395333420 Hartrees.
 NAtoms=   30 NActive=   30 NUniq=   30 SFac= 1.00D+00 NAtFMM=   60 NAOKFM=F Big=F
 Integral buffers will be    131072 words long.
 Raffenetti 2 integral format.
 Two-electron integral symmetry is turned on.
 One-electron integrals computed using PRISM.
 NBasis=   242 RedAO= T EigKep=  1.54D-03  NBF=   242
 NBsUse=   242 1.00D-06 EigRej= -1.00D+00 NBFU=   242
 ExpMin= 1.61D-01 ExpMax= 5.48D+03 ExpMxC= 8.25D+02 IAcc=1 IRadAn=         1 AccDes= 0.00D+00
 Harris functional with IExCor=  402 and IRadAn=       1 diagonalized for initial guess.
 HarFok:  IExCor=  402 AccDes= 0.00D+00 IRadAn=         1 IDoV= 1 UseB2=F ITyADJ=14
 ICtDFT=  3500011 ScaDFX=  1.000000  1.000000  1.000000  1.000000
 FoFCou: FMM=F IPFlag=           0 FMFlag=      100000 FMFlg1=           0
         NFxFlg=           0 DoJE=T BraDBF=F KetDBF=T FulRan=T
         wScrn=  0.000000 ICntrl=     500 IOpCl=  0 I1Cent=   200000004 NGrid=           0
         NMat0=    1 NMatS0=      1 NMatT0=    0 NMatD0=    1 NMtDS0=    0 NMtDT0=    0
 Petite list used in FoFCou.
 Requested convergence on RMS density matrix=1.00D-08 within 128 cycles.
 Requested convergence on MAX density matrix=1.00D-06.
 Requested convergence on             energy=1.00D-06.
 No special actions if energy rises.
 Integral accuracy reduced to 1.0D-05 until final iterations.
 Initial convergence to 1.0D-05 achieved.  Increase integral accuracy.
 SCF Done:  E(RB3LYP) =  -839.963979278     A.U. after   14 cycles
            NFock= 14  Conv=0.61D-08     -V/T= 2.0083

 **********************************************************************

            Population analysis using the SCF density.

 **********************************************************************

 Orbital symmetries:
       Occupied  (A) (A) (A) (A) (A) (A) (A) (A) (A) (A) (A) (A)
                 (A) (A) (A) (A) (A) (A) (A) (A) (A) (A) (A) (A)
                 (A) (A) (A) (A) (A) (A) (A) (A) (A) (A) (A) (A)
                 (A) (A) (A) (A) (A) (A) (A) (A) (A) (A) (A) (A)
                 (A) (A) (A) (A) (A) (A) (A) (A) (A) (A)
       Virtual   (A) (A) (A) (A) (A) (A) (A) (A) (A) (A) (A) (A)
                 (A) (A) (A) (A) (A) (A) (A) (A) (A) (A) (A) (A)
                 (A) (A) (A) (A) (A) (A) (A) (A) (A) (A) (A) (A)
                 (A) (A) (A) (A) (A) (A) (A) (A) (A) (A) (A) (A)
                 (A) (A) (A) (A) (A) (A) (A) (A) (A) (A) (A) (A)
                 (A) (A) (A) (A) (A) (A) (A) (A) (A) (A) (A) (A)
                 (A) (A) (A) (A) (A) (A) (A) (A) (A) (A) (A) (A)
                 (A) (A) (A) (A) (A) (A) (A) (A) (A) (A) (A) (A)
                 (A) (A) (A) (A) (A) (A) (A) (A) (A) (A) (A) (A)
                 (A) (A) (A) (A) (A) (A) (A) (A) (A) (A) (A) (A)
                 (A) (A) (A) (A) (A) (A) (A) (A) (A) (A) (A) (A)
                 (A) (A) (A) (A) (A) (A) (A) (A) (A) (A) (A) (A)
                 (A) (A) (A) (A) (A) (A) (A) (A) (A) (A) (A) (A)
                 (A) (A) (A) (A) (A) (A) (A) (A) (A) (A) (A) (A)
                 (A) (A) (A) (A) (A) (A) (A) (A) (A) (A) (A) (A)
                 (A) (A) (A) (A)
 The electronic state is 1-A.
 Alpha  occ. eigenvalues --  -19.18154 -19.16199 -19.15575 -19.15549 -19.14373
 Alpha  occ. eigenvalues --  -19.13893 -19.13429 -19.10725 -10.26708 -10.25083
 Alpha  occ. eigenvalues --  -10.24766 -10.24649 -10.24646 -10.23285  -1.05830
 Alpha  occ. eigenvalues --   -1.04506  -1.03467  -1.02637  -1.01399  -1.01158
 Alpha  occ. eigenvalues --   -1.00406  -0.97948  -0.77816  -0.75000  -0.69567
 Alpha  occ. eigenvalues --   -0.65263  -0.61537  -0.57884  -0.55344  -0.53888
 Alpha  occ. eigenvalues --   -0.53051  -0.51970  -0.51695  -0.49823  -0.49317
 Alpha  occ. eigenvalues --   -0.47848  -0.46157  -0.45306  -0.42969  -0.42739
 Alpha  occ. eigenvalues --   -0.41866  -0.40683  -0.39820  -0.39642  -0.37606
 Alpha  occ. eigenvalues --   -0.36238  -0.35950  -0.34720  -0.34127  -0.32454
 Alpha  occ. eigenvalues --   -0.30981  -0.30364  -0.29281  -0.28493  -0.28141
 Alpha  occ. eigenvalues --   -0.26830  -0.25459  -0.22699
 Alpha virt. eigenvalues --    0.02269   0.04138   0.05769   0.07895   0.08972
 Alpha virt. eigenvalues --    0.09688   0.10985   0.11851   0.13266   0.14298
 Alpha virt. eigenvalues --    0.14710   0.15851   0.17308   0.18620   0.19770
 Alpha virt. eigenvalues --    0.20924   0.21969   0.22623   0.23939   0.24749
 Alpha virt. eigenvalues --    0.25644   0.28119   0.30122   0.30451   0.31933
 Alpha virt. eigenvalues --    0.32859   0.33836   0.36935   0.51136   0.52591
 Alpha virt. eigenvalues --    0.54562   0.56390   0.57900   0.58700   0.59552
 Alpha virt. eigenvalues --    0.61906   0.62215   0.63988   0.65347   0.65723
 Alpha virt. eigenvalues --    0.68785   0.69460   0.71690   0.73722   0.74197
 Alpha virt. eigenvalues --    0.76858   0.78038   0.79237   0.80421   0.80717
 Alpha virt. eigenvalues --    0.81543   0.82396   0.83546   0.84742   0.85453
 Alpha virt. eigenvalues --    0.86717   0.87460   0.87899   0.88815   0.89670
 Alpha virt. eigenvalues --    0.91421   0.92831   0.93061   0.94647   0.95737
 Alpha virt. eigenvalues --    0.96805   0.97700   0.99702   1.01081   1.01725
 Alpha virt. eigenvalues --    1.02845   1.04616   1.07604   1.07695   1.09529
 Alpha virt. eigenvalues --    1.12843   1.13425   1.16942   1.17396   1.18070
 Alpha virt. eigenvalues --    1.19412   1.22069   1.24979   1.25840   1.28096
 Alpha virt. eigenvalues --    1.29894   1.32748   1.34252   1.34939   1.35655
 Alpha virt. eigenvalues --    1.40720   1.44024   1.45419   1.47288   1.48478
 Alpha virt. eigenvalues --    1.50650   1.54130   1.57848   1.60059   1.61345
 Alpha virt. eigenvalues --    1.63584   1.63666   1.64427   1.68099   1.68346
 Alpha virt. eigenvalues --    1.70089   1.71512   1.72341   1.72940   1.74093
 Alpha virt. eigenvalues --    1.75080   1.75971   1.77366   1.78430   1.79817
 Alpha virt. eigenvalues --    1.81301   1.81821   1.83325   1.84330   1.86982
 Alpha virt. eigenvalues --    1.87571   1.88967   1.92551   1.94534   1.96787
 Alpha virt. eigenvalues --    1.98546   2.00797   2.01936   2.02705   2.05264
 Alpha virt. eigenvalues --    2.08227   2.09828   2.12714   2.13341   2.16920
 Alpha virt. eigenvalues --    2.18235   2.22126   2.24355   2.26271   2.27973
 Alpha virt. eigenvalues --    2.32886   2.33801   2.36970   2.38666   2.41283
 Alpha virt. eigenvalues --    2.43311   2.45126   2.47448   2.47933   2.50770
 Alpha virt. eigenvalues --    2.52673   2.54274   2.54993   2.57851   2.59323
 Alpha virt. eigenvalues --    2.61556   2.66329   2.69791   2.71808   2.75327
 Alpha virt. eigenvalues --    2.76505   2.78337   2.81700   2.87233   2.88033
 Alpha virt. eigenvalues --    2.91550   2.96385   3.03013   3.05148   3.13901
 Alpha virt. eigenvalues --    3.74033   3.78070   3.78752   3.88169   3.90037
 Alpha virt. eigenvalues --    4.02436   4.09534   4.21457   4.30483   4.37573
 Alpha virt. eigenvalues --    4.48112   4.55020   4.68748   4.79443
          Condensed to atoms (all electrons):
               1          2          3          4          5          6
     1  C    5.137167  -0.035434  -0.037964  -0.018598   0.286174   0.293440
     2  C   -0.035434   5.075709  -0.018590   0.257886   0.001055   0.330162
     3  O   -0.037964  -0.018590   8.569116   0.023888   0.169101   0.000049
     4  C   -0.018598   0.257886   0.023888   4.747368  -0.005036  -0.018013
     5  C    0.286174   0.001055   0.169101  -0.005036   5.020122  -0.030108
     6  C    0.293440   0.330162   0.000049  -0.018013  -0.030108   4.944557
     7  H    0.001715  -0.101085  -0.024266   0.350700  -0.004206   0.003018
     8  H   -0.076154  -0.046007   0.000029   0.005076   0.006564   0.369911
     9  H    0.007160   0.359330   0.001870  -0.058575  -0.000155  -0.031966
    10  H   -0.053211  -0.001552  -0.036106  -0.004797   0.346911  -0.008820
    11  H    0.355012   0.005081   0.003523   0.000273  -0.053439  -0.054616
    12  C   -0.039127   0.000300  -0.033606  -0.000031   0.330532   0.003223
    13  H    0.006281   0.000000   0.005377  -0.000029  -0.045072  -0.000112
    14  H   -0.011218   0.000021   0.002277  -0.000036  -0.040996  -0.000119
    15  O    0.000552  -0.051174  -0.036728   0.423527   0.000438  -0.001199
    16  O    0.004379  -0.000003   0.001628  -0.000002  -0.046073   0.000115
    17  H   -0.001564   0.000002  -0.000019  -0.000001   0.000065  -0.000010
    18  O    0.007578   0.211287   0.000940  -0.036878  -0.009209  -0.024793
    19  H   -0.005792  -0.028232  -0.000054   0.002568  -0.000857  -0.012845
    20  O   -0.033937  -0.049848  -0.000805   0.004243  -0.000813   0.207686
    21  H   -0.004582   0.006581   0.000160  -0.000012  -0.000344  -0.019768
    22  O    0.172088   0.000966   0.001880   0.000300  -0.031333  -0.034269
    23  H   -0.022375  -0.000237   0.000092  -0.000025  -0.005444   0.004968
    24  O    0.000638  -0.000049  -0.080214   0.000790   0.003710  -0.000406
    25  H   -0.000051  -0.000053   0.005087  -0.000016  -0.000138   0.000021
    26  H   -0.002034  -0.000697   0.140579   0.001583  -0.012056  -0.002726
    27  H   -0.000023  -0.000006   0.004525  -0.000016  -0.000276   0.000004
    28  O   -0.000013   0.000124  -0.000452   0.007796  -0.000001   0.000175
    29  H    0.000001   0.000014  -0.000016  -0.000124   0.000001  -0.000016
    30  H    0.000136  -0.004018   0.000904  -0.015163   0.000004  -0.000546
               7          8          9         10         11         12
     1  C    0.001715  -0.076154   0.007160  -0.053211   0.355012  -0.039127
     2  C   -0.101085  -0.046007   0.359330  -0.001552   0.005081   0.000300
     3  O   -0.024266   0.000029   0.001870  -0.036106   0.003523  -0.033606
     4  C    0.350700   0.005076  -0.058575  -0.004797   0.000273  -0.000031
     5  C   -0.004206   0.006564  -0.000155   0.346911  -0.053439   0.330532
     6  C    0.003018   0.369911  -0.031966  -0.008820  -0.054616   0.003223
     7  H    0.657055  -0.000244   0.005147   0.007679   0.000010  -0.000155
     8  H   -0.000244   0.629544  -0.010340  -0.000419  -0.001055  -0.000182
     9  H    0.005147  -0.010340   0.593769   0.000296  -0.000167   0.000013
    10  H    0.007679  -0.000419   0.000296   0.623947   0.006839  -0.043755
    11  H    0.000010  -0.001055  -0.000167   0.006839   0.640238  -0.008315
    12  C   -0.000155  -0.000182   0.000013  -0.043755  -0.008315   4.963346
    13  H    0.000009   0.000004  -0.000000  -0.006083   0.000055   0.362047
    14  H    0.000001  -0.000005  -0.000000   0.005582   0.006292   0.369715
    15  O   -0.038197  -0.000154   0.004625   0.000291   0.000007  -0.000033
    16  O    0.000003   0.000003  -0.000000   0.001279   0.000251   0.216962
    17  H   -0.000002  -0.000000  -0.000000   0.003798   0.000101  -0.026596
    18  O    0.012582   0.001169  -0.038572   0.013477  -0.000042   0.000289
    19  H   -0.000644   0.002562   0.002863   0.002429   0.000890  -0.000181
    20  O    0.000105  -0.032304   0.002517  -0.000054  -0.000797  -0.000122
    21  H    0.000014  -0.004542  -0.000255   0.000031   0.008087  -0.000020
    22  O   -0.000010   0.007513  -0.000163   0.002788  -0.031672  -0.000200
    23  H   -0.000002   0.000023   0.000012   0.000718  -0.002981  -0.005144
    24  O   -0.000026  -0.000004   0.000006  -0.000163   0.000354  -0.000053
    25  H    0.000025   0.000011  -0.000006   0.000015   0.000018  -0.000018
    26  H    0.001077   0.000101  -0.000083   0.003280   0.001025  -0.004012
    27  H    0.000008   0.000001  -0.000001   0.000010  -0.000001   0.000090
    28  O   -0.000186   0.000001  -0.000154  -0.000001   0.000001   0.000000
    29  H    0.000003   0.000001  -0.000002   0.000000  -0.000000  -0.000000
    30  H    0.002096  -0.000033   0.001401   0.000011  -0.000007   0.000001
              13         14         15         16         17         18
     1  C    0.006281  -0.011218   0.000552   0.004379  -0.001564   0.007578
     2  C    0.000000   0.000021  -0.051174  -0.000003   0.000002   0.211287
     3  O    0.005377   0.002277  -0.036728   0.001628  -0.000019   0.000940
     4  C   -0.000029  -0.000036   0.423527  -0.000002  -0.000001  -0.036878
     5  C   -0.045072  -0.040996   0.000438  -0.046073   0.000065  -0.009209
     6  C   -0.000112  -0.000119  -0.001199   0.000115  -0.000010  -0.024793
     7  H    0.000009   0.000001  -0.038197   0.000003  -0.000002   0.012582
     8  H    0.000004  -0.000005  -0.000154   0.000003  -0.000000   0.001169
     9  H   -0.000000  -0.000000   0.004625  -0.000000  -0.000000  -0.038572
    10  H   -0.006083   0.005582   0.000291   0.001279   0.003798   0.013477
    11  H    0.000055   0.006292   0.000007   0.000251   0.000101  -0.000042
    12  C    0.362047   0.369715  -0.000033   0.216962  -0.026596   0.000289
    13  H    0.596919  -0.036472   0.000001  -0.024929  -0.009513  -0.000000
    14  H   -0.036472   0.562590   0.000001  -0.034288   0.006582  -0.000004
    15  O    0.000001   0.000001   8.198611   0.000000  -0.000000   0.001596
    16  O   -0.024929  -0.034288   0.000000   8.233738   0.234573  -0.000002
    17  H   -0.009513   0.006582  -0.000000   0.234573   0.388577  -0.000005
    18  O   -0.000000  -0.000004   0.001596  -0.000002  -0.000005   8.307813
    19  H    0.000005   0.000001  -0.000089   0.000010   0.000001   0.226227
    20  O    0.000003  -0.000024  -0.000301   0.000000   0.000000   0.001417
    21  H   -0.000000   0.000015   0.000095   0.000000   0.000000  -0.000100
    22  O   -0.000234   0.000051  -0.000001  -0.011766   0.001153  -0.010024
    23  H    0.000488   0.000184   0.000000   0.045116  -0.001823   0.000255
    24  O    0.000016   0.001531  -0.001269   0.000001  -0.000000   0.000000
    25  H   -0.000001   0.000011   0.002468  -0.000000   0.000000   0.000000
    26  H   -0.000012   0.002387   0.005426   0.000049   0.000009  -0.000022
    27  H    0.000015  -0.000014   0.000128  -0.000000   0.000000  -0.000000
    28  O    0.000000   0.000001  -0.056960   0.000000  -0.000000  -0.000000
    29  H    0.000000  -0.000000   0.003705   0.000000   0.000000  -0.000000
    30  H   -0.000000  -0.000002   0.093561  -0.000000  -0.000000   0.000031
              19         20         21         22         23         24
     1  C   -0.005792  -0.033937  -0.004582   0.172088  -0.022375   0.000638
     2  C   -0.028232  -0.049848   0.006581   0.000966  -0.000237  -0.000049
     3  O   -0.000054  -0.000805   0.000160   0.001880   0.000092  -0.080214
     4  C    0.002568   0.004243  -0.000012   0.000300  -0.000025   0.000790
     5  C   -0.000857  -0.000813  -0.000344  -0.031333  -0.005444   0.003710
     6  C   -0.012845   0.207686  -0.019768  -0.034269   0.004968  -0.000406
     7  H   -0.000644   0.000105   0.000014  -0.000010  -0.000002  -0.000026
     8  H    0.002562  -0.032304  -0.004542   0.007513   0.000023  -0.000004
     9  H    0.002863   0.002517  -0.000255  -0.000163   0.000012   0.000006
    10  H    0.002429  -0.000054   0.000031   0.002788   0.000718  -0.000163
    11  H    0.000890  -0.000797   0.008087  -0.031672  -0.002981   0.000354
    12  C   -0.000181  -0.000122  -0.000020  -0.000200  -0.005144  -0.000053
    13  H    0.000005   0.000003  -0.000000  -0.000234   0.000488   0.000016
    14  H    0.000001  -0.000024   0.000015   0.000051   0.000184   0.001531
    15  O   -0.000089  -0.000301   0.000095  -0.000001   0.000000  -0.001269
    16  O    0.000010   0.000000   0.000000  -0.011766   0.045116   0.000001
    17  H    0.000001   0.000000   0.000000   0.001153  -0.001823  -0.000000
    18  O    0.226227   0.001417  -0.000100  -0.010024   0.000255   0.000000
    19  H    0.353760   0.000223  -0.000005   0.040706  -0.000661  -0.000000
    20  O    0.000223   8.279861   0.230050   0.001245  -0.000088   0.000203
    21  H   -0.000005   0.230050   0.381224  -0.000007  -0.000022   0.000960
    22  O    0.040706   0.001245  -0.000007   8.326811   0.219243   0.000001
    23  H   -0.000661  -0.000088  -0.000022   0.219243   0.355793  -0.000000
    24  O   -0.000000   0.000203   0.000960   0.000001  -0.000000   8.467681
    25  H    0.000000   0.001658  -0.000046  -0.000000   0.000000   0.165142
    26  H    0.000028   0.004165  -0.000231   0.000003   0.000011   0.114905
    27  H    0.000000   0.000276  -0.000040  -0.000000   0.000000   0.228787
    28  O    0.000000  -0.001047   0.000290   0.000000  -0.000000  -0.077713
    29  H    0.000000   0.000283  -0.000031  -0.000000   0.000000   0.003989
    30  H   -0.000001   0.004844  -0.000093  -0.000000   0.000000   0.006589
              25         26         27         28         29         30
     1  C   -0.000051  -0.002034  -0.000023  -0.000013   0.000001   0.000136
     2  C   -0.000053  -0.000697  -0.000006   0.000124   0.000014  -0.004018
     3  O    0.005087   0.140579   0.004525  -0.000452  -0.000016   0.000904
     4  C   -0.000016   0.001583  -0.000016   0.007796  -0.000124  -0.015163
     5  C   -0.000138  -0.012056  -0.000276  -0.000001   0.000001   0.000004
     6  C    0.000021  -0.002726   0.000004   0.000175  -0.000016  -0.000546
     7  H    0.000025   0.001077   0.000008  -0.000186   0.000003   0.002096
     8  H    0.000011   0.000101   0.000001   0.000001   0.000001  -0.000033
     9  H   -0.000006  -0.000083  -0.000001  -0.000154  -0.000002   0.001401
    10  H    0.000015   0.003280   0.000010  -0.000001   0.000000   0.000011
    11  H    0.000018   0.001025  -0.000001   0.000001  -0.000000  -0.000007
    12  C   -0.000018  -0.004012   0.000090   0.000000  -0.000000   0.000001
    13  H   -0.000001  -0.000012   0.000015   0.000000   0.000000  -0.000000
    14  H    0.000011   0.002387  -0.000014   0.000001  -0.000000  -0.000002
    15  O    0.002468   0.005426   0.000128  -0.056960   0.003705   0.093561
    16  O   -0.000000   0.000049  -0.000000   0.000000   0.000000  -0.000000
    17  H    0.000000   0.000009   0.000000  -0.000000   0.000000  -0.000000
    18  O    0.000000  -0.000022  -0.000000  -0.000000  -0.000000   0.000031
    19  H    0.000000   0.000028   0.000000   0.000000   0.000000  -0.000001
    20  O    0.001658   0.004165   0.000276  -0.001047   0.000283   0.004844
    21  H   -0.000046  -0.000231  -0.000040   0.000290  -0.000031  -0.000093
    22  O   -0.000000   0.000003  -0.000000   0.000000  -0.000000  -0.000000
    23  H    0.000000   0.000011   0.000000  -0.000000   0.000000   0.000000
    24  O    0.165142   0.114905   0.228787  -0.077713   0.003989   0.006589
    25  H    0.289905  -0.006928  -0.006511   0.110026  -0.005927  -0.010441
    26  H   -0.006928   0.287257  -0.006945   0.002799   0.000034  -0.000280
    27  H   -0.006511  -0.006945   0.387116   0.004124  -0.000155  -0.000273
    28  O    0.110026   0.002799   0.004124   8.414571   0.236037   0.174050
    29  H   -0.005927   0.000034  -0.000155   0.236037   0.388498  -0.015089
    30  H   -0.010441  -0.000280  -0.000273   0.174050  -0.015089   0.308244
 Mulliken charges:
               1
     1  C    0.069755
     2  C    0.088465
     3  O   -0.662205
     4  C    0.331351
     5  C    0.120881
     6  C    0.083003
     7  H    0.127777
     8  H    0.148930
     9  H    0.161429
    10  H    0.135581
    11  H    0.125035
    12  C   -0.084968
    13  H    0.151237
    14  H    0.165937
    15  O   -0.548927
    16  O   -0.621046
    17  H    0.404670
    18  O   -0.665009
    19  H    0.417085
    20  O   -0.618641
    21  H    0.402592
    22  O   -0.655067
    23  H    0.411899
    24  O   -0.835404
    25  H    0.455751
    26  H    0.471307
    27  H    0.389176
    28  O   -0.813468
    29  H    0.388797
    30  H    0.454074
 Sum of Mulliken charges =  -0.00000
 Mulliken charges with hydrogens summed into heavy atoms:
               1
     1  C    0.194789
     2  C    0.249895
     3  O   -0.190898
     4  C    0.459128
     5  C    0.256461
     6  C    0.231933
    12  C    0.232207
    15  O   -0.548927
    16  O   -0.216375
    18  O   -0.247924
    20  O   -0.216048
    22  O   -0.243168
    24  O    0.009523
    28  O    0.029403
 Electronic spatial extent (au):  <R**2>=           2908.0078
 Charge=              0.0000 electrons
 Dipole moment (field-independent basis, Debye):
    X=              2.3199    Y=             -3.5134    Z=             -0.3933  Tot=              4.2286
 Quadrupole moment (field-independent basis, Debye-Ang):
   XX=            -77.5911   YY=            -83.2000   ZZ=            -82.5645
   XY=              4.9366   XZ=             -3.9113   YZ=              6.1804
 Traceless Quadrupole moment (field-independent basis, Debye-Ang):
   XX=              3.5274   YY=             -2.0815   ZZ=             -1.4460
   XY=              4.9366   XZ=             -3.9113   YZ=              6.1804
 Octapole moment (field-independent basis, Debye-Ang**2):
  XXX=             -5.7614  YYY=            -45.8756  ZZZ=             18.2482  XYY=            -29.4293
  XXY=            -21.8107  XXZ=            -38.5325  XZZ=             11.6736  YZZ=             -8.4263
  YYZ=             -2.5428  XYZ=             -3.5864
 Hexadecapole moment (field-independent basis, Debye-Ang**3):
 XXXX=          -1571.5326 YYYY=           -995.8497 ZZZZ=           -478.5663 XXXY=            147.3841
 XXXZ=            -36.8432 YYYX=             63.5958 YYYZ=             52.5270 ZZZX=            -33.0021
 ZZZY=             -3.0902 XXYY=           -447.0137 XXZZ=           -405.0973 YYZZ=           -272.2119
 XXYZ=             35.5971 YYXZ=              7.3778 ZZXY=            -10.2405
 N-N= 1.134839533342D+03 E-N=-4.242770692701D+03  KE= 8.330756256981D+02
 Calling FoFJK, ICntrl=      2127 FMM=F ISym2X=0 I1Cent= 0 IOpClX= 0 NMat=1 NMatS=1 NMatT=0.
 ***** Axes restored to original set *****
 -------------------------------------------------------------------
 Center     Atomic                   Forces (Hartrees/Bohr)
 Number     Number              X              Y              Z
 -------------------------------------------------------------------
      1        6           0.000103474   -0.000586261    0.000733664
      2        6          -0.001025590    0.003102939    0.000310115
      3        8           0.010438047   -0.006873495   -0.005959190
      4        6          -0.005628936    0.014832258   -0.005742581
      5        6           0.003003892   -0.001902673    0.001502394
      6        6          -0.000178135   -0.000672226   -0.000706984
      7        1           0.000143527    0.000409286   -0.000164909
      8        1          -0.000007251   -0.000026829   -0.000086226
      9        1           0.000197721    0.000441909    0.000536841
     10        1           0.000292204   -0.000062202    0.000229838
     11        1           0.000013997    0.000075020    0.000180687
     12        6           0.002410769   -0.000842457    0.000780064
     13        1           0.000110583    0.000048007    0.000012517
     14        1           0.000174416   -0.000144578   -0.000008082
     15        8           0.000256133    0.006232267   -0.006099369
     16        8           0.001998725   -0.000082418    0.000439970
     17        1           0.000147688   -0.000146558   -0.000011666
     18        8           0.000345308   -0.000153551   -0.000471822
     19        1          -0.000063688    0.000144203    0.000156978
     20        8          -0.000267140    0.000191115   -0.000777272
     21        1          -0.000040513   -0.000084825   -0.000081146
     22        8          -0.000132014   -0.000066474   -0.000682938
     23        1           0.000003727   -0.000038670    0.000085964
     24        8           0.002917099   -0.013195023    0.007282508
     25        1           0.001918903   -0.001577741    0.000701191
     26        1           0.000925305    0.000082784   -0.000265458
     27        1          -0.000473319   -0.000380189    0.000067997
     28        8          -0.016682365   -0.000610978    0.007553316
     29        1          -0.000622660    0.000651052   -0.000263568
     30        1          -0.000279907    0.001236310    0.000747166
 -------------------------------------------------------------------
 Cartesian Forces:  Max     0.016682365 RMS     0.003615441

 GradGradGradGradGradGradGradGradGradGradGradGradGradGradGradGradGradGrad
 Berny optimization.
 FormGI is forming the generalized inverse of G from B-inverse, IUseBI=4.
 Internal  Forces:  Max     0.034046963 RMS     0.006983121
 Search for a local minimum.
 Step number   1 out of a maximum of  158
 All quantities printed in internal units (Hartrees-Bohrs-Radians)
 Mixed Optimization -- RFO/linear search
 Second derivative matrix not updated -- first step.
 ITU=  0
     Eigenvalues ---    0.00230   0.00230   0.00230   0.00230   0.00274
     Eigenvalues ---    0.00439   0.00679   0.01200   0.01210   0.01286
     Eigenvalues ---    0.01369   0.01486   0.01498   0.01827   0.02594
     Eigenvalues ---    0.03108   0.03910   0.04138   0.04227   0.04603
     Eigenvalues ---    0.04673   0.04859   0.05015   0.05031   0.05260
     Eigenvalues ---    0.05845   0.05925   0.06214   0.06922   0.07144
     Eigenvalues ---    0.07227   0.07766   0.08303   0.09316   0.10436
     Eigenvalues ---    0.10731   0.11417   0.11475   0.12750   0.13742
     Eigenvalues ---    0.13802   0.15000   0.15701   0.16000   0.16000
     Eigenvalues ---    0.16000   0.16000   0.16124   0.16518   0.17281
     Eigenvalues ---    0.17795   0.18236   0.19374   0.19700   0.20334
     Eigenvalues ---    0.22019   0.22267   0.26948   0.27843   0.27974
     Eigenvalues ---    0.28744   0.29920   0.33261   0.33331   0.33489
     Eigenvalues ---    0.33895   0.33909   0.33985   0.34218   0.40078
     Eigenvalues ---    0.40343   0.40889   0.41807   0.41936   0.43273
     Eigenvalues ---    0.43851   0.46169   0.51993   0.52550   0.53357
     Eigenvalues ---    0.53456   0.53503   0.53516   0.85357
 RFO step:  Lambda=-4.49407146D-02 EMin= 2.30000000D-03
 Linear search not attempted -- first point.
 Maximum step size (   0.300) exceeded in Quadratic search.
    -- Step size scaled by   0.639
 Iteration  1 RMS(Cart)=  0.17110972 RMS(Int)=  0.00647810
 Iteration  2 RMS(Cart)=  0.01221271 RMS(Int)=  0.00080279
 Iteration  3 RMS(Cart)=  0.00014704 RMS(Int)=  0.00080120
 Iteration  4 RMS(Cart)=  0.00000020 RMS(Int)=  0.00080120
 Variable       Old X    -DE/DX   Delta X   Delta X   Delta X     New X
                                 (Linear)    (Quad)   (Total)
    R1        2.91804   0.00135   0.00000   0.00400   0.00408   2.92211
    R2        2.91604   0.01387   0.00000   0.03010   0.03007   2.94611
    R3        2.08473   0.00008   0.00000   0.00014   0.00014   2.08487
    R4        2.70363  -0.00022   0.00000  -0.00031  -0.00031   2.70332
    R5        2.93753  -0.00002   0.00000  -0.00037  -0.00048   2.93705
    R6        2.90001   0.01072   0.00000   0.02074   0.02067   2.92068
    R7        2.07484   0.00025   0.00000   0.00041   0.00041   2.07525
    R8        2.69169   0.00032   0.00000   0.00044   0.00044   2.69213
    R9        2.65796   0.00067   0.00000  -0.00067  -0.00058   2.65739
   R10        1.96605   0.01058   0.00000   0.01342   0.01342   1.97947
   R11        2.08596   0.00024   0.00000   0.00040   0.00040   2.08636
   R12        2.34177   0.00394   0.00000   0.00374   0.00367   2.34544
   R13        2.07508  -0.00008   0.00000  -0.00014  -0.00014   2.07494
   R14        2.88123   0.00370   0.00000   0.00687   0.00687   2.88811
   R15        2.08201  -0.00007   0.00000  -0.00011  -0.00011   2.08190
   R16        2.67335  -0.00012   0.00000  -0.00016  -0.00016   2.67319
   R17        2.07356  -0.00003   0.00000  -0.00005  -0.00005   2.07351
   R18        2.06964   0.00002   0.00000   0.00004   0.00004   2.06968
   R19        2.71447   0.00207   0.00000   0.00297   0.00297   2.71744
   R20        2.90411   0.01226   0.00000   0.05771   0.05774   2.96185
   R21        1.83321   0.00004   0.00000   0.00004   0.00004   1.83326
   R22        1.84076   0.00000   0.00000   0.00000   0.00000   1.84076
   R23        1.83187  -0.00003   0.00000  -0.00004  -0.00004   1.83183
   R24        1.84606   0.00001   0.00000   0.00001   0.00001   1.84607
   R25        1.94741   0.01704   0.00000   0.02087   0.02092   1.96833
   R26        2.68760   0.01139   0.00000   0.03662   0.03664   2.72424
   R27        1.83175   0.00038   0.00000   0.00041   0.00041   1.83216
   R28        2.74747   0.01990   0.00000   0.06901   0.06904   2.81651
   R29        1.83231   0.00038   0.00000   0.00042   0.00042   1.83273
   R30        1.89880   0.01452   0.00000   0.01911   0.01911   1.91792
    A1        1.96408   0.02337   0.00000   0.09229   0.09135   2.05543
    A2        1.90950  -0.00958   0.00000  -0.03842  -0.03795   1.87155
    A3        1.91758  -0.00360   0.00000  -0.00871  -0.00896   1.90863
    A4        1.88232  -0.00585   0.00000  -0.02280  -0.02204   1.86029
    A5        1.87255  -0.00876   0.00000  -0.02152  -0.02192   1.85063
    A6        1.91703   0.00441   0.00000  -0.00150  -0.00250   1.91452
    A7        2.02821   0.01410   0.00000   0.04888   0.04798   2.07619
    A8        1.81542  -0.00299   0.00000  -0.02249  -0.02158   1.79384
    A9        1.91071  -0.00605   0.00000  -0.00287  -0.00353   1.90719
   A10        1.88360  -0.00627   0.00000  -0.02793  -0.02737   1.85623
   A11        1.92426  -0.00161   0.00000   0.00113   0.00081   1.92507
   A12        1.89477   0.00228   0.00000  -0.00117  -0.00148   1.89328
   A13        1.99466   0.00874   0.00000   0.02778   0.02745   2.02211
   A14        1.93903  -0.00488   0.00000  -0.00516  -0.00571   1.93332
   A15        2.13676   0.01031   0.00000   0.01378   0.01505   2.15181
   A16        2.08535  -0.00239   0.00000   0.00440   0.00364   2.08900
   A17        1.96225  -0.00287   0.00000   0.00509   0.00422   1.96647
   A18        1.86685   0.00207   0.00000   0.00713   0.00710   1.87395
   A19        1.95791  -0.00221   0.00000  -0.01456  -0.01413   1.94378
   A20        1.84907   0.00045   0.00000   0.00565   0.00569   1.85476
   A21        1.92681   0.00370   0.00000   0.00189   0.00233   1.92914
   A22        1.89547  -0.00102   0.00000  -0.00416  -0.00430   1.89117
   A23        1.95300   0.03405   0.00000   0.11219   0.11175   2.06474
   A24        1.85685  -0.00802   0.00000  -0.03933  -0.03764   1.81921
   A25        1.96710  -0.01087   0.00000  -0.01325  -0.01520   1.95190
   A26        1.87981  -0.01184   0.00000  -0.04673  -0.04548   1.83433
   A27        1.86618  -0.00928   0.00000  -0.01294  -0.01439   1.85178
   A28        1.94012   0.00644   0.00000  -0.00044  -0.00177   1.93835
   A29        1.92305  -0.00032   0.00000  -0.00062  -0.00062   1.92243
   A30        1.92332  -0.00011   0.00000   0.00005   0.00005   1.92337
   A31        1.92697   0.00140   0.00000   0.00350   0.00350   1.93046
   A32        1.88708   0.00009   0.00000  -0.00031  -0.00031   1.88678
   A33        1.94735  -0.00052   0.00000  -0.00127  -0.00127   1.94608
   A34        1.85455  -0.00057   0.00000  -0.00145  -0.00145   1.85310
   A35        2.16706  -0.00083   0.00000   0.00310   0.00352   2.17059
   A36        1.87704   0.00017   0.00000   0.00054   0.00054   1.87758
   A37        1.89890  -0.00008   0.00000  -0.00025  -0.00025   1.89865
   A38        1.90555   0.00012   0.00000   0.00036   0.00036   1.90591
   A39        1.83429  -0.00003   0.00000  -0.00009  -0.00009   1.83420
   A40        1.78743   0.01002   0.00000   0.01378   0.01238   1.79981
   A41        1.85401   0.00483   0.00000   0.01349   0.01379   1.86780
   A42        1.88267  -0.00576   0.00000  -0.01434  -0.01758   1.86509
   A43        1.93972   0.00289   0.00000   0.00874   0.00923   1.94895
   A44        1.72138   0.01651   0.00000   0.05031   0.04863   1.77001
   A45        1.81217  -0.00348   0.00000  -0.00086  -0.00397   1.80820
   A46        2.73217   0.01175   0.00000   0.02505   0.02450   2.75667
   A47        2.96850   0.00755   0.00000   0.09466   0.09270   3.06120
   A48        3.22863   0.00278   0.00000   0.00466   0.00424   3.23287
   A49        3.03877   0.02020   0.00000   0.16461   0.16495   3.20372
   A50        3.07097  -0.00206   0.00000  -0.06830  -0.06783   3.00314
    D1       -0.59486  -0.00024   0.00000  -0.01177  -0.01095  -0.60581
    D2        1.42774   0.00002   0.00000   0.00213   0.00265   1.43039
    D3       -2.77884  -0.00118   0.00000  -0.00680  -0.00623  -2.78507
    D4        1.49722   0.00093   0.00000  -0.00718  -0.00739   1.48983
    D5       -2.76336   0.00119   0.00000   0.00673   0.00621  -2.75715
    D6       -0.68676  -0.00001   0.00000  -0.00220  -0.00267  -0.68943
    D7       -2.68012  -0.00190   0.00000  -0.03863  -0.03843  -2.71855
    D8       -0.65752  -0.00165   0.00000  -0.02472  -0.02483  -0.68235
    D9        1.41909  -0.00285   0.00000  -0.03365  -0.03371   1.38537
   D10       -0.57733  -0.00686   0.00000  -0.07625  -0.07668  -0.65401
   D11       -2.62598  -0.00611   0.00000  -0.05665  -0.05644  -2.68242
   D12        1.52667  -0.00205   0.00000  -0.02137  -0.02146   1.50521
   D13       -2.68509  -0.00548   0.00000  -0.07028  -0.07045  -2.75554
   D14        1.54945  -0.00473   0.00000  -0.05068  -0.05021   1.49924
   D15       -0.58108  -0.00067   0.00000  -0.01540  -0.01523  -0.59631
   D16        1.53391  -0.00292   0.00000  -0.04503  -0.04546   1.48845
   D17       -0.51474  -0.00216   0.00000  -0.02544  -0.02522  -0.53996
   D18       -2.64527   0.00190   0.00000   0.00985   0.00976  -2.63551
   D19       -0.92403   0.01068   0.00000   0.04869   0.04801  -0.87602
   D20       -3.06437  -0.01019   0.00000  -0.04528  -0.04450  -3.10887
   D21        1.17726  -0.00065   0.00000  -0.00524  -0.00535   1.17191
   D22       -2.16247  -0.00298   0.00000  -0.04285  -0.04275  -2.20522
   D23        1.49456  -0.00762   0.00000  -0.06879  -0.06915   1.42541
   D24        2.05338  -0.00087   0.00000  -0.01941  -0.01912   2.03426
   D25       -0.57278  -0.00551   0.00000  -0.04535  -0.04552  -0.61830
   D26        0.03111   0.00075   0.00000  -0.00522  -0.00505   0.02607
   D27       -2.59505  -0.00389   0.00000  -0.03116  -0.03144  -2.62649
   D28        1.17784   0.00007   0.00000   0.05486   0.05521   1.23305
   D29       -3.07052   0.00213   0.00000   0.04128   0.04068  -3.02984
   D30       -0.98393  -0.00159   0.00000   0.00898   0.00880  -0.97513
   D31       -3.07570   0.00036   0.00000   0.03607   0.03625  -3.03946
   D32       -1.04088   0.00241   0.00000   0.02249   0.02172  -1.01916
   D33        1.04571  -0.00131   0.00000  -0.00981  -0.01016   1.03555
   D34       -1.00887  -0.00152   0.00000   0.01870   0.01900  -0.98988
   D35        1.02595   0.00053   0.00000   0.00512   0.00447   1.03042
   D36        3.11254  -0.00319   0.00000  -0.02718  -0.02742   3.08513
   D37       -2.09520  -0.00614   0.00000  -0.03183  -0.03120  -2.12641
   D38        0.15686   0.00645   0.00000   0.03067   0.03012   0.18698
   D39        2.21683  -0.00071   0.00000  -0.00323  -0.00331   2.21352
   D40       -1.00213   0.00294   0.00000   0.03702   0.03673  -0.96539
   D41       -3.03540   0.00168   0.00000   0.02237   0.02242  -3.01298
   D42        1.19877   0.00073   0.00000   0.02312   0.02307   1.22184
   D43        2.26408  -0.01316   0.00000  -0.08212  -0.08257   2.18151
   D44       -2.08558  -0.00641   0.00000  -0.07678  -0.07817  -2.16375
   D45       -0.90988   0.00090   0.00000  -0.00571  -0.00470  -0.91457
   D46        2.78828  -0.00387   0.00000  -0.03141  -0.03116   2.75712
   D47        3.10805  -0.00111   0.00000  -0.00019  -0.00042   3.10763
   D48        1.02707  -0.00096   0.00000   0.00055   0.00032   1.02739
   D49       -1.01627  -0.00103   0.00000   0.00019  -0.00004  -1.01631
   D50        0.90472   0.00147   0.00000   0.00268   0.00290   0.90762
   D51       -1.17625   0.00163   0.00000   0.00342   0.00363  -1.17262
   D52        3.06359   0.00155   0.00000   0.00306   0.00327   3.06687
   D53       -1.11544  -0.00053   0.00000  -0.00276  -0.00275  -1.11819
   D54        3.08677  -0.00037   0.00000  -0.00203  -0.00201   3.08475
   D55        1.04343  -0.00045   0.00000  -0.00239  -0.00237   1.04105
   D56        0.98941  -0.01425   0.00000  -0.06179  -0.06078   0.92864
   D57       -3.14070   0.01514   0.00000   0.06188   0.06092  -3.07979
   D58       -1.09342  -0.00109   0.00000  -0.00218  -0.00223  -1.09566
   D59       -1.44186  -0.00008   0.00000  -0.00105  -0.00105  -1.44291
   D60        0.70290   0.00014   0.00000  -0.00024  -0.00024   0.70266
   D61        2.75588  -0.00037   0.00000  -0.00216  -0.00215   2.75373
   D62       -1.85637   0.00997   0.00000   0.04060   0.04319  -1.81319
   D63        1.87741   0.00330   0.00000   0.01833   0.02174   1.89915
   D64        0.01679  -0.00430   0.00000  -0.03793  -0.03719  -0.02040
   D65       -0.05746  -0.00008   0.00000  -0.01575  -0.01603  -0.07349
   D66       -1.91807  -0.00769   0.00000  -0.07201  -0.07496  -1.99303
   D67        0.98140   0.00970   0.00000   0.04197   0.04313   1.02453
   D68       -1.01512   0.00199   0.00000   0.01582   0.01729  -0.99783
         Item               Value     Threshold  Converged?
 Maximum Force            0.034047     0.000450     NO 
 RMS     Force            0.006983     0.000300     NO 
 Maximum Displacement     0.773041     0.001800     NO 
 RMS     Displacement     0.176451     0.001200     NO 
 Predicted change in Energy=-2.343861D-02
 GradGradGradGradGradGradGradGradGradGradGradGradGradGradGradGradGradGrad

                          Input orientation:                          
 ---------------------------------------------------------------------
 Center     Atomic      Atomic             Coordinates (Angstroms)
 Number     Number       Type             X           Y           Z
 ---------------------------------------------------------------------
      1          6           0        1.212313    0.161577    0.789334
      2          6           0       -0.576226    1.875086   -0.195067
      3          8           0        0.009064   -1.034599   -0.990036
      4          6           0       -1.326577    1.093889   -1.309651
      5          6           0        1.277755   -0.632562   -0.535867
      6          6           0       -0.014597    1.096347    1.016086
      7          1           0       -0.888641    1.307724   -2.300322
      8          1           0        0.357995    1.869609    1.706715
      9          1           0       -1.354147    2.542038    0.199907
     10          1           0        1.679447    0.042501   -1.303047
     11          1           0        1.203741   -0.574317    1.611272
     12          6           0        2.211298   -1.836866   -0.417914
     13          1           0        2.216011   -2.404778   -1.356755
     14          1           0        1.869735   -2.503312    0.381276
     15          8           0       -2.519221    0.761248   -1.223544
     16          8           0        3.536170   -1.416101   -0.049767
     17          1           0        3.989806   -1.134536   -0.859744
     18          8           0        0.445149    2.673091   -0.786261
     19          1           0        1.303410    2.419487   -0.401653
     20          8           0       -1.110508    0.399438    1.576764
     21          1           0       -0.818583   -0.062658    2.377335
     22          8           0        2.369772    0.994877    0.900378
     23          1           0        3.127064    0.402862    0.726135
     24          8           0       -1.508893   -2.366981    0.451248
     25          1           0       -2.364137   -1.772504    0.442290
     26          1           0       -0.563386   -1.591656   -0.312375
     27          1           0       -1.708801   -3.159590   -0.070109
     28          8           0       -3.506474   -0.816919    0.499826
     29          1           0       -4.250222   -1.114624   -0.046793
     30          1           0       -3.133058   -0.026242   -0.015390
 ---------------------------------------------------------------------
                    Distance matrix (angstroms):
                    1          2          3          4          5
     1  C    0.000000
     2  C    2.665339   0.000000
     3  O    2.458617   3.072589   0.000000
     4  C    3.423581   1.554218   2.533091   0.000000
     5  C    1.546317   3.137146   1.406229   3.218993   0.000000
     6  C    1.559012   1.545559   2.926775   2.670272   2.658544
     7  H    3.908150   2.202635   2.830052   1.104056   3.401658
     8  H    2.118684   2.118861   3.978522   3.540902   3.483675
     9  H    3.549751   1.098176   4.008321   2.092047   4.188836
    10  H    2.147196   3.110313   2.012039   3.184594   1.098013
    11  H    1.103266   3.525722   2.899295   4.209182   2.149203
    12  C    2.539526   4.647423   2.412631   4.679859   1.528321
    13  H    3.492747   5.240548   2.623450   4.979238   2.166779
    14  H    2.774950   5.048293   2.738560   5.100539   2.165940
    15  O    4.282012   2.464474   3.109954   1.241155   4.102759
    16  O    2.931463   5.269234   3.670167   5.615485   2.439399
    17  H    3.480494   5.508926   3.984127   5.782060   2.777066
    18  O    3.062474   1.424615   3.738804   2.430397   3.418079
    19  H    2.554390   1.967760   3.735269   3.081964   3.055106
    20  O    2.464167   2.366934   3.146166   2.976632   3.351422
    21  H    2.587772   3.229682   3.601229   3.897374   3.634029
    22  O    1.430535   3.263996   3.642166   4.307786   2.429785
    23  H    1.930929   4.090283   3.838419   4.945388   2.466718
    24  O    3.729995   4.391210   2.481277   3.887368   3.427537
    25  H    4.080699   4.111905   2.868474   3.515969   3.939497
    26  H    2.727763   3.468750   1.047490   2.964654   2.087968
    27  H    4.505740   5.162006   2.883212   4.446869   3.939837
    28  O    4.827858   4.039322   3.824406   3.417213   4.898519
    29  H    5.671603   4.739051   4.363213   3.875570   5.570467
    30  H    4.423245   3.191351   3.440879   2.488610   4.482610
                    6          7          8          9         10
     6  C    0.000000
     7  H    3.436160   0.000000
     8  H    1.101693   4.233930   0.000000
     9  H    2.133205   2.826901   2.377827   0.000000
    10  H    3.059208   3.031571   3.760748   4.208235   0.000000
    11  H    2.151676   4.818787   2.587889   4.271582   3.016624
    12  C    3.951544   4.800159   4.656903   5.680572   2.144376
    13  H    4.781617   4.930704   5.577406   6.296047   2.505985
    14  H    4.112327   5.415126   4.812960   5.990147   3.058483
    15  O    3.376592   2.029009   4.253616   2.560239   4.260485
    16  O    4.478436   5.662435   4.897134   6.296380   2.673135
    17  H    4.952860   5.642618   5.366717   6.572510   2.630531
    18  O    2.438430   2.436309   2.620708   2.056008   2.951366
    19  H    2.344745   3.105809   2.375162   2.727545   2.569820
    20  O    1.414589   3.988232   2.082017   2.558481   4.025489
    21  H    1.960277   4.874764   2.359603   3.436927   4.449317
    22  O    2.389330   4.578166   2.337216   4.092913   2.497729
    23  H    3.230329   5.109218   3.283387   4.993420   2.518538
    24  O    3.814001   4.632419   4.796891   4.917884   4.364478
    25  H    3.752318   4.380275   4.719509   4.437804   4.763509
    26  H    3.048170   3.530457   4.111694   4.239712   2.946557
    27  H    4.707775   5.059981   5.720279   5.719025   4.822214
    28  O    4.015011   4.382691   4.858820   4.000631   5.557223
    29  H    4.894755   4.716607   5.763341   4.671112   6.170744
    30  H    3.471159   3.469551   4.329821   3.131603   4.982267
                   11         12         13         14         15
    11  H    0.000000
    12  C    2.593607   0.000000
    13  H    3.631042   1.097255   0.000000
    14  H    2.382742   1.095226   1.774928   0.000000
    15  O    4.866247   5.456834   5.697708   5.700502   0.000000
    16  O    2.984607   1.438006   2.104405   2.035886   6.541128
    17  H    3.765890   1.962542   2.237607   2.812184   6.789240
    18  O    4.107224   4.857435   5.407972   5.494336   3.554413
    19  H    3.608970   4.352134   5.001859   5.016737   4.247089
    20  O    2.511003   4.473722   5.247370   4.328625   3.155487
    21  H    2.222260   4.487918   5.351422   4.143440   4.066610
    22  O    2.080233   3.127583   4.083619   3.571671   5.335529
    23  H    2.331849   2.676539   3.612657   3.185224   5.984165
    24  O    3.452199   3.856979   4.140678   3.382101   3.689377
    25  H    3.941056   4.656039   4.961259   4.296915   3.036272
    26  H    2.803236   2.787496   3.078464   2.689302   3.192440
    27  H    4.241883   4.151836   4.198731   3.666110   4.166553
    28  O    4.845646   5.880089   6.222139   5.635742   2.536786
    29  H    5.725978   6.512342   6.722549   6.290117   2.810694
    30  H    4.664143   5.657077   6.005766   5.596530   1.567346
                   16         17         18         19         20
    16  O    0.000000
    17  H    0.970117   0.000000
    18  O    5.178641   5.202693   0.000000
    19  H    4.452054   4.478577   0.974089   0.000000
    20  O    5.247229   5.856864   3.629525   3.717759   0.000000
    21  H    5.165899   5.894761   4.369174   4.287969   0.969365
    22  O    2.841844   3.202646   3.060282   2.204978   3.595051
    23  H    2.019411   2.371272   3.825435   2.943535   4.322106
    24  O    5.158280   5.785612   5.545451   5.616651   3.013066
    25  H    5.931507   6.517276   5.400439   5.633465   2.752444
    26  H    4.111708   4.608701   4.407922   4.425174   2.798686
    27  H    5.527195   6.099056   6.258797   6.348971   3.966967
    28  O    7.089422   7.625190   5.426740   5.867024   2.894817
    29  H    7.792227   8.280057   6.077838   6.592321   3.845273
    30  H    6.812598   7.257853   4.547989   5.080653   2.608996
                   21         22         23         24         25
    21  H    0.000000
    22  O    3.669522   0.000000
    23  H    4.302477   0.976901   0.000000
    24  O    3.081597   5.152460   5.407374   0.000000
    25  H    3.009437   5.502557   5.913212   1.041598   0.000000
    26  H    3.104433   4.094427   4.321577   1.441608   1.960850
    27  H    4.046412   5.902219   6.058932   0.969539   1.617414
    28  O    3.364328   6.162248   6.748549   2.528909   1.490431
    29  H    4.331186   7.012235   7.571297   3.054722   2.056532
    30  H    3.329151   5.671194   6.318474   2.886992   1.962177
                   26         27         28         29         30
    26  H    0.000000
    27  H    1.956805   0.000000
    28  O    3.149866   3.007418   0.000000
    29  H    3.727044   3.262093   0.969837   0.000000
    30  H    3.023564   3.442292   1.014917   1.560006   0.000000
 Stoichiometry    C6H16O8
 Framework group  C1[X(C6H16O8)]
 Deg. of freedom    84
 Full point group                 C1      NOp   1
 Largest Abelian subgroup         C1      NOp   1
 Largest concise Abelian subgroup C1      NOp   1
                         Standard orientation:                         
 ---------------------------------------------------------------------
 Center     Atomic      Atomic             Coordinates (Angstroms)
 Number     Number       Type             X           Y           Z
 ---------------------------------------------------------------------
      1          6           0        1.212192    0.253902    0.781281
      2          6           0       -0.762287    1.828835   -0.070216
      3          8           0        0.100146   -0.952890   -1.049513
      4          6           0       -1.452268    1.041561   -1.219006
      5          6           0        1.330443   -0.449612   -0.590644
      6          6           0       -0.098696    1.042061    1.082774
      7          1           0       -1.059421    1.357555   -2.201227
      8          1           0        0.207465    1.807510    1.813583
      9          1           0       -1.595745    2.387470    0.376175
     10          1           0        1.644861    0.307406   -1.321190
     11          1           0        1.296116   -0.526186    1.556920
     12          6           0        2.384343   -1.556016   -0.560155
     13          1           0        2.427237   -2.063984   -1.531802
     14          1           0        2.129521   -2.300163    0.201967
[...]
 0042815,0.00080214,-0.00029902,0.00078585,0.00000033,0.00018398,-0.000
 07057,-0.00005281,-0.00087386,-0.00064749,0.00086780,0.00045921,-0.000
 02653,-0.00004255,-0.00608827,-0.01686526,0.00015824,0.00367437,0.0009
 0210,-0.00101272,-0.00113011,0.00045910,0.00014009,0.00027809,-0.00045
 065,-0.00018400,-0.01273858,0.46289550,0.00061196,0.00063940,-0.001625
 75,-0.00039603,-0.00027749,0.00010797,0.01151482,0.00752349,-0.0046290
 4,-0.00063950,-0.00131240,-0.00090353,-0.00391004,-0.00151792,-0.00357
 352,0.00233291,0.00021876,-0.00060803,-0.00001648,0.00006831,0.0002673
 4,-0.00022815,-0.00010256,0.00020254,0.00001712,0.00009072,0.00002261,
 0.00118230,0.00060237,0.00046944,0.00010622,-0.00037965,0.00075542,-0.
 00031731,0.00082002,-0.00019903,-0.00017510,0.00008341,0.00017181,0.00
 011310,-0.00021976,0.00004170,0.00061735,0.00094494,0.00018678,0.00104
 148,0.00005554,0.00041162,-0.00015199,-0.00003633,0.00002400,-0.000098
 14,0.00003148,0.00063236,0.00007421,-0.00005193,-0.00020434,-0.0019506
 0,-0.00155617,0.00520325,0.00118685,0.00134070,-0.00952842,-0.00040964
 ,0.00012514,0.00120234,-0.00003616,-0.00020869,-0.00049512,0.03908425,
 -0.27726465,0.21613369,-0.00025193,-0.00091531,0.00011830,0.00054613,0
 .00000568,-0.00037132,0.00272289,0.00224897,-0.00139636,0.00328388,0.0
 0002912,0.00056194,-0.00163810,-0.00094925,-0.00064121,-0.00114125,-0.
 00072562,0.00026428,-0.00043369,0.00012435,0.00013479,0.00005839,0.000
 27385,-0.00011984,-0.00011316,0.00012582,-0.00002070,0.00047288,0.0001
 9966,-0.00006390,-0.00019668,0.00018562,-0.00029201,-0.00038534,-0.000
 04715,0.00028849,-0.00001034,0.00003421,-0.00001256,-0.00011531,0.0000
 9376,-0.00009907,-0.00359735,-0.00178487,0.00078580,0.00069524,0.00014
 769,0.00000801,-0.00010190,0.00000963,0.00005998,-0.00060091,0.0003099
 0,-0.00024276,0.00012884,-0.00041223,0.00015396,-0.00148708,0.00337634
 ,-0.00026914,-0.00261494,-0.00827201,-0.00292675,0.00040615,0.00082308
 ,0.00011022,-0.00013284,-0.00010272,-0.00006992,-0.29496705,0.11111501
 ,-0.10171734,0.28533495,-0.00012238,0.00145360,-0.00067997,-0.00037132
 ,-0.00034521,0.00024361,-0.00082322,-0.00282289,0.00159475,-0.00302484
 ,-0.00024727,0.00021012,0.00085097,0.00044702,0.00036424,-0.00154696,-
 0.00066574,0.00085425,0.00041883,-0.00016710,-0.00017449,0.00046008,0.
 00018295,0.00001689,0.00010146,-0.00013722,0.00006789,-0.00034119,-0.0
 0014312,0.00006772,0.00017168,-0.00028802,0.00051224,0.00027168,0.0003
 6079,-0.00034379,0.00003696,-0.00006939,-0.00002212,0.00013062,-0.0001
 3984,0.00014749,0.00276629,0.00167357,-0.00095662,-0.00026427,-0.00033
 700,-0.00001243,-0.00000447,0.00002127,-0.00001353,0.00085814,0.000094
 68,-0.00013181,-0.00029909,0.00031688,-0.00009445,0.00383165,-0.000529
 83,0.00103998,-0.00561986,0.00385406,-0.00368036,0.00020475,-0.0009373
 7,-0.00001196,0.00001951,0.00021314,0.00008569,0.06302739,-0.08499515,
 0.04917074,-0.08618284,0.10327942,-0.00023676,-0.00035627,0.00040970,0
 .00038225,0.00015311,-0.00020333,-0.00105558,0.00116507,-0.00225639,0.
 00189050,0.00071469,0.00049352,0.00021370,0.00031324,0.00035666,-0.001
 17233,-0.00045720,0.00066814,-0.00014309,0.00002494,-0.00003062,0.0001
 5747,0.00020119,-0.00015206,-0.00005375,-0.00000305,-0.00002010,0.0000
 5823,0.00003833,-0.00006775,-0.00008831,0.00017484,-0.00024266,-0.0001
 2971,-0.00035529,0.00017134,0.00004283,-0.00001381,-0.00004163,-0.0000
 7084,0.00011089,-0.00009265,-0.00161386,-0.00117712,0.00021065,-0.0000
 6283,0.00007772,-0.00012862,0.00001049,0.00002425,0.00001780,-0.000253
 60,0.00010345,-0.00031241,0.00002316,-0.00014972,0.00011775,0.00073881
 ,0.00243505,-0.00137787,-0.00452333,-0.00541810,-0.00056223,0.00023299
 ,0.00016820,-0.00028946,-0.00002030,0.00002687,0.00009151,-0.07287347,
 0.05646364,-0.06332301,0.08940951,-0.05182010,0.08058880,0.00214015,-0
 .00098755,-0.00122872,-0.00006531,-0.00008144,0.00001432,-0.08250723,-
 0.08307584,0.07329882,0.00319716,-0.00136074,-0.00131064,-0.02031034,-
 0.02341060,0.02391006,0.00270402,0.00106933,-0.00114581,-0.00038927,0.
 00042953,0.00053277,-0.00037681,-0.00010633,0.00012539,-0.00010032,0.0
 0018553,-0.00003394,-0.00253132,-0.00034614,-0.00203279,-0.00010787,-0
 .00016039,-0.00042880,-0.00173431,-0.00150828,0.00196274,-0.00018621,0
 .00017351,0.00004623,-0.00066055,0.00063775,-0.00061816,-0.00243698,-0
 .00058180,0.00071067,0.00180319,0.00108071,-0.00051961,0.00011117,0.00
 002801,0.00015001,-0.00051833,0.00020464,0.00037060,0.00022550,-0.0003
 8221,0.00004109,-0.00226291,-0.00293754,-0.00010039,0.00155521,0.00367
 176,0.00162284,0.00024485,0.00176888,0.00120566,-0.00018068,-0.0004258
 3,-0.00037424,-0.00558720,0.00363919,-0.00269709,-0.00680868,0.0025824
 4,0.00271742,0.11017047,0.00031552,-0.00048853,-0.00046899,-0.00032940
 ,-0.00040533,-0.00019274,-0.10087439,-0.15546428,0.16657428,-0.0000028
 3,-0.00060483,0.00094100,-0.00771957,-0.01460092,0.01024060,0.00003410
 ,-0.00204575,-0.00063372,0.00005428,-0.00026777,-0.00001602,-0.0001261
 3,0.00027925,0.00009147,-0.00001019,0.00011982,-0.00003693,-0.00248619
 ,-0.00015060,-0.00153338,-0.00024999,-0.00023620,-0.00008183,0.0008880
 9,0.00364766,-0.00092140,-0.00000329,0.00008283,-0.00026885,-0.0000125
 4,-0.00000801,0.00069913,-0.00034100,0.00020908,-0.00029099,0.00152821
 ,-0.00107153,0.00032430,-0.00023476,-0.00006466,0.00010558,0.00013292,
 0.00023697,-0.00016326,0.00002832,-0.00023402,0.00017490,-0.00082721,-
 0.00037093,0.00197338,0.00148843,0.00219818,-0.00253114,0.00140234,0.0
 0137844,0.00072616,-0.00048494,0.00029957,0.00004989,0.00484751,-0.006
 36423,-0.00180059,-0.00155469,0.00411128,-0.00336918,0.10364966,0.1727
 8951,-0.00217777,-0.00212257,0.00404596,-0.00027206,0.00013334,0.00018
 908,0.10779296,0.19090186,-0.25935610,-0.00103018,0.00150324,0.0005525
 3,-0.00666610,-0.01202921,0.01363922,-0.00223167,-0.00148417,0.0007892
 1,0.00008916,-0.00022481,-0.00021739,0.00031525,0.00014366,-0.00013331
 ,0.00004570,-0.00010263,-0.00006272,-0.00410182,-0.00240195,0.00009275
 ,-0.00011119,0.00084106,-0.00108138,0.00099937,-0.00179512,0.00040521,
 0.00028082,-0.00003004,-0.00029543,-0.00006891,0.00053245,-0.00024511,
 0.00097863,-0.00018016,-0.00042718,-0.00213058,0.00007979,-0.00064931,
 0.00033094,0.00003863,-0.00012521,0.00050325,-0.00026823,-0.00058975,-
 0.00013654,0.00029825,0.00023335,0.00148301,0.00294240,-0.00053979,0.0
 0018008,-0.00491866,-0.00224716,0.00064085,-0.00040915,-0.00238225,0.0
 0011273,0.00041805,0.00077634,0.00119317,-0.00073455,-0.00642022,0.003
 65778,-0.00438757,0.00467729,-0.09386616,-0.17105671,0.24961536,-0.000
 05016,-0.00012753,0.00022004,-0.00003052,0.00005835,-0.00000536,-0.002
 36012,-0.00083923,0.00237839,-0.00002968,0.00012594,-0.00000634,0.0011
 6343,0.00040062,0.00047345,0.00046219,0.00037260,-0.00008492,0.0000020
 1,-0.00000512,-0.00001713,-0.00003009,-0.00004922,-0.00001051,-0.00000
 863,0.00001467,-0.00002253,-0.00027176,-0.00009340,-0.00008731,-0.0000
 2342,-0.00002845,-0.00008815,-0.00002323,-0.00050401,0.00029591,0.0000
 1237,0.00002734,-0.00001826,-0.00007772,0.00008693,-0.00011689,0.00001
 947,-0.00003618,-0.00000096,-0.00013697,0.00023282,-0.00009998,0.00005
 033,-0.00000005,-0.00000607,-0.00008626,-0.00006081,0.00002557,0.00005
 350,-0.00001635,0.00002923,0.00010412,-0.00078866,-0.00036213,-0.00069
 450,0.00090644,0.00130915,-0.00012242,0.00005422,-0.00015458,0.0000635
 2,-0.00009355,0.00004032,-0.07390355,-0.11245264,0.06535885,0.01577604
 ,0.03135770,-0.01953257,0.00262947,-0.00083435,-0.00363217,0.06142539,
 -0.00001367,-0.00015396,0.00007239,-0.00004496,-0.00003474,-0.00001590
 ,0.00182814,0.00160689,-0.00187665,-0.00006206,-0.00004873,0.00001310,
 -0.00033946,-0.00006360,-0.00018818,0.00020118,-0.00011785,-0.00020558
 ,0.00001825,-0.00000391,0.00000305,-0.00008191,-0.00004234,0.00004551,
 -0.00000264,0.00000790,-0.00000561,0.00011262,0.00004314,-0.00000421,-
 0.00011157,0.00001254,-0.00004618,-0.00006796,0.00012798,0.00002096,0.
 00000979,0.00000320,-0.00004035,0.00000018,0.00002737,0.00003916,0.000
 05819,0.00009454,-0.00005635,0.00013889,-0.00009781,-0.00001600,-0.000
 03866,0.00002227,0.00001621,0.00003553,0.00005735,-0.00000900,-0.00000
 242,-0.00003439,0.00001066,-0.00010125,-0.00072295,-0.00078930,0.00005
 242,-0.00064409,0.00210839,0.00015924,0.00010677,0.00001219,-0.0000661
 3,0.00003500,0.00002534,-0.06969944,-0.34815816,0.21454933,-0.01011214
 ,-0.01323235,0.00680870,-0.00339641,-0.00165822,0.00280045,0.08108853,
 0.36249055,0.00002352,-0.00014063,0.00008909,-0.00008033,0.00002594,-0
 .00003514,0.00138931,0.00034335,-0.00067671,0.00010170,-0.00004495,-0.
 00005754,-0.00015096,0.00003984,-0.00057376,0.00086062,0.00019051,-0.0
 0033775,-0.00000662,0.00001828,0.00002126,-0.00016323,-0.00012479,0.00
 003175,-0.00000810,0.00002172,-0.00001691,0.00016100,0.00004545,0.0000
 3704,-0.00001907,0.00004339,0.00006618,0.00008449,0.00020320,0.0000319
 9,0.00000370,0.00001764,-0.00004667,0.00003570,-0.00000304,0.00007583,
 -0.00008199,-0.00004797,0.00003244,-0.00001095,-0.00010659,-0.00000388
 ,-0.00001034,0.00000603,0.00000331,-0.00010688,-0.00006844,0.00009535,
 0.00005451,-0.00001845,0.00000351,-0.00050785,-0.00394961,-0.00062950,
 0.00089017,0.00429843,0.00271830,-0.00007731,0.00005436,-0.00001374,-0
 .00000975,-0.00000498,0.00002920,0.03754491,0.20965733,-0.13658920,0.0
 0855740,0.01201208,-0.00745077,-0.00204444,0.00076555,0.00054450,-0.04
 575061,-0.22299676,0.14255311,0.00053821,-0.00003210,0.00000302,-0.000
 08036,0.00070543,0.00006625,-0.00223754,-0.00049481,0.00114062,0.00101
 959,0.00038846,-0.00033701,0.00120529,0.00061378,0.00012394,0.00251045
 ,0.00237836,-0.00247314,-0.00009029,0.00031566,-0.00015986,-0.00079040
 ,-0.00061147,0.00018245,0.00004213,-0.00012174,-0.00008301,-0.00025375
 ,-0.00012461,0.00005599,0.00007499,-0.00015594,0.00016818,0.00045132,-
 0.00011043,-0.00010636,-0.00004345,0.00003786,0.00005775,0.00004808,-0
 .00005302,0.00002027,-0.00043619,-0.00398913,0.00239839,-0.00077861,0.
 00011792,0.00007106,0.00018187,-0.00005773,-0.00008294,-0.00026282,-0.
 00068592,0.00042135,0.00016607,0.00027707,-0.00013910,-0.00825175,-0.0
 0641340,-0.00355092,0.00133456,0.00099730,0.00250082,-0.00114924,-0.00
 030913,0.00001913,0.00023972,-0.00012596,-0.00002734,-0.01308046,0.016
 58290,-0.00948670,-0.00445158,-0.01084635,0.00614133,0.00246467,-0.000
 00531,-0.00176847,-0.00434764,0.00063422,-0.00064881,0.16244114,0.0001
 0603,-0.00105411,0.00018251,0.00076854,0.00008417,-0.00050641,0.001371
 54,0.00223265,-0.00083245,0.00467974,0.00004576,0.00101718,-0.00093890
 ,-0.00073735,-0.00039975,0.00074970,0.00052300,-0.00077571,-0.00107652
 ,0.00056756,0.00005499,-0.00035865,0.00000558,-0.00006355,-0.00013055,
 0.00013479,-0.00005776,0.00034420,0.00012729,-0.00006887,-0.00011992,0
 .00020448,-0.00024893,-0.00010436,-0.00017998,0.00022540,-0.00005921,0
 .00007606,0.00004739,-0.00008656,0.00008223,-0.00010920,-0.00795331,-0
 .00593659,0.00475379,0.00022650,0.00031883,0.00007558,0.00002983,-0.00
 005125,-0.00000249,-0.00115901,-0.00011497,0.00003453,0.00031027,-0.00
 034186,0.00012936,-0.00543293,0.00135342,-0.00178779,-0.00106209,-0.00
 439813,-0.00032346,-0.00037240,0.00076994,0.00009827,0.00005742,-0.000
 23586,-0.00011919,0.02105584,-0.00762876,0.00993632,-0.00751945,-0.000
 82564,-0.01030112,-0.00246935,-0.00180325,0.00207674,0.00179072,0.0004
 1894,-0.00032412,0.18400937,0.38431506,0.00006750,-0.00031100,-0.00013
 017,-0.00020980,-0.00028057,0.00068387,0.00072662,-0.00049766,0.001003
 51,-0.00543052,-0.00090524,-0.00176857,-0.00043038,-0.00031426,-0.0003
 4064,0.00178749,0.00282032,-0.00263959,0.00056973,-0.00016246,0.000122
 91,-0.00035672,-0.00047044,0.00040072,0.00010495,0.00009953,0.00004734
 ,-0.00011991,-0.00001597,0.00007341,0.00008518,-0.00021162,0.00016141,
 -0.00001535,0.00013139,-0.00000485,-0.00004471,0.00004435,0.00003876,0
 .00004292,-0.00006436,0.00003413,0.00741990,0.00627380,-0.00238199,0.0
 0011446,0.00004276,0.00011512,-0.00001117,-0.00001048,-0.00001997,0.00
 048926,-0.00007060,0.00057191,-0.00002921,0.00024713,-0.00020464,-0.00
 688413,-0.00424158,0.00209015,0.00171001,0.00046515,-0.00021504,-0.000
 52338,0.00000816,0.00041772,-0.00001561,-0.00011251,-0.00014676,-0.011
 63443,0.00779285,0.00379229,0.00449905,-0.00680952,-0.01314144,0.00008
 137,0.00090047,-0.00163569,-0.00004824,-0.00058117,-0.00015033,0.06137
 970,0.01602142,0.58865800,-0.00018295,-0.00001182,-0.00015355,-0.00016
 056,-0.00080726,0.00055313,0.00156528,-0.00024950,0.00017996,-0.005028
 39,-0.00125095,-0.00037920,-0.00072944,-0.00048421,-0.00017101,-0.0000
 8816,0.00044798,-0.00068417,0.00034235,-0.00010785,0.00000487,0.000074
 26,-0.00008792,0.00023172,0.00008720,0.00006090,0.00007410,0.00000247,
 0.00003506,0.00001520,0.00003922,-0.00007974,0.00005911,-0.00019916,0.
 00019809,0.00003086,0.00000404,-0.00000530,-0.00001737,0.00001487,-0.0
 0002470,0.00002954,0.00181061,0.00217842,-0.00046741,0.00043487,-0.000
 08980,0.00001808,-0.00010105,0.00002975,0.00003415,0.00056193,0.000281
 93,0.00011298,-0.00013835,0.00005533,-0.00007142,-0.00067478,-0.000341
 26,0.00131934,0.00032113,0.00033683,-0.00061784,0.00028788,0.00005558,
 0.00022158,-0.00013617,0.00002818,-0.00004253,-0.00354974,0.00124213,0
 .00088001,0.00327537,-0.00122468,-0.00480592,-0.00053645,0.00083844,-0
 .00054550,0.00013302,0.00005383,0.00007040,-0.02103193,-0.02241308,0.0
 4539221,0.02045566,-0.00016529,0.00003448,0.00010426,-0.00023640,-0.00
 019035,0.00045419,-0.00056285,-0.00109367,0.00003762,-0.00468473,-0.00
 009652,-0.00076361,0.00023752,0.00041782,0.00000739,0.00037329,0.00122
 035,-0.00095845,0.00099852,-0.00027764,-0.00008267,-0.00000397,-0.0002
 3161,0.00023218,0.00009160,-0.00003133,0.00003403,-0.00017137,-0.00003
 364,0.00005653,0.00008734,-0.00012372,0.00006057,-0.00004989,0.0000175
 6,-0.00000472,0.00003057,-0.00002422,-0.00003121,0.00002994,-0.0000247
 6,0.00003268,0.00383491,0.00066037,0.00003140,-0.00003103,-0.00012009,
 -0.00004468,-0.00003261,0.00004105,0.00000809,0.00086557,0.00008706,0.
 00025134,-0.00016390,0.00026281,-0.00013629,-0.00139817,-0.00141046,0.
 00059982,0.00044822,0.00043870,0.00023104,0.00003804,-0.00024875,0.000
 05077,-0.00007638,0.00007117,0.00003268,0.00166707,-0.00108581,-0.0014
 0499,-0.00233132,0.00021540,0.00590858,0.00096032,0.00017061,0.0001011
 8,-0.00014750,0.00008113,0.00014715,-0.01862122,-0.07320305,0.13316745
 ,0.01894920,0.06654615,-0.00009598,0.00001679,0.00003007,-0.00051407,0
 .00052077,-0.00041773,0.00011769,0.00014321,-0.00050515,0.00253178,-0.
 00011346,-0.00033403,-0.00003710,0.00000266,0.00004438,-0.00101166,-0.
 00104216,0.00045646,0.00017582,-0.00054625,0.00030794,0.00008364,0.000
 20105,-0.00013225,-0.00002467,-0.00003573,0.00006317,0.00007315,0.0000
 2250,-0.00001763,-0.00003203,0.00007591,-0.00006593,-0.00002800,-0.000
 01812,0.00003191,0.00001923,-0.00002003,-0.00001760,-0.00001634,0.0000
 2148,-0.00001582,-0.00103421,0.00195339,-0.00196962,0.00003783,-0.0000
 2448,-0.00004226,-0.00000942,0.00000917,0.00001745,-0.00010674,0.00004
 860,-0.00027358,-0.00001024,-0.00009973,0.00006356,0.00137171,0.000809
 55,0.00062605,-0.00044084,-0.00021922,-0.00044571,0.00021668,0.0000441
 9,-0.00011585,-0.00001727,0.00003883,0.00004741,0.00306510,-0.00164385
 ,0.00081321,-0.00403109,0.00389095,-0.00190741,-0.00058340,-0.00008297
 ,0.00059738,0.00010447,0.00008550,0.00006915,0.01299148,0.08280223,-0.
 45420931,-0.01628229,-0.09660775,0.48427105,-0.00042677,0.00114359,-0.
 00021492,-0.00003638,-0.00061513,-0.00055089,0.00020793,-0.00082995,-0
 .00057053,0.00038008,0.00038429,0.00213481,-0.00002538,0.00018146,0.00
 050247,-0.00480689,-0.00521575,0.00419638,-0.00003873,-0.00026101,-0.0
 0007976,0.00116758,0.00095178,-0.00034225,-0.00004906,-0.00008482,0.00
 007530,0.00004282,0.00000232,-0.00006367,-0.00008233,0.00014289,-0.000
 02968,-0.00022369,0.00012384,-0.00015673,0.00008688,-0.00010122,-0.000
 07425,0.00000058,0.00001523,0.00004238,-0.00260888,-0.00089192,0.00009
 420,0.00033211,-0.00028822,-0.00013420,-0.00013539,0.00006001,0.000061
 65,0.00046080,0.00074625,-0.00079314,-0.00029075,-0.00019512,0.0001800
 6,0.00511662,0.00363303,-0.00056713,-0.00250276,0.00339392,-0.00268752
 ,0.00148704,-0.00030376,-0.00033158,-0.00015812,0.00030880,0.00017247,
 -0.00420705,-0.00126264,-0.00189116,0.00634739,0.00358130,0.00461758,0
 .00005490,0.00088896,0.00013541,0.00030181,-0.00025034,-0.00010019,-0.
 11543208,-0.16424343,-0.09871680,0.00314695,0.00006452,0.00348677,0.11
 189077,0.00011000,0.00055416,-0.00009211,-0.00089690,0.00017115,0.0001
 7892,-0.00093082,-0.00076370,0.00031595,-0.00162779,0.00012537,0.00048
 189,0.00059847,0.00044476,0.00025208,-0.00086610,-0.00127300,-0.000015
 56,0.00050782,-0.00006104,-0.00022984,-0.00009210,-0.00011092,0.000060
 89,0.00007870,-0.00029738,-0.00004074,-0.00014193,-0.00004713,0.000021
 72,0.00003944,-0.00003446,0.00007303,0.00002585,0.00002469,-0.00010332
 ,0.00003325,-0.00004278,-0.00002447,0.00002927,-0.00002372,0.00003682,
 0.00069946,-0.00154596,-0.00059007,-0.00012304,-0.00013642,-0.00005300
 ,-0.00001408,0.00002663,0.00000388,0.00066357,0.00002507,-0.00011951,-
 0.00013686,0.00013689,-0.00009026,0.00007921,-0.00443642,-0.00022028,0
 .00449327,0.00204494,0.00191777,0.00027834,-0.00035719,-0.00010236,-0.
 00002621,0.00013213,0.00007593,-0.00230446,0.00223098,-0.00006755,0.00
 180692,-0.01034093,-0.00149181,0.00114916,0.00031586,-0.00066558,-0.00
 043983,-0.00012248,-0.00005992,-0.16430008,-0.29474897,-0.15295531,0.0
 0238641,0.00793097,0.00976696,0.15892107,0.30017890,0.00017810,0.00084
 678,-0.00011472,0.00046016,-0.00001642,-0.00044822,-0.00087164,0.00019
 177,-0.00030506,0.00555350,0.00160570,0.00150056,0.00065258,0.00030292
 ,0.00045673,-0.00139270,-0.00394270,0.00277151,-0.00095136,0.00041617,
 -0.00018600,0.00031269,0.00042182,-0.00033177,-0.00008383,-0.00011970,
 -0.00006431,0.00006722,-0.00002147,-0.00007076,-0.00008989,0.00017175,
 -0.00005770,0.00008704,-0.00005405,-0.00010994,0.00004063,-0.00005270,
 -0.00002872,-0.00001783,0.00003741,-0.00000370,-0.00455729,-0.00360043
 ,0.00154475,-0.00017331,-0.00008494,-0.00009453,0.00001791,0.00000079,
 0.00000996,-0.00057921,0.00004503,-0.00060056,0.00001139,-0.00025079,0
 .00021765,0.00285132,0.00334892,-0.00546010,-0.00173083,0.00106962,0.0
 0066755,0.00063853,-0.00020921,-0.00044166,0.00005182,0.00016222,0.000
 15969,-0.00188076,0.00008272,-0.00233914,0.00366444,-0.00113993,0.0037
 9725,0.00019422,-0.00011799,0.00024983,-0.00019067,0.00022032,0.000179
 91,-0.06887807,-0.10153491,-0.12122225,-0.02498905,-0.04151457,-0.0269
 6932,0.09160491,0.14373585,0.14729305\\-0.00000115,-0.00000397,0.00000
 502,0.00000846,-0.00001184,0.00001316,0.00001803,-0.00000824,-0.000004
 17,-0.00002074,0.00000136,0.00000563,-0.00001249,-0.00000414,-0.000002
 42,0.00002138,0.00001629,-0.00001193,-0.00000089,0.00000512,0.00000295
 ,-0.00000630,-0.00000369,0.00000165,-0.00000051,-0.00000121,-0.0000019
 8,-0.00000068,0.00000519,0.00000315,0.00000115,0.00000002,-0.00000034,
 -0.00001577,-0.00000716,-0.00000238,0.00000095,0.00000570,-0.00000352,
 0.00000045,-0.00000331,-0.00000650,0.00001364,0.00001752,-0.00001876,0
 .00001098,0.00000228,-0.00000802,0.00000331,-0.00000319,0.00000022,-0.
 00000633,0.00001278,0.00001231,0.00000827,-0.00000184,-0.00000031,-0.0
 0000962,-0.00001220,0.00001943,-0.00000054,0.00000089,-0.00000127,-0.0
 0000558,0.00000134,0.00000925,0.00000237,-0.00000182,-0.00000338,0.000
 01551,-0.00001282,-0.00000295,-0.00002885,0.00000383,-0.00001462,-0.00
 000293,0.00001315,-0.00000425,-0.00000789,0.00000006,-0.00000172,0.000
 03951,-0.00002633,0.00001549,-0.00000782,0.00000775,0.00000257,-0.0000
 1591,0.00000849,-0.00000233\\\@


 A great many people think they are thinking when they
 are merely rearranging their prejudices.
                               -- William James
 Job cpu time:       0 days  0 hours 31 minutes 25.3 seconds.
 File lengths (MBytes):  RWF=    220 Int=      0 D2E=      0 Chk=      6 Scr=      1
 Normal termination of Gaussian 09 at Mon Jan 16 00:25:53 2017.
