 Entering Gaussian System, Link 0=g09
 Initial command:
 /global/software/gaussian/g09.e01/l1.exe "/scratch/10462931.yak.local/Gau-7803.inp" -scrdir="/scratch/10462931.yak.local/"
 Entering Link 1 = /global/software/gaussian/g09.e01/l1.exe PID=      7804.
  
 Copyright (c) 1988,1990,1992,1993,1995,1998,2003,2009,2015,
            Gaussian, Inc.  All Rights Reserved.
  
 This is part of the Gaussian(R) 09 program.  It is based on
 the Gaussian(R) 03 system (copyright 2003, Gaussian, Inc.),
 the Gaussian(R) 98 system (copyright 1998, Gaussian, Inc.),
 the Gaussian(R) 94 system (copyright 1995, Gaussian, Inc.),
 the Gaussian 92(TM) system (copyright 1992, Gaussian, Inc.),
 the Gaussian 90(TM) system (copyright 1990, Gaussian, Inc.),
 the Gaussian 88(TM) system (copyright 1988, Gaussian, Inc.),
 the Gaussian 86(TM) system (copyright 1986, Carnegie Mellon
 University), and the Gaussian 82(TM) system (copyright 1983,
 Carnegie Mellon University). Gaussian is a federally registered
 trademark of Gaussian, Inc.
  
 This software contains proprietary and confidential information,
 including trade secrets, belonging to Gaussian, Inc.
  
 This software is provided under written license and may be
 used, copied, transmitted, or stored only in accord with that
 written license.
  
 The following legend is applicable only to US Government
 contracts under FAR:
  
                    RESTRICTED RIGHTS LEGEND
  
 Use, reproduction and disclosure by the US Government is
 subject to restrictions as set forth in subparagraphs (a)
 and (c) of the Commercial Computer Software - Restricted
 Rights clause in FAR 52.227-19.
  
 Gaussian, Inc.
 340 Quinnipiac St., Bldg. 40, Wallingford CT 06492
  
  
 ---------------------------------------------------------------
 Warning -- This program may not be used in any manner that
 competes with the business of Gaussian, Inc. or will provide
 assistance to any competitor of Gaussian, Inc.  The licensee
 of this program is prohibited from giving any competitor of
 Gaussian, Inc. access to this program.  By using this program,
 the user acknowledges that Gaussian, Inc. is engaged in the
 business of creating and licensing software in the field of
 computational chemistry and represents and warrants to the
 licensee that it is not a competitor of Gaussian, Inc. and that
 it will not use this program in any manner prohibited above.
 ---------------------------------------------------------------
  

 Cite this work as:
 Gaussian 09, Revision E.01,
 M. J. Frisch, G. W. Trucks, H. B. Schlegel, G. E. Scuseria, 
 M. A. Robb, J. R. Cheeseman, G. Scalmani, V. Barone, B. Mennucci, 
 G. A. Petersson, H. Nakatsuji, M. Caricato, X. Li, H. P. Hratchian, 
 A. F. Izmaylov, J. Bloino, G. Zheng, J. L. Sonnenberg, M. Hada, 
 M. Ehara, K. Toyota, R. Fukuda, J. Hasegawa, M. Ishida, T. Nakajima, 
 Y. Honda, O. Kitao, H. Nakai, T. Vreven, J. A. Montgomery, Jr., 
 J. E. Peralta, F. Ogliaro, M. Bearpark, J. J. Heyd, E. Brothers, 
 K. N. Kudin, V. N. Staroverov, T. Keith, R. Kobayashi, J. Normand, 
 K. Raghavachari, A. Rendell, J. C. Burant, S. S. Iyengar, J. Tomasi, 
 M. Cossi, N. Rega, J. M. Millam, M. Klene, J. E. Knox, J. B. Cross, 
 V. Bakken, C. Adamo, J. Jaramillo, R. Gomperts, R. E. Stratmann, 
 O. Yazyev, A. J. Austin, R. Cammi, C. Pomelli, J. W. Ochterski, 
 R. L. Martin, K. Morokuma, V. G. Zakrzewski, G. A. Voth, 
 P. Salvador, J. J. Dannenberg, S. Dapprich, A. D. Daniels, 
 O. Farkas, J. B. Foresman, J. V. Ortiz, J. Cioslowski, 
 and D. J. Fox, Gaussian, Inc., Wallingford CT, 2013.
 
 ******************************************
 Gaussian 09:  ES64L-G09RevE.01 30-Nov-2015
                15-Jan-2017 
 ******************************************
 %NPROCS=4
 Will use up to    4 processors via shared memory.
 -----------------------------------------
 # opt=(MaxCycle=1000) freq B3LYP/6-31G(d)
 -----------------------------------------
 1/6=1000,14=-1,18=20,19=15,26=3,38=1/1,3;
 2/9=110,12=2,17=6,18=5,40=1/2;
 3/5=1,6=6,7=1,11=2,16=1,25=1,30=1,71=1,74=-5/1,2,3;
 4//1;
 5/5=2,38=5/2;
 6/7=2,8=2,9=2,10=2,28=1/1;
 7//1,2,3,16;
 1/6=1000,14=-1,18=20,19=15,26=3/3(2);
 2/9=110/2;
 99//99;
 2/9=110/2;
 3/5=1,6=6,7=1,11=2,16=1,25=1,30=1,71=1,74=-5/1,2,3;
 4/5=5,16=3,69=1/1;
 5/5=2,38=5/2;
 7//1,2,3,16;
 1/6=1000,14=-1,18=20,19=15,26=3/3(-5);
 2/9=110/2;
 6/7=2,8=2,9=2,10=2,19=2,28=1/1;
 99/9=1/99;
 -------------------------------------------------
 ./boats/3/glo_2w_alpha_ts_boat3_B3LYP_631Gd_r.out
 -------------------------------------------------
 Symbolic Z-matrix:
 Charge =  0 Multiplicity = 1
 C                     1.02123   0.22806   1.09019 
 C                     0.47402  -1.50664  -0.75604 
 O                    -0.50685   0.73314  -0.8036 
 C                    -0.93456  -0.94403  -0.62893 
 C                     0.52576   1.26629   0.06743 
 C                     1.34997  -1.15258   0.45627 
 H                     1.16438  -1.89955   1.23887 
 H                     0.94191  -1.07125  -1.65048 
 H                     0.0749    2.08941   0.63627 
 H                     1.94474   0.64341   1.51112 
 C                     1.62819   1.81407  -0.84532 
 H                     1.16461   2.41601  -1.64134 
 H                     2.17805   0.99485  -1.31426 
 O                     2.588     2.55383  -0.10671 
 H                     2.14916   3.34549   0.2428 
 O                     0.31176  -2.90664  -0.91266 
 H                     1.20263  -3.2738   -1.0314 
 O                     2.69335  -1.2548   -0.03025 
 H                     3.29505  -1.15842   0.72483 
 O                     0.11747   0.08776   2.16947 
 H                    -0.64018  -0.42346   1.80383 
 H                    -1.49546  -0.97721  -1.5772 
 O                    -1.57138  -1.13287   0.45638 
 O                    -2.64703   1.92262  -0.54896 
 H                    -1.40289   1.27406  -0.70757 
 H                    -3.0333    2.13433  -1.41258 
 O                    -3.85308  -0.07588   0.34299 
 H                    -3.00697  -0.63945   0.41198 
 H                    -3.24617   1.1944   -0.14324 
 H                    -4.17134   0.01694   1.25371 
 
 Add virtual bond connecting atoms H25        and O24        Dist= 2.67D+00.
 Add virtual bond connecting atoms O23        and H28        Dist= 2.87D+00.
 Add virtual bond connecting atoms H29        and O27        Dist= 2.81D+00.

 GradGradGradGradGradGradGradGradGradGradGradGradGradGradGradGradGradGrad
 Berny optimization.
 Initialization pass.
                           ----------------------------
                           !    Initial Parameters    !
                           ! (Angstroms and Degrees)  !
 --------------------------                            --------------------------
 ! Name  Definition              Value          Derivative Info.                !
 --------------------------------------------------------------------------------
 ! R1    R(1,5)                  1.5393         estimate D2E/DX2                !
 ! R2    R(1,6)                  1.5544         estimate D2E/DX2                !
 ! R3    R(1,10)                 1.0966         estimate D2E/DX2                !
 ! R4    R(1,20)                 1.4147         estimate D2E/DX2                !
 ! R5    R(2,4)                  1.5221         estimate D2E/DX2                !
 ! R6    R(2,6)                  1.537          estimate D2E/DX2                !
 ! R7    R(2,8)                  1.0993         estimate D2E/DX2                !
 ! R8    R(2,16)                 1.418          estimate D2E/DX2                !
 ! R9    R(3,5)                  1.4523         estimate D2E/DX2                !
 ! R10   R(3,25)                 1.051          estimate D2E/DX2                !
 ! R11   R(4,22)                 1.1022         estimate D2E/DX2                !
 ! R12   R(4,23)                 1.2724         estimate D2E/DX2                !
 ! R13   R(5,9)                  1.0974         estimate D2E/DX2                !
 ! R14   R(5,11)                 1.5325         estimate D2E/DX2                !
 ! R15   R(6,7)                  1.0977         estimate D2E/DX2                !
 ! R16   R(6,18)                 1.4324         estimate D2E/DX2                !
 ! R17   R(11,12)                1.1004         estimate D2E/DX2                !
 ! R18   R(11,13)                1.0924         estimate D2E/DX2                !
 ! R19   R(11,14)                1.4192         estimate D2E/DX2                !
 ! R20   R(14,15)                0.9703         estimate D2E/DX2                !
 ! R21   R(16,17)                0.9709         estimate D2E/DX2                !
 ! R22   R(18,19)                0.9703         estimate D2E/DX2                !
 ! R23   R(20,21)                0.9844         estimate D2E/DX2                !
 ! R24   R(23,28)                1.5187         estimate D2E/DX2                !
 ! R25   R(24,25)                1.412          estimate D2E/DX2                !
 ! R26   R(24,26)                0.9695         estimate D2E/DX2                !
 ! R27   R(24,29)                1.0266         estimate D2E/DX2                !
 ! R28   R(27,28)                1.019          estimate D2E/DX2                !
 ! R29   R(27,29)                1.4894         estimate D2E/DX2                !
 ! R30   R(27,30)                0.9692         estimate D2E/DX2                !
 ! A1    A(5,1,6)              113.3404         estimate D2E/DX2                !
 ! A2    A(5,1,10)             105.7026         estimate D2E/DX2                !
 ! A3    A(5,1,20)             111.6025         estimate D2E/DX2                !
 ! A4    A(6,1,10)             108.3521         estimate D2E/DX2                !
 ! A5    A(6,1,20)             110.9873         estimate D2E/DX2                !
 ! A6    A(10,1,20)            106.4227         estimate D2E/DX2                !
 ! A7    A(4,2,6)              112.1104         estimate D2E/DX2                !
 ! A8    A(4,2,8)              108.3866         estimate D2E/DX2                !
 ! A9    A(4,2,16)             105.5605         estimate D2E/DX2                !
 ! A10   A(6,2,8)              107.9361         estimate D2E/DX2                !
 ! A11   A(6,2,16)             112.3186         estimate D2E/DX2                !
 ! A12   A(8,2,16)             110.4782         estimate D2E/DX2                !
 ! A13   A(5,3,25)             111.2491         estimate D2E/DX2                !
 ! A14   A(2,4,22)             112.8271         estimate D2E/DX2                !
 ! A15   A(2,4,23)             118.654          estimate D2E/DX2                !
 ! A16   A(22,4,23)            118.3365         estimate D2E/DX2                !
 ! A17   A(1,5,3)              112.3181         estimate D2E/DX2                !
 ! A18   A(1,5,9)              107.0811         estimate D2E/DX2                !
 ! A19   A(1,5,11)             113.9082         estimate D2E/DX2                !
 ! A20   A(3,5,9)              107.1041         estimate D2E/DX2                !
 ! A21   A(3,5,11)             106.5879         estimate D2E/DX2                !
 ! A22   A(9,5,11)             109.6431         estimate D2E/DX2                !
 ! A23   A(1,6,2)              113.9385         estimate D2E/DX2                !
 ! A24   A(1,6,7)              106.136          estimate D2E/DX2                !
 ! A25   A(1,6,18)             113.5939         estimate D2E/DX2                !
 ! A26   A(2,6,7)              108.0132         estimate D2E/DX2                !
 ! A27   A(2,6,18)             104.4863         estimate D2E/DX2                !
 ! A28   A(7,6,18)             110.6197         estimate D2E/DX2                !
 ! A29   A(5,11,12)            108.8638         estimate D2E/DX2                !
 ! A30   A(5,11,13)            110.4696         estimate D2E/DX2                !
 ! A31   A(5,11,14)            111.2764         estimate D2E/DX2                !
 ! A32   A(12,11,13)           108.164          estimate D2E/DX2                !
 ! A33   A(12,11,14)           112.103          estimate D2E/DX2                !
 ! A34   A(13,11,14)           105.8964         estimate D2E/DX2                !
 ! A35   A(11,14,15)           107.8719         estimate D2E/DX2                !
 ! A36   A(2,16,17)            106.3724         estimate D2E/DX2                !
 ! A37   A(6,18,19)            108.0696         estimate D2E/DX2                !
 ! A38   A(1,20,21)            105.0593         estimate D2E/DX2                !
 ! A39   A(4,23,28)            113.5744         estimate D2E/DX2                !
 ! A40   A(25,24,26)           110.5678         estimate D2E/DX2                !
 ! A41   A(25,24,29)           103.4629         estimate D2E/DX2                !
 ! A42   A(26,24,29)           105.9284         estimate D2E/DX2                !
 ! A43   A(28,27,29)            98.9431         estimate D2E/DX2                !
 ! A44   A(28,27,30)           105.1902         estimate D2E/DX2                !
 ! A45   A(29,27,30)           111.0321         estimate D2E/DX2                !
 ! A46   L(3,25,24,9,-1)       181.6764         estimate D2E/DX2                !
 ! A47   L(23,28,27,25,-1)     165.787          estimate D2E/DX2                !
 ! A48   L(24,29,27,1,-1)      169.6192         estimate D2E/DX2                !
 ! A49   L(3,25,24,9,-2)       183.5949         estimate D2E/DX2                !
 ! A50   L(23,28,27,25,-2)     184.3822         estimate D2E/DX2                !
 ! A51   L(24,29,27,1,-2)      189.0376         estimate D2E/DX2                !
 ! D1    D(6,1,5,3)             47.7821         estimate D2E/DX2                !
 ! D2    D(6,1,5,9)            165.0875         estimate D2E/DX2                !
 ! D3    D(6,1,5,11)           -73.5198         estimate D2E/DX2                !
 ! D4    D(10,1,5,3)           166.3059         estimate D2E/DX2                !
 ! D5    D(10,1,5,9)           -76.3887         estimate D2E/DX2                !
 ! D6    D(10,1,5,11)           45.0039         estimate D2E/DX2                !
 ! D7    D(20,1,5,3)           -78.4046         estimate D2E/DX2                !
 ! D8    D(20,1,5,9)            38.9008         estimate D2E/DX2                !
 ! D9    D(20,1,5,11)          160.2935         estimate D2E/DX2                !
 ! D10   D(5,1,6,2)            -31.8412         estimate D2E/DX2                !
 ! D11   D(5,1,6,7)           -150.5694         estimate D2E/DX2                !
 ! D12   D(5,1,6,18)            87.6674         estimate D2E/DX2                !
 ! D13   D(10,1,6,2)          -148.8227         estimate D2E/DX2                !
 ! D14   D(10,1,6,7)            92.4491         estimate D2E/DX2                !
 ! D15   D(10,1,6,18)          -29.3141         estimate D2E/DX2                !
 ! D16   D(20,1,6,2)            94.6713         estimate D2E/DX2                !
 ! D17   D(20,1,6,7)           -24.0569         estimate D2E/DX2                !
 ! D18   D(20,1,6,18)         -145.8201         estimate D2E/DX2                !
 ! D19   D(5,1,20,21)           74.5016         estimate D2E/DX2                !
 ! D20   D(6,1,20,21)          -52.9653         estimate D2E/DX2                !
 ! D21   D(10,1,20,21)        -170.6522         estimate D2E/DX2                !
 ! D22   D(6,2,4,22)           166.2711         estimate D2E/DX2                !
 ! D23   D(6,2,4,23)           -48.9571         estimate D2E/DX2                !
 ! D24   D(8,2,4,22)            47.2374         estimate D2E/DX2                !
 ! D25   D(8,2,4,23)          -167.9908         estimate D2E/DX2                !
 ! D26   D(16,2,4,22)          -71.1388         estimate D2E/DX2                !
 ! D27   D(16,2,4,23)           73.633          estimate D2E/DX2                !
 ! D28   D(4,2,6,1)            -32.9186         estimate D2E/DX2                !
 ! D29   D(4,2,6,7)             84.7337         estimate D2E/DX2                !
 ! D30   D(4,2,6,18)          -157.4597         estimate D2E/DX2                !
 ! D31   D(8,2,6,1)             86.38           estimate D2E/DX2                !
 ! D32   D(8,2,6,7)           -155.9677         estimate D2E/DX2                !
 ! D33   D(8,2,6,18)           -38.1612         estimate D2E/DX2                !
 ! D34   D(16,2,6,1)          -151.5892         estimate D2E/DX2                !
 ! D35   D(16,2,6,7)           -33.9369         estimate D2E/DX2                !
 ! D36   D(16,2,6,18)           83.8697         estimate D2E/DX2                !
 ! D37   D(4,2,16,17)          177.7396         estimate D2E/DX2                !
 ! D38   D(6,2,16,17)          -59.8036         estimate D2E/DX2                !
 ! D39   D(8,2,16,17)           60.7706         estimate D2E/DX2                !
 ! D40   D(25,3,5,1)           119.3952         estimate D2E/DX2                !
 ! D41   D(25,3,5,9)             2.1035         estimate D2E/DX2                !
 ! D42   D(25,3,5,11)         -115.1967         estimate D2E/DX2                !
 ! D43   D(5,3,24,26)          134.118          estimate D2E/DX2                !
 ! D44   D(5,3,24,29)         -113.4543         estimate D2E/DX2                !
 ! D45   D(2,4,23,28)         -174.5573         estimate D2E/DX2                !
 ! D46   D(22,4,23,28)         -31.7168         estimate D2E/DX2                !
 ! D47   D(1,5,11,12)          170.883          estimate D2E/DX2                !
 ! D48   D(1,5,11,13)           52.2516         estimate D2E/DX2                !
 ! D49   D(1,5,11,14)          -65.0775         estimate D2E/DX2                !
 ! D50   D(3,5,11,12)           46.4471         estimate D2E/DX2                !
 ! D51   D(3,5,11,13)          -72.1844         estimate D2E/DX2                !
 ! D52   D(3,5,11,14)          170.4865         estimate D2E/DX2                !
 ! D53   D(9,5,11,12)          -69.1581         estimate D2E/DX2                !
 ! D54   D(9,5,11,13)          172.2105         estimate D2E/DX2                !
 ! D55   D(9,5,11,14)           54.8814         estimate D2E/DX2                !
 ! D56   D(1,6,18,19)           62.773          estimate D2E/DX2                !
 ! D57   D(2,6,18,19)         -172.4663         estimate D2E/DX2                !
 ! D58   D(7,6,18,19)          -56.4603         estimate D2E/DX2                !
 ! D59   D(5,11,14,15)         -66.0782         estimate D2E/DX2                !
 ! D60   D(12,11,14,15)         56.1056         estimate D2E/DX2                !
 ! D61   D(13,11,14,15)        173.8483         estimate D2E/DX2                !
 ! D62   D(4,23,27,29)         -49.2967         estimate D2E/DX2                !
 ! D63   D(4,23,27,30)        -161.4292         estimate D2E/DX2                !
 ! D64   D(25,24,27,28)          7.4931         estimate D2E/DX2                !
 ! D65   D(25,24,27,30)        116.1081         estimate D2E/DX2                !
 ! D66   D(26,24,27,28)        121.1407         estimate D2E/DX2                !
 ! D67   D(26,24,27,30)       -130.2443         estimate D2E/DX2                !
 --------------------------------------------------------------------------------
 Trust Radius=3.00D-01 FncErr=1.00D-07 GrdErr=1.00D-06
 Number of steps in this run=    180 maximum allowed number of steps=    180.
 GradGradGradGradGradGradGradGradGradGradGradGradGradGradGradGradGradGrad

                          Input orientation:                          
 ---------------------------------------------------------------------
 Center     Atomic      Atomic             Coordinates (Angstroms)
 Number     Number       Type             X           Y           Z
 ---------------------------------------------------------------------
      1          6           0        1.021230    0.228060    1.090190
      2          6           0        0.474020   -1.506640   -0.756040
      3          8           0       -0.506850    0.733140   -0.803600
      4          6           0       -0.934560   -0.944030   -0.628930
      5          6           0        0.525760    1.266290    0.067430
      6          6           0        1.349970   -1.152580    0.456270
      7          1           0        1.164380   -1.899550    1.238870
      8          1           0        0.941910   -1.071250   -1.650480
      9          1           0        0.074900    2.089410    0.636270
     10          1           0        1.944740    0.643410    1.511120
     11          6           0        1.628190    1.814070   -0.845320
     12          1           0        1.164610    2.416010   -1.641340
     13          1           0        2.178050    0.994850   -1.314260
     14          8           0        2.588000    2.553830   -0.106710
     15          1           0        2.149160    3.345490    0.242800
     16          8           0        0.311760   -2.906640   -0.912660
     17          1           0        1.202630   -3.273800   -1.031400
     18          8           0        2.693350   -1.254800   -0.030250
     19          1           0        3.295050   -1.158420    0.724830
     20          8           0        0.117470    0.087760    2.169470
     21          1           0       -0.640180   -0.423460    1.803830
     22          1           0       -1.495460   -0.977210   -1.577200
     23          8           0       -1.571380   -1.132870    0.456380
     24          8           0       -2.647030    1.922620   -0.548960
     25          1           0       -1.402890    1.274060   -0.707570
     26          1           0       -3.033300    2.134330   -1.412580
     27          8           0       -3.853080   -0.075880    0.342990
     28          1           0       -3.006970   -0.639450    0.411980
     29          1           0       -3.246170    1.194400   -0.143240
     30          1           0       -4.171340    0.016940    1.253710
 ---------------------------------------------------------------------
                    Distance matrix (angstroms):
                    1          2          3          4          5
     1  C    0.000000
     2  C    2.591754   0.000000
     3  O    2.485272   2.445605   0.000000
     4  C    2.855571   1.522099   1.739639   0.000000
     5  C    1.539302   2.893082   1.452317   2.739154   0.000000
     6  C    1.554378   1.536991   2.931040   2.537761   2.584850
     7  H    2.137597   2.147240   3.727700   2.967700   3.435499
     8  H    3.034101   1.099322   2.464130   2.140301   2.930612
     9  H    2.136869   3.876777   2.061826   3.438241   1.097443
    10  H    1.096617   3.453367   3.372873   3.923028   2.117953
    11  C    2.574884   3.516702   2.393438   3.771157   1.532491
    12  H    3.502705   4.080178   2.515480   4.089176   2.156358
    13  H    2.776253   3.077788   2.745533   3.730586   2.170901
    14  O    3.049023   4.623630   3.657686   4.991610   2.437400
    15  H    3.421793   5.229430   3.869588   5.354365   2.643720
    16  O    3.786964   1.418047   3.732294   2.342147   4.291820
    17  H    4.098423   1.931204   4.362314   3.187066   4.719957
    18  O    2.500049   2.348536   3.845940   3.690085   3.326242
    19  H    2.688135   3.205065   4.513152   4.446148   3.739032
    20  O    1.414677   3.350798   3.105710   3.162657   2.444219
    21  H    1.921989   2.994604   2.855555   2.505189   2.688821
    22  H    3.860230   2.198511   2.121580   1.102237   3.438522
    23  O    2.995909   2.406933   2.490535   1.272438   3.210179
    24  O    4.360559   4.641515   2.461722   3.340154   3.298076
    25  H    3.194122   3.355210   1.051049   2.268356   2.078551
    26  H    5.131953   5.097941   2.952480   3.807245   3.951054
    27  O    4.940606   4.688148   3.628559   3.196259   4.588202
    28  H    4.175995   3.772742   3.100361   2.339048   4.028739
    29  H    4.545972   4.637990   2.855295   3.186270   3.778493
    30  H    5.199432   5.285807   4.263092   3.865817   5.003087
                    6          7          8          9         10
     6  C    0.000000
     7  H    1.097666   0.000000
     8  H    2.147446   3.013954   0.000000
     9  H    3.488367   4.178743   3.996336   0.000000
    10  H    2.166112   2.673897   3.733824   2.520433   0.000000
    11  C    3.251547   4.283683   3.073164   2.164170   2.650181
    12  H    4.143569   5.188417   3.494376   2.545907   3.699827
    13  H    2.903782   3.990432   2.431019   3.070158   2.856697
    14  O    3.948055   4.865169   4.270134   2.661461   2.584736
    15  H    4.573501   5.428848   4.954751   2.456646   2.991932
    16  O    2.455316   2.523940   2.076084   5.236010   4.598281
    17  H    2.595081   2.654082   2.302707   5.728605   4.728601
    18  O    1.432418   2.089047   2.392985   4.299334   2.557233
    19  H    1.963541   2.313712   3.344692   4.574452   2.384991
    20  O    2.447969   2.431345   4.076153   2.521729   2.020170
    21  H    2.511619   2.398845   3.854205   2.861652   2.811708
    22  H    3.501746   3.981923   2.440284   4.095075   4.898888
    23  O    2.921416   2.946943   3.280135   3.622939   4.078081
    24  O    5.142310   5.686138   4.801780   2.973465   5.192751
    25  H    3.849850   4.522312   3.447846   2.157444   4.065333
    26  H    5.788733   6.397100   5.112204   3.722998   5.962529
    27  O    5.314494   5.413250   5.287401   4.494833   5.957904
    28  H    4.387276   4.435286   4.475918   4.122488   5.231947
    29  H    5.195405   5.561988   4.994493   3.526781   5.475951
    30  H    5.699873   5.669485   5.980284   4.765178   6.153467
                   11         12         13         14         15
    11  C    0.000000
    12  H    1.100403   0.000000
    13  H    1.092416   1.775877   0.000000
    14  O    1.419163   2.097647   2.014114   0.000000
    15  H    1.949529   2.320184   2.819713   0.970290   0.000000
    16  O    4.901288   5.439571   4.343495   5.970557   6.618176
    17  H    5.109026   5.722535   4.387804   6.060988   6.806945
    18  O    3.349159   4.290397   2.641049   3.810854   4.640406
    19  H    3.752265   4.786866   3.168935   3.869390   4.672325
    20  O    3.788322   4.586886   4.147912   4.167255   4.295652
    21  H    4.143675   4.815501   4.435821   4.789109   4.941884
    22  H    4.252538   4.312079   4.177659   5.595108   5.939814
    23  O    4.540498   4.947789   4.660535   5.586526   5.826126
    24  O    4.286854   3.995664   4.972709   5.291460   5.065065
    25  H    3.081888   2.961086   3.642686   4.233916   4.220318
    26  H    4.706787   4.213564   5.335377   5.786216   5.573606
    27  O    5.918472   5.943424   6.345665   6.971737   6.909609
    28  H    5.393076   5.563635   5.703970   6.462953   6.518746
    29  H    4.963496   4.815767   5.552771   5.990570   5.821151
    30  H    6.424185   6.527573   6.918492   7.346784   7.214562
                   16         17         18         19         20
    16  O    0.000000
    17  H    0.970853   0.000000
    18  O    3.029718   2.702019   0.000000
    19  H    3.825920   3.455054   0.970298   0.000000
    20  O    4.301593   4.766889   3.643679   3.706341   0.000000
    21  H    3.801538   4.422546   3.894534   4.146136   0.984415
    22  H    2.725868   3.584956   4.473951   5.318004   4.215832
    23  O    2.926901   3.806862   4.294135   4.873896   2.697560
    24  O    5.675250   6.485014   6.235761   6.813491   4.289409
    25  H    4.523311   5.251346   4.861386   5.480818   3.463548
    26  H    6.070480   6.880136   6.796437   7.447062   5.191039
    27  O    5.189966   6.138065   6.662200   7.239714   4.373565
    28  H    4.231878   5.171448   5.750467   6.331087   3.657831
    29  H    5.483557   6.367532   6.425671   7.005488   4.229344
    30  H    5.773964   6.703003   7.098580   7.576818   4.386060
                   21         22         23         24         25
    21  H    0.000000
    22  H    3.531219   0.000000
    23  O    1.784942   2.040941   0.000000
    24  O    3.881644   3.285180   3.391718   0.000000
    25  H    3.125769   2.415169   2.678895   1.411974   0.000000
    26  H    4.755482   3.474728   4.037922   0.969466   1.973662
    27  O    3.546490   3.171419   2.517189   2.498826   2.988218
    28  H    2.754196   2.521028   1.518668   2.759921   2.736418
    29  H    3.633144   3.136418   2.929275   1.026587   1.929377
    30  H    3.600788   4.020288   2.952557   3.033934   3.618188
                   26         27         28         29         30
    26  H    0.000000
    27  O    2.939233   0.000000
    28  H    3.320176   1.018957   0.000000
    29  H    1.593740   1.489420   1.930930   0.000000
    30  H    3.589927   0.969183   1.579593   2.047882   0.000000
 Stoichiometry    C6H16O8
 Framework group  C1[X(C6H16O8)]
 Deg. of freedom    84
 Full point group                 C1      NOp   1
 Largest Abelian subgroup         C1      NOp   1
 Largest concise Abelian subgroup C1      NOp   1
                         Standard orientation:                         
 ---------------------------------------------------------------------
 Center     Atomic      Atomic             Coordinates (Angstroms)
 Number     Number       Type             X           Y           Z
 ---------------------------------------------------------------------
      1          6           0       -1.032291   -0.203173    1.099416
      2          6           0       -0.483275    1.526663   -0.750837
      3          8           0        0.491024   -0.716030   -0.796122
      4          6           0        0.923890    0.960200   -0.625172
      5          6           0       -0.541608   -1.244643    0.077643
      6          6           0       -1.358136    1.177290    0.463617
      7          1           0       -1.169023    1.925103    1.244567
      8          1           0       -0.953979    1.091048   -1.643690
      9          1           0       -0.092143   -2.068057    0.647161
     10          1           0       -1.956265   -0.615099    1.522684
     11          6           0       -1.647205   -1.790841   -0.832219
     12          1           0       -1.186755   -2.395530   -1.627972
     13          1           0       -2.195507   -0.970863   -1.301658
     14          8           0       -2.607866   -2.526508   -0.090633
     15          1           0       -2.170712   -3.318817    0.259520
     16          8           0       -0.317236    2.925908   -0.910224
     17          1           0       -1.207245    3.295437   -1.028070
     18          8           0       -2.702058    1.282540   -0.020752
     19          1           0       -3.302720    1.189241    0.735540
     20          8           0       -0.126252   -0.063581    2.176876
     21          1           0        0.632237    0.444793    1.809015
     22          1           0        1.483233    0.990076   -1.574471
     23          8           0        1.563141    1.149115    0.458695
     24          8           0        2.628192   -1.911254   -0.543084
     25          1           0        1.385660   -1.259373   -0.700686
     26          1           0        3.012344   -2.125611   -1.406995
     27          8           0        3.841571    0.085319    0.343223
     28          1           0        2.997217    0.651460    0.412680
     29          1           0        3.230142   -1.184056   -0.139697
     30          1           0        4.161145   -0.006810    1.253553
 ---------------------------------------------------------------------
 Rotational constants (GHZ):      0.7381438      0.5315660      0.3897282
 Standard basis: 6-31G(d) (6D, 7F)
 There are   242 symmetry adapted cartesian basis functions of A   symmetry.
 There are   242 symmetry adapted basis functions of A   symmetry.
   242 basis functions,   456 primitive gaussians,   242 cartesian basis functions
    58 alpha electrons       58 beta electrons
       nuclear repulsion energy      1119.4304963498 Hartrees.
 NAtoms=   30 NActive=   30 NUniq=   30 SFac= 1.00D+00 NAtFMM=   60 NAOKFM=F Big=F
 Integral buffers will be    131072 words long.
 Raffenetti 2 integral format.
 Two-electron integral symmetry is turned on.
 One-electron integrals computed using PRISM.
 NBasis=   242 RedAO= T EigKep=  1.17D-03  NBF=   242
 NBsUse=   242 1.00D-06 EigRej= -1.00D+00 NBFU=   242
 ExpMin= 1.61D-01 ExpMax= 5.48D+03 ExpMxC= 8.25D+02 IAcc=1 IRadAn=         1 AccDes= 0.00D+00
 Harris functional with IExCor=  402 and IRadAn=       1 diagonalized for initial guess.
 HarFok:  IExCor=  402 AccDes= 0.00D+00 IRadAn=         1 IDoV= 1 UseB2=F ITyADJ=14
 ICtDFT=  3500011 ScaDFX=  1.000000  1.000000  1.000000  1.000000
 FoFCou: FMM=F IPFlag=           0 FMFlag=      100000 FMFlg1=           0
         NFxFlg=           0 DoJE=T BraDBF=F KetDBF=T FulRan=T
         wScrn=  0.000000 ICntrl=     500 IOpCl=  0 I1Cent=   200000004 NGrid=           0
         NMat0=    1 NMatS0=      1 NMatT0=    0 NMatD0=    1 NMtDS0=    0 NMtDT0=    0
 Petite list used in FoFCou.
 Requested convergence on RMS density matrix=1.00D-08 within 128 cycles.
 Requested convergence on MAX density matrix=1.00D-06.
 Requested convergence on             energy=1.00D-06.
 No special actions if energy rises.
 Integral accuracy reduced to 1.0D-05 until final iterations.
 Initial convergence to 1.0D-05 achieved.  Increase integral accuracy.
 SCF Done:  E(RB3LYP) =  -839.967941118     A.U. after   13 cycles
            NFock= 13  Conv=0.85D-08     -V/T= 2.0083

 **********************************************************************

            Population analysis using the SCF density.

 **********************************************************************

 Orbital symmetries:
       Occupied  (A) (A) (A) (A) (A) (A) (A) (A) (A) (A) (A) (A)
                 (A) (A) (A) (A) (A) (A) (A) (A) (A) (A) (A) (A)
                 (A) (A) (A) (A) (A) (A) (A) (A) (A) (A) (A) (A)
                 (A) (A) (A) (A) (A) (A) (A) (A) (A) (A) (A) (A)
                 (A) (A) (A) (A) (A) (A) (A) (A) (A) (A)
       Virtual   (A) (A) (A) (A) (A) (A) (A) (A) (A) (A) (A) (A)
                 (A) (A) (A) (A) (A) (A) (A) (A) (A) (A) (A) (A)
                 (A) (A) (A) (A) (A) (A) (A) (A) (A) (A) (A) (A)
                 (A) (A) (A) (A) (A) (A) (A) (A) (A) (A) (A) (A)
                 (A) (A) (A) (A) (A) (A) (A) (A) (A) (A) (A) (A)
                 (A) (A) (A) (A) (A) (A) (A) (A) (A) (A) (A) (A)
                 (A) (A) (A) (A) (A) (A) (A) (A) (A) (A) (A) (A)
                 (A) (A) (A) (A) (A) (A) (A) (A) (A) (A) (A) (A)
                 (A) (A) (A) (A) (A) (A) (A) (A) (A) (A) (A) (A)
                 (A) (A) (A) (A) (A) (A) (A) (A) (A) (A) (A) (A)
                 (A) (A) (A) (A) (A) (A) (A) (A) (A) (A) (A) (A)
                 (A) (A) (A) (A) (A) (A) (A) (A) (A) (A) (A) (A)
                 (A) (A) (A) (A) (A) (A) (A) (A) (A) (A) (A) (A)
                 (A) (A) (A) (A) (A) (A) (A) (A) (A) (A) (A) (A)
                 (A) (A) (A) (A) (A) (A) (A) (A) (A) (A) (A) (A)
                 (A) (A) (A) (A)
 The electronic state is 1-A.
 Alpha  occ. eigenvalues --  -19.19027 -19.16620 -19.15754 -19.15615 -19.14637
 Alpha  occ. eigenvalues --  -19.14578 -19.12104 -19.11794 -10.28953 -10.24972
 Alpha  occ. eigenvalues --  -10.23721 -10.23707 -10.23689 -10.23523  -1.07155
 Alpha  occ. eigenvalues --   -1.03662  -1.02988  -1.02522  -1.01962  -1.01104
 Alpha  occ. eigenvalues --   -0.99859  -0.98780  -0.77940  -0.75581  -0.68637
 Alpha  occ. eigenvalues --   -0.65014  -0.62379  -0.57010  -0.55380  -0.54730
 Alpha  occ. eigenvalues --   -0.54572  -0.53200  -0.51634  -0.50137  -0.48994
 Alpha  occ. eigenvalues --   -0.46759  -0.46040  -0.45059  -0.44500  -0.43152
 Alpha  occ. eigenvalues --   -0.41555  -0.41346  -0.39841  -0.38496  -0.37249
 Alpha  occ. eigenvalues --   -0.36289  -0.36100  -0.35104  -0.34575  -0.32445
 Alpha  occ. eigenvalues --   -0.31622  -0.31000  -0.29071  -0.28653  -0.27808
 Alpha  occ. eigenvalues --   -0.26264  -0.25142  -0.24214
 Alpha virt. eigenvalues --    0.03375   0.05306   0.06071   0.06697   0.09165
 Alpha virt. eigenvalues --    0.10169   0.11103   0.11833   0.12358   0.14602
 Alpha virt. eigenvalues --    0.14806   0.16250   0.17142   0.17851   0.20140
 Alpha virt. eigenvalues --    0.20188   0.22180   0.23758   0.24498   0.24873
 Alpha virt. eigenvalues --    0.26752   0.27611   0.28475   0.30944   0.31733
 Alpha virt. eigenvalues --    0.32213   0.33233   0.38114   0.52650   0.53926
 Alpha virt. eigenvalues --    0.54666   0.56276   0.57804   0.59371   0.59599
 Alpha virt. eigenvalues --    0.60467   0.61093   0.63360   0.64250   0.67563
 Alpha virt. eigenvalues --    0.68468   0.69148   0.70223   0.72273   0.74631
 Alpha virt. eigenvalues --    0.76670   0.77278   0.79368   0.79594   0.81361
 Alpha virt. eigenvalues --    0.81968   0.82150   0.83174   0.84210   0.85315
 Alpha virt. eigenvalues --    0.85631   0.87308   0.87781   0.89051   0.89748
 Alpha virt. eigenvalues --    0.90196   0.91087   0.92351   0.94973   0.96288
 Alpha virt. eigenvalues --    0.98138   0.99523   1.00292   1.01220   1.03163
 Alpha virt. eigenvalues --    1.03774   1.04695   1.05506   1.06301   1.08107
 Alpha virt. eigenvalues --    1.08700   1.12007   1.13394   1.15661   1.16888
 Alpha virt. eigenvalues --    1.18154   1.19243   1.22453   1.26799   1.27838
 Alpha virt. eigenvalues --    1.29456   1.31855   1.33546   1.34807   1.39184
 Alpha virt. eigenvalues --    1.41073   1.44911   1.46118   1.48964   1.50830
 Alpha virt. eigenvalues --    1.51820   1.53565   1.56078   1.56649   1.59898
 Alpha virt. eigenvalues --    1.60740   1.64160   1.66018   1.66795   1.68815
 Alpha virt. eigenvalues --    1.70300   1.71285   1.71793   1.73975   1.75388
 Alpha virt. eigenvalues --    1.75809   1.77274   1.78357   1.79351   1.80444
 Alpha virt. eigenvalues --    1.80755   1.83561   1.84277   1.84622   1.85228
 Alpha virt. eigenvalues --    1.87960   1.88734   1.90307   1.92633   1.95185
 Alpha virt. eigenvalues --    1.96752   1.98157   2.00998   2.04749   2.06604
 Alpha virt. eigenvalues --    2.07478   2.09964   2.10145   2.15214   2.16664
 Alpha virt. eigenvalues --    2.19147   2.23687   2.26201   2.28164   2.31170
 Alpha virt. eigenvalues --    2.34364   2.35924   2.36700   2.39424   2.40321
 Alpha virt. eigenvalues --    2.42651   2.44483   2.48631   2.49404   2.52388
 Alpha virt. eigenvalues --    2.53961   2.54852   2.57869   2.59167   2.61145
 Alpha virt. eigenvalues --    2.64979   2.66677   2.68056   2.71203   2.74865
 Alpha virt. eigenvalues --    2.80592   2.81836   2.82782   2.87795   2.90159
 Alpha virt. eigenvalues --    2.93482   2.99075   3.03696   3.07068   3.10127
 Alpha virt. eigenvalues --    3.70162   3.76645   3.81127   3.86724   3.90004
 Alpha virt. eigenvalues --    3.97509   4.05811   4.15765   4.25078   4.37673
 Alpha virt. eigenvalues --    4.54756   4.57874   4.63230   4.87816
          Condensed to atoms (all electrons):
               1          2          3          4          5          6
     1  C    4.977196  -0.026107  -0.030721   0.007531   0.304476   0.255203
     2  C   -0.026107   4.974823  -0.024147   0.298546  -0.018366   0.292067
     3  O   -0.030721  -0.024147   8.609102   0.041281   0.126260  -0.009250
     4  C    0.007531   0.298546   0.041281   4.770857  -0.009303  -0.022779
     5  C    0.304476  -0.018366   0.126260  -0.009303   5.118096  -0.018995
     6  C    0.255203   0.292067  -0.009250  -0.022779  -0.018995   5.091599
     7  H   -0.057095  -0.036734   0.000211  -0.005868   0.006358   0.349769
     8  H   -0.000104   0.341656   0.004794  -0.046390   0.000291  -0.053303
     9  H   -0.040959   0.000127  -0.029668   0.000453   0.359579   0.004868
    10  H    0.363706   0.004202   0.003295  -0.000046  -0.054870  -0.040969
    11  C   -0.035210  -0.000966  -0.036094   0.000774   0.288051  -0.002002
    12  H    0.005074   0.000029   0.006678  -0.000012  -0.048714  -0.000290
    13  H   -0.009646  -0.001989   0.001900   0.000094  -0.036342   0.001415
    14  O   -0.004121   0.000053   0.001601  -0.000009  -0.041087  -0.000225
    15  H   -0.000872   0.000001  -0.000011  -0.000001  -0.002864   0.000018
    16  O    0.003677   0.246795   0.000748  -0.043009  -0.000020  -0.039481
    17  H    0.000365  -0.028205  -0.000074   0.007783  -0.000029  -0.004789
    18  O   -0.033032  -0.040401  -0.000010   0.002481   0.000195   0.186918
    19  H   -0.003409   0.006995   0.000006  -0.000270  -0.000169  -0.023497
    20  O    0.243326   0.001586   0.001517   0.004889  -0.043171  -0.037173
    21  H   -0.039617  -0.003534  -0.000319  -0.006191  -0.000659  -0.000968
    22  H   -0.000350  -0.072330  -0.033986   0.364544   0.003356   0.006654
    23  O    0.004835  -0.051159  -0.051342   0.323189   0.000329  -0.001253
    24  O   -0.000198   0.000063  -0.080451   0.003120   0.001344  -0.000001
    25  H    0.002902   0.002384   0.136716  -0.001159  -0.006381  -0.000288
    26  H    0.000005   0.000006   0.003670   0.000040  -0.000018   0.000000
    27  O   -0.000008  -0.000127  -0.000588   0.006346  -0.000017   0.000006
    28  H   -0.000067   0.001891   0.001437  -0.009410  -0.000046  -0.000099
    29  H    0.000009   0.000057   0.005233   0.000350   0.000010  -0.000002
    30  H   -0.000002   0.000000  -0.000013  -0.000261   0.000004  -0.000000
               7          8          9         10         11         12
     1  C   -0.057095  -0.000104  -0.040959   0.363706  -0.035210   0.005074
     2  C   -0.036734   0.341656   0.000127   0.004202  -0.000966   0.000029
     3  O    0.000211   0.004794  -0.029668   0.003295  -0.036094   0.006678
     4  C   -0.005868  -0.046390   0.000453  -0.000046   0.000774  -0.000012
     5  C    0.006358   0.000291   0.359579  -0.054870   0.288051  -0.048714
     6  C    0.349769  -0.053303   0.004868  -0.040969  -0.002002  -0.000290
     7  H    0.607742   0.007032  -0.000239  -0.001561  -0.000058   0.000009
     8  H    0.007032   0.647823   0.000074  -0.000316  -0.000224   0.000137
     9  H   -0.000239   0.000074   0.597398  -0.001530  -0.048080  -0.005446
    10  H   -0.001561  -0.000316  -0.001530   0.595362  -0.002622   0.000536
    11  C   -0.000058  -0.000224  -0.048080  -0.002622   4.956272   0.347879
    12  H    0.000009   0.000137  -0.005446   0.000536   0.347879   0.637508
    13  H    0.000156   0.004534   0.004773  -0.000163   0.373455  -0.037150
    14  O   -0.000006   0.000009   0.000873   0.015796   0.239871  -0.029773
    15  H   -0.000001   0.000002   0.006203  -0.000143  -0.032539  -0.007131
    16  O    0.001985  -0.038380   0.000003  -0.000056   0.000011  -0.000000
    17  H   -0.000561  -0.004777  -0.000000  -0.000004   0.000002  -0.000000
    18  O   -0.033088  -0.001417  -0.000135   0.000528  -0.001511   0.000145
    19  H   -0.004678  -0.000013   0.000003   0.005720   0.000167  -0.000009
    20  O    0.007610  -0.000073   0.003987  -0.036689   0.003742  -0.000073
    21  H    0.000905   0.000069  -0.000550   0.005828  -0.000056   0.000005
    22  H   -0.000130  -0.000209  -0.000092  -0.000000  -0.000149   0.000002
    23  O    0.002990   0.004037  -0.000299  -0.000002   0.000004   0.000005
    24  O    0.000000  -0.000000   0.003511   0.000002  -0.000129   0.000000
    25  H    0.000013   0.000181  -0.003896  -0.000070  -0.000407   0.001013
    26  H   -0.000000  -0.000000  -0.000162  -0.000000  -0.000002   0.000006
    27  O    0.000001   0.000004   0.000014  -0.000000  -0.000000   0.000000
    28  H   -0.000013  -0.000072  -0.000006   0.000000   0.000002  -0.000000
    29  H   -0.000000  -0.000002  -0.000111  -0.000000   0.000012  -0.000001
    30  H   -0.000000  -0.000000  -0.000003   0.000000   0.000000  -0.000000
              13         14         15         16         17         18
     1  C   -0.009646  -0.004121  -0.000872   0.003677   0.000365  -0.033032
     2  C   -0.001989   0.000053   0.000001   0.246795  -0.028205  -0.040401
     3  O    0.001900   0.001601  -0.000011   0.000748  -0.000074  -0.000010
     4  C    0.000094  -0.000009  -0.000001  -0.043009   0.007783   0.002481
     5  C   -0.036342  -0.041087  -0.002864  -0.000020  -0.000029   0.000195
     6  C    0.001415  -0.000225   0.000018  -0.039481  -0.004789   0.186918
     7  H    0.000156  -0.000006  -0.000001   0.001985  -0.000561  -0.033088
     8  H    0.004534   0.000009   0.000002  -0.038380  -0.004777  -0.001417
     9  H    0.004773   0.000873   0.006203   0.000003  -0.000000  -0.000135
    10  H   -0.000163   0.015796  -0.000143  -0.000056  -0.000004   0.000528
    11  C    0.373455   0.239871  -0.032539   0.000011   0.000002  -0.001511
    12  H   -0.037150  -0.029773  -0.007131  -0.000000  -0.000000   0.000145
    13  H    0.537241  -0.034316   0.006997   0.000004  -0.000005   0.011012
    14  O   -0.034316   8.225879   0.234943   0.000000  -0.000000  -0.000096
    15  H    0.006997   0.234943   0.403017   0.000000   0.000000  -0.000012
    16  O    0.000004   0.000000   0.000000   8.263242   0.236124  -0.000430
    17  H   -0.000005  -0.000000   0.000000   0.236124   0.385006   0.007619
    18  O    0.011012  -0.000096  -0.000012  -0.000430   0.007619   8.309966
    19  H   -0.000407  -0.000017   0.000003  -0.000160  -0.000412   0.232450
    20  O    0.000029  -0.000003  -0.000032  -0.000012  -0.000004   0.001616
    21  H    0.000006  -0.000001   0.000001  -0.000052  -0.000014  -0.000017
    22  H   -0.000013   0.000001  -0.000000   0.003067  -0.000546  -0.000058
    23  O    0.000006   0.000000  -0.000000   0.000810  -0.000064   0.000036
    24  O    0.000001   0.000000  -0.000001   0.000000  -0.000000   0.000000
    25  H   -0.000079   0.000023  -0.000005  -0.000015   0.000001  -0.000002
    26  H    0.000000  -0.000000   0.000000  -0.000000   0.000000  -0.000000
    27  O    0.000000   0.000000  -0.000000   0.000000  -0.000000   0.000000
    28  H    0.000000  -0.000000   0.000000  -0.000043   0.000005   0.000000
    29  H   -0.000000  -0.000000  -0.000000  -0.000000   0.000000  -0.000000
    30  H    0.000000   0.000000   0.000000  -0.000000   0.000000  -0.000000
              19         20         21         22         23         24
     1  C   -0.003409   0.243326  -0.039617  -0.000350   0.004835  -0.000198
     2  C    0.006995   0.001586  -0.003534  -0.072330  -0.051159   0.000063
     3  O    0.000006   0.001517  -0.000319  -0.033986  -0.051342  -0.080451
     4  C   -0.000270   0.004889  -0.006191   0.364544   0.323189   0.003120
     5  C   -0.000169  -0.043171  -0.000659   0.003356   0.000329   0.001344
     6  C   -0.023497  -0.037173  -0.000968   0.006654  -0.001253  -0.000001
     7  H   -0.004678   0.007610   0.000905  -0.000130   0.002990   0.000000
     8  H   -0.000013  -0.000073   0.000069  -0.000209   0.004037  -0.000000
     9  H    0.000003   0.003987  -0.000550  -0.000092  -0.000299   0.003511
    10  H    0.005720  -0.036689   0.005828  -0.000000  -0.000002   0.000002
    11  C    0.000167   0.003742  -0.000056  -0.000149   0.000004  -0.000129
    12  H   -0.000009  -0.000073   0.000005   0.000002   0.000005   0.000000
    13  H   -0.000407   0.000029   0.000006  -0.000013   0.000006   0.000001
    14  O   -0.000017  -0.000003  -0.000001   0.000001   0.000000   0.000000
    15  H    0.000003  -0.000032   0.000001  -0.000000  -0.000000  -0.000001
    16  O   -0.000160  -0.000012  -0.000052   0.003067   0.000810   0.000000
    17  H   -0.000412  -0.000004  -0.000014  -0.000546  -0.000064  -0.000000
    18  O    0.232450   0.001616  -0.000017  -0.000058   0.000036   0.000000
    19  H    0.387052  -0.000011   0.000042   0.000006   0.000005   0.000000
    20  O   -0.000011   8.334008   0.216647  -0.000162  -0.030398   0.000003
    21  H    0.000042   0.216647   0.336421   0.001346   0.067859   0.000006
    22  H    0.000006  -0.000162   0.001346   0.651150  -0.050055   0.000705
    23  O    0.000005  -0.030398   0.067859  -0.050055   8.336145  -0.001603
    24  O    0.000000   0.000003   0.000006   0.000705  -0.001603   8.435789
    25  H   -0.000001  -0.000348   0.000099  -0.000764   0.006373   0.125546
    26  H   -0.000000  -0.000000  -0.000001   0.000154   0.000027   0.238226
    27  O    0.000000  -0.000032   0.000588   0.002406  -0.062492  -0.071122
    28  H   -0.000000   0.000383  -0.000678  -0.005833   0.097191   0.006057
    29  H   -0.000000   0.000026   0.000025  -0.000326   0.002762   0.165781
    30  H   -0.000000   0.000007   0.000015  -0.000073   0.003073   0.002988
              25         26         27         28         29         30
     1  C    0.002902   0.000005  -0.000008  -0.000067   0.000009  -0.000002
     2  C    0.002384   0.000006  -0.000127   0.001891   0.000057   0.000000
     3  O    0.136716   0.003670  -0.000588   0.001437   0.005233  -0.000013
     4  C   -0.001159   0.000040   0.006346  -0.009410   0.000350  -0.000261
     5  C   -0.006381  -0.000018  -0.000017  -0.000046   0.000010   0.000004
     6  C   -0.000288   0.000000   0.000006  -0.000099  -0.000002  -0.000000
     7  H    0.000013  -0.000000   0.000001  -0.000013  -0.000000  -0.000000
     8  H    0.000181  -0.000000   0.000004  -0.000072  -0.000002  -0.000000
     9  H   -0.003896  -0.000162   0.000014  -0.000006  -0.000111  -0.000003
    10  H   -0.000070  -0.000000  -0.000000   0.000000  -0.000000   0.000000
    11  C   -0.000407  -0.000002  -0.000000   0.000002   0.000012   0.000000
    12  H    0.001013   0.000006   0.000000  -0.000000  -0.000001  -0.000000
    13  H   -0.000079   0.000000   0.000000   0.000000  -0.000000   0.000000
    14  O    0.000023  -0.000000   0.000000  -0.000000  -0.000000   0.000000
    15  H   -0.000005   0.000000  -0.000000   0.000000  -0.000000   0.000000
    16  O   -0.000015  -0.000000   0.000000  -0.000043  -0.000000  -0.000000
    17  H    0.000001   0.000000  -0.000000   0.000005   0.000000   0.000000
    18  O   -0.000002  -0.000000   0.000000   0.000000  -0.000000  -0.000000
    19  H   -0.000001  -0.000000   0.000000  -0.000000  -0.000000  -0.000000
    20  O   -0.000348  -0.000000  -0.000032   0.000383   0.000026   0.000007
    21  H    0.000099  -0.000001   0.000588  -0.000678   0.000025   0.000015
    22  H   -0.000764   0.000154   0.002406  -0.005833  -0.000326  -0.000073
    23  O    0.006373   0.000027  -0.062492   0.097191   0.002762   0.003073
    24  O    0.125546   0.238226  -0.071122   0.006057   0.165781   0.002988
    25  H    0.274954  -0.006586   0.002522  -0.000279  -0.007498   0.000028
    26  H   -0.006586   0.364248   0.003047  -0.000230  -0.008849  -0.000106
    27  O    0.002522   0.003047   8.433014   0.169099   0.114277   0.236905
    28  H   -0.000279  -0.000230   0.169099   0.307506  -0.010672  -0.008760
    29  H   -0.007498  -0.008849   0.114277  -0.010672   0.298042  -0.005774
    30  H    0.000028  -0.000106   0.236905  -0.008760  -0.005774   0.371597
 Mulliken charges:
               1
     1  C    0.113211
     2  C    0.132784
     3  O   -0.647774
     4  C    0.312430
     5  C    0.072703
     6  C    0.066848
     7  H    0.155252
     8  H    0.134638
     9  H    0.149311
    10  H    0.144068
    11  C   -0.050193
    12  H    0.129573
    13  H    0.178486
    14  O   -0.609394
    15  H    0.392428
    16  O   -0.634805
    17  H    0.402580
    18  O   -0.642756
    19  H    0.400604
    20  O   -0.671199
    21  H    0.422793
    22  H    0.131688
    23  O   -0.601010
    24  O   -0.829636
    25  H    0.475023
    26  H    0.406524
    27  O   -0.833840
    28  H    0.452637
    29  H    0.446652
    30  H    0.400375
 Sum of Mulliken charges =  -0.00000
 Mulliken charges with hydrogens summed into heavy atoms:
               1
     1  C    0.257279
     2  C    0.267422
     3  O   -0.172751
     4  C    0.444118
     5  C    0.222014
     6  C    0.222100
    11  C    0.257865
    14  O   -0.216966
    16  O   -0.232225
    18  O   -0.242153
    20  O   -0.248405
    23  O   -0.601010
    24  O    0.023540
    27  O    0.019172
 Electronic spatial extent (au):  <R**2>=           3067.8240
 Charge=             -0.0000 electrons
 Dipole moment (field-independent basis, Debye):
    X=              0.2129    Y=             -2.4272    Z=             -1.2303  Tot=              2.7295
 Quadrupole moment (field-independent basis, Debye-Ang):
   XX=            -80.5268   YY=            -80.3905   ZZ=            -82.6984
   XY=            -10.1478   XZ=             -2.7390   YZ=              3.1226
 Traceless Quadrupole moment (field-independent basis, Debye-Ang):
   XX=              0.6785   YY=              0.8147   ZZ=             -1.4932
   XY=            -10.1478   XZ=             -2.7390   YZ=              3.1226
 Octapole moment (field-independent basis, Debye-Ang**2):
  XXX=             36.6704  YYY=            -31.5668  ZZZ=            -17.4584  XYY=            -14.6260
  XXY=              6.3242  XXZ=             28.0360  XZZ=             20.7597  YZZ=             -2.8884
  YYZ=             -0.9652  XYZ=             11.1290
 Hexadecapole moment (field-independent basis, Debye-Ang**3):
 XXXX=          -1786.9942 YYYY=          -1129.6944 ZZZZ=           -514.6420 XXXY=           -155.8295
 XXXZ=             12.4710 YYYX=            -35.6544 YYYZ=             -9.2680 ZZZX=              8.1597
 ZZZY=             17.4280 XXYY=           -505.4093 XXZZ=           -283.6304 YYZZ=           -266.5485
 XXYZ=             33.3440 YYXZ=            -26.6518 ZZXY=            -29.3807
 N-N= 1.119430496350D+03 E-N=-4.211762625133D+03  KE= 8.330252270389D+02
 Calling FoFJK, ICntrl=      2127 FMM=F ISym2X=0 I1Cent= 0 IOpClX= 0 NMat=1 NMatS=1 NMatT=0.
 ***** Axes restored to original set *****
 -------------------------------------------------------------------
 Center     Atomic                   Forces (Hartrees/Bohr)
 Number     Number              X              Y              Z
 -------------------------------------------------------------------
      1        6           0.000204487    0.000502426   -0.000287714
      2        6           0.000145727   -0.001442630   -0.000364902
      3        8           0.005640940    0.005199670   -0.003553959
      4        6          -0.002005818   -0.009518459    0.001081946
      5        6           0.001397620    0.002019384    0.000203968
      6        6          -0.000220873    0.000301917   -0.000391859
      7        1          -0.000010863    0.000038946   -0.000016268
      8        1          -0.000198100    0.000001617   -0.000060560
      9        1           0.000150852    0.000138981    0.000083389
     10        1           0.000039328   -0.000065637    0.000031575
     11        6           0.001431606    0.001303458    0.000779908
     12        1           0.000100436    0.000094951    0.000068530
     13        1           0.000046113    0.000069178    0.000049306
     14        8           0.002192850    0.001072438    0.000385741
     15        1           0.000164219    0.000095599   -0.000027284
     16        8           0.002424796   -0.002190936   -0.000651998
     17        1           0.000155403   -0.000099445   -0.000142736
     18        8          -0.000220574    0.000119778   -0.000157202
     19        1          -0.000034498    0.000008733   -0.000003418
     20        8           0.000370428    0.000511126    0.000127656
     21        1           0.000079595   -0.000077655    0.000121396
     22        1          -0.000209308   -0.000277967    0.000146955
     23        8           0.001794284   -0.004449333    0.001561245
     24        8          -0.002705885    0.009174322   -0.001855795
     25        1           0.001213953   -0.000245857   -0.000284937
     26        1          -0.000347518    0.000341194   -0.000054271
     27        8          -0.010026125   -0.002635581    0.002813806
     28        1          -0.000760750   -0.000156683    0.000115863
     29        1          -0.000196981    0.000518782    0.000102151
     30        1          -0.000615343   -0.000352318    0.000179467
 -------------------------------------------------------------------
 Cartesian Forces:  Max     0.010026125 RMS     0.002205622

 GradGradGradGradGradGradGradGradGradGradGradGradGradGradGradGradGradGrad
 Berny optimization.
 FormGI is forming the generalized inverse of G from B-inverse, IUseBI=4.
 Internal  Forces:  Max     0.012155320 RMS     0.003909606
 Search for a local minimum.
 Step number   1 out of a maximum of  180
 All quantities printed in internal units (Hartrees-Bohrs-Radians)
 Mixed Optimization -- RFO/linear search
 Second derivative matrix not updated -- first step.
 ITU=  0
     Eigenvalues ---    0.00230   0.00230   0.00241   0.00246   0.00288
     Eigenvalues ---    0.00336   0.00449   0.00520   0.00778   0.01263
     Eigenvalues ---    0.01438   0.01439   0.01453   0.01498   0.02052
     Eigenvalues ---    0.02747   0.03176   0.03869   0.04050   0.04508
     Eigenvalues ---    0.04668   0.04730   0.04946   0.04949   0.05505
     Eigenvalues ---    0.05702   0.05833   0.06052   0.06654   0.07030
     Eigenvalues ---    0.07431   0.07857   0.07951   0.08453   0.09746
     Eigenvalues ---    0.10323   0.10592   0.11345   0.11521   0.11919
     Eigenvalues ---    0.13878   0.14059   0.14747   0.15082   0.15524
     Eigenvalues ---    0.16000   0.16000   0.16000   0.16000   0.16681
     Eigenvalues ---    0.17364   0.17537   0.18782   0.19338   0.19985
     Eigenvalues ---    0.21149   0.22037   0.26981   0.28135   0.28599
     Eigenvalues ---    0.29195   0.29703   0.33436   0.33638   0.33757
     Eigenvalues ---    0.33942   0.33966   0.34059   0.34535   0.37409
     Eigenvalues ---    0.39003   0.40644   0.42587   0.42694   0.42756
     Eigenvalues ---    0.43272   0.43889   0.50537   0.53203   0.53316
     Eigenvalues ---    0.53318   0.53486   0.53544   0.74104
 RFO step:  Lambda=-2.30522148D-02 EMin= 2.30000000D-03
 Linear search not attempted -- first point.
 Maximum step size (   0.300) exceeded in Quadratic search.
    -- Step size scaled by   0.695
 Iteration  1 RMS(Cart)=  0.14448037 RMS(Int)=  0.00520854
 Iteration  2 RMS(Cart)=  0.00928610 RMS(Int)=  0.00139906
 Iteration  3 RMS(Cart)=  0.00011515 RMS(Int)=  0.00139851
 Iteration  4 RMS(Cart)=  0.00000059 RMS(Int)=  0.00139851
 Variable       Old X    -DE/DX   Delta X   Delta X   Delta X     New X
                                 (Linear)    (Quad)   (Total)
    R1        2.90886   0.00585   0.00000   0.01261   0.01155   2.92041
    R2        2.93735   0.00690   0.00000   0.02111   0.02203   2.95938
    R3        2.07231   0.00002   0.00000   0.00004   0.00004   2.07234
    R4        2.67335  -0.00014   0.00000  -0.00021  -0.00021   2.67314
    R5        2.87635   0.00439   0.00000   0.00645   0.00562   2.88197
    R6        2.90449   0.00304   0.00000   0.00992   0.01102   2.91551
    R7        2.07742  -0.00003   0.00000  -0.00006  -0.00006   2.07735
    R8        2.67972   0.00206   0.00000   0.00317   0.00317   2.68289
    R9        2.74448   0.00144   0.00000   0.00051  -0.00022   2.74426
   R10        1.98619   0.00522   0.00000   0.01123   0.01223   1.99842
   R11        2.08293  -0.00001   0.00000  -0.00002  -0.00002   2.08291
   R12        2.40456   0.00397   0.00000   0.00182  -0.00025   2.40431
   R13        2.07387   0.00012   0.00000   0.00020   0.00015   2.07402
   R14        2.89599   0.00302   0.00000   0.00667   0.00667   2.90266
   R15        2.07429  -0.00003   0.00000  -0.00007  -0.00007   2.07422
   R16        2.70688  -0.00020   0.00000  -0.00032  -0.00032   2.70656
   R17        2.07946  -0.00004   0.00000  -0.00009  -0.00009   2.07937
   R18        2.06437  -0.00005   0.00000  -0.00009  -0.00009   2.06427
   R19        2.68183   0.00240   0.00000   0.00371   0.00371   2.68554
   R20        1.83358  -0.00001   0.00000  -0.00001  -0.00001   1.83357
   R21        1.83465   0.00019   0.00000   0.00024   0.00024   1.83489
   R22        1.83360  -0.00003   0.00000  -0.00003  -0.00003   1.83356
   R23        1.86027  -0.00006   0.00000  -0.00008  -0.00008   1.86019
   R24        2.86987   0.00865   0.00000   0.04006   0.03958   2.90945
   R25        2.66824   0.00669   0.00000   0.03531   0.03625   2.70450
   R26        1.83203   0.00026   0.00000   0.00032   0.00032   1.83235
   R27        1.93997   0.01119   0.00000   0.01766   0.01860   1.95857
   R28        1.92555   0.00926   0.00000   0.01182   0.01132   1.93687
   R29        2.81460   0.01198   0.00000   0.05946   0.06039   2.87498
   R30        1.83149   0.00034   0.00000   0.00042   0.00042   1.83191
    A1        1.97816   0.01216   0.00000   0.06795   0.06914   2.04730
    A2        1.84486  -0.00659   0.00000  -0.03668  -0.03511   1.80975
    A3        1.94783  -0.00062   0.00000  -0.00040  -0.00331   1.94453
    A4        1.89110  -0.00101   0.00000  -0.01873  -0.01919   1.87191
    A5        1.93709  -0.00665   0.00000  -0.01182  -0.01230   1.92479
    A6        1.85743   0.00213   0.00000  -0.00715  -0.00744   1.84999
    A7        1.95670   0.00038   0.00000   0.02338   0.02592   1.98261
    A8        1.89170   0.00142   0.00000   0.00260   0.00056   1.89227
    A9        1.84238  -0.00025   0.00000  -0.00242  -0.00185   1.84053
   A10        1.88384  -0.00113   0.00000  -0.00583  -0.00624   1.87760
   A11        1.96033   0.00008   0.00000  -0.00959  -0.01091   1.94942
   A12        1.92821  -0.00042   0.00000  -0.00778  -0.00744   1.92077
   A13        1.94166   0.01156   0.00000   0.02497   0.02418   1.96584
   A14        1.96920  -0.00014   0.00000   0.00313   0.00148   1.97069
   A15        2.07090   0.00856   0.00000   0.03842   0.04157   2.11248
   A16        2.06536  -0.00575   0.00000  -0.01021  -0.01220   2.05316
   A17        1.96032   0.00239   0.00000   0.01770   0.01402   1.97434
   A18        1.86892  -0.00117   0.00000  -0.01557  -0.01536   1.85356
   A19        1.98807  -0.00110   0.00000  -0.00138  -0.00003   1.98804
   A20        1.86932   0.00058   0.00000  -0.00392  -0.00394   1.86538
   A21        1.86031  -0.00075   0.00000   0.00772   0.01011   1.87042
   A22        1.91363   0.00015   0.00000  -0.00505  -0.00570   1.90794
   A23        1.98860   0.01101   0.00000   0.07210   0.07483   2.06343
   A24        1.85242  -0.00025   0.00000  -0.01025  -0.01176   1.84066
   A25        1.98259  -0.00616   0.00000  -0.01972  -0.01975   1.96284
   A26        1.88519  -0.00622   0.00000  -0.03281  -0.03198   1.85321
   A27        1.82363  -0.00040   0.00000  -0.00494  -0.00788   1.81575
   A28        1.93068   0.00190   0.00000  -0.00611  -0.00614   1.92454
   A29        1.90003  -0.00039   0.00000  -0.00026  -0.00026   1.89977
   A30        1.92806  -0.00050   0.00000  -0.00186  -0.00185   1.92620
   A31        1.94214   0.00215   0.00000   0.00644   0.00644   1.94858
   A32        1.88782   0.00021   0.00000  -0.00046  -0.00047   1.88735
   A33        1.95657  -0.00066   0.00000  -0.00090  -0.00091   1.95566
   A34        1.84824  -0.00087   0.00000  -0.00325  -0.00325   1.84499
   A35        1.88272   0.00030   0.00000   0.00113   0.00113   1.88385
   A36        1.85655   0.00008   0.00000   0.00031   0.00031   1.85686
   A37        1.88617  -0.00005   0.00000  -0.00018  -0.00018   1.88599
   A38        1.83363   0.00013   0.00000   0.00048   0.00048   1.83411
   A39        1.98225   0.00059   0.00000  -0.02183  -0.02666   1.95559
   A40        1.92977  -0.00041   0.00000  -0.00545  -0.00869   1.92108
   A41        1.80577   0.00288   0.00000   0.01871   0.02006   1.82583
   A42        1.84880   0.00057   0.00000   0.00370   0.00473   1.85353
   A43        1.72688   0.00594   0.00000   0.01323   0.01246   1.73934
   A44        1.83591  -0.00042   0.00000  -0.00545  -0.00529   1.83062
   A45        1.93788  -0.00487   0.00000  -0.00362  -0.00201   1.93587
   A46        3.17085   0.00437   0.00000   0.08090   0.08249   3.25334
   A47        2.89353   0.00024   0.00000  -0.03147  -0.03369   2.85984
   A48        2.96041   0.00418   0.00000   0.14098   0.14034   3.10075
   A49        3.20434   0.00600   0.00000   0.11246   0.11024   3.31457
   A50        3.21808   0.00257   0.00000   0.05160   0.05481   3.27289
   A51        3.29933  -0.00942   0.00000  -0.14221  -0.14276   3.15657
    D1        0.83395  -0.00265   0.00000   0.00359   0.00601   0.83997
    D2        2.88132  -0.00134   0.00000  -0.00096  -0.00064   2.88068
    D3       -1.28316  -0.00267   0.00000  -0.01921  -0.01849  -1.30165
    D4        2.90258  -0.00138   0.00000  -0.00525  -0.00336   2.89922
    D5       -1.33324  -0.00008   0.00000  -0.00980  -0.01001  -1.34325
    D6        0.78547  -0.00140   0.00000  -0.02805  -0.02786   0.75761
    D7       -1.36842  -0.00293   0.00000  -0.03485  -0.03300  -1.40142
    D8        0.67895  -0.00162   0.00000  -0.03941  -0.03966   0.63929
    D9        2.79765  -0.00295   0.00000  -0.05765  -0.05750   2.74015
   D10       -0.55573  -0.00624   0.00000  -0.09674  -0.09366  -0.64939
   D11       -2.62793  -0.00470   0.00000  -0.09073  -0.08908  -2.71701
   D12        1.53008  -0.00314   0.00000  -0.06394  -0.06211   1.46797
   D13       -2.59745  -0.00461   0.00000  -0.07925  -0.07746  -2.67491
   D14        1.61354  -0.00307   0.00000  -0.07325  -0.07289   1.54066
   D15       -0.51163  -0.00151   0.00000  -0.04646  -0.04592  -0.55754
   D16        1.65233  -0.00285   0.00000  -0.05284  -0.05095   1.60138
   D17       -0.41987  -0.00131   0.00000  -0.04683  -0.04637  -0.46624
   D18       -2.54504   0.00025   0.00000  -0.02004  -0.01940  -2.56444
   D19        1.30030   0.00587   0.00000   0.04441   0.04405   1.34435
   D20       -0.92442  -0.00457   0.00000  -0.03646  -0.03648  -0.96090
   D21       -2.97844  -0.00106   0.00000  -0.00352  -0.00314  -2.98159
   D22        2.90198  -0.00282   0.00000  -0.03379  -0.03427   2.86771
   D23       -0.85446  -0.00101   0.00000   0.00954   0.01090  -0.84357
   D24        0.82445  -0.00257   0.00000  -0.04243  -0.04287   0.78158
   D25       -2.93199  -0.00076   0.00000   0.00090   0.00230  -2.92970
   D26       -1.24161  -0.00266   0.00000  -0.03339  -0.03352  -1.27513
   D27        1.28514  -0.00084   0.00000   0.00995   0.01164   1.29678
   D28       -0.57454  -0.00369   0.00000  -0.04191  -0.03931  -0.61384
   D29        1.47888  -0.00158   0.00000  -0.03350  -0.03171   1.44717
   D30       -2.74819  -0.00248   0.00000  -0.05822  -0.05660  -2.80479
   D31        1.50762  -0.00245   0.00000  -0.02847  -0.02699   1.48062
   D32       -2.72215  -0.00034   0.00000  -0.02005  -0.01940  -2.74155
   D33       -0.66604  -0.00124   0.00000  -0.04478  -0.04429  -0.71033
   D34       -2.64573  -0.00369   0.00000  -0.04836  -0.04723  -2.69296
   D35       -0.59231  -0.00158   0.00000  -0.03994  -0.03964  -0.63195
   D36        1.46380  -0.00248   0.00000  -0.06467  -0.06452   1.39928
   D37        3.10214   0.00025   0.00000  -0.00923  -0.01075   3.09139
   D38       -1.04377   0.00060   0.00000   0.01230   0.01346  -1.03031
   D39        1.06065  -0.00107   0.00000  -0.00704  -0.00668   1.05396
   D40        2.08384  -0.00338   0.00000  -0.08426  -0.08526   1.99858
   D41        0.03671  -0.00365   0.00000  -0.07277  -0.07187  -0.03516
   D42       -2.01056  -0.00373   0.00000  -0.06885  -0.06836  -2.07892
   D43        2.34080   0.00053   0.00000   0.03101   0.03317   2.37397
   D44       -1.98015   0.00120   0.00000   0.01826   0.02181  -1.95834
   D45       -3.04660  -0.01087   0.00000  -0.10361  -0.10524   3.13135
   D46       -0.55356  -0.00662   0.00000  -0.05193  -0.05203  -0.60559
   D47        2.98247   0.00122   0.00000   0.01905   0.01817   3.00064
   D48        0.91196   0.00150   0.00000   0.02087   0.02000   0.93196
   D49       -1.13582   0.00156   0.00000   0.02208   0.02120  -1.11461
   D50        0.81065  -0.00056   0.00000  -0.00842  -0.00754   0.80312
   D51       -1.25986  -0.00028   0.00000  -0.00660  -0.00571  -1.26557
   D52        2.97555  -0.00021   0.00000  -0.00539  -0.00450   2.97105
   D53       -1.20704  -0.00091   0.00000  -0.00544  -0.00545  -1.21249
   D54        3.00564  -0.00062   0.00000  -0.00362  -0.00363   3.00201
   D55        0.95786  -0.00056   0.00000  -0.00241  -0.00242   0.95544
   D56        1.09560  -0.00428   0.00000  -0.03520  -0.03601   1.05958
   D57       -3.01011   0.00543   0.00000   0.03951   0.03997  -2.97013
   D58       -0.98542  -0.00115   0.00000  -0.00437  -0.00402  -0.98944
   D59       -1.15328  -0.00024   0.00000  -0.00260  -0.00260  -1.15588
   D60        0.97923   0.00034   0.00000   0.00109   0.00109   0.98032
   D61        3.03423  -0.00029   0.00000  -0.00193  -0.00192   3.03230
   D62       -0.86039  -0.00900   0.00000  -0.05443  -0.05105  -0.91144
   D63       -2.81747  -0.00552   0.00000  -0.04380  -0.04227  -2.85974
   D64        0.13078  -0.00337   0.00000  -0.02117  -0.01781   0.11297
   D65        2.02647  -0.00131   0.00000   0.00213   0.00208   2.02855
   D66        2.11430  -0.00039   0.00000   0.02155   0.02502   2.13933
   D67       -2.27319   0.00168   0.00000   0.04485   0.04491  -2.22828
         Item               Value     Threshold  Converged?
 Maximum Force            0.012155     0.000450     NO 
 RMS     Force            0.003910     0.000300     NO 
 Maximum Displacement     0.613290     0.001800     NO 
 RMS     Displacement     0.145147     0.001200     NO 
 Predicted change in Energy=-1.261287D-02
 GradGradGradGradGradGradGradGradGradGradGradGradGradGradGradGradGradGrad

                          Input orientation:                          
 ---------------------------------------------------------------------
 Center     Atomic      Atomic             Coordinates (Angstroms)
 Number     Number       Type             X           Y           Z
 ---------------------------------------------------------------------
      1          6           0        1.020735    0.273007    1.019102
      2          6           0        0.412779   -1.638920   -0.739612
      3          8           0       -0.470538    0.970526   -0.864862
      4          6           0       -1.039299   -1.186987   -0.625246
      5          6           0        0.587803    1.386213    0.038467
      6          6           0        1.306496   -1.143907    0.416473
      7          1           0        1.155498   -1.849553    1.243549
      8          1           0        0.828419   -1.238768   -1.675324
      9          1           0        0.179691    2.196575    0.655974
     10          1           0        1.964465    0.645968    1.434894
     11          6           0        1.732993    1.933843   -0.826403
     12          1           0        1.312662    2.609069   -1.586784
     13          1           0        2.244016    1.117441   -1.341776
     14          8           0        2.727074    2.572458   -0.036734
     15          1           0        2.330876    3.364871    0.358943
     16          8           0        0.364448   -3.056721   -0.795511
     17          1           0        1.279859   -3.357573   -0.915157
     18          8           0        2.637661   -1.261061   -0.098903
     19          1           0        3.257562   -1.113274    0.632756
     20          8           0        0.127246    0.170394    2.110954
     21          1           0       -0.658997   -0.303008    1.755008
     22          1           0       -1.599902   -1.301749   -1.567297
     23          8           0       -1.683106   -1.317683    0.464338
     24          8           0       -2.705450    1.962407   -0.466907
     25          1           0       -1.372585    1.498976   -0.705479
     26          1           0       -3.115386    2.240147   -1.300579
     27          8           0       -3.926789   -0.149264    0.300283
     28          1           0       -3.122257   -0.782082    0.353066
     29          1           0       -3.223494    1.120114   -0.156485
     30          1           0       -4.236513   -0.063369    1.214853
 ---------------------------------------------------------------------
                    Distance matrix (angstroms):
                    1          2          3          4          5
     1  C    0.000000
     2  C    2.667986   0.000000
     3  O    2.501948   2.757742   0.000000
     4  C    3.013172   1.525075   2.244051   0.000000
     5  C    1.545414   3.128493   1.452200   3.115981   0.000000
     6  C    1.566035   1.542822   3.044749   2.567058   2.657238
     7  H    2.138644   2.128127   3.878432   2.957791   3.499241
     8  H    3.095541   1.099288   2.687958   2.143295   3.144122
     9  H    2.130570   4.088155   2.058868   3.817847   1.097523
    10  H    1.096636   3.515241   3.365034   4.077561   2.095989
    11  C    2.582939   3.809872   2.405204   4.179192   1.536020
    12  H    3.511843   4.424126   2.527014   4.567966   2.159221
    13  H    2.789844   3.363562   2.760043   4.074795   2.172637
    14  O    3.051861   4.856511   3.671064   5.354002   2.447307
    15  H    3.422265   5.470269   3.883106   5.748576   2.656331
    16  O    3.848457   1.419726   4.113481   2.344227   4.526044
    17  H    4.121846   1.932980   4.668925   3.189668   4.887929
    18  O    2.493542   2.345929   3.902253   3.715180   3.350948
    19  H    2.659781   3.201951   4.525905   4.477837   3.705163
    20  O    1.414565   3.388343   3.138954   3.269572   2.446535
    21  H    1.922200   3.025970   2.919096   2.567423   2.711917
    22  H    4.004629   2.202188   2.632890   1.102227   3.819643
    23  O    3.185720   2.438324   2.910840   1.272306   3.556606
    24  O    4.352786   4.771506   2.477302   3.566485   3.381259
    25  H    3.194551   3.610413   1.057521   2.707751   2.099831
    26  H    5.134009   5.273499   2.965974   4.063429   4.029373
    27  O    5.017271   4.704499   3.815385   3.204852   4.775749
    28  H    4.326800   3.797973   3.403908   2.336612   4.308714
    29  H    4.484760   4.601607   2.846566   3.211411   3.825546
    30  H    5.271634   5.283769   4.424559   3.856250   5.172930
                    6          7          8          9         10
     6  C    0.000000
     7  H    1.097630   0.000000
     8  H    2.147829   2.999977   0.000000
     9  H    3.533535   4.203403   4.202068   0.000000
    10  H    2.161887   2.630336   3.810024   2.489281   0.000000
    11  C    3.346518   4.351125   3.406520   2.163149   2.612597
    12  H    4.254162   5.283445   3.879198   2.546318   3.661850
    13  H    3.013980   4.083115   2.768915   3.068708   2.830253
    14  O    4.004348   4.864479   4.562380   2.666513   2.541382
    15  H    4.624039   5.417957   5.252534   2.465916   2.946923
    16  O    2.452594   2.498156   2.072267   5.453262   4.609194
    17  H    2.583460   2.636210   2.295863   5.876001   4.692522
    18  O    1.432249   2.084540   2.399783   4.308910   2.538205
    19  H    1.963257   2.309513   3.353166   4.519838   2.326039
    20  O    2.447301   2.426907   4.100400   2.495020   2.014598
    21  H    2.522291   2.438398   3.854248   2.856430   2.808129
    22  H    3.522415   3.974063   2.431538   4.510893   5.050888
    23  O    2.995031   2.991276   3.300323   3.982053   4.254725
    24  O    5.150267   5.688903   4.918945   3.104792   5.211330
    25  H    3.926968   4.626290   3.644209   2.179394   4.055209
    26  H    5.826931   6.437288   5.272274   3.832431   5.985742
    27  O    5.328235   5.441542   5.263273   4.742642   6.051993
    28  H    4.443961   4.497960   4.464388   4.457242   5.392997
    29  H    5.096556   5.473079   4.928406   3.660673   5.447222
    30  H    5.703501   5.680235   5.948800   4.992250   6.245295
                   11         12         13         14         15
    11  C    0.000000
    12  H    1.100357   0.000000
    13  H    1.092367   1.775500   0.000000
    14  O    1.421128   2.098703   2.013344   0.000000
    15  H    1.952013   2.322467   2.819740   0.970284   0.000000
    16  O    5.174900   5.798827   4.610293   6.151862   6.814429
    17  H    5.311524   6.004413   4.597538   6.166955   6.922371
    18  O    3.399278   4.352851   2.712372   3.835066   4.658646
    19  H    3.706532   4.750245   3.146767   3.783419   4.581212
    20  O    3.783681   4.585369   4.159201   4.140239   4.257958
    21  H    4.169988   4.851310   4.476073   4.790003   4.933728
    22  H    4.703845   4.876259   4.547421   6.006232   6.398340
    23  O    4.889597   5.348000   4.961266   5.902030   6.168425
    24  O    4.453069   4.221081   5.096722   5.483569   5.292779
    25  H    3.138207   3.036372   3.691916   4.290313   4.281376
    26  H    4.881131   4.452598   5.475888   5.986825   5.803515
    27  O    6.135298   6.214601   6.509972   7.196891   7.177113
    28  H    5.686901   5.910282   5.939491   6.754225   6.850833
    29  H    5.067317   4.983920   5.594514   6.126411   6.012955
    30  H    6.617445   6.766420   7.065969   7.550206   7.457615
                   16         17         18         19         20
    16  O    0.000000
    17  H    0.970981   0.000000
    18  O    2.979455   2.627786   0.000000
    19  H    3.766569   3.368119   0.970280   0.000000
    20  O    4.349491   4.788780   3.637955   3.692121   0.000000
    21  H    3.890440   4.496589   3.901642   4.153964   0.984370
    22  H    2.744859   3.597877   4.484950   5.335796   4.322010
    23  O    2.967145   3.852703   4.357691   4.947762   2.864104
    24  O    5.892699   6.662267   6.251000   6.799013   4.228574
    25  H    4.876450   5.537643   4.905895   5.482060   3.456431
    26  H    6.357762   7.127496   6.841054   7.456385   5.141701
    27  O    5.297999   6.235361   6.669891   7.256360   4.451506
    28  H    4.318602   5.255489   5.797444   6.394529   3.815317
    29  H    5.543251   6.395737   6.326646   6.900363   4.155803
    30  H    5.845559   6.768980   7.100331   7.589618   4.460946
                   21         22         23         24         25
    21  H    0.000000
    22  H    3.594509   0.000000
    23  O    1.934992   2.033401   0.000000
    24  O    3.775841   3.617708   3.559690   0.000000
    25  H    3.132148   2.939127   3.065692   1.431158   0.000000
    26  H    4.673124   3.861716   4.221908   0.969637   1.985153
    27  O    3.580269   3.198513   2.535002   2.557225   3.201907
    28  H    2.874474   2.505078   1.539612   2.894530   3.063510
    29  H    3.500818   3.239114   2.949758   1.036431   1.967434
    30  H    3.625992   4.028109   2.942187   3.045692   3.785589
                   26         27         28         29         30
    26  H    0.000000
    27  O    2.988380   0.000000
    28  H    3.445062   1.024948   0.000000
    29  H    1.604716   1.521374   1.971862   0.000000
    30  H    3.590336   0.969405   1.581389   2.075429   0.000000
 Stoichiometry    C6H16O8
 Framework group  C1[X(C6H16O8)]
 Deg. of freedom    84
 Full point group                 C1      NOp   1
 Largest Abelian subgroup         C1      NOp   1
 Largest concise Abelian subgroup C1      NOp   1
                         Standard orientation:                         
 ---------------------------------------------------------------------
 Center     Atomic      Atomic             Coordinates (Angstroms)
 Number     Number       Type             X           Y           Z
 ---------------------------------------------------------------------
      1          6           0       -1.055066   -0.155259    1.031898
      2          6           0       -0.255874    1.695691   -0.715507
      3          8           0        0.343717   -0.991852   -0.866329
      4          6           0        1.140350    1.090730   -0.613357
      5          6           0       -0.748247   -1.299998    0.040063
      6          6           0       -1.191309    1.289024    0.442025
      7          1           0       -0.961745    1.967628    1.273644
      8          1           0       -0.716576    1.349929   -1.651796
      9          1           0       -0.425645   -2.154357    0.648796
     10          1           0       -2.031020   -0.429050    1.450422
     11          6           0       -1.949687   -1.715284   -0.822165
     12          1           0       -1.607601   -2.425051   -1.590276
[...]
 001126,0.00047051,-0.00031338,-0.00007695,-0.00011396,0.00003781,0.,0.
 00066427,0.00006939,0.00000722,-0.00018829,-0.00020257,0.00003870,0.00
 152253,0.00016495,0.00015094,-0.00128223,0.00063062,-0.00043663,0.0001
 0045,-0.00011868,-0.00019431,0.00170501,-0.00139385,-0.00043525,0.1080
 1116,0.27227298,0.00220031,0.00057547,-0.00039822,-0.00025062,0.000167
 79,-0.00022440,0.00879666,-0.00286030,0.00660471,0.00059838,0.00014429
 ,-0.00033529,-0.00083678,-0.00158540,-0.00399218,-0.00016331,-0.000023
 98,-0.00002854,0.00004182,-0.00014432,0.00006310,-0.00023557,0.0001311
 0,0.00016424,0.00043226,0.00079667,0.00054061,-0.00009642,-0.00021561,
 0.00027839,-0.00021777,0.00016206,0.00068733,-0.00012297,-0.00009297,0
 .00004157,-0.00020355,-0.00001209,0.00007583,0.00090232,-0.00009860,0.
 00035844,-0.00002130,-0.00002739,-0.00011252,0.00009896,-0.00024952,0.
 00014982,-0.00003725,0.00002100,-0.00007457,-0.00028675,-0.00001740,0.
 00024458,0.00003283,0.00027834,-0.00010981,-0.00269664,0.00090315,0.00
 043138,0.00091645,-0.00079950,-0.00110243,-0.00008590,0.00009348,-0.00
 003036,-0.00080164,0.00023927,0.00108425,0.14503054,-0.22268708,0.4705
 4627,0.00296603,0.00161510,-0.00065007,-0.00075734,-0.00008057,-0.0002
 7180,-0.29636310,0.12475002,0.07251385,0.00298550,0.00055693,-0.000321
 15,-0.02976780,0.00612913,-0.00223526,-0.00082434,0.00067322,0.0003767
 8,0.00013040,-0.00048437,0.00005003,-0.00087748,0.00124475,0.00074196,
 0.00338555,0.00177202,0.00348406,-0.00010467,-0.00070693,0.00098712,-0
 .00289798,-0.00036839,-0.00251382,-0.00002643,-0.00006677,0.00015070,0
 .00003272,0.00005856,-0.00005339,0.00180724,-0.00006511,0.00096003,-0.
 00054208,-0.00022750,-0.00004653,0.00046153,-0.00136477,-0.00027129,-0
 .00019872,0.00026132,0.00011471,0.00011146,-0.00052068,0.00013686,-0.0
 0030737,0.00051642,-0.00014418,-0.00306924,-0.00069958,0.00158787,0.00
 270100,-0.00002192,-0.00049034,-0.00020490,-0.00014930,-0.00002154,-0.
 00268087,0.00058882,0.00042309,0.00357015,-0.00144287,-0.00552205,0.32
 180112,0.00222355,-0.00073203,0.00024765,0.00026082,-0.00061897,-0.000
 48996,0.15140341,-0.08533864,-0.05740280,0.00134237,-0.00112914,-0.000
 53627,-0.01162983,0.00158295,0.00419590,0.00004153,-0.00020111,0.00001
 030,0.00005705,0.00002747,0.00000384,-0.00002134,-0.00010442,0.0002610
 0,-0.00183527,0.00070665,-0.00105094,-0.00025107,0.00018804,-0.0001219
 9,-0.00124759,0.00024446,-0.00373329,0.00001757,-0.00024804,0.00030796
 ,0.00025976,0.00011187,-0.00012461,-0.00387344,-0.00027222,-0.00020728
 ,0.00019488,0.00032476,0.00012147,-0.00011570,0.00002498,0.00022249,0.
 00002333,-0.00012413,-0.00008224,-0.00029800,0.00032061,0.00004206,0.0
 0012643,-0.00033090,0.00005099,-0.00020265,0.00089202,-0.00159617,-0.0
 0072040,-0.00274518,0.00269341,-0.00005475,0.00010352,0.00018353,-0.00
 053342,0.00154897,-0.00017510,0.00050085,-0.01097996,0.00221269,-0.129
 41520,0.09264510,-0.00587330,-0.00109551,-0.00068739,0.00004536,0.0000
 9152,0.00015087,0.11075569,-0.06990440,-0.07716718,-0.00049745,0.00006
 414,0.00038831,-0.03162146,0.01464790,0.00627870,0.00010215,-0.0002359
 9,-0.00006499,-0.00002026,0.00019360,-0.00000880,0.00006739,0.00016998
 ,-0.00008223,-0.00112607,-0.00138261,-0.00043750,0.00027071,0.00043629
 ,-0.00075223,-0.00017651,-0.00042544,-0.00399303,0.00005579,0.00008576
 ,0.00001959,0.00006677,0.00028884,0.00012668,-0.00206058,0.00006908,0.
 00014956,0.00014968,0.00011397,0.00017329,0.00007370,0.00001117,-0.000
 09659,-0.00001374,-0.00001972,0.00000463,0.00042881,0.00010316,-0.0001
 6073,-0.00002719,-0.00041300,0.00006361,0.00303471,-0.00166063,0.00065
 837,-0.00013714,0.00281921,-0.00061012,0.00006016,-0.00008634,-0.00003
 887,0.00034215,-0.00047668,-0.00057831,0.00043337,0.00147494,-0.013307
 80,-0.07112182,0.05424930,0.08755743,0.00029206,0.00004256,0.00003887,
 -0.00004809,0.00007751,-0.00003401,-0.00086359,0.00079310,0.00240081,-
 0.00006310,0.00011162,0.00000061,0.00015185,-0.00022595,-0.00026789,-0
 .00003996,-0.00001742,-0.00004250,0.00000249,-0.00001244,0.00001499,-0
 .00003243,-0.00000797,0.00001077,0.00021803,0.00011071,0.00008308,0.00
 000373,-0.00002756,0.00003914,-0.00007924,0.00007486,0.00002727,-0.000
 03647,-0.00004442,0.00001839,-0.00004751,-0.00000561,-0.00000429,0.000
 11450,-0.00004259,0.00007857,-0.00000815,-0.00000136,-0.00002423,0.000
 05286,-0.00005989,0.00002925,-0.00001371,0.00000958,-0.00001789,0.0000
 0084,0.00000026,0.00004427,-0.00000253,0.00003576,-0.00001650,-0.00022
 826,0.00027559,-0.00006702,-0.00008218,-0.00014344,-0.00013326,0.00000
 270,0.00000353,-0.00002436,0.00005789,-0.00009634,0.00011333,-0.223622
 83,0.02943292,-0.24713616,-0.00111713,-0.00078433,-0.00615012,0.214822
 40,0.00001356,-0.00004303,0.00000220,0.00004408,-0.00017925,0.00000322
 ,-0.00029337,-0.00044436,-0.00089978,0.00050000,-0.00024977,-0.0001487
 7,0.00016616,0.00000437,0.00034653,0.00016000,0.00005468,0.00010988,-0
 .00000382,0.00000458,-0.00001599,0.00001109,0.00001753,-0.00002355,0.0
 0007899,-0.00000198,-0.00004217,-0.00002169,0.00000582,-0.00004374,0.0
 0009138,0.00014652,-0.00012909,-0.00002874,-0.00004025,0.00002631,0.00
 000739,-0.00000260,-0.00000368,-0.00018511,-0.00009762,0.00001924,0.00
 005134,0.00004994,-0.00000690,-0.00016019,0.00009967,-0.00000771,0.000
 04190,-0.00000599,0.00001488,-0.00017751,-0.00005631,-0.00003484,0.000
 05221,0.00005831,-0.00000789,-0.00000244,-0.00018734,0.00001598,0.0001
 3648,0.00023260,0.00018660,-0.00001393,0.00000089,0.00004491,-0.000489
 15,0.00036645,-0.00009065,-0.00123024,-0.02854403,0.03616686,0.0017986
 5,-0.00022189,0.00165381,-0.02414886,0.03245614,-0.00014296,0.00004818
 ,-0.00001625,0.00000393,-0.00002172,0.00003543,0.00249532,-0.00096129,
 -0.00172551,-0.00004755,0.00004147,0.00009542,-0.00023315,-0.00002210,
 -0.00020493,-0.00001837,0.00002733,0.00001868,-0.00000059,-0.00000349,
 -0.00001093,0.00001251,0.00002964,0.00001746,-0.00011522,-0.00001112,-
 0.00001034,0.00001151,-0.00000572,0.00000170,-0.00003298,-0.00004718,0
 .00006719,0.00001511,0.00003240,-0.00000734,0.00002815,-0.00000896,0.0
 0000910,0.00006578,0.00003148,-0.00003581,-0.00001960,-0.00001090,0.00
 001088,0.00001260,-0.00001881,-0.00004990,-0.00000168,0.00000769,0.000
 02332,0.00003731,-0.00002031,-0.00002978,-0.00001570,-0.00000176,0.000
 01042,0.00013655,-0.00010549,0.00001665,-0.00011958,0.00023984,-0.0000
 0352,0.00000806,-0.00002973,-0.00001345,0.00011336,-0.00009100,-0.0001
 1747,-0.21088156,0.06728421,-0.30457043,-0.00272915,0.00079849,0.00388
 312,0.23434223,-0.06442747,0.32230569,0.00271911,0.00073634,-0.0018018
 6,0.00011985,-0.00031297,-0.00031421,-0.00051133,-0.00043078,0.0006168
 7,0.00164430,-0.00015418,-0.00049162,-0.00012856,0.00053688,0.00000162
 ,-0.00001365,-0.00060844,0.00023381,0.00003465,-0.00004585,-0.00000020
 ,-0.00006631,0.00001068,-0.00005688,0.00000766,-0.00000560,-0.00004928
 ,-0.00073255,-0.00010769,0.00007067,0.00044691,-0.00008490,0.00006881,
 -0.00014044,-0.00010219,0.00009947,-0.00003659,0.00003297,-0.00000918,
 -0.00050737,-0.00021824,0.00007898,0.00022455,0.00015509,-0.00000816,-
 0.00038429,0.00047399,0.00029963,0.00009447,-0.00017123,-0.00011428,-0
 .00095344,0.00043273,0.00025736,0.00031513,0.00013284,-0.00008096,-0.0
 0859918,0.00000895,0.00160059,0.00346988,-0.00241778,-0.00261335,-0.00
 040634,0.00041454,0.00032929,-0.00293236,0.00323352,0.00298543,0.00380
 768,-0.00447707,0.00408228,0.00069412,0.00051993,-0.00083353,-0.001220
 86,-0.00144290,0.00095428,0.31222336,0.00008238,0.00021853,0.00011055,
 0.00022082,0.00010139,0.00006364,-0.00280978,0.00149065,-0.00008833,-0
 .00250366,0.00068006,0.00115835,0.00096273,-0.00027880,0.00083611,-0.0
 0048652,-0.00059581,-0.00037298,-0.00005037,0.00013536,-0.00002877,0.0
 0031307,-0.00018933,-0.00010032,0.00008755,0.00015823,0.00000814,0.000
 04777,0.00012516,-0.00006694,0.00029582,0.00002645,-0.00006027,0.00004
 037,0.00005252,-0.00002859,-0.00007042,0.00000517,0.00006052,-0.000425
 65,0.00019019,-0.00016893,0.00007724,-0.00000417,0.00002422,0.00040866
 ,0.00021444,0.00010724,-0.00004197,-0.00011301,-0.00010511,0.00034038,
 0.00055679,0.00013465,0.00001124,-0.00037215,0.00004796,-0.00051433,0.
 00216294,-0.00046272,-0.00081297,-0.00282595,0.00033740,0.00020493,-0.
 00013495,-0.00006499,0.00449293,-0.00146317,-0.00344378,-0.00614944,-0
 .01084383,0.01351976,0.00412808,-0.00192292,-0.00099469,-0.00153512,-0
 .00145561,0.00043378,-0.11180191,0.39019790,0.00072673,0.00021316,0.00
 023046,-0.00010372,0.00041396,-0.00015701,0.00217611,-0.00025803,0.000
 37316,-0.00151119,0.00060090,0.00060485,-0.00097981,-0.00011919,-0.000
 97408,-0.00028310,-0.00014264,-0.00041373,0.00001973,-0.00009888,0.000
 07833,0.00006901,-0.00000309,0.00009563,0.00001435,0.00009344,0.000087
 19,0.00017864,0.00000022,0.00005228,-0.00021855,-0.00007381,0.00004155
 ,-0.00003481,-0.00000774,0.00001729,-0.00002360,0.00000240,0.00003070,
 0.00042347,0.00001578,0.00015758,-0.00007070,-0.00002632,-0.00005111,0
 .00038010,-0.00024944,0.00011378,-0.00007120,0.00001845,-0.00010283,0.
 00018868,0.00006946,0.00021035,-0.00004923,0.00003697,-0.00003113,-0.0
 0083115,-0.00078840,0.00106483,-0.00119992,0.00078596,-0.00129279,0.00
 015907,-0.00010315,-0.00028537,0.00327698,-0.00279579,-0.00002855,0.00
 445291,0.01157322,-0.00253719,-0.00276616,0.00041860,0.00046683,0.0005
 8993,-0.00080459,0.00053467,0.19117406,0.20812996,0.43554875,-0.000813
 89,-0.00011095,0.00070262,0.00012354,0.00045179,0.00009296,-0.00017465
 ,0.00075116,-0.00022869,-0.00293216,0.00073270,0.00116272,0.00003604,-
 0.00034615,0.00000312,-0.00055847,-0.00026514,-0.00063911,-0.00004204,
 0.00005557,0.00002739,0.00031479,-0.00014492,0.00003670,0.00003306,0.0
 0009215,0.00004508,0.00031426,0.00012656,-0.00000709,-0.00014648,-0.00
 002842,-0.00004242,0.00005865,0.00007759,-0.00003817,-0.00002804,-0.00
 001811,0.00005548,0.00021478,0.00021687,-0.00005616,-0.00010640,-0.000
 07923,0.00000041,0.00073585,-0.00026690,-0.00002966,-0.00010809,0.0000
 2223,-0.00006535,0.00077860,0.00022509,0.00009690,-0.00015407,-0.00026
 129,0.00005262,0.00102292,0.00102186,0.00008098,-0.00439691,-0.0021275
 8,-0.00023640,0.00057415,-0.00051050,-0.00045218,0.00098289,-0.0005175
 8,-0.00091826,-0.00107656,-0.00020302,0.00100903,0.00057955,-0.0006627
 5,0.00008468,0.00014536,0.00007238,0.00000031,-0.06123650,0.12396999,0
 .05759510,0.05866400,-0.00085416,0.00013093,0.00046078,-0.00030289,0.0
 0020538,0.00003808,0.00090424,-0.00020059,-0.00009591,0.00130239,-0.00
 224902,-0.00153681,-0.00019214,-0.00002989,-0.00028552,0.00033444,0.00
 053830,0.00040858,0.00001788,-0.00002917,-0.00000729,-0.00023569,0.000
 11764,0.00004886,0.00000144,-0.00006894,0.00003558,0.00019669,-0.00005
 799,-0.00003480,-0.00018787,0.00007412,0.00001719,0.00002788,-0.000010
 69,-0.00002208,0.00004262,-0.00000470,-0.00004553,0.00020144,-0.000081
 49,0.00002423,-0.00005618,-0.00002838,0.00000287,-0.00048662,-0.000169
 47,-0.00015219,0.00002543,0.00011734,0.00014534,-0.00014819,-0.0004557
 7,-0.00022186,-0.00004583,0.00020136,-0.00000266,0.00174093,-0.0009158
 9,-0.00061935,-0.00237673,0.00206192,0.00073271,0.00009004,0.00004997,
 -0.00001733,0.00023465,-0.00065436,0.00103640,0.00020831,0.00199649,0.
 00043277,-0.00112073,-0.00009991,0.00040335,0.00003107,-0.00056794,0.0
 0023490,0.08633245,-0.33374296,-0.21220772,-0.09238415,0.34027227,-0.0
 0063116,0.00014323,0.00024352,-0.00007000,-0.00051599,0.00054268,-0.00
 020251,-0.00048636,-0.00029780,0.00166237,-0.00141132,-0.00141052,0.00
 038639,0.00005439,0.00026839,0.00035808,0.00036387,0.00060759,-0.00001
 037,0.00004957,-0.00010337,-0.00027451,0.00007038,-0.00004930,-0.00004
 766,-0.00008441,-0.00006209,0.00006176,-0.00004285,-0.00006038,-0.0000
 0986,0.00009022,-0.00000477,0.00002815,-0.00000637,-0.00002023,0.00004
 694,-0.00000671,-0.00004374,-0.00007221,-0.00005867,-0.00005722,0.0000
 0082,-0.00000299,0.00002086,-0.00046899,0.00012910,-0.00017947,0.00006
 411,0.00004791,0.00015158,-0.00018719,-0.00027530,-0.00025781,0.000005
 84,0.00010569,0.00000463,0.00130720,0.00002803,-0.00106468,-0.00009946
 ,0.00041355,0.00218346,-0.00008265,0.00011564,0.00019582,-0.00085804,0
 .00134449,-0.00217776,0.00151737,0.00070705,-0.00325625,-0.00014969,0.
 00054867,0.00019296,-0.00001815,0.00072067,-0.00003648,0.02331415,-0.1
 7633595,-0.15543517,-0.03471608,0.20947628,0.17303227,-0.00131849,-0.0
 0000461,0.00036760,-0.00012630,0.00009284,0.00009037,0.00048755,0.0016
 0109,-0.00067685,0.00010946,0.00030786,0.00005838,-0.00066200,0.000039
 32,-0.00021349,0.00004864,0.00028384,0.00003950,0.00000174,-0.00002024
 ,0.00000663,-0.00008968,0.00005545,0.00005839,0.00007042,-0.00017725,0
 .00009174,0.00016826,-0.00002018,0.00004388,-0.00027246,-0.00004767,-0
 .00000661,0.00005018,0.00003062,-0.00004291,0.00004124,-0.00001053,-0.
 00002071,0.00038974,0.00003977,0.00003609,-0.00011803,-0.00006636,-0.0
 0000515,0.00005835,-0.00024699,-0.00013683,-0.00003356,0.00008707,0.00
 006361,0.00025147,-0.00026367,-0.00011078,-0.00011369,0.00005862,0.000
 00615,0.00125335,-0.00172239,0.00064003,-0.00013182,0.00272723,-0.0006
 0739,0.00000639,-0.00006246,-0.00007442,-0.00060384,-0.00040326,0.0003
 1490,-0.11628604,-0.13895978,0.09396154,-0.00231811,-0.00483079,0.0034
 8862,0.01161337,0.02478250,-0.02372806,-0.00853309,-0.00135632,0.00109
 467,0.00086338,0.00104109,-0.00237479,0.11304178,0.00149923,0.00065687
 ,-0.00068299,-0.00018504,-0.00025818,-0.00014005,0.00492514,-0.0036053
 7,0.00058034,0.00206192,-0.00039548,-0.00084314,-0.00115928,0.00040867
 ,-0.00127260,0.00019293,0.00014072,0.00040152,0.00005081,-0.00017472,0
 .00001229,-0.00025867,0.00019184,0.00009028,-0.00014390,-0.00008629,-0
 .00005353,-0.00026380,-0.00016424,0.00011531,-0.00022643,-0.00008473,0
 .00009175,-0.00011456,-0.00009575,0.00008256,0.00005190,0.00000535,-0.
 00004172,0.00040354,-0.00025210,0.00027441,-0.00001748,0.00005741,-0.0
 0005160,-0.00030976,-0.00006734,0.00003371,0.00004926,0.00004022,0.000
 01417,-0.00062634,-0.00024104,0.00007034,0.00009935,0.00041342,-0.0000
 9937,-0.00258932,-0.00113995,0.00082092,0.00294785,-0.00059179,-0.0003
 4212,-0.00018212,0.00013595,0.00014663,-0.00265592,0.00130008,0.001100
 25,-0.10940296,-0.22423355,0.17385899,-0.00703193,0.00621212,-0.000545
 48,-0.00412739,-0.00187418,-0.00304091,0.00241122,0.00044600,-0.005853
 19,-0.00008999,-0.00472230,-0.00094979,0.11279982,0.22577521,-0.001432
 68,-0.00063942,0.00058202,0.00019090,-0.00010557,0.00013599,-0.0043770
 5,0.00121678,-0.00052641,-0.00048627,-0.00009138,0.00030627,0.00146048
 ,-0.00002602,0.00185069,0.00012397,0.00007311,-0.00006169,-0.00003934,
 0.00014566,-0.00004440,0.00018702,-0.00010721,-0.00011460,0.00002762,-
 0.00015985,-0.00008100,0.00009434,0.00013298,-0.00015537,0.00023532,0.
 00005210,-0.00017798,0.00009742,0.00006606,-0.00005353,0.00002183,-0.0
 0000769,-0.00001161,-0.00052860,0.00012957,-0.00026624,0.00003081,-0.0
 0001082,0.00007091,-0.00001169,0.00015660,-0.00010857,0.00001653,-0.00
 001614,0.00005206,0.00030578,0.00001907,-0.00019126,-0.00004659,-0.000
 24519,0.00008833,0.00253187,0.00027477,-0.00117871,-0.00121082,0.00003
 419,0.00150959,0.00008496,-0.00010048,0.00003438,0.00096915,-0.0001784
 0,-0.00126025,0.05259028,0.14476620,-0.15240875,0.00724136,-0.00122788
 ,-0.00171332,0.01637406,0.02763358,-0.02038118,-0.00248241,-0.00771838
 ,-0.00948819,-0.00177966,-0.00196694,0.00607513,-0.07011394,-0.1665061
 4,0.18162440,-0.00394255,-0.00095438,0.00009756,-0.00009889,0.00005646
 ,0.00025100,-0.00064581,0.00036740,-0.00057230,0.00003306,0.00029305,0
 .00019099,0.00102202,-0.00041588,0.00035782,0.00038261,0.00081311,0.00
 002212,-0.00004740,0.00009181,-0.00002292,-0.00002565,0.00002128,-0.00
 000168,-0.00002145,-0.00004559,0.00002071,0.00029734,0.00006270,0.0000
 3636,-0.00036778,0.00020124,-0.00014172,0.00017075,0.00009019,-0.00011
 536,0.00004869,-0.00002626,-0.00001591,0.00024688,0.00015387,-0.000111
 29,-0.00016324,-0.00012486,0.00002456,0.00002203,-0.00031693,-0.000326
 18,-0.00003785,0.00015879,0.00016739,0.00071002,-0.00055429,-0.0003655
 3,-0.00026695,-0.00009559,0.00007656,0.00422365,0.00106304,-0.00025598
 ,-0.00241599,0.00132296,0.00365911,0.00005144,-0.00017811,-0.00001229,
 -0.00100338,-0.00027501,-0.00043651,-0.00166549,-0.00119847,0.00061133
 ,0.00083120,-0.00049494,0.00019946,0.00002795,0.00018983,-0.00015085,-
 0.23939879,-0.00712551,-0.25437640,0.00633244,0.00565818,0.01152014,0.
 00215179,0.00189193,-0.00007466,0.23354935,-0.00028495,-0.00116247,0.0
 0015620,-0.00007138,-0.00013489,-0.00001641,0.00026778,-0.00021174,-0.
 00014253,0.00096256,0.00003554,-0.00035630,-0.00037084,0.00022290,0.00
 012561,0.00045376,0.00045068,-0.00003296,0.00003034,-0.00006468,0.0000
 4338,-0.00010060,0.00006496,0.00003509,-0.00003950,-0.00015513,-0.0000
 2330,-0.00005065,-0.00001132,0.00001384,-0.00006381,-0.00007753,0.0000
 1585,-0.00001235,-0.00001009,0.00001198,0.00004277,-0.00000352,-0.0000
 3492,0.00008942,-0.00005801,0.00001247,-0.00003651,0.00000189,0.000009
 64,-0.00012888,-0.00008739,-0.00004950,0.00002536,0.00005130,0.0000401
 4,-0.00004770,-0.00034916,-0.00009741,-0.00003175,0.00011954,0.0000078
 1,0.00055436,-0.00119276,-0.00006053,0.00080402,0.00241481,-0.00088569
 ,-0.00009090,0.00005333,-0.00001960,-0.00069466,-0.00026491,0.00110349
 ,-0.00192679,-0.00194929,-0.00088954,-0.00032641,0.00013594,0.00036447
 ,0.00028160,0.00047466,-0.00038143,0.02694960,-0.04281912,0.00115951,-
 0.02979925,-0.00167626,-0.03423205,0.00424539,0.00220314,0.00440684,-0
 .00063002,0.04399957,0.00061220,0.00032470,-0.00099747,0.00001914,-0.0
 0022478,-0.00008916,-0.00052501,-0.00015763,0.00013400,0.00105734,-0.0
 0028534,-0.00036930,0.00019758,0.00021162,0.00015983,0.00002128,-0.000
 19233,0.00026138,0.00000809,0.00002302,-0.00001772,-0.00006317,0.00001
 463,-0.00004243,0.00000292,-0.00002424,-0.00003361,-0.00044525,-0.0000
 6463,0.00005970,0.00020336,0.00000227,0.00003812,-0.00004116,-0.000035
 20,0.00003122,-0.00000744,0.00000824,-0.00001356,-0.00027229,-0.000088
 31,-0.00001547,0.00009332,0.00005902,0.00002032,-0.00024154,0.00020984
 ,0.00005683,0.00005120,-0.00005716,0.00000076,-0.00043678,0.00014237,0
 .00002733,0.00013176,0.00005426,-0.00001874,-0.00255889,0.00009933,0.0
 0001586,0.00411702,-0.00138357,-0.00218774,-0.00016055,0.00018398,0.00
 011996,-0.00114605,0.00077555,0.00102794,0.00076619,-0.00074947,0.0012
 1818,0.00053985,0.00018017,-0.00041482,-0.00026921,-0.00025786,0.00018
 358,-0.21731138,-0.03493153,-0.26891110,-0.02183686,0.00371805,-0.0190
 0187,-0.00225017,0.00272915,-0.00410669,0.23974447,0.02971587,0.292864
 68\\0.00001525,-0.00001418,-0.00009159,-0.00001314,0.00005908,0.000050
 85,-0.00002523,-0.00007013,-0.00004737,-0.00073037,-0.00031123,-0.0010
 5069,-0.00002259,0.00003058,0.00003964,-0.00005013,0.00000999,0.000054
 26,0.00001417,0.00000971,-0.00000591,0.00000720,-0.00000381,0.00000454
 ,0.00000719,-0.00000138,-0.00001475,0.00001154,0.00002883,-0.00000893,
 -0.00000171,0.00001227,0.00000705,-0.00001309,-0.00001178,-0.00001714,
 -0.00000064,-0.00001317,0.00000282,0.00002077,0.00000628,-0.00001236,-
 0.00001483,0.00000118,-0.00001578,-0.00000844,-0.00002965,0.00002112,0
 .00001731,0.00000821,0.00000124,0.00001560,-0.00002733,0.00001590,0.00
 003627,0.00003483,-0.00001309,0.00004730,0.00000557,0.00002659,-0.0000
 3084,0.00000550,-0.00001883,0.00003629,-0.00002709,0.00002460,0.001087
 66,0.00045999,0.00160179,-0.00004629,0.00001705,-0.00005238,0.00005929
 ,0.00000743,0.00002372,-0.00001218,0.00000709,0.00000760,-0.00000146,0
 .00001049,0.00004898,-0.00040799,-0.00015968,-0.00060333,-0.00000051,-
 0.00005361,0.00000471,0.00000358,0.00000897,0.00001672\\\@


 SUCCESS-- IF YOU HAVE TRIED TO DO SOMETHING AND FAILED
           YOU ARE BETTER OFF THAN IF YOU HAD TRIED TO DO
           NOTHING AND SUCCEEDED.

                   -- FROM THE BACK OF A SUGAR PACKET
 Job cpu time:       0 days  0 hours 36 minutes 59.7 seconds.
 File lengths (MBytes):  RWF=    220 Int=      0 D2E=      0 Chk=      6 Scr=      1
 Normal termination of Gaussian 09 at Sun Jan 15 16:00:49 2017.
