 Entering Gaussian System, Link 0=g09
 Initial command:
 /global/software/gaussian/g09.e01/l1.exe "/scratch/10502101.yak.local/Gau-30826.inp" -scrdir="/scratch/10502101.yak.local/"
 Entering Link 1 = /global/software/gaussian/g09.e01/l1.exe PID=     30827.
  
 Copyright (c) 1988,1990,1992,1993,1995,1998,2003,2009,2015,
            Gaussian, Inc.  All Rights Reserved.
  
 This is part of the Gaussian(R) 09 program.  It is based on
 the Gaussian(R) 03 system (copyright 2003, Gaussian, Inc.),
 the Gaussian(R) 98 system (copyright 1998, Gaussian, Inc.),
 the Gaussian(R) 94 system (copyright 1995, Gaussian, Inc.),
 the Gaussian 92(TM) system (copyright 1992, Gaussian, Inc.),
 the Gaussian 90(TM) system (copyright 1990, Gaussian, Inc.),
 the Gaussian 88(TM) system (copyright 1988, Gaussian, Inc.),
 the Gaussian 86(TM) system (copyright 1986, Carnegie Mellon
 University), and the Gaussian 82(TM) system (copyright 1983,
 Carnegie Mellon University). Gaussian is a federally registered
 trademark of Gaussian, Inc.
  
 This software contains proprietary and confidential information,
 including trade secrets, belonging to Gaussian, Inc.
  
 This software is provided under written license and may be
 used, copied, transmitted, or stored only in accord with that
 written license.
  
 The following legend is applicable only to US Government
 contracts under FAR:
  
                    RESTRICTED RIGHTS LEGEND
  
 Use, reproduction and disclosure by the US Government is
 subject to restrictions as set forth in subparagraphs (a)
 and (c) of the Commercial Computer Software - Restricted
 Rights clause in FAR 52.227-19.
  
 Gaussian, Inc.
 340 Quinnipiac St., Bldg. 40, Wallingford CT 06492
  
  
 ---------------------------------------------------------------
 Warning -- This program may not be used in any manner that
 competes with the business of Gaussian, Inc. or will provide
 assistance to any competitor of Gaussian, Inc.  The licensee
 of this program is prohibited from giving any competitor of
 Gaussian, Inc. access to this program.  By using this program,
 the user acknowledges that Gaussian, Inc. is engaged in the
 business of creating and licensing software in the field of
 computational chemistry and represents and warrants to the
 licensee that it is not a competitor of Gaussian, Inc. and that
 it will not use this program in any manner prohibited above.
 ---------------------------------------------------------------
  

 Cite this work as:
 Gaussian 09, Revision E.01,
 M. J. Frisch, G. W. Trucks, H. B. Schlegel, G. E. Scuseria, 
 M. A. Robb, J. R. Cheeseman, G. Scalmani, V. Barone, B. Mennucci, 
 G. A. Petersson, H. Nakatsuji, M. Caricato, X. Li, H. P. Hratchian, 
 A. F. Izmaylov, J. Bloino, G. Zheng, J. L. Sonnenberg, M. Hada, 
 M. Ehara, K. Toyota, R. Fukuda, J. Hasegawa, M. Ishida, T. Nakajima, 
 Y. Honda, O. Kitao, H. Nakai, T. Vreven, J. A. Montgomery, Jr., 
 J. E. Peralta, F. Ogliaro, M. Bearpark, J. J. Heyd, E. Brothers, 
 K. N. Kudin, V. N. Staroverov, T. Keith, R. Kobayashi, J. Normand, 
 K. Raghavachari, A. Rendell, J. C. Burant, S. S. Iyengar, J. Tomasi, 
 M. Cossi, N. Rega, J. M. Millam, M. Klene, J. E. Knox, J. B. Cross, 
 V. Bakken, C. Adamo, J. Jaramillo, R. Gomperts, R. E. Stratmann, 
 O. Yazyev, A. J. Austin, R. Cammi, C. Pomelli, J. W. Ochterski, 
 R. L. Martin, K. Morokuma, V. G. Zakrzewski, G. A. Voth, 
 P. Salvador, J. J. Dannenberg, S. Dapprich, A. D. Daniels, 
 O. Farkas, J. B. Foresman, J. V. Ortiz, J. Cioslowski, 
 and D. J. Fox, Gaussian, Inc., Wallingford CT, 2013.
 
 ******************************************
 Gaussian 09:  ES64L-G09RevE.01 30-Nov-2015
                31-Jan-2017 
 ******************************************
 %NPROCS=4
 Will use up to    4 processors via shared memory.
 --------------------------------------------------
 # b3lyp/6-31g(d) irc=(calcfc,forward,maxpoints=20)
 --------------------------------------------------
 1/10=4,14=-1,18=10,22=1,26=3,38=1,42=20,44=3/1,23;
 2/12=2,17=6,18=5,29=1,40=1/2;
 3/5=1,6=6,7=1,11=2,16=1,25=1,30=1,71=2,74=-5,140=1/1,2,3;
 4//1;
 5/5=2,38=5/2;
 8/6=4,10=90,11=11/1;
 11/6=1,8=1,9=11,15=111,16=1/1,2,10;
 10/6=1,13=1/2;
 6/7=2,8=2,9=2,10=2,28=1/1;
 7/10=1,18=20,25=1/1,2,3,16;
 1/10=4,14=-1,18=10,22=1,26=3,42=20,44=3/23(2);
 2/29=1/2;
 99/5=20/99;
 2/29=1/2;
 3/5=1,6=6,7=1,11=2,16=1,25=1,30=1,71=2,74=-5,140=1/1,2,3;
 4/5=5,16=3,69=1/1;
 5/5=2,38=5/2;
 8/6=4,10=90,11=11/1;
 11/6=1,8=1,9=11,15=111,16=1/1,2,10;
 10/6=1,13=1/2;
 7/10=1,18=20,25=1/1,2,3,16;
 1/14=-1,18=10,22=1,26=3,42=20,44=3/23(-8);
 2/29=1/2;
 6/7=2,8=2,9=2,10=2,19=2,28=1/1;
 99/5=20,9=1/99;
 -------------------------------------------
 ./6/glo_1w_alpha_boat6_B3LYP_631Gd_iopt.out
 -------------------------------------------
 Symbolic Z-matrix:
 Charge =  0 Multiplicity = 1
 C                    -0.66193  -0.47012  -0.68575 
 C                     1.48575   0.66064   0.06299 
 C                     0.78549  -0.69586  -0.23807 
 C                     0.5449    1.88164   0.02973 
 H                     1.00297   2.68852   0.62156 
 H                     2.21973   0.83556  -0.7265 
 H                    -0.70098   0.11727  -1.60706 
 H                     0.72022  -1.24582   0.71991 
 C                    -0.84996   1.58069   0.62261 
 O                    -1.30173   0.26275   0.38865 
 C                    -1.41992  -1.76999  -0.87414 
 H                    -0.88232  -2.35327  -1.63187 
 H                    -1.41835  -2.33024   0.07191 
 O                    -2.75117  -1.45375  -1.28006 
 H                    -3.16673  -2.27718  -1.57595 
 O                     0.43254   2.25614  -1.33234 
 H                    -0.42086   2.72236  -1.40592 
 O                     2.25143   0.60389   1.28252 
 H                     1.67916   0.2566    1.98695 
 O                     1.4648   -1.45771  -1.20681 
 H                     2.34968  -1.66262  -0.82573 
 O                    -2.21272  -1.60667   2.38946 
 H                    -2.63055   2.14543   0.11916 
 H                    -1.97295  -0.89305   1.76983 
 H                    -3.08391  -1.88771   2.07234 
 O                     3.82551  -1.50514   0.2836 
 H                     4.58947  -1.14813  -0.19387 
 H                     3.48534  -0.75118   0.81285 
 O                    -1.73787   2.52135   0.04661 
 H                    -0.84231   1.69457   1.71504 
 
 IRC-IRC-IRC-IRC-IRC-IRC-IRC-IRC-IRC-IRC-IRC-IRC-IRC-IRC-IRC-IRC-IRC-IRC
 ------------------------------------------------------------------------
 INPUT DATA FOR L123
 ------------------------------------------------------------------------
 GENERAL PARAMETERS:
 Rxn path following direction = Forward
 Maximum points per path      =  20
 Step size                    =   0.100 bohr
 Integration scheme           = HPC                                 
    Redo corrector integration= Yes                                 
    DWI Weight Power          =  2
    DWI will use Hessian update vectors when possible.
    Max correction cycles     =  20
 Initial Hessian              = CalcFC
 Hessian evaluation           = All updating
 Hessian updating method      = Bofill                              
 ------------------------------------------------------------------------
 IRC-IRC-IRC-IRC-IRC-IRC-IRC-IRC-IRC-IRC-IRC-IRC-IRC-IRC-IRC-IRC-IRC-IRC
                          Input orientation:                          
 ---------------------------------------------------------------------
 Center     Atomic      Atomic             Coordinates (Angstroms)
 Number     Number       Type             X           Y           Z
 ---------------------------------------------------------------------
      1          6           0       -0.661930   -0.470120   -0.685750
      2          6           0        1.485750    0.660640    0.062990
      3          6           0        0.785490   -0.695860   -0.238070
      4          6           0        0.544900    1.881640    0.029730
      5          1           0        1.002970    2.688520    0.621560
      6          1           0        2.219730    0.835560   -0.726500
      7          1           0       -0.700980    0.117270   -1.607060
      8          1           0        0.720220   -1.245820    0.719910
      9          6           0       -0.849960    1.580690    0.622610
     10          8           0       -1.301730    0.262750    0.388650
     11          6           0       -1.419920   -1.769990   -0.874140
     12          1           0       -0.882320   -2.353270   -1.631870
     13          1           0       -1.418350   -2.330240    0.071910
     14          8           0       -2.751170   -1.453750   -1.280060
     15          1           0       -3.166730   -2.277180   -1.575950
     16          8           0        0.432540    2.256140   -1.332340
     17          1           0       -0.420860    2.722360   -1.405920
     18          8           0        2.251430    0.603890    1.282520
     19          1           0        1.679160    0.256600    1.986950
     20          8           0        1.464800   -1.457710   -1.206810
     21          1           0        2.349680   -1.662620   -0.825730
     22          8           0       -2.212720   -1.606670    2.389460
     23          1           0       -2.630550    2.145430    0.119160
     24          1           0       -1.972950   -0.893050    1.769830
     25          1           0       -3.083910   -1.887710    2.072340
     26          8           0        3.825510   -1.505140    0.283600
     27          1           0        4.589470   -1.148130   -0.193870
     28          1           0        3.485340   -0.751180    0.812850
     29          8           0       -1.737870    2.521350    0.046610
     30          1           0       -0.842310    1.694570    1.715040
 ---------------------------------------------------------------------
                    Distance matrix (angstroms):
                    1          2          3          4          5
     1  C    0.000000
     2  C    2.540031   0.000000
     3  C    1.531797   1.555986   0.000000
     4  C    2.738453   1.541800   2.602519   0.000000
     5  H    3.802362   2.158095   3.498612   1.100521   0.000000
     6  H    3.163926   1.092071   2.154264   2.114527   2.594462
     7  H    1.093327   2.804658   2.178281   2.710037   3.805459
     8  H    2.118473   2.156889   1.106545   3.207506   3.945713
     9  C    2.439874   2.572005   2.932260   1.545222   2.158851
    10  O    1.449406   2.834504   2.380798   2.481868   3.354139
    11  C    1.516477   3.902447   2.534201   4.244043   5.290163
    12  H    2.118955   4.190938   2.733364   4.767844   5.835402
    13  H    2.146221   4.168842   2.761195   4.647156   5.599362
    14  O    2.384461   4.921983   3.764054   4.868722   5.904924
    15  H    3.214334   5.741296   4.462123   5.800878   6.846432
    16  O    3.008062   2.366816   3.168013   1.417078   2.080882
    17  H    3.281568   3.169156   3.808331   1.923693   2.477723
    18  O    3.676309   1.441090   2.480025   2.472726   2.518174
    19  H    3.626589   1.975418   2.580027   2.785321   2.869801
    20  O    2.402045   2.469866   1.407244   3.677840   4.554937
    21  H    3.242136   2.633199   1.930456   4.068270   4.779194
    22  O    3.626791   4.922584   4.089346   5.033994   5.649318
    23  H    3.371119   4.376263   4.457563   3.187643   3.708075
    24  H    2.815585   4.158108   3.417534   4.131153   4.796068
    25  H    3.934795   5.604763   4.661626   5.616807   6.304699
    26  O    4.706169   3.195896   3.188855   4.721984   5.066333
    27  H    5.317786   3.601486   3.831027   5.058463   5.314865
    28  H    4.418670   2.560056   2.897703   4.023830   4.246209
    29  O    3.262344   3.722128   4.098637   2.370770   2.805480
    30  H    3.237624   3.036140   3.489775   2.190803   2.364042
                    6          7          8          9         10
     6  H    0.000000
     7  H    3.133987   0.000000
     8  H    2.944958   3.048379   0.000000
     9  C    3.434867   2.671184   3.234825   0.000000
    10  O    3.737961   2.089240   2.544366   1.412728   0.000000
    11  C    4.478587   2.148441   2.719549   3.713781   2.395963
    12  H    4.539939   2.477311   3.053760   4.534288   3.331961
    13  H    4.888290   3.053500   2.483818   3.990202   2.614866
    14  O    5.500656   2.603519   4.011691   4.054945   2.798543
    15  H    6.278907   3.437191   4.630665   5.008418   3.713371
    16  O    2.362020   2.436207   4.069179   2.433694   3.153269
    17  H    3.315772   2.627816   4.644100   2.366954   3.169558
    18  O    2.022582   4.159711   2.466285   3.317867   3.679718
    19  H    2.826698   4.312933   2.186829   3.164030   3.382352
    20  O    2.461647   2.707649   2.076426   4.235182   3.627556
    21  H    2.503525   3.617321   2.284265   4.780632   4.302855
    22  O    5.943089   4.607548   3.394075   3.890776   2.885806
    23  H    5.094715   3.288846   4.805116   1.934656   2.320102
    24  H    5.176710   3.747271   2.912034   2.949002   1.921996
    25  H    6.586221   4.820403   4.088092   4.372876   3.261205
    26  O    3.012923   5.166810   3.146496   5.612245   5.424487
    27  H    3.135983   5.620249   3.976887   6.140073   6.085733
    28  H    2.547373   4.912784   2.810551   4.926321   4.911623
    29  O    4.370605   3.096670   4.548308   1.415981   2.325615
    30  H    4.009377   3.680244   3.475295   1.098376   2.005115
                   11         12         13         14         15
    11  C    0.000000
    12  H    1.096989   0.000000
    13  H    1.099497   1.786260   0.000000
    14  O    1.427237   2.103689   2.091044   0.000000
    15  H    1.949647   2.286361   2.403142   0.968647   0.000000
    16  O    4.455477   4.802628   5.141264   4.888970   5.793538
    17  H    4.632723   5.101570   5.357960   4.783940   5.706497
    18  O    4.874967   5.201813   4.852008   5.985541   6.769629
    19  H    4.679444   5.144751   4.466955   5.764241   6.526634
    20  O    2.920582   2.547877   3.272459   4.216608   4.717930
    21  H    3.771440   3.401865   3.930588   5.125301   5.601008
    22  O    3.362483   4.300985   2.554528   3.711966   4.133303
    23  H    4.216964   5.134269   4.637163   3.863478   4.766589
    24  H    2.839972   3.859181   2.292603   3.197161   3.812502
    25  H    3.385922   4.334157   2.640387   3.396708   3.669954
    26  O    5.378201   5.152865   5.312595   6.760207   7.276358
    27  H    6.079658   5.784522   6.128778   7.426857   7.958865
    28  H    5.286349   5.255455   5.204671   6.615734   7.230842
    29  O    4.400508   5.226010   4.862166   4.311409   5.263101
    30  H    4.363561   5.252468   4.385293   4.746187   5.657591
                   16         17         18         19         20
    16  O    0.000000
    17  H    0.975226   0.000000
    18  O    3.588284   4.342437   0.000000
    19  H    4.070615   4.690589   0.971764   0.000000
    20  O    3.856683   4.590027   3.326521   3.631103   0.000000
    21  H    4.391897   5.219249   3.097005   3.470471   0.984999
    22  O    5.980844   6.029608   5.102992   4.333650   5.145824
    23  H    3.391405   2.746170   5.250093   5.062600   5.613618
    24  H    5.032617   5.056240   4.508180   3.834937   4.582287
    25  H    6.413171   6.359471   5.941190   5.224193   5.623921
    26  O    5.317023   6.225584   2.814885   3.257598   2.792226
    27  H    5.492289   6.446174   3.273489   3.898608   3.299311
    28  H    4.792223   5.678628   1.891914   2.378322   2.942923
    29  O    2.585057   1.970980   4.595502   4.535428   5.259380
    30  H    3.350691   3.312758   3.308759   2.915391   4.878200
                   21         22         23         24         25
    21  H    0.000000
    22  O    5.581762   0.000000
    23  H    6.340091   4.405349   0.000000
    24  H    5.100422   0.975031   3.519874   0.000000
    25  H    6.162254   0.968773   4.504072   1.521543   0.000000
    26  O    1.852967   6.395715   7.418518   6.017115   7.147450
    27  H    2.383402   7.290654   7.941928   6.854673   8.035138
    28  H    2.192120   5.973730   6.802622   5.543362   6.784767
    29  O    5.913937   4.770218   0.971317   3.831824   5.035396
    30  H    5.283468   3.637451   2.438834   2.824381   4.240892
                   26         27         28         29         30
    26  O    0.000000
    27  H    0.969056   0.000000
    28  H    0.981976   1.546013   0.000000
    29  O    6.871680   7.318343   6.211159   0.000000
    30  H    5.837440   6.420990   5.052148   2.066217   0.000000
 Symmetry turned off by external request.
 Stoichiometry    C6H16O8
 Framework group  C1[X(C6H16O8)]
 Deg. of freedom    84
 Full point group                 C1      NOp   1
 Rotational constants (GHZ):      0.6689434      0.4894469      0.3902372
 Standard basis: 6-31G(d) (6D, 7F)
   242 basis functions,   456 primitive gaussians,   242 cartesian basis functions
    58 alpha electrons       58 beta electrons
       nuclear repulsion energy      1100.9680701385 Hartrees.
 NAtoms=   30 NActive=   30 NUniq=   30 SFac= 1.00D+00 NAtFMM=   60 NAOKFM=F Big=F
 Integral buffers will be    131072 words long.
 Raffenetti 2 integral format.
 Two-electron integral symmetry is turned off.
 One-electron integrals computed using PRISM.
 NBasis=   242 RedAO= T EigKep=  1.29D-03  NBF=   242
 NBsUse=   242 1.00D-06 EigRej= -1.00D+00 NBFU=   242
 ExpMin= 1.61D-01 ExpMax= 5.48D+03 ExpMxC= 8.25D+02 IAcc=1 IRadAn=         1 AccDes= 0.00D+00
 Harris functional with IExCor=  402 and IRadAn=       1 diagonalized for initial guess.
 HarFok:  IExCor=  402 AccDes= 0.00D+00 IRadAn=         1 IDoV= 1 UseB2=F ITyADJ=14
 ICtDFT=  3500011 ScaDFX=  1.000000  1.000000  1.000000  1.000000
 FoFCou: FMM=F IPFlag=           0 FMFlag=      100000 FMFlg1=           0
         NFxFlg=           0 DoJE=T BraDBF=F KetDBF=T FulRan=T
         wScrn=  0.000000 ICntrl=     500 IOpCl=  0 I1Cent=   200000004 NGrid=           0
         NMat0=    1 NMatS0=      1 NMatT0=    0 NMatD0=    1 NMtDS0=    0 NMtDT0=    0
 Symmetry not used in FoFCou.
 Requested convergence on RMS density matrix=1.00D-08 within 128 cycles.
 Requested convergence on MAX density matrix=1.00D-06.
 Requested convergence on             energy=1.00D-06.
 No special actions if energy rises.
 Integral accuracy reduced to 1.0D-05 until final iterations.
 Initial convergence to 1.0D-05 achieved.  Increase integral accuracy.
 SCF Done:  E(RB3LYP) =  -839.983983016     A.U. after   14 cycles
            NFock= 14  Conv=0.41D-08     -V/T= 2.0085
 DoSCS=F DFT=T ScalE2(SS,OS)=  1.000000  1.000000
 Range of M.O.s used for correlation:     1   242
 NBasis=   242 NAE=    58 NBE=    58 NFC=     0 NFV=     0
 NROrb=    242 NOA=    58 NOB=    58 NVA=   184 NVB=   184
 Symmetrizing basis deriv contribution to polar:
 IMax=3 JMax=2 DiffMx= 0.00D+00
 G2DrvN: will do    31 centers at a time, making    1 passes.
 Calling FoFCou, ICntrl=  3107 FMM=F I1Cent=   0 AccDes= 0.00D+00.
 End of G2Drv F.D. properties file   721 does not exist.
 End of G2Drv F.D. properties file   722 does not exist.
 End of G2Drv F.D. properties file   788 does not exist.
          IDoAtm=111111111111111111111111111111
          Differentiating once with respect to nuclear coordinates.
          There are    93 degrees of freedom in the 1st order CPHF.  IDoFFX=6 NUNeed=     0.
     87 vectors produced by pass  0 Test12= 1.15D-14 1.08D-09 XBig12= 1.25D-01 8.24D-02.
 AX will form    87 AO Fock derivatives at one time.
     87 vectors produced by pass  1 Test12= 1.15D-14 1.08D-09 XBig12= 9.16D-03 1.06D-02.
     87 vectors produced by pass  2 Test12= 1.15D-14 1.08D-09 XBig12= 5.14D-05 7.27D-04.
     87 vectors produced by pass  3 Test12= 1.15D-14 1.08D-09 XBig12= 1.38D-07 4.54D-05.
     87 vectors produced by pass  4 Test12= 1.15D-14 1.08D-09 XBig12= 1.78D-10 1.39D-06.
     65 vectors produced by pass  5 Test12= 1.15D-14 1.08D-09 XBig12= 1.51D-13 3.12D-08.
 InvSVY:  IOpt=1 It=  1 EMax= 6.66D-16
 Solved reduced A of dimension   500 with    93 vectors.
 End of Minotr F.D. properties file   721 does not exist.
 End of Minotr F.D. properties file   722 does not exist.
 End of Minotr F.D. properties file   788 does not exist.

 **********************************************************************

            Population analysis using the SCF density.

 **********************************************************************

 Alpha  occ. eigenvalues --  -19.18258 -19.18136 -19.17668 -19.15542 -19.15024
 Alpha  occ. eigenvalues --  -19.14814 -19.13200 -19.11926 -10.30576 -10.25061
 Alpha  occ. eigenvalues --  -10.25041 -10.24417 -10.24388 -10.23067  -1.09303
 Alpha  occ. eigenvalues --   -1.05181  -1.03334  -1.02081  -1.01590  -1.01387
 Alpha  occ. eigenvalues --   -1.00544  -0.97872  -0.78586  -0.77535  -0.69858
 Alpha  occ. eigenvalues --   -0.65913  -0.62813  -0.58309  -0.56177  -0.53825
 Alpha  occ. eigenvalues --   -0.53669  -0.52750  -0.51916  -0.50604  -0.49707
 Alpha  occ. eigenvalues --   -0.48316  -0.46458  -0.45181  -0.43535  -0.43003
 Alpha  occ. eigenvalues --   -0.42239  -0.41002  -0.40007  -0.39152  -0.38194
 Alpha  occ. eigenvalues --   -0.36336  -0.35592  -0.34903  -0.34212  -0.32512
 Alpha  occ. eigenvalues --   -0.31697  -0.30675  -0.30135  -0.28991  -0.28091
 Alpha  occ. eigenvalues --   -0.27860  -0.26586  -0.25450
 Alpha virt. eigenvalues --    0.03755   0.05540   0.06665   0.07239   0.08828
 Alpha virt. eigenvalues --    0.10248   0.10642   0.12637   0.13467   0.13663
 Alpha virt. eigenvalues --    0.14683   0.16128   0.17285   0.18140   0.18242
 Alpha virt. eigenvalues --    0.19071   0.20464   0.20613   0.21675   0.23140
 Alpha virt. eigenvalues --    0.23696   0.24981   0.25613   0.27130   0.29838
 Alpha virt. eigenvalues --    0.31264   0.31924   0.34119   0.51337   0.52514
 Alpha virt. eigenvalues --    0.53504   0.54375   0.57796   0.58859   0.59234
 Alpha virt. eigenvalues --    0.59795   0.62555   0.63223   0.65879   0.66494
 Alpha virt. eigenvalues --    0.69081   0.69962   0.71684   0.73616   0.76085
 Alpha virt. eigenvalues --    0.78050   0.78812   0.79266   0.79978   0.80548
 Alpha virt. eigenvalues --    0.81024   0.82782   0.83027   0.84185   0.84758
 Alpha virt. eigenvalues --    0.86145   0.87721   0.87871   0.88584   0.89855
 Alpha virt. eigenvalues --    0.91161   0.91854   0.92283   0.93981   0.95934
 Alpha virt. eigenvalues --    0.96405   0.97954   0.98974   0.99218   1.01403
 Alpha virt. eigenvalues --    1.03957   1.04820   1.05462   1.06191   1.08297
 Alpha virt. eigenvalues --    1.09554   1.10425   1.11356   1.12048   1.13841
 Alpha virt. eigenvalues --    1.15886   1.18322   1.21259   1.21900   1.22787
 Alpha virt. eigenvalues --    1.24658   1.27951   1.29464   1.31668   1.36132
 Alpha virt. eigenvalues --    1.37957   1.39937   1.42924   1.45912   1.46548
 Alpha virt. eigenvalues --    1.48938   1.52781   1.55978   1.59050   1.60409
 Alpha virt. eigenvalues --    1.62103   1.64847   1.67170   1.67546   1.69001
 Alpha virt. eigenvalues --    1.69730   1.71541   1.72511   1.73387   1.74613
 Alpha virt. eigenvalues --    1.76072   1.76600   1.77586   1.78533   1.79176
 Alpha virt. eigenvalues --    1.80139   1.81846   1.82615   1.84574   1.87608
 Alpha virt. eigenvalues --    1.88189   1.90459   1.93032   1.93737   1.94032
 Alpha virt. eigenvalues --    1.96520   1.99369   2.00191   2.03409   2.06000
 Alpha virt. eigenvalues --    2.06266   2.08302   2.10808   2.12944   2.15225
 Alpha virt. eigenvalues --    2.17678   2.20656   2.22503   2.27800   2.29803
 Alpha virt. eigenvalues --    2.31208   2.33477   2.35879   2.37771   2.38893
 Alpha virt. eigenvalues --    2.40233   2.42455   2.45505   2.47131   2.48819
 Alpha virt. eigenvalues --    2.51296   2.53381   2.55072   2.56436   2.58680
 Alpha virt. eigenvalues --    2.60530   2.62630   2.63947   2.66142   2.67924
 Alpha virt. eigenvalues --    2.69613   2.75619   2.81681   2.86412   2.88046
 Alpha virt. eigenvalues --    2.93869   2.95036   2.98232   3.01232   3.06261
 Alpha virt. eigenvalues --    3.68021   3.72067   3.77111   3.79484   3.83532
 Alpha virt. eigenvalues --    3.89322   3.98115   4.17885   4.27439   4.35550
 Alpha virt. eigenvalues --    4.43371   4.53791   4.61209   4.80351
          Condensed to atoms (all electrons):
               1          2          3          4          5          6
     1  C    5.003329  -0.043228   0.299892  -0.002466   0.000547  -0.000695
     2  C   -0.043228   5.073235   0.314564   0.296940  -0.048917   0.354102
     3  C    0.299892   0.314564   4.956757  -0.027724   0.004288  -0.042666
     4  C   -0.002466   0.296940  -0.027724   5.043875   0.353566  -0.035022
     5  H    0.000547  -0.048917   0.004288   0.353566   0.620902  -0.002836
     6  H   -0.000695   0.354102  -0.042666  -0.035022  -0.002836   0.557661
     7  H    0.346046  -0.011837  -0.038347  -0.003948   0.000306   0.001384
     8  H   -0.045253  -0.070148   0.339668   0.002674  -0.000378   0.005912
     9  C   -0.026757  -0.029167  -0.021563   0.277638  -0.045216   0.005628
    10  O    0.165007  -0.003871  -0.034465  -0.017254   0.003003   0.000199
    11  C    0.349301   0.004912  -0.029938  -0.000132   0.000026  -0.000220
    12  H   -0.036816   0.000184  -0.001320  -0.000013   0.000000   0.000006
    13  H   -0.036308  -0.000068  -0.004526  -0.000023  -0.000000   0.000003
    14  O   -0.046584  -0.000040   0.002259   0.000013  -0.000000   0.000000
    15  H    0.006369   0.000004  -0.000240  -0.000001   0.000000  -0.000000
    16  O   -0.004415  -0.044643   0.000781   0.203890  -0.034773   0.004246
    17  H    0.000840   0.005962  -0.000143  -0.036499   0.000135  -0.000366
    18  O    0.002970   0.184750  -0.032461  -0.033205   0.005739  -0.037291
    19  H   -0.000173  -0.026237  -0.005792  -0.003658  -0.000522   0.006583
    20  O   -0.041693  -0.041356   0.224079   0.002820  -0.000080   0.004734
    21  H    0.004916   0.000592  -0.022735   0.000159   0.000001   0.001054
    22  O    0.000828   0.000014  -0.000589  -0.000017   0.000000  -0.000000
    23  H   -0.000212  -0.000214   0.000108   0.006968  -0.000346   0.000008
    24  H   -0.006469  -0.000100   0.000732   0.000375  -0.000019   0.000002
    25  H   -0.000428  -0.000000   0.000048  -0.000000  -0.000000   0.000000
    26  O    0.000032   0.006698   0.000188   0.000126   0.000001   0.002964
    27  H   -0.000002   0.000281  -0.000332   0.000010  -0.000001   0.000537
    28  H    0.000039  -0.006651   0.001206   0.000702  -0.000015  -0.003098
    29  O    0.000324   0.001754   0.000225  -0.049464   0.000726  -0.000072
    30  H    0.006716  -0.000762   0.000313  -0.057704  -0.000616  -0.000186
               7          8          9         10         11         12
     1  C    0.346046  -0.045253  -0.026757   0.165007   0.349301  -0.036816
     2  C   -0.011837  -0.070148  -0.029167  -0.003871   0.004912   0.000184
     3  C   -0.038347   0.339668  -0.021563  -0.034465  -0.029938  -0.001320
     4  C   -0.003948   0.002674   0.277638  -0.017254  -0.000132  -0.000013
     5  H    0.000306  -0.000378  -0.045216   0.003003   0.000026   0.000000
     6  H    0.001384   0.005912   0.005628   0.000199  -0.000220   0.000006
     7  H    0.574080   0.006979   0.000112  -0.036345  -0.041112  -0.003656
     8  H    0.006979   0.675103   0.002454   0.003199  -0.015075   0.000315
     9  C    0.000112   0.002454   4.709221   0.216463   0.003652  -0.000093
    10  O   -0.036345   0.003199   0.216463   8.350914  -0.040324   0.003259
    11  C   -0.041112  -0.015075   0.003652  -0.040324   4.941947   0.355987
    12  H   -0.003656   0.000315  -0.000093   0.003259   0.355987   0.589056
    13  H    0.005827   0.007462  -0.000047  -0.004349   0.333518  -0.041629
    14  O    0.003702  -0.000028  -0.000236   0.003263   0.238642  -0.032334
    15  H   -0.000101  -0.000002   0.000013  -0.000003  -0.024003  -0.005632
    16  O    0.016550  -0.000025  -0.022066  -0.001676   0.000364   0.000001
    17  H   -0.000482   0.000012  -0.014606   0.000356  -0.000040  -0.000001
    18  O    0.000019  -0.002304   0.002206  -0.000441  -0.000040  -0.000002
    19  H    0.000061   0.010656   0.001964   0.000369  -0.000049   0.000001
    20  O    0.003416  -0.036174   0.000297   0.001279  -0.000650   0.010361
    21  H   -0.000238  -0.003915  -0.000040  -0.000087   0.000027   0.000015
    22  O   -0.000036   0.001138   0.000182  -0.013390  -0.005191   0.000136
    23  H   -0.000158  -0.000001  -0.019000   0.008536  -0.000168   0.000003
    24  H    0.000414   0.000728  -0.001087   0.047377   0.001010   0.000098
    25  H   -0.000001  -0.000067   0.000021   0.000670   0.001258   0.000038
    26  O    0.000000   0.000470  -0.000001   0.000000  -0.000001   0.000001
    27  H    0.000000   0.000004  -0.000000  -0.000000  -0.000000  -0.000000
    28  H   -0.000003   0.000011  -0.000026  -0.000001   0.000000  -0.000000
    29  O    0.002781   0.000004   0.243611  -0.061518  -0.000141   0.000002
    30  H   -0.000127  -0.000150   0.378016  -0.058078  -0.000260   0.000005
              13         14         15         16         17         18
     1  C   -0.036308  -0.046584   0.006369  -0.004415   0.000840   0.002970
     2  C   -0.000068  -0.000040   0.000004  -0.044643   0.005962   0.184750
     3  C   -0.004526   0.002259  -0.000240   0.000781  -0.000143  -0.032461
     4  C   -0.000023   0.000013  -0.000001   0.203890  -0.036499  -0.033205
     5  H   -0.000000  -0.000000   0.000000  -0.034773   0.000135   0.005739
     6  H    0.000003   0.000000  -0.000000   0.004246  -0.000366  -0.037291
     7  H    0.005827   0.003702  -0.000101   0.016550  -0.000482   0.000019
     8  H    0.007462  -0.000028  -0.000002  -0.000025   0.000012  -0.002304
     9  C   -0.000047  -0.000236   0.000013  -0.022066  -0.014606   0.002206
    10  O   -0.004349   0.003263  -0.000003  -0.001676   0.000356  -0.000441
    11  C    0.333518   0.238642  -0.024003   0.000364  -0.000040  -0.000040
    12  H   -0.041629  -0.032334  -0.005632   0.000001  -0.000001  -0.000002
    13  H    0.625131  -0.042761  -0.001308  -0.000005   0.000000  -0.000005
    14  O   -0.042761   8.269356   0.234444  -0.000001  -0.000001   0.000000
    15  H   -0.001308   0.234444   0.394252   0.000000  -0.000000  -0.000000
    16  O   -0.000005  -0.000001   0.000000   8.303660   0.232473   0.001482
    17  H    0.000000  -0.000001  -0.000000   0.232473   0.351814  -0.000109
    18  O   -0.000005   0.000000  -0.000000   0.001482  -0.000109   8.281347
    19  H   -0.000005   0.000000  -0.000000  -0.000019   0.000009   0.231627
    20  O    0.000145   0.000035   0.000007  -0.000140   0.000008   0.001204
    21  H   -0.000062   0.000001  -0.000001  -0.000017   0.000000   0.000447
    22  O    0.021082  -0.000307   0.000026   0.000000   0.000000  -0.000000
    23  H    0.000001   0.000200  -0.000006   0.000378  -0.001616   0.000002
    24  H   -0.002662   0.000779  -0.000060  -0.000005  -0.000002  -0.000001
    25  H   -0.001358   0.001049  -0.000012   0.000000   0.000000   0.000000
    26  O    0.000000   0.000000   0.000000   0.000000  -0.000000  -0.019704
    27  H   -0.000000  -0.000000  -0.000000  -0.000000   0.000000   0.000521
    28  H   -0.000001  -0.000000  -0.000000  -0.000013   0.000001   0.057930
    29  O    0.000001  -0.000004  -0.000000  -0.017386   0.039562  -0.000000
    30  H   -0.000028   0.000001   0.000000   0.003146   0.001487   0.001060
              19         20         21         22         23         24
     1  C   -0.000173  -0.041693   0.004916   0.000828  -0.000212  -0.006469
     2  C   -0.026237  -0.041356   0.000592   0.000014  -0.000214  -0.000100
     3  C   -0.005792   0.224079  -0.022735  -0.000589   0.000108   0.000732
     4  C   -0.003658   0.002820   0.000159  -0.000017   0.006968   0.000375
     5  H   -0.000522  -0.000080   0.000001   0.000000  -0.000346  -0.000019
     6  H    0.006583   0.004734   0.001054  -0.000000   0.000008   0.000002
     7  H    0.000061   0.003416  -0.000238  -0.000036  -0.000158   0.000414
     8  H    0.010656  -0.036174  -0.003915   0.001138  -0.000001   0.000728
     9  C    0.001964   0.000297  -0.000040   0.000182  -0.019000  -0.001087
    10  O    0.000369   0.001279  -0.000087  -0.013390   0.008536   0.047377
    11  C   -0.000049  -0.000650   0.000027  -0.005191  -0.000168   0.001010
    12  H    0.000001   0.010361   0.000015   0.000136   0.000003   0.000098
    13  H   -0.000005   0.000145  -0.000062   0.021082   0.000001  -0.002662
    14  O    0.000000   0.000035   0.000001  -0.000307   0.000200   0.000779
    15  H   -0.000000   0.000007  -0.000001   0.000026  -0.000006  -0.000060
    16  O   -0.000019  -0.000140  -0.000017   0.000000   0.000378  -0.000005
    17  H    0.000009   0.000008   0.000000   0.000000  -0.001616  -0.000002
    18  O    0.231627   0.001204   0.000447  -0.000000   0.000002  -0.000001
    19  H    0.380450  -0.000105  -0.000041  -0.000005   0.000001   0.000031
    20  O   -0.000105   8.349521   0.212383   0.000000  -0.000000  -0.000007
    21  H   -0.000041   0.212383   0.320436  -0.000000   0.000000   0.000001
    22  O   -0.000005   0.000000  -0.000000   8.353671  -0.000014   0.222274
    23  H    0.000001  -0.000000   0.000000  -0.000014   0.361334   0.000198
    24  H    0.000031  -0.000007   0.000001   0.222274   0.000198   0.343312
    25  H    0.000000  -0.000000   0.000000   0.241750   0.000004  -0.022286
    26  O    0.001038  -0.022027   0.066464   0.000000   0.000000  -0.000000
    27  H   -0.000008   0.001321  -0.003077  -0.000000   0.000000   0.000000
    28  H   -0.003622   0.002722  -0.006860  -0.000000  -0.000000   0.000000
    29  O   -0.000005   0.000000  -0.000000  -0.000004   0.232090   0.000150
    30  H    0.000793  -0.000002  -0.000001   0.000529  -0.000352  -0.001250
              25         26         27         28         29         30
     1  C   -0.000428   0.000032  -0.000002   0.000039   0.000324   0.006716
     2  C   -0.000000   0.006698   0.000281  -0.006651   0.001754  -0.000762
     3  C    0.000048   0.000188  -0.000332   0.001206   0.000225   0.000313
     4  C   -0.000000   0.000126   0.000010   0.000702  -0.049464  -0.057704
     5  H   -0.000000   0.000001  -0.000001  -0.000015   0.000726  -0.000616
     6  H    0.000000   0.002964   0.000537  -0.003098  -0.000072  -0.000186
     7  H   -0.000001   0.000000   0.000000  -0.000003   0.002781  -0.000127
     8  H   -0.000067   0.000470   0.000004   0.000011   0.000004  -0.000150
     9  C    0.000021  -0.000001  -0.000000  -0.000026   0.243611   0.378016
    10  O    0.000670   0.000000  -0.000000  -0.000001  -0.061518  -0.058078
    11  C    0.001258  -0.000001  -0.000000   0.000000  -0.000141  -0.000260
    12  H    0.000038   0.000001  -0.000000  -0.000000   0.000002   0.000005
    13  H   -0.001358   0.000000  -0.000000  -0.000001   0.000001  -0.000028
    14  O    0.001049   0.000000  -0.000000  -0.000000  -0.000004   0.000001
    15  H   -0.000012   0.000000  -0.000000  -0.000000  -0.000000   0.000000
    16  O    0.000000   0.000000  -0.000000  -0.000013  -0.017386   0.003146
    17  H    0.000000  -0.000000   0.000000   0.000001   0.039562   0.001487
    18  O    0.000000  -0.019704   0.000521   0.057930  -0.000000   0.001060
    19  H    0.000000   0.001038  -0.000008  -0.003622  -0.000005   0.000793
    20  O   -0.000000  -0.022027   0.001321   0.002722   0.000000  -0.000002
    21  H    0.000000   0.066464  -0.003077  -0.006860  -0.000000  -0.000001
    22  O    0.241750   0.000000  -0.000000  -0.000000  -0.000004   0.000529
    23  H    0.000004   0.000000   0.000000  -0.000000   0.232090  -0.000352
    24  H   -0.022286  -0.000000   0.000000   0.000000   0.000150  -0.001250
    25  H    0.398206  -0.000000  -0.000000   0.000000  -0.000000  -0.000018
    26  O   -0.000000   8.318302   0.242040   0.211996   0.000000   0.000000
    27  H   -0.000000   0.242040   0.375089  -0.015486  -0.000000  -0.000000
    28  H    0.000000   0.211996  -0.015486   0.333800   0.000000  -0.000002
    29  O   -0.000000   0.000000  -0.000000   0.000000   8.297300  -0.053080
    30  H   -0.000018   0.000000  -0.000000  -0.000002  -0.053080   0.646062
 Mulliken charges:
               1
     1  C    0.104343
     2  C    0.083248
     3  C    0.117735
     4  C    0.077373
     5  H    0.144478
     6  H    0.177425
     7  H    0.174715
     8  H    0.116733
     9  C    0.338423
    10  O   -0.532090
    11  C   -0.073298
    12  H    0.162029
    13  H    0.141975
    14  O   -0.631448
    15  H    0.396254
    16  O   -0.641784
    17  H    0.421204
    18  O   -0.645740
    19  H    0.406659
    20  O   -0.672098
    21  H    0.430576
    22  O   -0.822076
    23  H    0.412257
    24  H    0.416465
    25  H    0.381125
    26  O   -0.808590
    27  H    0.399104
    28  H    0.427370
    29  O   -0.636854
    30  H    0.134490
 Sum of Mulliken charges =  -0.00000
 Mulliken charges with hydrogens summed into heavy atoms:
               1
     1  C    0.279058
     2  C    0.260673
     3  C    0.234468
     4  C    0.221851
     9  C    0.472913
    10  O   -0.532090
    11  C    0.230706
    14  O   -0.235195
    16  O   -0.220580
    18  O   -0.239081
    20  O   -0.241522
    22  O   -0.024487
    26  O    0.017884
    29  O   -0.224598
 APT charges:
               1
     1  C   -0.281705
     2  C   -0.280239
     3  C   -0.153268
     4  C   -0.443986
     5  H    0.528586
     6  H    0.472285
     7  H    0.366035
     8  H    0.286391
     9  C   -0.170956
    10  O   -0.423014
    11  C   -0.497686
    12  H    0.447368
    13  H    0.315724
    14  O   -1.111566
    15  H    0.938996
    16  O   -0.744476
    17  H    0.643655
    18  O   -0.662851
    19  H    0.485599
    20  O   -0.815700
    21  H    0.629682
    22  O   -0.893485
    23  H    0.661403
    24  H    0.142872
    25  H    0.774258
    26  O   -1.032774
    27  H    0.894593
    28  H    0.218632
    29  O   -0.725922
    30  H    0.431550
 Sum of APT charges =  -0.00000
 APT charges with hydrogens summed into heavy atoms:
               1
     1  C    0.084331
     2  C    0.192047
     3  C    0.133122
     4  C    0.084600
     9  C    0.260595
    10  O   -0.423014
    11  C    0.265405
    14  O   -0.172570
    16  O   -0.100821
    18  O   -0.177252
    20  O   -0.186018
    22  O    0.023645
    26  O    0.080451
    29  O   -0.064519
 Electronic spatial extent (au):  <R**2>=           3216.8762
 Charge=              0.0000 electrons
 Dipole moment (field-independent basis, Debye):
    X=             -0.8149    Y=              0.7746    Z=             -0.0136  Tot=              1.1244
 Quadrupole moment (field-independent basis, Debye-Ang):
   XX=            -68.7425   YY=            -85.5995   ZZ=            -90.3392
   XY=              4.4225   XZ=              3.4317   YZ=              7.7321
 Traceless Quadrupole moment (field-independent basis, Debye-Ang):
   XX=             12.8179   YY=             -4.0391   ZZ=             -8.7788
   XY=              4.4225   XZ=              3.4317   YZ=              7.7321
 Octapole moment (field-independent basis, Debye-Ang**2):
  XXX=              8.9306  YYY=            -15.7722  ZZZ=             -9.7169  XYY=            -39.7335
  XXY=            -11.4859  XXZ=            -15.7921  XZZ=              6.0278  YZZ=              9.9594
  YYZ=            -14.9218  XYZ=             -8.0670
 Hexadecapole moment (field-independent basis, Debye-Ang**3):
 XXXX=          -1339.0581 YYYY=          -1257.6898 ZZZZ=           -690.5618 XXXY=             52.0114
 XXXZ=           -103.3095 YYYX=             78.7549 YYYZ=             27.3146 ZZZX=             76.0886
 ZZZY=             40.2449 XXYY=           -469.1497 XXZZ=           -410.4042 YYZZ=           -321.3919
 XXYZ=             36.9783 YYXZ=             35.1303 ZZXY=            -15.5744
 N-N= 1.100968070138D+03 E-N=-4.174239773424D+03  KE= 8.329083583719D+02
  Exact polarizability:   0.000   0.000   0.000   0.000   0.000   0.000
 Approx polarizability: 131.022  -0.857 123.264  -0.003   0.784 127.102
 Calling FoFJK, ICntrl=    100147 FMM=F ISym2X=0 I1Cent= 0 IOpClX= 0 NMat=1 NMatS=1 NMatT=0.
 -------------------------------------------------------------------
 Center     Atomic                   Forces (Hartrees/Bohr)
 Number     Number              X              Y              Z
 -------------------------------------------------------------------
      1        6           0.000003207   -0.000003609   -0.000001973
      2        6          -0.000004616   -0.000000366    0.000001051
      3        6           0.000000937    0.000006157   -0.000000417
      4        6          -0.000006067    0.000007078    0.000001188
      5        1          -0.000004306   -0.000000940   -0.000003252
      6        1           0.000000299    0.000002366   -0.000000929
      7        1           0.000000865   -0.000002934    0.000000553
      8        1           0.000001663    0.000000134    0.000003785
      9        6          -0.000002983   -0.000000713   -0.000006497
     10        8          -0.000003119   -0.000004168    0.000000490
     11        6           0.000005859   -0.000002211    0.000005840
     12        1           0.000004154   -0.000004744   -0.000001278
     13        1           0.000001807   -0.000001886    0.000001865
     14        8           0.000009139   -0.000010563    0.000002374
     15        1           0.000001029   -0.000008632   -0.000000498
     16        8          -0.000001359   -0.000005337   -0.000008271
     17        1          -0.000008359    0.000001225   -0.000003184
     18        8          -0.000000376    0.000012282   -0.000001230
     19        1          -0.000003165    0.000002849    0.000002119
     20        8           0.000001064    0.000002385    0.000002584
     21        1           0.000007023    0.000000874    0.000004583
     22        8           0.000005021    0.000001300    0.000000250
     23        1          -0.000009165   -0.000005474   -0.000002637
     24        1          -0.000001037   -0.000003399    0.000002150
     25        1           0.000000795   -0.000001707    0.000000046
     26        8           0.000001126    0.000014173    0.000010661
     27        1           0.000002274    0.000007182    0.000002661
     28        1           0.000003295    0.000002817   -0.000000983
     29        8          -0.000001839   -0.000004073   -0.000007965
     30        1          -0.000003166   -0.000000066   -0.000003083
 -------------------------------------------------------------------
 Cartesian Forces:  Max     0.000014173 RMS     0.000004512
 IRC-IRC-IRC-IRC-IRC-IRC-IRC-IRC-IRC-IRC-IRC-IRC-IRC-IRC-IRC-IRC-IRC-IRC
          ******** Start new reaction path calculation ********
 Supplied step size of   0.1000 bohr.
    Integration on MW PES will use step size of   0.2486 sqrt(amu)*bohr.
 Point Number:   0          Path Number:   1
 Calculating another point on the path.
 IRC-IRC-IRC-IRC-IRC-IRC-IRC-IRC-IRC-IRC-IRC-IRC-IRC-IRC-IRC-IRC-IRC-IRC
                          Input orientation:                          
 ---------------------------------------------------------------------
 Center     Atomic      Atomic             Coordinates (Angstroms)
 Number     Number       Type             X           Y           Z
 ---------------------------------------------------------------------
      1          6           0       -0.655907   -0.489011   -0.674168
      2          6           0        1.492517    0.643668    0.069941
      3          6           0        0.792931   -0.713392   -0.230543
      4          6           0        0.550878    1.864072    0.037122
      5          1           0        1.009374    2.671706    0.627591
      6          1           0        2.226023    0.818926   -0.719906
      7          1           0       -0.698304    0.098395   -1.595318
      8          1           0        0.730722   -1.263961    0.727287
      9          6           0       -0.842876    1.562546    0.632512
     10          8           0       -1.292771    0.243357    0.402294
     11          6           0       -1.412978   -1.789806   -0.860279
     12          1           0       -0.878666   -2.370971   -1.621937
     13          1           0       -1.405626   -2.351544    0.084798
     14          8           0       -2.747188   -1.475256   -1.258236
     15          1           0       -3.161592   -2.298289   -1.556863
     16          8           0        0.436348    2.237381   -1.325076
     17          1           0       -0.417613    2.702645   -1.398044
     18          8           0        2.258822    0.587492    1.289126
     19          1           0        1.686813    0.240777    1.994039
     20          8           0        1.470734   -1.474099   -1.201192
     21          1           0        2.355976   -1.679547   -0.821284
     22          8           0       -2.231181   -1.629450    2.388672
     23          1           0       -2.625181    2.124993    0.132185
     24          1           0       -1.974374   -0.912801    1.779194
     25          1           0       -3.095925   -1.904204    2.048154
     26          8           0        3.831203   -1.522944    0.289715
     27          1           0        4.596364   -1.167077   -0.186683
     28          1           0        3.491740   -0.768649    0.818923
     29          8           0       -1.732750    2.500735    0.055664
     30          1           0       -0.833883    1.678751    1.724682
 ---------------------------------------------------------------------
                    Distance matrix (angstroms):
                    1          2          3          4          5
     1  C    0.000000
     2  C    2.540154   0.000000
     3  C    1.531758   1.556060   0.000000
     4  C    2.738478   1.541799   2.602605   0.000000
     5  H    3.802350   2.158087   3.498876   1.100521   0.000000
     6  H    3.165171   1.092064   2.154351   2.114600   2.593989
     7  H    1.093326   2.805371   2.178392   2.709785   3.805184
     8  H    2.118339   2.156730   1.106542   3.208311   3.946779
     9  C    2.439520   2.571942   2.932682   1.545302   2.158956
    10  O    1.449389   2.833467   2.380337   2.481755   3.353731
    11  C    1.516530   3.902436   2.534022   4.244158   5.290240
    12  H    2.118883   4.192018   2.734554   4.767773   5.835552
    13  H    2.146424   4.167823   2.759825   4.647752   5.599990
    14  O    2.384800   4.922295   3.764178   4.868912   5.904693
    15  H    3.214203   5.741283   4.461981   5.800730   6.846141
    16  O    3.008307   2.366745   3.167367   1.417061   2.080843
    17  H    3.281379   3.169063   3.807596   1.923767   2.477993
    18  O    3.675463   1.441109   2.480026   2.472700   2.518472
    19  H    3.624949   1.975405   2.580354   2.784772   2.869759
    20  O    2.402240   2.470059   1.407214   3.677356   4.554669
    21  H    3.241984   2.633851   1.930166   4.068473   4.779747
    22  O    3.628096   4.940598   4.104230   5.047210   5.665911
    23  H    3.370647   4.376486   4.457745   3.188176   3.708681
    24  H    2.817257   4.166950   3.425899   4.137962   4.803918
    25  H    3.920140   5.608813   4.661942   5.616345   6.309551
    26  O    4.704491   3.195616   3.187026   4.721887   5.066752
    27  H    5.318248   3.602571   3.830646   5.060030   5.316559
    28  H    4.417068   2.559787   2.896205   4.023817   4.246740
    29  O    3.260495   3.721727   4.097755   2.370789   2.806346
    30  H    3.238108   3.036724   3.491672   2.190836   2.363718
                    6          7          8          9         10
     6  H    0.000000
     7  H    3.136431   0.000000
     8  H    2.944268   3.048380   0.000000
     9  C    3.435134   2.669807   3.236408   0.000000
    10  O    3.737984   2.089224   2.544042   1.412680   0.000000
    11  C    4.479678   2.148567   2.718883   3.713719   2.396308
    12  H    4.541828   2.476087   3.055234   4.533915   3.332222
    13  H    4.887566   3.053734   2.481856   3.992090   2.616687
    14  O    5.503262   2.605365   4.010337   4.053341   2.797556
    15  H    6.280440   3.437057   4.630041   5.007580   3.713590
    16  O    2.362452   2.436335   4.069182   2.433921   3.154328
    17  H    3.316185   2.626752   4.644316   2.367242   3.170995
    18  O    2.022584   4.159788   2.465489   3.316988   3.676781
    19  H    2.826747   4.311907   2.187009   3.162302   3.378103
    20  O    2.461720   2.707915   2.076248   4.235148   3.627366
    21  H    2.503904   3.617850   2.283032   4.780936   4.302099
    22  O    5.960241   4.605142   3.415648   3.898759   2.886818
    23  H    5.095689   3.286978   4.806375   1.934757   2.321385
    24  H    5.185336   3.746759   2.923587   2.953389   1.922795
    25  H    6.587923   4.799362   4.098515   4.370198   3.251499
    26  O    3.013353   5.167061   3.141898   5.611130   5.421033
    27  H    3.138001   5.623093   3.973401   6.140623   6.084252
    28  H    2.547632   4.912922   2.806591   4.925254   4.908084
    29  O    4.370569   3.093067   4.548924   1.415920   2.325831
    30  H    4.009779   3.679444   3.478841   1.098370   2.004905
                   11         12         13         14         15
    11  C    0.000000
    12  H    1.096980   0.000000
    13  H    1.099442   1.786339   0.000000
    14  O    1.427385   2.103796   2.090791   0.000000
    15  H    1.949727   2.285009   2.404434   0.968655   0.000000
    16  O    4.455813   4.801489   5.141872   4.891118   5.794066
    17  H    4.632716   5.099439   5.359087   4.785532   5.706486
    18  O    4.873767   5.202944   4.849384   5.983655   6.768181
    19  H    4.677510   5.145697   4.464136   5.760419   6.524017
    20  O    2.920905   2.549723   3.270646   4.218308   4.718500
    21  H    3.770768   3.403238   3.927113   5.125909   5.600668
    22  O    3.354229   4.296991   2.551626   3.686458   4.108559
    23  H    4.216642   5.132344   4.639929   3.861340   4.765086
    24  H    2.837449   3.859343   2.294435   3.184270   3.802412
    25  H    3.362199   4.313198   2.629067   3.352287   3.627087
    26  O    5.375419   5.153293   5.305935   6.758228   7.273939
    27  H    6.078956   5.786646   6.123769   7.427715   7.958826
    28  H    5.283819   5.256014   5.198912   6.613479   7.228484
    29  O    4.398858   5.222770   4.863381   4.308587   5.260462
    30  H    4.364431   5.253771   4.388551   4.744079   5.657173
                   16         17         18         19         20
    16  O    0.000000
    17  H    0.975215   0.000000
    18  O    3.588538   4.342587   0.000000
    19  H    4.070210   4.689950   0.971755   0.000000
    20  O    3.854917   4.588006   3.327601   3.632766   0.000000
    21  H    4.391025   5.218147   3.098828   3.472962   0.984983
    22  O    5.988323   6.032851   5.126789   4.359377   5.159015
    23  H    3.392522   2.747479   5.249373   5.060639   5.613188
    24  H    5.037035   5.058636   4.517853   3.844631   4.589828
    25  H    6.403777   6.346077   5.954662   5.241990   5.621176
    26  O    5.317202   6.225478   2.815163   3.257889   2.792311
    27  H    5.494725   6.448419   3.274237   3.899113   3.300462
    28  H    4.792533   5.678721   1.892167   2.378571   2.943295
    29  O    2.584722   1.970690   4.595061   4.534107   5.257500
    30  H    3.350608   3.312560   3.308380   2.914486   4.879801
                   21         22         23         24         25
    21  H    0.000000
    22  O    5.598959   0.000000
    23  H    6.339997   4.398046   0.000000
    24  H    5.109042   0.975192   3.516302   0.000000
    25  H    6.165012   0.969136   4.486309   1.520887   0.000000
    26  O    1.853412   6.416343   7.417355   6.024578   7.156995
    27  H    2.384257   7.311745   7.942928   6.863229   8.044201
    28  H    2.193165   5.996409   6.801581   5.551694   6.796899
    29  O    5.912824   4.769674   0.971324   3.831601   5.023122
    30  H    5.285386   3.652056   2.438017   2.831931   4.249593
                   26         27         28         29         30
    26  O    0.000000
    27  H    0.969055   0.000000
    28  H    0.981966   1.546021   0.000000
    29  O    6.870397   7.319103   6.210213   0.000000
    30  H    5.837208   6.421808   5.051849   2.066215   0.000000
 Symmetry turned off by external request.
 Stoichiometry    C6H16O8
 Framework group  C1[X(C6H16O8)]
 Deg. of freedom    84
 Full point group                 C1      NOp   1
 Rotational constants (GHZ):      0.6699992      0.4891796      0.3895592
 Standard basis: 6-31G(d) (6D, 7F)
   242 basis functions,   456 primitive gaussians,   242 cartesian basis functions
    58 alpha electrons       58 beta electrons
       nuclear repulsion energy      1100.9545744788 Hartrees.
 NAtoms=   30 NActive=   30 NUniq=   30 SFac= 1.00D+00 NAtFMM=   60 NAOKFM=F Big=F
 Integral buffers will be    131072 words long.
 Raffenetti 2 integral format.
 Two-electron integral symmetry is turned off.
 One-electron integrals computed using PRISM.
 NBasis=   242 RedAO= T EigKep=  1.29D-03  NBF=   242
 NBsUse=   242 1.00D-06 EigRej= -1.00D+00 NBFU=   242
 Initial guess from the checkpoint file:  "/scratch/10502101.yak.local/Gau-30827.chk"
 B after Tr=     0.008130   -0.035426    0.016489
         Rot=    1.000000   -0.000013    0.000013   -0.000004 Ang=  -0.00 deg.
 ExpMin= 1.61D-01 ExpMax= 5.48D+03 ExpMxC= 8.25D+02 IAcc=1 IRadAn=         1 AccDes= 0.00D+00
 Harris functional with IExCor=  402 and IRadAn=       1 diagonalized for initial guess.
 HarFok:  IExCor=  402 AccDes= 0.00D+00 IRadAn=         1 IDoV= 1 UseB2=F ITyADJ=14
 ICtDFT=  3500011 ScaDFX=  1.000000  1.000000  1.000000  1.000000
 FoFCou: FMM=F IPFlag=           0 FMFlag=      100000 FMFlg1=           0
         NFxFlg=           0 DoJE=T BraDBF=F KetDBF=T FulRan=T
         wScrn=  0.000000 ICntrl=     500 IOpCl=  0 I1Cent=   200000004 NGrid=           0
         NMat0=    1 NMatS0=      1 NMatT0=    0 NMatD0=    1 NMtDS0=    0 NMtDT0=    0
 Symmetry not used in FoFCou.
 Requested convergence on RMS density matrix=1.00D-08 within 128 cycles.
 Requested convergence on MAX density matrix=1.00D-06.
 Requested convergence on             energy=1.00D-06.
 No special actions if energy rises.
 Integral accuracy reduced to 1.0D-05 until final iterations.
 Initial convergence to 1.0D-05 achieved.  Increase integral accuracy.
 SCF Done:  E(RB3LYP) =  -839.983985738     A.U. after    9 cycles
            NFock=  9  Conv=0.55D-08     -V/T= 2.0085
 DoSCS=F DFT=T ScalE2(SS,OS)=  1.000000  1.000000
 Range of M.O.s used for correlation:     1   242
 NBasis=   242 NAE=    58 NBE=    58 NFC=     0 NFV=     0
 NROrb=    242 NOA=    58 NOB=    58 NVA=   184 NVB=   184
 Symmetrizing basis deriv contribution to polar:
 IMax=3 JMax=2 DiffMx= 0.00D+00
 Calling FoFJK, ICntrl=      2147 FMM=F ISym2X=0 I1Cent= 0 IOpClX= 0 NMat=1 NMatS=1 NMatT=0.
 -------------------------------------------------------------------
 Center     Atomic                   Forces (Hartrees/Bohr)
 Number     Number              X              Y              Z
 -------------------------------------------------------------------
      1        6           0.000005817   -0.000003439    0.000003566
      2        6           0.000000277    0.000003395   -0.000002909
      3        6           0.000006110    0.000006977   -0.000001834
      4        6          -0.000003440    0.000009145   -0.000002682
      5        1          -0.000004676   -0.000001063   -0.000004166
      6        1           0.000000563    0.000002639   -0.000001288
      7        1           0.000000722   -0.000004232    0.000004451
      8        1           0.000002687    0.000001427    0.000000661
      9        6           0.000001901    0.000001394   -0.000003232
     10        8           0.000012032   -0.000004723    0.000013096
     11        6           0.000008483   -0.000006861    0.000016095
     12        1          -0.000003204   -0.000001030    0.000005268
     13        1           0.000000761    0.000002648   -0.000006736
     14        8           0.000022595   -0.000028095    0.000042212
     15        1           0.000001512   -0.000005503    0.000002002
     16        8          -0.000003032   -0.000005654   -0.000012218
     17        1          -0.000007815    0.000000712   -0.000003065
     18        8           0.000007581    0.000018807   -0.000007648
     19        1          -0.000002595    0.000003412    0.000001723
     20        8           0.000004713    0.000009067   -0.000004513
     21        1           0.000006695    0.000001414    0.000003725
     22        8          -0.000271545    0.000032715   -0.000236431
     23        1          -0.000002318   -0.000002479   -0.000002525
     24        1          -0.000065752   -0.000141939    0.000112483
     25        1           0.000278567    0.000099070    0.000090484
     26        8           0.000006539    0.000017824    0.000002964
     27        1           0.000001231    0.000006399    0.000003324
     28        1           0.000003730    0.000002914   -0.000001516
     29        8          -0.000005141   -0.000014898   -0.000005966
     30        1          -0.000002996   -0.000000045   -0.000005326
 -------------------------------------------------------------------
 Cartesian Forces:  Max     0.000278567 RMS     0.000054718
 IRC-IRC-IRC-IRC-IRC-IRC-IRC-IRC-IRC-IRC-IRC-IRC-IRC-IRC-IRC-IRC-IRC-IRC
 Pt  1 Step number   1 out of a maximum of  20
 Modified Bulirsch-Stoer Extrapolation Cycles:
    EPS =    0.000010000000000
 Maximum DWI energy   std dev =  0.000000274 at pt     2
 Maximum DWI gradient std dev =  1.824667171 at pt     8
 WARNING: Bulirsch-Stoer Method is not Converging
 CORRECTOR INTEGRATION CONVERGENCE:
   Recorrection delta-x convergence threshold:    0.010000
   Delta-x Convergence NOT Met
 IRC-IRC-IRC-IRC-IRC-IRC-IRC-IRC-IRC-IRC-IRC-IRC-IRC-IRC-IRC-IRC-IRC-IRC
                          Input orientation:                          
 ---------------------------------------------------------------------
 Center     Atomic      Atomic             Coordinates (Angstroms)
 Number     Number       Type             X           Y           Z
 ---------------------------------------------------------------------
      1          6           0       -0.655798   -0.489569   -0.674446
      2          6           0        1.491892    0.644176    0.070114
      3          6           0        0.792892   -0.713247   -0.230004
      4          6           0        0.549766    1.864197    0.036651
      5          1           0        1.007729    2.672198    0.627021
      6          1           0        2.225473    0.819453   -0.719663
      7          1           0       -0.697910    0.097405   -1.595876
      8          1           0        0.730424   -1.263372    0.728062
      9          6           0       -0.844055    1.562304    0.631649
     10          8           0       -1.293568    0.243006    0.401333
     11          6           0       -1.412308   -1.790706   -0.860377
     12          1           0       -0.877214   -2.372214   -1.621214
     13          1           0       -1.405506   -2.351838    0.085056
     14          8           0       -2.746240   -1.476797   -1.259628
     15          1           0       -3.160441   -2.300285   -1.557280
     16          8           0        0.435502    2.237057   -1.325698
     17          1           0       -0.418640    2.701954   -1.399040
     18          8           0        2.257998    0.588739    1.289456
     19          1           0        1.685982    0.242109    1.994410
     20          8           0        1.471361   -1.474175   -1.200020
     21          1           0        2.356634   -1.678934   -0.819795
     22          8           0       -2.227744   -1.628882    2.390018
     23          1           0       -2.626313    2.123930    0.130310
     24          1           0       -1.973965   -0.912880    1.778892
     25          1           0       -3.092971   -1.905268    2.053097
     26          8           0        3.831703   -1.521151    0.291146
     27          1           0        4.596653   -1.164894   -0.185303
     28          1           0        3.491699   -0.766903    0.820072
     29          8           0       -1.734048    2.500211    0.054495
     30          1           0       -0.835434    1.678588    1.723808
 ---------------------------------------------------------------------
                    Distance matrix (angstroms):
                    1          2          3          4          5
     1  C    0.000000
     2  C    2.540141   0.000000
     3  C    1.531751   1.556043   0.000000
     4  C    2.738477   1.541808   2.602582   0.000000
     5  H    3.802355   2.158108   3.498841   1.100515   0.000000
     6  H    3.165012   1.092067   2.154350   2.114591   2.594055
     7  H    1.093318   2.805301   2.178360   2.709870   3.805264
     8  H    2.118351   2.156727   1.106540   3.208174   3.946621
     9  C    2.439571   2.571951   2.932606   1.545283   2.158933
    10  O    1.449385   2.833625   2.380404   2.481761   3.353786
    11  C    1.516520   3.902414   2.534007   4.244138   5.290221
    12  H    2.118902   4.191881   2.734390   4.767805   5.835551
    13  H    2.146381   4.167882   2.759927   4.647622   5.599854
    14  O    2.384744   4.922246   3.764119   4.868905   5.904734
    15  H    3.214239   5.741295   4.461972   5.800790   6.846196
    16  O    3.008248   2.366753   3.167423   1.417066   2.080842
    17  H    3.281325   3.169068   3.807631   1.923760   2.477970
    18  O    3.675577   1.441107   2.480013   2.472726   2.518491
    19  H    3.625200   1.975410   2.580374   2.784776   2.869689
    20  O    2.402182   2.470035   1.407218   3.677420   4.554717
    21  H    3.241984   2.633735   1.930206   4.068422   4.779663
    22  O    3.627670   4.938060   4.102090   5.045246   5.663544
    23  H    3.370599   4.376403   4.457618   3.188057   3.708582
    24  H    2.817024   4.166114   3.425056   4.137243   4.803133
    25  H    3.922182   5.608285   4.661909   5.616445   6.308932
    26  O    4.704699   3.195656   3.187268   4.721913   5.066736
    27  H    5.318229   3.602431   3.830741   5.059837   5.316344
    28  H    4.417265   2.559846   2.896394   4.023855   4.246739
    29  O    3.260792   3.721800   4.097887   2.370788   2.806190
    30  H    3.238024   3.036636   3.491375   2.190828   2.363779
                    6          7          8          9         10
     6  H    0.000000
     7  H    3.136124   0.000000
     8  H    2.944357   3.048367   0.000000
     9  C    3.435095   2.670048   3.236160   0.000000
    10  O    3.737991   2.089223   2.544106   1.412677   0.000000
    11  C    4.479528   2.148554   2.718919   3.713721   2.396245
    12  H    4.541607   2.476249   3.055018   4.533974   3.332179
    13  H    4.887604   3.053689   2.482018   3.991804   2.616444
    14  O    5.502931   2.605154   4.010444   4.053563   2.797636
    15  H    6.280322   3.437218   4.629991   5.007660   3.713450
    16  O    2.362388   2.436335   4.069142   2.433879   3.154134
    17  H    3.316127   2.626863   4.644214   2.367167   3.170688
    18  O    2.022584   4.159801   2.465555   3.317119   3.677216
    19  H    2.826759   4.312080   2.187052   3.162455   3.378700
    20  O    2.461739   2.707822   2.076277   4.235135   3.627378
    21  H    2.503831   3.617723   2.283224   4.780872   4.302207
    22  O    5.957818   4.605194   3.412690   3.897451   2.886437
    23  H    5.095482   3.287135   4.806121   1.934736   2.321106
    24  H    5.184499   3.746738   2.922466   2.952863   1.922676
    25  H    6.587727   4.802294   4.097084   4.370606   3.252884
    26  O    3.013326   5.167008   3.142495   5.611270   5.421512
    27  H    3.137780   5.622767   3.973872   6.140548   6.084491
    28  H    2.547672   4.912907   2.807060   4.925391   4.908569
    29  O    4.370592   3.093669   4.548832   1.415932   2.325789
    30  H    4.009715   3.679587   3.478297   1.098366   2.004925
                   11         12         13         14         15
    11  C    0.000000
    12  H    1.096973   0.000000
    13  H    1.099436   1.786299   0.000000
    14  O    1.427346   2.103752   2.090799   0.000000
    15  H    1.949697   2.285254   2.404105   0.968655   0.000000
    16  O    4.455760   4.801659   5.141741   4.890865   5.794128
    17  H    4.632658   5.099689   5.358849   4.785302   5.706567
    18  O    4.873877   5.202769   4.849622   5.983867   6.768298
    19  H    4.677770   5.145619   4.464470   5.760902   6.524269
    20  O    2.920803   2.549447   3.270791   4.218022   4.718441
    21  H    3.770817   3.403041   3.927500   5.125782   5.600722
    22  O    3.355024   4.297261   2.551782   3.689429   4.111188
    23  H    4.216591   5.132493   4.639495   3.861546   4.765179
    24  H    2.837565   3.859175   2.294085   3.185438   3.802981
    25  H    3.365425   4.316038   2.630618   3.358268   3.632550
    26  O    5.375715   5.153187   5.306682   6.758417   7.274188
    27  H    6.079060   5.786423   6.124365   7.427620   7.958891
    28  H    5.284067   5.255883   5.199509   6.613697   7.228696
    29  O    4.399145   5.223283   4.863256   4.309065   5.260911
    30  H    4.364263   5.253562   4.388032   4.744315   5.657087
                   16         17         18         19         20
    16  O    0.000000
    17  H    0.975226   0.000000
    18  O    3.588520   4.342589   0.000000
    19  H    4.070214   4.689965   0.971759   0.000000
    20  O    3.855132   4.588220   3.327447   3.632640   0.000000
    21  H    4.391091   5.218223   3.098550   3.472741   0.984991
    22  O    5.987062   6.032077   5.123569   4.355957   5.157100
    23  H    3.392266   2.747152   5.249469   5.060830   5.613115
    24  H    5.036478   5.058192   4.517069   3.843911   4.589034
    25  H    6.405095   6.347896   5.952822   5.239567   5.621542
    26  O    5.317189   6.225493   2.815103   3.257961   2.792311
    27  H    5.494447   6.448165   3.274057   3.899078   3.300418
    28  H    4.792541   5.678748   1.892117   2.378611   2.943259
    29  O    2.584789   1.970727   4.595137   4.534192   5.257775
    30  H    3.350620   3.312578   3.308437   2.914487   4.879548
                   21         22         23         24         25
    21  H    0.000000
    22  O    5.596600   0.000000
    23  H    6.339892   4.398719   0.000000
    24  H    5.108238   0.974955   3.516475   0.000000
    25  H    6.164652   0.968773   4.488798   1.520591   0.000000
    26  O    1.853352   6.413561   7.417442   6.024048   7.155636
    27  H    2.384219   7.308896   7.942745   6.862549   8.042941
    28  H    2.193020   5.993311   6.801673   5.551048   6.795154
    29  O    5.912979   4.769466   0.971325   3.831488   5.024871
    30  H    5.285090   3.649894   2.438198   2.831077   4.248403
                   26         27         28         29         30
    26  O    0.000000
    27  H    0.969057   0.000000
    28  H    0.981965   1.545994   0.000000
    29  O    6.870585   7.319035   6.210360   0.000000
    30  H    5.837210   6.421655   5.051856   2.066199   0.000000
 Symmetry turned off by external request.
 Stoichiometry    C6H16O8
 Framework group  C1[X(C6H16O8)]
 Deg. of freedom    84
 Full point group                 C1      NOp   1
 Rotational constants (GHZ):      0.6698839      0.4892294      0.3896493
 Standard basis: 6-31G(d) (6D, 7F)
   242 basis functions,   456 primitive gaussians,   242 cartesian basis functions
    58 alpha electrons       58 beta electrons
       nuclear repulsion energy      1100.9664778445 Hartrees.
 NAtoms=   30 NActive=   30 NUniq=   30 SFac= 1.00D+00 NAtFMM=   60 NAOKFM=F Big=F
 Integral buffers will be    131072 words long.
 Raffenetti 2 integral format.
 Two-electron integral symmetry is turned off.
 One-electron integrals computed using PRISM.
 NBasis=   242 RedAO= T EigKep=  1.29D-03  NBF=   242
 NBsUse=   242 1.00D-06 EigRej= -1.00D+00 NBFU=   242
 Initial guess from the checkpoint file:  "/scratch/10502101.yak.local/Gau-30827.chk"
 B after Tr=     0.000006    0.000001   -0.000002
         Rot=    1.000000    0.000201    0.000064   -0.000238 Ang=   0.04 deg.
 ExpMin= 1.61D-01 ExpMax= 5.48D+03 ExpMxC= 8.25D+02 IAcc=1 IRadAn=         1 AccDes= 0.00D+00
 Harris functional with IExCor=  402 and IRadAn=       1 diagonalized for initial guess.
 HarFok:  IExCor=  402 AccDes= 0.00D+00 IRadAn=         1 IDoV= 1 UseB2=F ITyADJ=14
 ICtDFT=  3500011 ScaDFX=  1.000000  1.000000  1.000000  1.000000
 FoFCou: FMM=F IPFlag=           0 FMFlag=      100000 FMFlg1=           0
         NFxFlg=           0 DoJE=T BraDBF=F KetDBF=T FulRan=T
         wScrn=  0.000000 ICntrl=     500 IOpCl=  0 I1Cent=   200000004 NGrid=           0
         NMat0=    1 NMatS0=      1 NMatT0=    0 NMatD0=    1 NMtDS0=    0 NMtDT0=    0
 Symmetry not used in FoFCou.
 Requested convergence on RMS density matrix=1.00D-08 within 128 cycles.
 Requested convergence on MAX density matrix=1.00D-06.
 Requested convergence on             energy=1.00D-06.
 No special actions if energy rises.
 Integral accuracy reduced to 1.0D-05 until final iterations.
 Initial convergence to 1.0D-05 achieved.  Increase integral accuracy.
 SCF Done:  E(RB3LYP) =  -839.983985728     A.U. after    8 cycles
            NFock=  8  Conv=0.93D-08     -V/T= 2.0085
 DoSCS=F DFT=T ScalE2(SS,OS)=  1.000000  1.000000
 Range of M.O.s used for correlation:     1   242
 NBasis=   242 NAE=    58 NBE=    58 NFC=     0 NFV=     0
 NROrb=    242 NOA=    58 NOB=    58 NVA=   184 NVB=   184
 Symmetrizing basis deriv contribution to polar:
 IMax=3 JMax=2 DiffMx= 0.00D+00
 Calling FoFJK, ICntrl=      2147 FMM=F ISym2X=0 I1Cent= 0 IOpClX= 0 NMat=1 NMatS=1 NMatT=0.
 -------------------------------------------------------------------
 Center     Atomic                   Forces (Hartrees/Bohr)
 Number     Number              X              Y              Z
 -------------------------------------------------------------------
      1        6           0.000005485   -0.000004757    0.000005045
      2        6           0.000002045    0.000008815   -0.000003888
      3        6           0.000008420    0.000004748    0.000000279
      4        6          -0.000003635    0.000004481   -0.000007762
      5        1          -0.000001923    0.000000692   -0.000001372
      6        1          -0.000000389    0.000001004   -0.000000096
      7        1           0.000000193   -0.000001550   -0.000000206
      8        1           0.000000769    0.000000943    0.000000880
      9        6          -0.000001644   -0.000000006   -0.000004042
     10        8           0.000009383   -0.000003813    0.000008954
     11        6           0.000012288   -0.000008683    0.000013486
     12        1           0.000002703   -0.000002329   -0.000000291
     13        1           0.000002066   -0.000000948    0.000001633
     14        8           0.000007662   -0.000023260    0.000034210
     15        1           0.000001594   -0.000004082    0.000000711
     16        8          -0.000009969   -0.000002939   -0.000011705
     17        1          -0.000001051   -0.000001332   -0.000001244
     18        8           0.000003267    0.000020915   -0.000005067
     19        1          -0.000000449    0.000002162    0.000000024
     20        8           0.000012460    0.000008061   -0.000001206
     21        1           0.000001423    0.000001000    0.000001115
     22        8          -0.000033047   -0.000021231    0.000008931
     23        1          -0.000002273   -0.000002102   -0.000001453
     24        1           0.000011701    0.000020350   -0.000014284
     25        1          -0.000029023   -0.000010822   -0.000016916
     26        8           0.000009885    0.000020878    0.000003596
     27        1           0.000001009    0.000002901    0.000001259
     28        1           0.000000314    0.000002642    0.000000945
     29        8          -0.000007789   -0.000012030   -0.000010301
     30        1          -0.000001476    0.000000289   -0.000001236
 -------------------------------------------------------------------
 Cartesian Forces:  Max     0.000034210 RMS     0.000009583
 IRC-IRC-IRC-IRC-IRC-IRC-IRC-IRC-IRC-IRC-IRC-IRC-IRC-IRC-IRC-IRC-IRC-IRC
 Error in corrector energy =           0.0000000568
 Magnitude of corrector gradient =     0.0000929802
 Magnitude of analytic gradient =      0.0000909100
 Magnitude of difference =             0.0000608404
 Angle between gradients (degrees)=   38.6202
 Pt  1 Step number   2 out of a maximum of  20
 Modified Bulirsch-Stoer Extrapolation Cycles:
    EPS =    0.000010000000000
 Maximum DWI energy   std dev =  0.000000269 at pt     2
 Maximum DWI gradient std dev =  1.770043158 at pt     5
 WARNING: Bulirsch-Stoer Method is not Converging
 CORRECTOR INTEGRATION CONVERGENCE:
   Recorrection delta-x convergence threshold:    0.010000
   Delta-x Convergence NOT Met
 IRC-IRC-IRC-IRC-IRC-IRC-IRC-IRC-IRC-IRC-IRC-IRC-IRC-IRC-IRC-IRC-IRC-IRC
                          Input orientation:                          
 ---------------------------------------------------------------------
 Center     Atomic      Atomic             Coordinates (Angstroms)
 Number     Number       Type             X           Y           Z
 ---------------------------------------------------------------------
      1          6           0       -0.655726   -0.489746   -0.674405
      2          6           0        1.491743    0.644391    0.070180
      3          6           0        0.792958   -0.713168   -0.229828
      4          6           0        0.549446    1.864279    0.036487
      5          1           0        1.007238    2.672422    0.626794
      6          1           0        2.225358    0.819677   -0.719562
      7          1           0       -0.697851    0.097114   -1.595906
      8          1           0        0.730496   -1.263180    0.728305
      9          6           0       -0.844390    1.562270    0.631399
     10          8           0       -1.293677    0.242865    0.401250
     11          6           0       -1.412038   -1.791008   -0.860251
     12          1           0       -0.876742   -2.372566   -1.620910
     13          1           0       -1.405290   -2.351993    0.085272
     14          8           0       -2.745956   -1.477353   -1.259752
     15          1           0       -3.159892   -2.300901   -1.557618
     16          8           0        0.435251    2.236949   -1.325918
     17          1           0       -0.418971    2.701678   -1.399404
     18          8           0        2.257767    0.589202    1.289584
     19          1           0        1.685726    0.242655    1.994559
     20          8           0        1.471602   -1.474119   -1.199703
     21          1           0        2.356896   -1.678668   -0.819408
     22          8           0       -2.227361   -1.629001    2.390320
     23          1           0       -2.626671    2.123453    0.129668
     24          1           0       -1.973199   -0.912931    1.779374
     25          1           0       -3.092276   -1.905547    2.052575
     26          8           0        3.831869   -1.520520    0.291580
     27          1           0        4.596789   -1.164111   -0.184805
     28          1           0        3.491682   -0.766326    0.820468
     29          8           0       -1.734478    2.499944    0.054018
     30          1           0       -0.835902    1.678727    1.723540
 ---------------------------------------------------------------------
                    Distance matrix (angstroms):
                    1          2          3          4          5
     1  C    0.000000
     2  C    2.540137   0.000000
     3  C    1.531748   1.556044   0.000000
     4  C    2.738475   1.541812   2.602587   0.000000
     5  H    3.802352   2.158118   3.498848   1.100514   0.000000
     6  H    3.165008   1.092066   2.154350   2.114588   2.594061
     7  H    1.093318   2.805294   2.178356   2.709858   3.805251
     8  H    2.118350   2.156723   1.106541   3.208176   3.946626
     9  C    2.439567   2.571961   2.932617   1.545286   2.158931
    10  O    1.449390   2.833619   2.380400   2.481762   3.353779
    11  C    1.516518   3.902411   2.534004   4.244135   5.290218
    12  H    2.118899   4.191842   2.734339   4.767792   5.835535
    13  H    2.146374   4.167895   2.759951   4.647615   5.599848
    14  O    2.384756   4.922256   3.764125   4.868924   5.904757
    15  H    3.214217   5.741270   4.461944   5.800783   6.846209
    16  O    3.008250   2.366750   3.167421   1.417064   2.080839
    17  H    3.281290   3.169058   3.807604   1.923760   2.477984
    18  O    3.675571   1.441105   2.480009   2.472738   2.518515
    19  H    3.625214   1.975413   2.580412   2.784752   2.869651
    20  O    2.402176   2.470039   1.407217   3.677423   4.554726
    21  H    3.241983   2.633717   1.930206   4.068404   4.779651
    22  O    3.627737   4.937925   4.101982   5.045215   5.663471
    23  H    3.370455   4.376356   4.457524   3.188036   3.708611
    24  H    2.817064   4.165623   3.424678   4.136942   4.802729
    25  H    3.921439   5.607611   4.661134   5.615900   6.308460
    26  O    4.704692   3.195629   3.187265   4.721889   5.066722
    27  H    5.318213   3.602362   3.830732   5.059753   5.316254
    28  H    4.417254   2.559846   2.896387   4.023861   4.246758
    29  O    3.260759   3.721805   4.097876   2.370798   2.806212
    30  H    3.238036   3.036672   3.491417   2.190836   2.363778
                    6          7          8          9         10
     6  H    0.000000
     7  H    3.136116   0.000000
     8  H    2.944355   3.048365   0.000000
     9  C    3.435097   2.670027   3.236174   0.000000
    10  O    3.737986   2.089231   2.544093   1.412678   0.000000
    11  C    4.479522   2.148547   2.718927   3.713720   2.396253
    12  H    4.541572   2.476277   3.054958   4.533970   3.332183
    13  H    4.887623   3.053679   2.482053   3.991782   2.616407
    14  O    5.502919   2.605126   4.010481   4.053605   2.797711
    15  H    6.280228   3.437090   4.630057   5.007738   3.713578
    16  O    2.362374   2.436330   4.069140   2.433878   3.154152
    17  H    3.316110   2.626812   4.644191   2.367148   3.170682
    18  O    2.022581   4.159792   2.465544   3.317144   3.677205
    19  H    2.826766   4.312083   2.187099   3.162448   3.378680
    20  O    2.461744   2.707817   2.076282   4.235140   3.627375
    21  H    2.503798   3.617710   2.283248   4.780874   4.302206
    22  O    5.957693   4.605309   3.412483   3.897516   2.886529
    23  H    5.095410   3.286945   4.806060   1.934732   2.321043
    24  H    5.184061   3.746894   2.921880   2.952741   1.922716
    25  H    6.587019   4.801597   4.096328   4.370181   3.252307
    26  O    3.013272   5.166981   3.142526   5.611280   5.421510
    27  H    3.137685   5.622731   3.973891   6.140502   6.084458
    28  H    2.547680   4.912898   2.807046   4.925406   4.908551
    29  O    4.370586   3.093612   4.548830   1.415930   2.325786
    30  H    4.009741   3.679576   3.478348   1.098365   2.004921
                   11         12         13         14         15
    11  C    0.000000
    12  H    1.096975   0.000000
    13  H    1.099438   1.786293   0.000000
    14  O    1.427347   2.103759   2.090806   0.000000
    15  H    1.949694   2.285151   2.404230   0.968658   0.000000
    16  O    4.455755   4.801664   5.141735   4.890858   5.794033
    17  H    4.632611   5.099664   5.358794   4.785254   5.706441
    18  O    4.873874   5.202710   4.849637   5.983895   6.768329
    19  H    4.677805   5.145604   4.464522   5.760970   6.524389
    20  O    2.920791   2.549381   3.270830   4.217986   4.718305
    21  H    3.770828   3.402986   3.927576   5.125771   5.600631
[...]
 ICtDFT=  3500011 ScaDFX=  1.000000  1.000000  1.000000  1.000000
 FoFCou: FMM=F IPFlag=           0 FMFlag=      100000 FMFlg1=           0
         NFxFlg=           0 DoJE=T BraDBF=F KetDBF=T FulRan=T
         wScrn=  0.000000 ICntrl=     500 IOpCl=  0 I1Cent=   200000004 NGrid=           0
         NMat0=    1 NMatS0=      1 NMatT0=    0 NMatD0=    1 NMtDS0=    0 NMtDT0=    0
 Symmetry not used in FoFCou.
 Requested convergence on RMS density matrix=1.00D-08 within 128 cycles.
 Requested convergence on MAX density matrix=1.00D-06.
 Requested convergence on             energy=1.00D-06.
 No special actions if energy rises.
 Integral accuracy reduced to 1.0D-05 until final iterations.
 Initial convergence to 1.0D-05 achieved.  Increase integral accuracy.
 SCF Done:  E(RB3LYP) =  -839.983985836     A.U. after    7 cycles
            NFock=  7  Conv=0.80D-08     -V/T= 2.0085
 DoSCS=F DFT=T ScalE2(SS,OS)=  1.000000  1.000000
 Range of M.O.s used for correlation:     1   242
 NBasis=   242 NAE=    58 NBE=    58 NFC=     0 NFV=     0
 NROrb=    242 NOA=    58 NOB=    58 NVA=   184 NVB=   184
 Symmetrizing basis deriv contribution to polar:
 IMax=3 JMax=2 DiffMx= 0.00D+00
 Calling FoFJK, ICntrl=      2147 FMM=F ISym2X=0 I1Cent= 0 IOpClX= 0 NMat=1 NMatS=1 NMatT=0.
 -------------------------------------------------------------------
 Center     Atomic                   Forces (Hartrees/Bohr)
 Number     Number              X              Y              Z
 -------------------------------------------------------------------
      1        6           0.000005743   -0.000004710    0.000005736
      2        6           0.000001966    0.000009236   -0.000003532
      3        6           0.000008601    0.000004703    0.000000806
      4        6          -0.000004110    0.000004488   -0.000007687
      5        1          -0.000000608    0.000000806   -0.000001028
      6        1           0.000000119    0.000000864   -0.000000318
      7        1          -0.000000124   -0.000000671    0.000000335
      8        1           0.000001271    0.000000539    0.000000185
      9        6          -0.000001709    0.000000056   -0.000003945
     10        8           0.000009156   -0.000006054    0.000008310
     11        6           0.000012844   -0.000010061    0.000013385
     12        1           0.000000859   -0.000000567    0.000000760
     13        1           0.000002063   -0.000000792    0.000001140
     14        8           0.000008949   -0.000026685    0.000033382
     15        1           0.000001043   -0.000001872    0.000001956
     16        8          -0.000010403   -0.000003333   -0.000012327
     17        1          -0.000000904   -0.000000687   -0.000000904
     18        8           0.000002407    0.000022266   -0.000004078
     19        1           0.000000200    0.000001588   -0.000000129
     20        8           0.000012968    0.000008438    0.000000548
     21        1           0.000000921    0.000000866   -0.000000033
     22        8          -0.000048962   -0.000010829   -0.000020447
     23        1          -0.000000511   -0.000001127   -0.000000328
     24        1          -0.000000680   -0.000000282    0.000000159
     25        1          -0.000001832   -0.000000218   -0.000005018
     26        8           0.000010454    0.000023138    0.000005274
     27        1           0.000000803    0.000001464    0.000000567
     28        1           0.000000451    0.000001485    0.000000159
     29        8          -0.000010876   -0.000012692   -0.000012526
     30        1          -0.000000097    0.000000645   -0.000000401
 -------------------------------------------------------------------
 Cartesian Forces:  Max     0.000048962 RMS     0.000009474
 IRC-IRC-IRC-IRC-IRC-IRC-IRC-IRC-IRC-IRC-IRC-IRC-IRC-IRC-IRC-IRC-IRC-IRC
 Error in corrector energy =           0.0000000000
 Magnitude of corrector gradient =     0.0000898774
 Magnitude of analytic gradient =      0.0000898771
 Magnitude of difference =             0.0000000007
 Angle between gradients (degrees)=    0.0004
 Pt  1 Step number  19 out of a maximum of  20
 Modified Bulirsch-Stoer Extrapolation Cycles:
    EPS =    0.000010000000000
 Maximum DWI energy   std dev =  0.000000311 at pt     2
 Maximum DWI gradient std dev =  1.785217938 at pt     5
 WARNING: Bulirsch-Stoer Method is not Converging
 CORRECTOR INTEGRATION CONVERGENCE:
   Recorrection delta-x convergence threshold:    0.010000
   Delta-x Convergence NOT Met
 IRC-IRC-IRC-IRC-IRC-IRC-IRC-IRC-IRC-IRC-IRC-IRC-IRC-IRC-IRC-IRC-IRC-IRC
                          Input orientation:                          
 ---------------------------------------------------------------------
 Center     Atomic      Atomic             Coordinates (Angstroms)
 Number     Number       Type             X           Y           Z
 ---------------------------------------------------------------------
      1          6           0       -0.655735   -0.489772   -0.674415
      2          6           0        1.491707    0.644394    0.070200
      3          6           0        0.792940   -0.713176   -0.229800
      4          6           0        0.549397    1.864271    0.036486
      5          1           0        1.007170    2.672420    0.626799
      6          1           0        2.225325    0.819679   -0.719538
      7          1           0       -0.697838    0.097074   -1.595926
      8          1           0        0.730458   -1.263174    0.728340
      9          6           0       -0.844447    1.562251    0.631373
     10          8           0       -1.293725    0.242846    0.401211
     11          6           0       -1.412040   -1.791036   -0.860263
     12          1           0       -0.876710   -2.372619   -1.620881
     13          1           0       -1.405342   -2.351995    0.085277
     14          8           0       -2.745936   -1.477381   -1.259838
     15          1           0       -3.159870   -2.300933   -1.557692
     16          8           0        0.435223    2.236935   -1.325923
     17          1           0       -0.419001    2.701657   -1.399422
     18          8           0        2.257722    0.589227    1.289610
     19          1           0        1.685684    0.242666    1.994580
     20          8           0        1.471612   -1.474133   -1.199651
     21          1           0        2.356903   -1.678664   -0.819338
     22          8           0       -2.227171   -1.628968    2.390456
     23          1           0       -2.626719    2.123405    0.129575
     24          1           0       -1.973286   -0.912962    1.779331
     25          1           0       -3.092214   -1.905584    2.053155
     26          8           0        3.831879   -1.520465    0.291635
     27          1           0        4.596776   -1.164031   -0.184767
     28          1           0        3.491668   -0.766277    0.820516
     29          8           0       -1.734531    2.499920    0.053975
     30          1           0       -0.835983    1.678706    1.723513
 ---------------------------------------------------------------------
                    Distance matrix (angstroms):
                    1          2          3          4          5
     1  C    0.000000
     2  C    2.540136   0.000000
     3  C    1.531748   1.556043   0.000000
     4  C    2.738474   1.541812   2.602586   0.000000
     5  H    3.802350   2.158117   3.498845   1.100514   0.000000
     6  H    3.164997   1.092066   2.154348   2.114588   2.594066
     7  H    1.093318   2.805288   2.178354   2.709861   3.805255
     8  H    2.118350   2.156725   1.106541   3.208170   3.946616
     9  C    2.439568   2.571963   2.932614   1.545286   2.158931
    10  O    1.449390   2.833626   2.380404   2.481762   3.353779
    11  C    1.516518   3.902413   2.534009   4.244133   5.290214
    12  H    2.118901   4.191840   2.734336   4.767797   5.835537
    13  H    2.146374   4.167909   2.759972   4.647611   5.599840
    14  O    2.384750   4.922250   3.764124   4.868913   5.904748
    15  H    3.214215   5.741267   4.461948   5.800775   6.846200
    16  O    3.008252   2.366749   3.167428   1.417065   2.080840
    17  H    3.281294   3.169057   3.807611   1.923757   2.477981
    18  O    3.675577   1.441105   2.480009   2.472737   2.518510
    19  H    3.625223   1.975412   2.580405   2.784759   2.869653
    20  O    2.402175   2.470037   1.407218   3.677425   4.554726
    21  H    3.241984   2.633713   1.930208   4.068403   4.779647
    22  O    3.627756   4.937795   4.101888   5.045119   5.663337
    23  H    3.370441   4.376349   4.457512   3.188029   3.708611
    24  H    2.817073   4.165653   3.424694   4.136963   4.802750
    25  H    3.921810   5.607747   4.661345   5.616056   6.308530
    26  O    4.704707   3.195631   3.187281   4.721888   5.066715
    27  H    5.318200   3.602341   3.830727   5.059727   5.316226
    28  H    4.417265   2.559846   2.896397   4.023859   4.246751
    29  O    3.260768   3.721808   4.097880   2.370798   2.806209
    30  H    3.238031   3.036673   3.491406   2.190838   2.363781
                    6          7          8          9         10
     6  H    0.000000
     7  H    3.136096   0.000000
     8  H    2.944360   3.048364   0.000000
     9  C    3.435095   2.670037   3.236164   0.000000
    10  O    3.737985   2.089232   2.544096   1.412676   0.000000
    11  C    4.479516   2.148545   2.718933   3.713714   2.396245
    12  H    4.541565   2.476288   3.054947   4.533971   3.332179
    13  H    4.887637   3.053678   2.482077   3.991760   2.616386
    14  O    5.502895   2.605105   4.010492   4.053603   2.797710
    15  H    6.280211   3.437078   4.630069   5.007732   3.713571
    16  O    2.362368   2.436336   4.069142   2.433878   3.154147
    17  H    3.316104   2.626826   4.644191   2.367145   3.170674
    18  O    2.022581   4.159792   2.465552   3.317153   3.677228
    19  H    2.826764   4.312089   2.187093   3.162468   3.378713
    20  O    2.461740   2.707811   2.076285   4.235139   3.627377
    21  H    2.503795   3.617704   2.283258   4.780872   4.302212
    22  O    5.957572   4.605359   3.412331   3.897458   2.886539
    23  H    5.095393   3.286937   4.806045   1.934732   2.321026
    24  H    5.184085   3.746906   2.921894   2.952755   1.922734
    25  H    6.587193   4.802028   4.096418   4.370331   3.252573
    26  O    3.013264   5.166978   3.142566   5.611291   5.421539
    27  H    3.137652   5.622695   3.973916   6.140489   6.084462
    28  H    2.547675   4.912894   2.807077   4.925415   4.908577
    29  O    4.370583   3.093634   4.548826   1.415931   2.325783
    30  H    4.009743   3.679582   3.478327   1.098364   2.004920
                   11         12         13         14         15
    11  C    0.000000
    12  H    1.096976   0.000000
    13  H    1.099439   1.786296   0.000000
    14  O    1.427347   2.103761   2.090807   0.000000
    15  H    1.949696   2.285159   2.404230   0.968657   0.000000
    16  O    4.455757   4.801683   5.141735   4.890836   5.794019
    17  H    4.632613   5.099688   5.358787   4.785234   5.706428
    18  O    4.873885   5.202706   4.849664   5.983907   6.768342
    19  H    4.677817   5.145595   4.464544   5.760994   6.524410
    20  O    2.920797   2.549378   3.270863   4.217978   4.718307
    21  H    3.770840   3.402984   3.927619   5.125770   5.600640
    22  O    3.355277   4.297394   2.551867   3.690087   4.112097
    23  H    4.216406   5.132335   4.639281   3.861391   4.765070
    24  H    2.837864   3.859342   2.294166   3.186236   3.803968
    25  H    3.365132   4.315683   2.630088   3.358450   3.633056
    26  O    5.375757   5.153125   5.306836   6.758445   7.274180
    27  H    6.079087   5.786377   6.124509   7.427609   7.958833
    28  H    5.284080   5.255805   5.199595   6.613716   7.228693
    29  O    4.399106   5.223279   4.863171   4.309057   5.260917
    30  H    4.364270   5.253558   4.388000   4.744385   5.657233
                   16         17         18         19         20
    16  O    0.000000
    17  H    0.975227   0.000000
    18  O    3.588517   4.342591   0.000000
    19  H    4.070196   4.689945   0.971759   0.000000
    20  O    3.855136   4.588197   3.327438   3.632677   0.000000
    21  H    4.391059   5.218175   3.098521   3.472778   0.984993
    22  O    5.987071   6.032161   5.123135   4.355475   5.156921
    23  H    3.392175   2.747039   5.249490   5.060853   5.612971
    24  H    5.036404   5.058235   4.516395   3.843159   4.588744
    25  H    6.404798   6.347678   5.952217   5.238961   5.620978
    26  O    5.317125   6.225430   2.815089   3.258038   2.792300
    27  H    5.494299   6.448019   3.273969   3.899078   3.300425
    28  H    4.792529   5.678734   1.892105   2.378649   2.943257
    29  O    2.584785   1.970705   4.595174   4.534204   5.257759
    30  H    3.350618   3.312556   3.308511   2.914530   4.879577
                   21         22         23         24         25
    21  H    0.000000
    22  O    5.596337   0.000000
    23  H    6.339768   4.399037   0.000000
    24  H    5.107830   0.974986   3.516844   0.000000
    25  H    6.164056   0.968807   4.488830   1.520617   0.000000
    26  O    1.853333   6.413182   7.417381   6.023474   7.155021
    27  H    2.384231   7.308502   7.942602   6.861956   8.042311
    28  H    2.193004   5.992835   6.801641   5.550366   6.794477
    29  O    5.912958   4.769649   0.971328   3.831660   5.024787
    30  H    5.285125   3.649784   2.438264   2.830780   4.248102
                   26         27         28         29         30
    26  O    0.000000
    27  H    0.969058   0.000000
    28  H    0.981967   1.545984   0.000000
    29  O    6.870582   7.318947   6.210377   0.000000
    30  H    5.837285   6.421647   5.051921   2.066190   0.000000
 Symmetry turned off by external request.
 Stoichiometry    C6H16O8
 Framework group  C1[X(C6H16O8)]
 Deg. of freedom    84
 Full point group                 C1      NOp   1
 Rotational constants (GHZ):      0.6698533      0.4892334      0.3896651
 Standard basis: 6-31G(d) (6D, 7F)
   242 basis functions,   456 primitive gaussians,   242 cartesian basis functions
    58 alpha electrons       58 beta electrons
       nuclear repulsion energy      1100.9659423168 Hartrees.
 NAtoms=   30 NActive=   30 NUniq=   30 SFac= 1.00D+00 NAtFMM=   60 NAOKFM=F Big=F
 Integral buffers will be    131072 words long.
 Raffenetti 2 integral format.
 Two-electron integral symmetry is turned off.
 One-electron integrals computed using PRISM.
 NBasis=   242 RedAO= T EigKep=  1.29D-03  NBF=   242
 NBsUse=   242 1.00D-06 EigRej= -1.00D+00 NBFU=   242
 Initial guess from the checkpoint file:  "/scratch/10502101.yak.local/Gau-30827.chk"
 B after Tr=     0.000000    0.000000   -0.000000
         Rot=    1.000000    0.000000    0.000000   -0.000000 Ang=   0.00 deg.
 ExpMin= 1.61D-01 ExpMax= 5.48D+03 ExpMxC= 8.25D+02 IAcc=1 IRadAn=         1 AccDes= 0.00D+00
 Harris functional with IExCor=  402 and IRadAn=       1 diagonalized for initial guess.
 HarFok:  IExCor=  402 AccDes= 0.00D+00 IRadAn=         1 IDoV= 1 UseB2=F ITyADJ=14
 ICtDFT=  3500011 ScaDFX=  1.000000  1.000000  1.000000  1.000000
 FoFCou: FMM=F IPFlag=           0 FMFlag=      100000 FMFlg1=           0
         NFxFlg=           0 DoJE=T BraDBF=F KetDBF=T FulRan=T
         wScrn=  0.000000 ICntrl=     500 IOpCl=  0 I1Cent=   200000004 NGrid=           0
         NMat0=    1 NMatS0=      1 NMatT0=    0 NMatD0=    1 NMtDS0=    0 NMtDT0=    0
 Symmetry not used in FoFCou.
 Requested convergence on RMS density matrix=1.00D-08 within 128 cycles.
 Requested convergence on MAX density matrix=1.00D-06.
 Requested convergence on             energy=1.00D-06.
 No special actions if energy rises.
 Integral accuracy reduced to 1.0D-05 until final iterations.
 Initial convergence to 1.0D-05 achieved.  Increase integral accuracy.
 SCF Done:  E(RB3LYP) =  -839.983985836     A.U. after    7 cycles
            NFock=  7  Conv=0.80D-08     -V/T= 2.0085
 DoSCS=F DFT=T ScalE2(SS,OS)=  1.000000  1.000000
 Range of M.O.s used for correlation:     1   242
 NBasis=   242 NAE=    58 NBE=    58 NFC=     0 NFV=     0
 NROrb=    242 NOA=    58 NOB=    58 NVA=   184 NVB=   184
 Symmetrizing basis deriv contribution to polar:
 IMax=3 JMax=2 DiffMx= 0.00D+00
 Calling FoFJK, ICntrl=      2147 FMM=F ISym2X=0 I1Cent= 0 IOpClX= 0 NMat=1 NMatS=1 NMatT=0.
 -------------------------------------------------------------------
 Center     Atomic                   Forces (Hartrees/Bohr)
 Number     Number              X              Y              Z
 -------------------------------------------------------------------
      1        6           0.000005743   -0.000004711    0.000005736
      2        6           0.000001966    0.000009236   -0.000003532
      3        6           0.000008601    0.000004703    0.000000806
      4        6          -0.000004110    0.000004488   -0.000007687
      5        1          -0.000000608    0.000000806   -0.000001028
      6        1           0.000000119    0.000000864   -0.000000318
      7        1          -0.000000124   -0.000000671    0.000000335
      8        1           0.000001271    0.000000539    0.000000185
      9        6          -0.000001709    0.000000056   -0.000003945
     10        8           0.000009156   -0.000006054    0.000008310
     11        6           0.000012844   -0.000010061    0.000013385
     12        1           0.000000859   -0.000000567    0.000000760
     13        1           0.000002063   -0.000000792    0.000001140
     14        8           0.000008949   -0.000026685    0.000033382
     15        1           0.000001043   -0.000001872    0.000001956
     16        8          -0.000010403   -0.000003333   -0.000012327
     17        1          -0.000000904   -0.000000687   -0.000000904
     18        8           0.000002407    0.000022266   -0.000004078
     19        1           0.000000200    0.000001588   -0.000000129
     20        8           0.000012968    0.000008438    0.000000548
     21        1           0.000000921    0.000000866   -0.000000033
     22        8          -0.000048962   -0.000010829   -0.000020447
     23        1          -0.000000511   -0.000001127   -0.000000328
     24        1          -0.000000680   -0.000000282    0.000000160
     25        1          -0.000001832   -0.000000218   -0.000005018
     26        8           0.000010454    0.000023138    0.000005275
     27        1           0.000000803    0.000001464    0.000000567
     28        1           0.000000451    0.000001485    0.000000159
     29        8          -0.000010876   -0.000012692   -0.000012526
     30        1          -0.000000097    0.000000645   -0.000000401
 -------------------------------------------------------------------
 Cartesian Forces:  Max     0.000048962 RMS     0.000009474
 IRC-IRC-IRC-IRC-IRC-IRC-IRC-IRC-IRC-IRC-IRC-IRC-IRC-IRC-IRC-IRC-IRC-IRC
 Error in corrector energy =          -0.0000000000
 Magnitude of corrector gradient =     0.0000898776
 Magnitude of analytic gradient =      0.0000898777
 Magnitude of difference =             0.0000000004
 Angle between gradients (degrees)=    0.0002
 Pt  1 Step number  20 out of a maximum of  20
 Modified Bulirsch-Stoer Extrapolation Cycles:
    EPS =    0.000010000000000
 Maximum DWI energy   std dev =  0.000000311 at pt     2
 Maximum DWI gradient std dev =  1.785221436 at pt     5
 WARNING: Bulirsch-Stoer Method is not Converging
 CORRECTOR INTEGRATION CONVERGENCE:
   Recorrection delta-x convergence threshold:    0.010000
   Delta-x Convergence NOT Met
 Maximum number of corrector steps exceded.
 Error termination via Lnk1e in /global/software/gaussian/g09.e01/l123.exe at Tue Jan 31 15:12:15 2017.
 Job cpu time:       0 days  3 hours 52 minutes 53.6 seconds.
 File lengths (MBytes):  RWF=    220 Int=      0 D2E=      0 Chk=      8 Scr=      1
