 Entering Gaussian System, Link 0=g09
 Initial command:
 /global/software/gaussian/g09.e01/l1.exe "/scratch/10502103.yak.local/Gau-17910.inp" -scrdir="/scratch/10502103.yak.local/"
 Entering Link 1 = /global/software/gaussian/g09.e01/l1.exe PID=     17911.
  
 Copyright (c) 1988,1990,1992,1993,1995,1998,2003,2009,2015,
            Gaussian, Inc.  All Rights Reserved.
  
 This is part of the Gaussian(R) 09 program.  It is based on
 the Gaussian(R) 03 system (copyright 2003, Gaussian, Inc.),
 the Gaussian(R) 98 system (copyright 1998, Gaussian, Inc.),
 the Gaussian(R) 94 system (copyright 1995, Gaussian, Inc.),
 the Gaussian 92(TM) system (copyright 1992, Gaussian, Inc.),
 the Gaussian 90(TM) system (copyright 1990, Gaussian, Inc.),
 the Gaussian 88(TM) system (copyright 1988, Gaussian, Inc.),
 the Gaussian 86(TM) system (copyright 1986, Carnegie Mellon
 University), and the Gaussian 82(TM) system (copyright 1983,
 Carnegie Mellon University). Gaussian is a federally registered
 trademark of Gaussian, Inc.
  
 This software contains proprietary and confidential information,
 including trade secrets, belonging to Gaussian, Inc.
  
 This software is provided under written license and may be
 used, copied, transmitted, or stored only in accord with that
 written license.
  
 The following legend is applicable only to US Government
 contracts under FAR:
  
                    RESTRICTED RIGHTS LEGEND
  
 Use, reproduction and disclosure by the US Government is
 subject to restrictions as set forth in subparagraphs (a)
 and (c) of the Commercial Computer Software - Restricted
 Rights clause in FAR 52.227-19.
  
 Gaussian, Inc.
 340 Quinnipiac St., Bldg. 40, Wallingford CT 06492
  
  
 ---------------------------------------------------------------
 Warning -- This program may not be used in any manner that
 competes with the business of Gaussian, Inc. or will provide
 assistance to any competitor of Gaussian, Inc.  The licensee
 of this program is prohibited from giving any competitor of
 Gaussian, Inc. access to this program.  By using this program,
 the user acknowledges that Gaussian, Inc. is engaged in the
 business of creating and licensing software in the field of
 computational chemistry and represents and warrants to the
 licensee that it is not a competitor of Gaussian, Inc. and that
 it will not use this program in any manner prohibited above.
 ---------------------------------------------------------------
  

 Cite this work as:
 Gaussian 09, Revision E.01,
 M. J. Frisch, G. W. Trucks, H. B. Schlegel, G. E. Scuseria, 
 M. A. Robb, J. R. Cheeseman, G. Scalmani, V. Barone, B. Mennucci, 
 G. A. Petersson, H. Nakatsuji, M. Caricato, X. Li, H. P. Hratchian, 
 A. F. Izmaylov, J. Bloino, G. Zheng, J. L. Sonnenberg, M. Hada, 
 M. Ehara, K. Toyota, R. Fukuda, J. Hasegawa, M. Ishida, T. Nakajima, 
 Y. Honda, O. Kitao, H. Nakai, T. Vreven, J. A. Montgomery, Jr., 
 J. E. Peralta, F. Ogliaro, M. Bearpark, J. J. Heyd, E. Brothers, 
 K. N. Kudin, V. N. Staroverov, T. Keith, R. Kobayashi, J. Normand, 
 K. Raghavachari, A. Rendell, J. C. Burant, S. S. Iyengar, J. Tomasi, 
 M. Cossi, N. Rega, J. M. Millam, M. Klene, J. E. Knox, J. B. Cross, 
 V. Bakken, C. Adamo, J. Jaramillo, R. Gomperts, R. E. Stratmann, 
 O. Yazyev, A. J. Austin, R. Cammi, C. Pomelli, J. W. Ochterski, 
 R. L. Martin, K. Morokuma, V. G. Zakrzewski, G. A. Voth, 
 P. Salvador, J. J. Dannenberg, S. Dapprich, A. D. Daniels, 
 O. Farkas, J. B. Foresman, J. V. Ortiz, J. Cioslowski, 
 and D. J. Fox, Gaussian, Inc., Wallingford CT, 2013.
 
 ******************************************
 Gaussian 09:  ES64L-G09RevE.01 30-Nov-2015
                31-Jan-2017 
 ******************************************
 %NPROCS=4
 Will use up to    4 processors via shared memory.
 --------------------------------------------------
 # b3lyp/6-31g(d) irc=(calcfc,forward,maxpoints=20)
 --------------------------------------------------
 1/10=4,14=-1,18=10,22=1,26=3,38=1,42=20,44=3/1,23;
 2/12=2,17=6,18=5,29=1,40=1/2;
 3/5=1,6=6,7=1,11=2,16=1,25=1,30=1,71=2,74=-5,140=1/1,2,3;
 4//1;
 5/5=2,38=5/2;
 8/6=4,10=90,11=11/1;
 11/6=1,8=1,9=11,15=111,16=1/1,2,10;
 10/6=1,13=1/2;
 6/7=2,8=2,9=2,10=2,28=1/1;
 7/10=1,18=20,25=1/1,2,3,16;
 1/10=4,14=-1,18=10,22=1,26=3,42=20,44=3/23(2);
 2/29=1/2;
 99/5=20/99;
 2/29=1/2;
 3/5=1,6=6,7=1,11=2,16=1,25=1,30=1,71=2,74=-5,140=1/1,2,3;
 4/5=5,16=3,69=1/1;
 5/5=2,38=5/2;
 8/6=4,10=90,11=11/1;
 11/6=1,8=1,9=11,15=111,16=1/1,2,10;
 10/6=1,13=1/2;
 7/10=1,18=20,25=1/1,2,3,16;
 1/14=-1,18=10,22=1,26=3,42=20,44=3/23(-8);
 2/29=1/2;
 6/7=2,8=2,9=2,10=2,19=2,28=1/1;
 99/5=20,9=1/99;
 ------------------------------------------
 ./6/glo_2w_beta_boat6_B3LYP_631Gd_iopt.out
 ------------------------------------------
 Symbolic Z-matrix:
 Charge =  0 Multiplicity = 1
 C                     0.24497   1.16227   0.12567 
 C                     2.14848  -0.52233  -0.27784 
 C                     1.50297   0.83847  -0.68997 
 C                     1.43521  -1.15799   0.93294 
 H                     1.79627  -2.18942   1.04458 
 H                     3.19087  -0.31085   0.00128 
 H                     0.54729   1.49532   1.12431 
 H                     1.22547   0.73022  -1.74936 
 C                    -0.06892  -1.22379   0.66208 
 H                    -0.60878  -1.49148   1.58103 
 O                    -0.61117   0.02381   0.22124 
 C                    -0.58002   2.25249  -0.53643 
 H                     0.03654   3.15486  -0.62717 
 H                    -0.88094   1.92162  -1.54159 
 O                    -1.73371   2.49718   0.27839 
 H                    -2.2655    3.18539  -0.15 
 O                    -0.26234  -2.18562  -0.33608 
 O                     1.61251  -0.41472   2.13357 
 H                     2.56522  -0.30734   2.2795 
 O                     2.19542  -1.43438  -1.36171 
 H                     1.31372  -1.85995  -1.39085 
 O                     2.38653   1.94644  -0.51137 
 H                     3.11134   1.84567  -1.14801 
 O                    -3.63451   0.38368   0.31167 
 H                    -3.18768  -1.17182  -0.35579 
 H                    -2.82725   0.94651   0.32291 
 H                    -3.81296   0.21269   1.24883 
 O                    -2.93781  -2.06768  -0.70585 
 H                    -1.2401   -2.20978  -0.53391 
 H                    -3.17894  -2.03591  -1.64341 
 
 IRC-IRC-IRC-IRC-IRC-IRC-IRC-IRC-IRC-IRC-IRC-IRC-IRC-IRC-IRC-IRC-IRC-IRC
 ------------------------------------------------------------------------
 INPUT DATA FOR L123
 ------------------------------------------------------------------------
 GENERAL PARAMETERS:
 Rxn path following direction = Forward
 Maximum points per path      =  20
 Step size                    =   0.100 bohr
 Integration scheme           = HPC                                 
    Redo corrector integration= Yes                                 
    DWI Weight Power          =  2
    DWI will use Hessian update vectors when possible.
    Max correction cycles     =  20
 Initial Hessian              = CalcFC
 Hessian evaluation           = All updating
 Hessian updating method      = Bofill                              
 ------------------------------------------------------------------------
 IRC-IRC-IRC-IRC-IRC-IRC-IRC-IRC-IRC-IRC-IRC-IRC-IRC-IRC-IRC-IRC-IRC-IRC
                          Input orientation:                          
 ---------------------------------------------------------------------
 Center     Atomic      Atomic             Coordinates (Angstroms)
 Number     Number       Type             X           Y           Z
 ---------------------------------------------------------------------
      1          6           0        0.244970    1.162270    0.125670
      2          6           0        2.148480   -0.522330   -0.277840
      3          6           0        1.502970    0.838470   -0.689970
      4          6           0        1.435210   -1.157990    0.932940
      5          1           0        1.796270   -2.189420    1.044580
      6          1           0        3.190870   -0.310850    0.001280
      7          1           0        0.547290    1.495320    1.124310
      8          1           0        1.225470    0.730220   -1.749360
      9          6           0       -0.068920   -1.223790    0.662080
     10          1           0       -0.608780   -1.491480    1.581030
     11          8           0       -0.611170    0.023810    0.221240
     12          6           0       -0.580020    2.252490   -0.536430
     13          1           0        0.036540    3.154860   -0.627170
     14          1           0       -0.880940    1.921620   -1.541590
     15          8           0       -1.733710    2.497180    0.278390
     16          1           0       -2.265500    3.185390   -0.150000
     17          8           0       -0.262340   -2.185620   -0.336080
     18          8           0        1.612510   -0.414720    2.133570
     19          1           0        2.565220   -0.307340    2.279500
     20          8           0        2.195420   -1.434380   -1.361710
     21          1           0        1.313720   -1.859950   -1.390850
     22          8           0        2.386530    1.946440   -0.511370
     23          1           0        3.111340    1.845670   -1.148010
     24          8           0       -3.634510    0.383680    0.311670
     25          1           0       -3.187680   -1.171820   -0.355790
     26          1           0       -2.827250    0.946510    0.322910
     27          1           0       -3.812960    0.212690    1.248830
     28          8           0       -2.937810   -2.067680   -0.705850
     29          1           0       -1.240100   -2.209780   -0.533910
     30          1           0       -3.178940   -2.035910   -1.643410
 ---------------------------------------------------------------------
                    Distance matrix (angstroms):
                    1          2          3          4          5
     1  C    0.000000
     2  C    2.573723   0.000000
     3  C    1.533845   1.561509   0.000000
     4  C    2.729828   1.542338   2.573768   0.000000
     5  H    3.805884   2.156858   3.501829   1.098488   0.000000
     6  H    3.296040   1.099640   2.155869   2.160551   2.561720
     7  H    1.095263   2.932703   2.153227   2.804475   3.891480
     8  H    2.159580   2.141542   1.100469   3.286953   4.081202
     9  C    2.465673   2.508457   2.924345   1.529739   2.134873
    10  H    3.144734   3.463688   3.878865   2.170053   2.561087
    11  O    1.427656   2.857100   2.442041   2.467963   3.372246
    12  C    1.519067   3.900155   2.522276   4.225112   5.279859
    13  H    2.140240   4.254885   2.742266   4.794882   5.869644
    14  H    2.150358   4.092352   2.753452   4.579503   5.545843
    15  O    2.391753   4.949569   3.763660   4.881676   5.917096
    16  H    3.235965   5.765999   4.472244   5.808009   6.842045
    17  O    3.417447   2.929501   3.519471   2.355443   2.478732
    18  O    2.896330   2.472598   3.091094   1.423165   2.090270
    19  H    3.490315   2.599977   3.355444   1.952883   2.378768
    20  O    3.571995   1.417326   2.469123   2.433049   2.553358
    21  H    3.546248   1.929985   2.794373   2.430536   2.504541
    22  O    2.367915   2.491190   1.428347   3.553664   4.458108
    23  H    3.210198   2.700318   1.952206   4.020166   4.776904
    24  O    3.961207   5.883141   5.253934   5.335240   6.054038
    25  H    4.178859   5.376106   5.114210   4.799180   5.276012
    26  H    3.086097   5.222670   4.448416   4.792663   5.633099
    27  H    4.316247   6.197559   5.692948   5.433400   6.105351
    28  O    4.610216   5.333071   5.307211   4.757780   5.048796
    29  H    3.743154   3.794145   4.103732   3.227258   3.422220
    30  H    5.008109   5.704131   5.575965   5.357117   5.656993
                    6          7          8          9         10
     6  H    0.000000
     7  H    3.392928   0.000000
     8  H    2.830435   3.050129   0.000000
     9  C    3.449108   2.826116   3.362833   0.000000
    10  H    4.280986   3.235130   4.403626   1.098898   0.000000
    11  O    3.823073   2.079160   2.784874   1.429993   2.035961
    12  C    4.591237   2.145272   2.654863   3.712435   4.301369
    13  H    4.728202   2.466297   2.924337   4.565727   5.184695
    14  H    4.893261   3.054275   2.428902   3.925448   4.634013
    15  O    5.675677   2.631020   3.998833   4.094431   4.344162
    16  H    6.482172   3.520226   4.557706   4.992525   5.254931
    17  O    3.943759   4.041975   3.565538   1.399590   2.068130
    18  O    2.654933   2.408641   4.066673   2.376359   2.529593
    19  H    2.362570   2.942123   4.370718   3.224069   3.458948
    20  O    2.027556   4.180881   2.403449   3.044226   4.065282
    21  H    2.803824   4.262779   2.616352   2.555565   3.558630
    22  O    2.450537   2.502351   2.088030   4.178107   5.016903
    23  H    2.444948   3.443913   2.272082   4.776198   5.694166
    24  O    6.867643   4.402679   5.290306   3.926854   3.779225
    25  H    6.446291   4.822275   5.003567   3.281071   3.241015
    26  H    6.156474   3.511546   4.556931   3.526134   3.528211
    27  H    7.133310   4.546694   5.885810   4.052849   3.644355
    28  O    6.414609   5.309461   5.123481   3.288451   3.314545
    29  H    4.850346   4.435338   4.024917   1.942738   2.321097
    30  H    6.801126   5.832208   5.202070   3.955635   4.159223
                   11         12         13         14         15
    11  O    0.000000
    12  C    2.354156   0.000000
    13  H    3.307991   1.096655   0.000000
    14  H    2.604233   1.100170   1.788523   0.000000
    15  O    2.716785   1.433459   2.094366   2.090649   0.000000
    16  H    3.587508   1.964809   2.351172   2.334661   0.969511
    17  O    2.305183   4.453974   5.356752   4.324967   4.946829
    18  O    2.965479   4.364642   4.779882   5.018225   4.808123
    19  H    3.799414   4.937077   5.179747   5.607585   5.509135
    20  O    3.536806   4.687981   5.124591   4.556214   5.795270
    21  H    3.138883   4.607434   5.230938   4.374874   5.572950
    22  O    3.635853   2.982401   2.645022   3.426125   4.231242
    23  H    4.364757   3.763731   3.382255   4.012353   5.092503
    24  O    3.046025   3.679896   4.694408   3.658139   2.842715
    25  H    2.898430   4.307949   5.402722   4.036898   3.997221
    26  H    2.402649   2.737534   3.739085   2.866238   1.897996
    27  H    3.367948   4.218985   5.195613   4.393589   3.237890
    28  O    3.262986   4.924606   6.010647   4.565489   4.822503
    29  H    2.440231   4.510828   5.515240   4.267655   4.801974
    30  H    3.783227   5.135189   6.190004   4.577468   5.131365
                   16         17         18         19         20
    16  H    0.000000
    17  O    5.735418   0.000000
    18  O    5.763198   3.570759   0.000000
    19  H    6.437196   4.285358   0.969785   0.000000
    20  O    6.535314   2.767104   3.687340   3.829541   0.000000
    21  H    6.309198   1.924205   3.820929   4.177119   0.979466
    22  O    4.827729   4.911330   3.629034   3.591714   3.491353
    23  H    5.630389   5.319046   4.257302   4.084302   3.412229
    24  O    3.152286   4.288638   5.611415   6.541140   6.331953
    25  H    4.458480   3.096093   5.460031   6.386543   5.482570
    26  H    2.356224   4.101618   4.984266   5.871892   5.808080
    27  H    3.631570   4.568450   5.532823   6.481812   6.754879
    28  O    5.325008   2.703475   5.612486   6.503418   5.213566
    29  H    5.505151   0.997865   4.298264   5.100492   3.617913
    30  H    5.506961   3.199700   6.312830   7.167465   5.415251
                   21         22         23         24         25
    21  H    0.000000
    22  O    4.051297   0.000000
    23  H    4.125776   0.969956   0.000000
    24  O    5.693631   6.274754   7.055110   0.000000
    25  H    4.669847   6.389019   7.029261   1.750640   0.000000
    26  H    5.287800   5.373954   6.183765   0.984161   2.253412
    27  H    6.127528   6.673670   7.507156   0.969201   2.209672
    28  O    4.311367   6.670800   7.218174   2.744067   0.993752
    29  H    2.716381   5.516078   5.979868   3.629634   2.214081
    30  H    4.503192   6.936504   7.408084   3.143930   1.550707
                   26         27         28         29         30
    26  H    0.000000
    27  H    1.538650   0.000000
    28  O    3.186834   3.128378   0.000000
    29  H    3.635293   3.958046   1.712301   0.000000
    30  H    3.589558   3.717961   0.968593   2.240607   0.000000
 Symmetry turned off by external request.
 Stoichiometry    C6H16O8
 Framework group  C1[X(C6H16O8)]
 Deg. of freedom    84
 Full point group                 C1      NOp   1
 Rotational constants (GHZ):      0.7340543      0.5153058      0.3802279
 Standard basis: 6-31G(d) (6D, 7F)
   242 basis functions,   456 primitive gaussians,   242 cartesian basis functions
    58 alpha electrons       58 beta electrons
       nuclear repulsion energy      1109.5597713132 Hartrees.
 NAtoms=   30 NActive=   30 NUniq=   30 SFac= 1.00D+00 NAtFMM=   60 NAOKFM=F Big=F
 Integral buffers will be    131072 words long.
 Raffenetti 2 integral format.
 Two-electron integral symmetry is turned off.
 One-electron integrals computed using PRISM.
 NBasis=   242 RedAO= T EigKep=  1.49D-03  NBF=   242
 NBsUse=   242 1.00D-06 EigRej= -1.00D+00 NBFU=   242
 ExpMin= 1.61D-01 ExpMax= 5.48D+03 ExpMxC= 8.25D+02 IAcc=1 IRadAn=         1 AccDes= 0.00D+00
 Harris functional with IExCor=  402 and IRadAn=       1 diagonalized for initial guess.
 HarFok:  IExCor=  402 AccDes= 0.00D+00 IRadAn=         1 IDoV= 1 UseB2=F ITyADJ=14
 ICtDFT=  3500011 ScaDFX=  1.000000  1.000000  1.000000  1.000000
 FoFCou: FMM=F IPFlag=           0 FMFlag=      100000 FMFlg1=           0
         NFxFlg=           0 DoJE=T BraDBF=F KetDBF=T FulRan=T
         wScrn=  0.000000 ICntrl=     500 IOpCl=  0 I1Cent=   200000004 NGrid=           0
         NMat0=    1 NMatS0=      1 NMatT0=    0 NMatD0=    1 NMtDS0=    0 NMtDT0=    0
 Symmetry not used in FoFCou.
 Requested convergence on RMS density matrix=1.00D-08 within 128 cycles.
 Requested convergence on MAX density matrix=1.00D-06.
 Requested convergence on             energy=1.00D-06.
 No special actions if energy rises.
 Integral accuracy reduced to 1.0D-05 until final iterations.
 Initial convergence to 1.0D-05 achieved.  Increase integral accuracy.
 SCF Done:  E(RB3LYP) =  -839.997493513     A.U. after   13 cycles
            NFock= 13  Conv=0.95D-08     -V/T= 2.0085
 DoSCS=F DFT=T ScalE2(SS,OS)=  1.000000  1.000000
 Range of M.O.s used for correlation:     1   242
 NBasis=   242 NAE=    58 NBE=    58 NFC=     0 NFV=     0
 NROrb=    242 NOA=    58 NOB=    58 NVA=   184 NVB=   184
 Symmetrizing basis deriv contribution to polar:
 IMax=3 JMax=2 DiffMx= 0.00D+00
 G2DrvN: will do    31 centers at a time, making    1 passes.
 Calling FoFCou, ICntrl=  3107 FMM=F I1Cent=   0 AccDes= 0.00D+00.
 End of G2Drv F.D. properties file   721 does not exist.
 End of G2Drv F.D. properties file   722 does not exist.
 End of G2Drv F.D. properties file   788 does not exist.
          IDoAtm=111111111111111111111111111111
          Differentiating once with respect to nuclear coordinates.
          There are    93 degrees of freedom in the 1st order CPHF.  IDoFFX=6 NUNeed=     0.
     87 vectors produced by pass  0 Test12= 1.15D-14 1.08D-09 XBig12= 1.18D-01 6.46D-02.
 AX will form    87 AO Fock derivatives at one time.
     87 vectors produced by pass  1 Test12= 1.15D-14 1.08D-09 XBig12= 1.32D-02 1.49D-02.
     87 vectors produced by pass  2 Test12= 1.15D-14 1.08D-09 XBig12= 8.77D-05 1.54D-03.
     87 vectors produced by pass  3 Test12= 1.15D-14 1.08D-09 XBig12= 2.16D-07 5.32D-05.
     87 vectors produced by pass  4 Test12= 1.15D-14 1.08D-09 XBig12= 2.35D-10 1.51D-06.
     60 vectors produced by pass  5 Test12= 1.15D-14 1.08D-09 XBig12= 2.02D-13 5.61D-08.
      2 vectors produced by pass  6 Test12= 1.15D-14 1.08D-09 XBig12= 2.07D-16 1.46D-09.
 InvSVY:  IOpt=1 It=  1 EMax= 5.55D-16
 Solved reduced A of dimension   497 with    93 vectors.
 End of Minotr F.D. properties file   721 does not exist.
 End of Minotr F.D. properties file   722 does not exist.
 End of Minotr F.D. properties file   788 does not exist.

 **********************************************************************

            Population analysis using the SCF density.

 **********************************************************************

 Alpha  occ. eigenvalues --  -19.17102 -19.15507 -19.15370 -19.14894 -19.14619
 Alpha  occ. eigenvalues --  -19.13741 -19.13469 -19.12771 -10.27892 -10.24124
 Alpha  occ. eigenvalues --  -10.23687 -10.23625 -10.23594 -10.23408  -1.06354
 Alpha  occ. eigenvalues --   -1.03827  -1.02752  -1.02432  -1.00626  -1.00465
 Alpha  occ. eigenvalues --   -0.99342  -0.98362  -0.77822  -0.75790  -0.69317
 Alpha  occ. eigenvalues --   -0.64015  -0.62366  -0.55730  -0.54856  -0.53731
 Alpha  occ. eigenvalues --   -0.52663  -0.52307  -0.51678  -0.51391  -0.48488
 Alpha  occ. eigenvalues --   -0.46919  -0.45605  -0.45445  -0.42216  -0.41209
 Alpha  occ. eigenvalues --   -0.40585  -0.40485  -0.39582  -0.38475  -0.37690
 Alpha  occ. eigenvalues --   -0.36104  -0.35385  -0.34803  -0.34082  -0.30886
 Alpha  occ. eigenvalues --   -0.30189  -0.29753  -0.28758  -0.28597  -0.28134
 Alpha  occ. eigenvalues --   -0.27300  -0.25530  -0.24408
 Alpha virt. eigenvalues --    0.04715   0.06232   0.07070   0.07507   0.09939
 Alpha virt. eigenvalues --    0.10316   0.12048   0.13698   0.14437   0.15246
 Alpha virt. eigenvalues --    0.16057   0.16675   0.17677   0.18304   0.19282
 Alpha virt. eigenvalues --    0.19988   0.21824   0.22853   0.23561   0.24220
 Alpha virt. eigenvalues --    0.24629   0.26262   0.27408   0.29913   0.30207
 Alpha virt. eigenvalues --    0.32072   0.33120   0.35796   0.52474   0.53891
 Alpha virt. eigenvalues --    0.54612   0.55856   0.57736   0.58830   0.59102
 Alpha virt. eigenvalues --    0.60577   0.62348   0.64335   0.67484   0.67756
 Alpha virt. eigenvalues --    0.68684   0.70408   0.73009   0.75143   0.76830
 Alpha virt. eigenvalues --    0.77840   0.79280   0.79467   0.80629   0.81601
 Alpha virt. eigenvalues --    0.82228   0.84532   0.85069   0.85632   0.86105
 Alpha virt. eigenvalues --    0.86435   0.88268   0.88887   0.89627   0.90660
 Alpha virt. eigenvalues --    0.90941   0.91819   0.92848   0.93976   0.95440
 Alpha virt. eigenvalues --    0.96634   0.97643   0.98672   1.01250   1.02399
 Alpha virt. eigenvalues --    1.04504   1.05236   1.06674   1.07824   1.09288
 Alpha virt. eigenvalues --    1.09932   1.10595   1.13649   1.14261   1.15464
 Alpha virt. eigenvalues --    1.18331   1.19792   1.23358   1.25936   1.26686
 Alpha virt. eigenvalues --    1.27719   1.29604   1.32326   1.34237   1.38862
 Alpha virt. eigenvalues --    1.39563   1.45119   1.46132   1.47394   1.52431
 Alpha virt. eigenvalues --    1.54403   1.55592   1.57795   1.58932   1.60241
 Alpha virt. eigenvalues --    1.62189   1.64215   1.65888   1.69707   1.71267
 Alpha virt. eigenvalues --    1.71550   1.72254   1.72701   1.72873   1.74058
 Alpha virt. eigenvalues --    1.75991   1.76790   1.77132   1.79225   1.80241
 Alpha virt. eigenvalues --    1.82322   1.83603   1.84451   1.87245   1.88264
 Alpha virt. eigenvalues --    1.89531   1.92995   1.93339   1.94948   1.95463
 Alpha virt. eigenvalues --    2.00120   2.00878   2.02802   2.04421   2.05673
 Alpha virt. eigenvalues --    2.07863   2.10171   2.11186   2.12707   2.16624
 Alpha virt. eigenvalues --    2.18330   2.20437   2.24505   2.29015   2.29955
 Alpha virt. eigenvalues --    2.32274   2.34863   2.36200   2.38924   2.40782
 Alpha virt. eigenvalues --    2.43426   2.45887   2.46519   2.48238   2.49889
 Alpha virt. eigenvalues --    2.53224   2.54823   2.56553   2.58089   2.59700
 Alpha virt. eigenvalues --    2.62293   2.63736   2.66039   2.67057   2.69335
 Alpha virt. eigenvalues --    2.71747   2.79738   2.82162   2.90713   2.91192
 Alpha virt. eigenvalues --    2.95767   2.99088   3.01561   3.05258   3.08933
 Alpha virt. eigenvalues --    3.73001   3.77070   3.80190   3.87321   3.93281
 Alpha virt. eigenvalues --    3.95755   4.07291   4.14614   4.28989   4.33023
 Alpha virt. eigenvalues --    4.45046   4.55151   4.76249   4.79769
          Condensed to atoms (all electrons):
               1          2          3          4          5          6
     1  C    4.879873  -0.037469   0.289590  -0.004555   0.000381   0.003343
     2  C   -0.037469   5.012628   0.290533   0.287847  -0.053961   0.357735
     3  C    0.289590   0.290533   5.099194  -0.020807   0.006194  -0.066683
     4  C   -0.004555   0.287847  -0.020807   5.049861   0.361407  -0.038165
     5  H    0.000381  -0.053961   0.006194   0.361407   0.613442  -0.006566
     6  H    0.003343   0.357735  -0.066683  -0.038165  -0.006566   0.636760
     7  H    0.352359  -0.006333  -0.050464  -0.001275   0.000147   0.000300
     8  H   -0.035304  -0.064388   0.339938   0.003287  -0.000333   0.005297
     9  C   -0.021091  -0.012278  -0.026898   0.309501  -0.047335   0.005551
    10  H    0.002782   0.005947  -0.000176  -0.062037  -0.002613  -0.000197
    11  O    0.207009  -0.008026  -0.034675  -0.024517   0.003299   0.000079
    12  C    0.346614   0.003787  -0.027647   0.000123   0.000031  -0.000200
    13  H   -0.032806   0.000121  -0.001559  -0.000008  -0.000000   0.000001
    14  H   -0.032458  -0.000168  -0.005531  -0.000000  -0.000001   0.000000
    15  O   -0.039822  -0.000035   0.002157  -0.000003   0.000000   0.000001
    16  H    0.005468   0.000003  -0.000194  -0.000000   0.000000  -0.000000
    17  O    0.003590   0.001104   0.000951  -0.041420   0.005094  -0.000092
    18  O   -0.006271  -0.034199   0.002977   0.187411  -0.031519  -0.001410
    19  H    0.000375  -0.004373  -0.000990  -0.025083  -0.004200   0.007219
    20  O    0.003299   0.234708  -0.049244  -0.025360   0.006113  -0.037999
    21  H    0.000244  -0.031765  -0.002120  -0.015101  -0.000041   0.005644
    22  O   -0.035635  -0.033495   0.182888   0.001698  -0.000101   0.005167
    23  H    0.006391  -0.001230  -0.022352   0.000015  -0.000005   0.003660
    24  O    0.000078  -0.000000  -0.000006  -0.000001   0.000000  -0.000000
    25  H   -0.000083  -0.000001   0.000002   0.000033  -0.000001   0.000000
    26  H   -0.003469  -0.000004   0.000186   0.000061  -0.000001   0.000000
    27  H    0.000052  -0.000000   0.000001   0.000002  -0.000000  -0.000000
    28  O    0.000066  -0.000002  -0.000001   0.000019   0.000001  -0.000000
    29  H   -0.000221  -0.000204  -0.000076   0.004806  -0.000126   0.000013
    30  H   -0.000001   0.000000  -0.000000  -0.000002  -0.000000   0.000000
               7          8          9         10         11         12
     1  C    0.352359  -0.035304  -0.021091   0.002782   0.207009   0.346614
     2  C   -0.006333  -0.064388  -0.012278   0.005947  -0.008026   0.003787
     3  C   -0.050464   0.339938  -0.026898  -0.000176  -0.034675  -0.027647
     4  C   -0.001275   0.003287   0.309501  -0.062037  -0.024517   0.000123
     5  H    0.000147  -0.000333  -0.047335  -0.002613   0.003299   0.000031
     6  H    0.000300   0.005297   0.005551  -0.000197   0.000079  -0.000200
     7  H    0.595124   0.006968  -0.006358   0.001610  -0.036699  -0.046112
     8  H    0.006968   0.647282   0.001593   0.000060   0.002810  -0.015805
     9  C   -0.006358   0.001593   4.661935   0.380647   0.206586   0.003114
    10  H    0.001610   0.000060   0.380647   0.647477  -0.057007  -0.000306
    11  O   -0.036699   0.002810   0.206586  -0.057007   8.370831  -0.047702
    12  C   -0.046112  -0.015805   0.003114  -0.000306  -0.047702   4.943623
    13  H   -0.001609   0.000131  -0.000137   0.000009   0.003509   0.356724
    14  H    0.006759   0.008498  -0.000187   0.000020  -0.000337   0.345895
    15  O    0.001597   0.000008  -0.000029   0.000013  -0.000828   0.219700
    16  H   -0.000177  -0.000012   0.000015  -0.000002   0.000029  -0.018657
    17  O   -0.000224  -0.000015   0.238922  -0.048934  -0.065075  -0.000230
    18  O    0.012316  -0.000080  -0.040992   0.002771   0.000962   0.000487
    19  H   -0.000207   0.000024   0.006717  -0.000415  -0.000114  -0.000031
    20  O   -0.000034   0.008702   0.001345  -0.000272  -0.000578  -0.000054
    21  H    0.000065   0.001622  -0.000911   0.000966   0.000993  -0.000036
    22  O    0.004617  -0.034011   0.000280   0.000007   0.001091  -0.001185
    23  H   -0.000266  -0.005104  -0.000015  -0.000001  -0.000107  -0.000105
    24  O    0.000005  -0.000001   0.000456   0.000299  -0.002565   0.001388
    25  H    0.000006   0.000001   0.000157  -0.000006   0.002246   0.000023
    26  H   -0.000021   0.000001  -0.000365  -0.000123   0.014831  -0.005133
    27  H    0.000000   0.000000   0.000086   0.000083   0.000304  -0.000096
    28  O   -0.000001  -0.000001   0.002569   0.000361  -0.000551  -0.000011
    29  H    0.000032   0.000041  -0.018004  -0.002181   0.004359  -0.000014
    30  H    0.000000   0.000000  -0.000130  -0.000015   0.000095   0.000000
              13         14         15         16         17         18
     1  C   -0.032806  -0.032458  -0.039822   0.005468   0.003590  -0.006271
     2  C    0.000121  -0.000168  -0.000035   0.000003   0.001104  -0.034199
     3  C   -0.001559  -0.005531   0.002157  -0.000194   0.000951   0.002977
     4  C   -0.000008  -0.000000  -0.000003  -0.000000  -0.041420   0.187411
     5  H   -0.000000  -0.000001   0.000000   0.000000   0.005094  -0.031519
     6  H    0.000001   0.000000   0.000001  -0.000000  -0.000092  -0.001410
     7  H   -0.001609   0.006759   0.001597  -0.000177  -0.000224   0.012316
     8  H    0.000131   0.008498   0.000008  -0.000012  -0.000015  -0.000080
     9  C   -0.000137  -0.000187  -0.000029   0.000015   0.238922  -0.040992
    10  H    0.000009   0.000020   0.000013  -0.000002  -0.048934   0.002771
    11  O    0.003509  -0.000337  -0.000828   0.000029  -0.065075   0.000962
    12  C    0.356724   0.345895   0.219700  -0.018657  -0.000230   0.000487
    13  H    0.588732  -0.045185  -0.032132  -0.003877   0.000001   0.000000
    14  H   -0.045185   0.635869  -0.039725  -0.003397  -0.000034  -0.000010
    15  O   -0.032132  -0.039725   8.244880   0.232212   0.000000  -0.000001
    16  H   -0.003877  -0.003397   0.232212   0.383804   0.000000   0.000000
    17  O    0.000001  -0.000034   0.000000   0.000000   8.383597   0.001207
    18  O    0.000000  -0.000010  -0.000001   0.000000   0.001207   8.298300
    19  H    0.000001   0.000001   0.000000  -0.000000  -0.000119   0.234041
    20  O   -0.000003  -0.000020   0.000000  -0.000000  -0.018071   0.001718
    21  H    0.000001   0.000012   0.000000  -0.000000   0.051189   0.000094
    22  O    0.008914   0.000183   0.000011   0.000004  -0.000001  -0.000128
    23  H   -0.000217  -0.000045   0.000001  -0.000001   0.000000  -0.000012
    24  O   -0.000032   0.000242  -0.016674   0.001931  -0.000040   0.000000
    25  H    0.000001   0.000031   0.000013  -0.000008   0.001738  -0.000000
    26  H    0.000649  -0.000614   0.056223  -0.004254   0.000023  -0.000002
    27  H    0.000000  -0.000011   0.000763  -0.000053   0.000001  -0.000000
    28  O   -0.000000   0.000003  -0.000002   0.000001  -0.032898   0.000000
    29  H    0.000000   0.000029  -0.000001  -0.000000   0.195774  -0.000054
    30  H    0.000000   0.000004   0.000000  -0.000000   0.001888  -0.000000
              19         20         21         22         23         24
     1  C    0.000375   0.003299   0.000244  -0.035635   0.006391   0.000078
     2  C   -0.004373   0.234708  -0.031765  -0.033495  -0.001230  -0.000000
     3  C   -0.000990  -0.049244  -0.002120   0.182888  -0.022352  -0.000006
     4  C   -0.025083  -0.025360  -0.015101   0.001698   0.000015  -0.000001
     5  H   -0.004200   0.006113  -0.000041  -0.000101  -0.000005   0.000000
     6  H    0.007219  -0.037999   0.005644   0.005167   0.003660  -0.000000
     7  H   -0.000207  -0.000034   0.000065   0.004617  -0.000266   0.000005
     8  H    0.000024   0.008702   0.001622  -0.034011  -0.005104  -0.000001
     9  C    0.006717   0.001345  -0.000911   0.000280  -0.000015   0.000456
    10  H   -0.000415  -0.000272   0.000966   0.000007  -0.000001   0.000299
    11  O   -0.000114  -0.000578   0.000993   0.001091  -0.000107  -0.002565
    12  C   -0.000031  -0.000054  -0.000036  -0.001185  -0.000105   0.001388
    13  H    0.000001  -0.000003   0.000001   0.008914  -0.000217  -0.000032
    14  H    0.000001  -0.000020   0.000012   0.000183  -0.000045   0.000242
    15  O    0.000000   0.000000   0.000000   0.000011   0.000001  -0.016674
    16  H   -0.000000  -0.000000  -0.000000   0.000004  -0.000001   0.001931
    17  O   -0.000119  -0.018071   0.051189  -0.000001   0.000000  -0.000040
    18  O    0.234041   0.001718   0.000094  -0.000128  -0.000012   0.000000
    19  H    0.387062   0.000024   0.000016   0.000269   0.000014  -0.000000
    20  O    0.000024   8.305873   0.227102   0.001429   0.000381   0.000000
    21  H    0.000016   0.227102   0.340579  -0.000023   0.000000   0.000000
    22  O    0.000269   0.001429  -0.000023   8.308596   0.230066   0.000000
    23  H    0.000014   0.000381   0.000000   0.230066   0.391034  -0.000000
    24  O   -0.000000   0.000000   0.000000   0.000000  -0.000000   8.338761
    25  H    0.000000   0.000000  -0.000002  -0.000000   0.000000   0.078627
    26  H    0.000000   0.000000  -0.000001  -0.000001   0.000000   0.207330
    27  H    0.000000  -0.000000   0.000000  -0.000000   0.000000   0.243029
    28  O   -0.000000  -0.000000   0.000016   0.000000  -0.000000  -0.029120
    29  H    0.000006   0.000273  -0.000044   0.000000   0.000000   0.000152
    30  H    0.000000   0.000000  -0.000005  -0.000000   0.000000   0.001267
              25         26         27         28         29         30
     1  C   -0.000083  -0.003469   0.000052   0.000066  -0.000221  -0.000001
     2  C   -0.000001  -0.000004  -0.000000  -0.000002  -0.000204   0.000000
     3  C    0.000002   0.000186   0.000001  -0.000001  -0.000076  -0.000000
     4  C    0.000033   0.000061   0.000002   0.000019   0.004806  -0.000002
     5  H   -0.000001  -0.000001  -0.000000   0.000001  -0.000126  -0.000000
     6  H    0.000000   0.000000  -0.000000  -0.000000   0.000013   0.000000
     7  H    0.000006  -0.000021   0.000000  -0.000001   0.000032   0.000000
     8  H    0.000001   0.000001   0.000000  -0.000001   0.000041   0.000000
     9  C    0.000157  -0.000365   0.000086   0.002569  -0.018004  -0.000130
    10  H   -0.000006  -0.000123   0.000083   0.000361  -0.002181  -0.000015
    11  O    0.002246   0.014831   0.000304  -0.000551   0.004359   0.000095
    12  C    0.000023  -0.005133  -0.000096  -0.000011  -0.000014   0.000000
    13  H    0.000001   0.000649   0.000000  -0.000000   0.000000   0.000000
    14  H    0.000031  -0.000614  -0.000011   0.000003   0.000029   0.000004
    15  O    0.000013   0.056223   0.000763  -0.000002  -0.000001   0.000000
    16  H   -0.000008  -0.004254  -0.000053   0.000001  -0.000000  -0.000000
    17  O    0.001738   0.000023   0.000001  -0.032898   0.195774   0.001888
    18  O   -0.000000  -0.000002  -0.000000   0.000000  -0.000054  -0.000000
    19  H    0.000000   0.000000   0.000000  -0.000000   0.000006   0.000000
    20  O    0.000000   0.000000  -0.000000  -0.000000   0.000273   0.000000
    21  H   -0.000002  -0.000001   0.000000   0.000016  -0.000044  -0.000005
    22  O   -0.000000  -0.000001  -0.000000   0.000000   0.000000  -0.000000
    23  H    0.000000   0.000000   0.000000  -0.000000   0.000000   0.000000
    24  O    0.078627   0.207330   0.243029  -0.029120   0.000152   0.001267
    25  H    0.301840  -0.002856  -0.005433   0.202179  -0.003867  -0.014400
    26  H   -0.002856   0.301510  -0.015324   0.001289   0.000021  -0.000005
    27  H   -0.005433  -0.015324   0.376636   0.001965  -0.000023  -0.000065
    28  O    0.202179   0.001289   0.001965   8.356788   0.085361   0.240264
    29  H   -0.003867   0.000021  -0.000023   0.085361   0.291631  -0.004557
    30  H   -0.014400  -0.000005  -0.000065   0.240264  -0.004557   0.382658
 Mulliken charges:
               1
     1  C    0.147671
     2  C    0.093517
     3  C    0.094810
     4  C    0.052260
     5  H    0.150693
     6  H    0.120541
     7  H    0.167872
     8  H    0.128790
     9  C    0.355258
    10  H    0.131234
    11  O   -0.540250
    12  C   -0.058187
    13  H    0.158770
    14  H    0.130180
    15  O   -0.628328
    16  H    0.407166
    17  O   -0.677928
    18  O   -0.627606
    19  H    0.399763
    20  O   -0.659332
    21  H    0.421503
    22  O   -0.640641
    23  H    0.397896
    24  O   -0.825126
    25  H    0.439762
    26  H    0.450049
    27  H    0.398082
    28  O   -0.828295
    29  H    0.446873
    30  H    0.393002
 Sum of Mulliken charges =  -0.00000
 Mulliken charges with hydrogens summed into heavy atoms:
               1
     1  C    0.315543
     2  C    0.214058
     3  C    0.223600
     4  C    0.202954
     9  C    0.486491
    11  O   -0.540250
    12  C    0.230764
    15  O   -0.221162
    17  O   -0.231055
    18  O   -0.227843
    20  O   -0.237828
    22  O   -0.242745
    24  O    0.023005
    28  O    0.004469
 APT charges:
               1
     1  C   -0.326014
     2  C   -0.409004
     3  C   -0.058909
     4  C   -0.403367
     5  H    0.535960
     6  H    0.523909
     7  H    0.386013
     8  H    0.314413
     9  C   -0.226352
    10  H    0.431395
    11  O   -0.416133
    12  C   -0.550752
    13  H    0.533844
    14  H    0.309208
    15  O   -1.085887
    16  H    0.921344
    17  O   -0.658913
    18  O   -0.927761
    19  H    0.810463
    20  O   -0.492087
    21  H    0.373041
    22  O   -1.001569
    23  H    0.820637
    24  O   -0.859050
    25  H    0.344338
    26  H    0.210358
    27  H    0.694218
    28  O   -1.061820
    29  H    0.529295
    30  H    0.739183
 Sum of APT charges =  -0.00000
 APT charges with hydrogens summed into heavy atoms:
               1
     1  C    0.059999
     2  C    0.114905
     3  C    0.255504
     4  C    0.132593
     9  C    0.205043
    11  O   -0.416133
    12  C    0.292300
    15  O   -0.164543
    17  O   -0.129618
    18  O   -0.117298
    20  O   -0.119046
    22  O   -0.180932
    24  O    0.045526
    28  O    0.021700
 Electronic spatial extent (au):  <R**2>=           3138.0656
 Charge=              0.0000 electrons
 Dipole moment (field-independent basis, Debye):
    X=             -0.0906    Y=              3.0794    Z=             -0.7473  Tot=              3.1701
 Quadrupole moment (field-independent basis, Debye-Ang):
   XX=            -76.0951   YY=            -84.1328   ZZ=            -78.4653
   XY=             -2.4682   XZ=              4.2320   YZ=             -5.4845
 Traceless Quadrupole moment (field-independent basis, Debye-Ang):
   XX=              3.4693   YY=             -4.5684   ZZ=              1.0991
   XY=             -2.4682   XZ=              4.2320   YZ=             -5.4845
 Octapole moment (field-independent basis, Debye-Ang**2):
  XXX=             13.9824  YYY=             37.8364  ZZZ=             -8.5613  XYY=            -24.6482
  XXY=             20.5390  XXZ=             16.5022  XZZ=            -22.8894  YZZ=             -3.3215
  YYZ=            -12.7069  XYZ=            -17.2016
 Hexadecapole moment (field-independent basis, Debye-Ang**3):
 XXXX=          -1813.8920 YYYY=          -1227.6974 ZZZZ=           -464.5165 XXXY=             38.6005
 XXXZ=              5.2911 YYYX=           -101.0013 YYYZ=            -13.0748 ZZZX=             27.1043
 ZZZY=             24.5997 XXYY=           -521.9109 XXZZ=           -285.9407 YYZZ=           -269.3953
 XXYZ=            -24.8651 YYXZ=             32.9023 ZZXY=             46.5054
 N-N= 1.109559771313D+03 E-N=-4.192422290528D+03  KE= 8.328844176058D+02
  Exact polarizability:   0.000   0.000   0.000   0.000   0.000   0.000
 Approx polarizability: 129.956   3.544 128.115  -1.189   6.425 123.328
 Calling FoFJK, ICntrl=    100147 FMM=F ISym2X=0 I1Cent= 0 IOpClX= 0 NMat=1 NMatS=1 NMatT=0.
 -------------------------------------------------------------------
 Center     Atomic                   Forces (Hartrees/Bohr)
 Number     Number              X              Y              Z
 -------------------------------------------------------------------
      1        6          -0.000003848    0.000004009   -0.000007497
      2        6          -0.000008194   -0.000000666   -0.000001497
      3        6           0.000001361    0.000009167   -0.000009596
      4        6           0.000011055    0.000005641   -0.000003699
      5        1           0.000001427    0.000004317    0.000000724
      6        1           0.000005333    0.000002951    0.000000098
      7        1           0.000000473    0.000000205   -0.000000788
      8        1           0.000001713    0.000000790    0.000012771
      9        6          -0.000000275    0.000004205    0.000001562
     10        1          -0.000000242    0.000000358    0.000005159
     11        8           0.000004756    0.000004503    0.000001914
     12        6          -0.000002275   -0.000007925   -0.000006676
     13        1           0.000000442    0.000001942   -0.000002517
     14        1          -0.000001300   -0.000000663    0.000000782
     15        8          -0.000008514    0.000005588   -0.000006893
     16        1           0.000003262   -0.000007897    0.000003359
     17        8          -0.000000732   -0.000005309    0.000005339
     18        8           0.000015719    0.000007380    0.000003467
     19        1          -0.000009383    0.000004302   -0.000006511
     20        8           0.000000285   -0.000003444   -0.000003651
     21        1           0.000000231    0.000000012    0.000000224
     22        8          -0.000002576   -0.000016012   -0.000028628
     23        1          -0.000013470    0.000003318    0.000007450
     24        8           0.000005386    0.000000901   -0.000002755
     25        1           0.000000593   -0.000005776    0.000000751
     26        1          -0.000002218   -0.000002393    0.000000134
     27        1          -0.000002311   -0.000002792    0.000013352
     28        8          -0.000000255   -0.000003381    0.000008630
     29        1           0.000001892   -0.000001356    0.000004623
     30        1           0.000001664   -0.000001976    0.000010370
 -------------------------------------------------------------------
 Cartesian Forces:  Max     0.000028628 RMS     0.000006289
 IRC-IRC-IRC-IRC-IRC-IRC-IRC-IRC-IRC-IRC-IRC-IRC-IRC-IRC-IRC-IRC-IRC-IRC
          ******** Start new reaction path calculation ********
 Supplied step size of   0.1000 bohr.
    Integration on MW PES will use step size of   0.2547 sqrt(amu)*bohr.
 Point Number:   0          Path Number:   1
 Calculating another point on the path.
 IRC-IRC-IRC-IRC-IRC-IRC-IRC-IRC-IRC-IRC-IRC-IRC-IRC-IRC-IRC-IRC-IRC-IRC
                          Input orientation:                          
 ---------------------------------------------------------------------
 Center     Atomic      Atomic             Coordinates (Angstroms)
 Number     Number       Type             X           Y           Z
 ---------------------------------------------------------------------
      1          6           0        0.225745    1.171205    0.121524
      2          6           0        2.130198   -0.513617   -0.280848
      3          6           0        1.479001    0.842364   -0.699342
      4          6           0        1.414584   -1.150899    0.927881
      5          1           0        1.775960   -2.182309    1.038687
      6          1           0        3.169851   -0.295773    0.003308
      7          1           0        0.533659    1.508251    1.117156
      8          1           0        1.194369    0.725305   -1.755983
      9          6           0       -0.088773   -1.216307    0.654397
     10          1           0       -0.629906   -1.494110    1.569527
     11          8           0       -0.632704    0.035225    0.227848
     12          6           0       -0.600515    2.259914   -0.541890
     13          1           0        0.015852    3.162015   -0.636155
     14          1           0       -0.903178    1.926434   -1.545696
     15          8           0       -1.752906    2.506740    0.274098
     16          1           0       -2.284145    3.195386   -0.154276
     17          8           0       -0.278926   -2.168912   -0.353611
     18          8           0        1.589637   -0.408949    2.129633
     19          1           0        2.542245   -0.308993    2.281651
     20          8           0        2.188048   -1.427420   -1.362907
     21          1           0        1.306256   -1.852136   -1.399596
     22          8           0        2.361775    1.953382   -0.535826
     23          1           0        3.084442    1.846537   -1.173972
     24          8           0       -3.654384    0.393463    0.305113
     25          1           0       -3.205881   -1.160259   -0.365385
     26          1           0       -2.847316    0.956572    0.318186
     27          1           0       -3.831849    0.218530    1.241753
     28          8           0       -2.955740   -2.055903   -0.715862
     29          1           0       -1.256624   -2.194550   -0.551087
     30          1           0       -3.203818   -2.026651   -1.651707
 ---------------------------------------------------------------------
                    Distance matrix (angstroms):
                    1          2          3          4          5
     1  C    0.000000
     2  C    2.574387   0.000000
     3  C    1.533822   1.561371   0.000000
     4  C    2.730515   1.542485   2.573928   0.000000
     5  H    3.806627   2.156662   3.501083   1.098489   0.000000
     6  H    3.291467   1.099582   2.155933   2.160333   2.563974
     7  H    1.095306   2.931092   2.153310   2.807656   3.894830
     8  H    2.159188   2.141664   1.100549   3.282037   4.074635
     9  C    2.466392   2.508444   2.920386   1.529430   2.134963
    10  H    3.151628   3.464597   3.879997   2.170125   2.558046
    11  O    1.427827   2.862451   2.443452   2.467454   3.372919
    12  C    1.519248   3.900950   2.521632   4.225458   5.280076
    13  H    2.140434   4.255229   2.743279   4.796237   5.870680
    14  H    2.150456   4.093294   2.750691   4.578273   5.544239
    15  O    2.392069   4.950658   3.763371   4.882494   5.918164
    16  H    3.236190   5.767075   4.471586   5.808774   6.843042
    17  O    3.411279   2.923897   3.503944   2.355111   2.482182
    18  O    2.896478   2.472566   3.095340   1.423144   2.090379
    19  H    3.496184   2.603470   3.367853   1.952720   2.375176
    20  O    3.578689   1.417474   2.468802   2.433603   2.550947
    21  H    3.552731   1.929277   2.789360   2.433232   2.504967
    22  O    2.367812   2.490928   1.428421   3.560361   4.463878
    23  H    3.210378   2.697883   1.952197   4.023783   4.779078
    24  O    3.961564   5.884517   5.249961   5.335479   6.054863
    25  H    4.177183   5.375781   5.105893   4.798054   5.275864
    26  H    3.086819   5.224552   4.445833   4.793429   5.634392
    27  H    4.315851   6.196802   5.688774   5.431290   6.103505
    28  O    4.608394   5.332415   5.297845   4.756118   5.048109
    29  H    3.738734   3.790663   4.090046   3.226749   3.424047
    30  H    5.013236   5.711414   5.573782   5.361983   5.662211
                    6          7          8          9         10
     6  H    0.000000
     7  H    3.382997   0.000000
     8  H    2.835531   3.050324   0.000000
     9  C    3.448178   2.832805   3.350559   0.000000
    10  H    4.281029   3.251568   4.394633   1.098846   0.000000
    11  O    3.823533   2.078720   2.783881   1.429733   2.034448
    12  C    4.587422   2.145643   2.655307   3.711751   4.307162
    13  H    4.723655   2.465190   2.929245   4.565761   5.192451
    14  H    4.891542   3.054531   2.426239   3.921796   4.634589
    15  O    5.671062   2.633650   3.997646   4.095735   4.352708
    16  H    6.477585   3.521788   4.557064   4.993661   5.263020
    17  O    3.940825   4.042892   3.537476   1.399891   2.068092
    18  O    2.651630   2.411608   4.067036   2.375965   2.533311
    19  H    2.363242   2.948362   4.380529   3.223884   3.460370
    20  O    2.027586   4.184002   2.403358   3.049262   4.067491
    21  H    2.804174   4.268857   2.604367   2.563059   3.562667
    22  O    2.449969   2.504496   2.088012   4.179563   5.026716
    23  H    2.445971   3.445315   2.273384   4.774226   5.699394
    24  O    6.865590   4.409294   5.279076   3.927715   3.782743
    25  H    6.444628   4.827321   4.985108   3.280161   3.238979
    26  H    6.154171   3.517627   4.548723   3.527606   3.533922
    27  H    7.128959   4.553742   5.874190   4.051464   3.645958
    28  O    6.413902   5.314043   5.102977   3.286644   3.308794
    29  H    4.848339   4.438342   3.998086   1.942685   2.319568
    30  H    6.808721   5.842164   5.189237   3.959581   4.157520
                   11         12         13         14         15
    11  O    0.000000
    12  C    2.354310   0.000000
    13  H    3.308163   1.096622   0.000000
    14  H    2.606776   1.100200   1.788447   0.000000
    15  O    2.713923   1.433445   2.094386   2.090560   0.000000
    16  H    3.586070   1.964679   2.350172   2.335243   0.969512
    17  O    2.306832   4.444476   5.346542   4.310756   4.942505
    18  O    2.958527   4.365390   4.783113   5.017587   4.807998
    19  H    3.796959   4.944553   5.190776   5.613970   5.514249
    20  O    3.553375   4.695379   5.129280   4.564803   5.804181
    21  H    3.157574   4.613067   5.233516   4.379559   5.582072
    22  O    3.637228   2.978114   2.640874   3.417672   4.229986
    23  H    4.366134   3.761558   3.381711   4.005705   5.092417
    24  O    3.043822   3.677930   4.692707   3.653030   2.842977
    25  H    2.898679   4.303099   5.397678   4.027808   3.995866
    26  H    2.400322   2.736155   3.737978   2.862579   1.898077
    27  H    3.360971   4.217837   5.195714   4.389068   3.239484
    28  O    3.264950   4.919719   6.005280   4.556385   4.821259
    29  H    2.442931   4.502534   5.506289   4.254019   4.798890
    30  H    3.794033   5.136490   6.190306   4.575048   5.134735
                   16         17         18         19         20
    16  H    0.000000
    17  O    5.730300   0.000000
    18  O    5.763130   3.571484   0.000000
    19  H    6.442706   4.285196   0.969825   0.000000
    20  O    6.544588   2.766668   3.686897   3.828725   0.000000
    21  H    6.318171   1.925418   3.823421   4.178580   0.979432
    22  O    4.824182   4.898960   3.644376   3.617884   3.484833
    23  H    5.628579   5.301798   4.270300   4.108724   3.399707
    24  O    3.152676   4.288753   5.610036   6.542045   6.342864
    25  H    4.457107   3.095898   5.457708   6.385326   5.491894
    26  H    2.356411   4.100804   4.983227   5.874029   5.819311
    27  H    3.634000   4.568187   5.529428   6.479871   6.762586
    28  O    5.323764   2.703578   5.609791   6.501124   5.222281
    29  H    5.501333   0.997772   4.298352   5.100111   3.621230
    30  H    5.509789   3.203169   6.316068   7.172091   5.432744
                   21         22         23         24         25
    21  H    0.000000
    22  O    4.042547   0.000000
    23  H    4.110113   0.969997   0.000000
    24  O    5.705848   6.271738   7.050595   0.000000
    25  H    4.680562   6.381426   7.018745   1.750650   0.000000
    26  H    5.300168   5.371927   6.180965   0.984186   2.253178
    27  H    6.137141   6.673115   7.504745   0.969221   2.208119
    28  O    4.321299   6.662038   7.205741   2.744064   0.993772
    29  H    2.721318   5.504396   5.963490   3.630447   2.214463
    30  H    4.520485   6.932653   7.400813   3.144696   1.550892
                   26         27         28         29         30
    26  H    0.000000
    27  H    1.538501   0.000000
    28  O    3.186851   3.126159   0.000000
    29  H    3.635314   3.958410   1.712708   0.000000
    30  H    3.592658   3.715828   0.968610   2.243016   0.000000
 Symmetry turned off by external request.
 Stoichiometry    C6H16O8
 Framework group  C1[X(C6H16O8)]
 Deg. of freedom    84
 Full point group                 C1      NOp   1
 Rotational constants (GHZ):      0.7341900      0.5149351      0.3804514
 Standard basis: 6-31G(d) (6D, 7F)
   242 basis functions,   456 primitive gaussians,   242 cartesian basis functions
    58 alpha electrons       58 beta electrons
       nuclear repulsion energy      1109.5508356567 Hartrees.
 NAtoms=   30 NActive=   30 NUniq=   30 SFac= 1.00D+00 NAtFMM=   60 NAOKFM=F Big=F
 Integral buffers will be    131072 words long.
 Raffenetti 2 integral format.
 Two-electron integral symmetry is turned off.
 One-electron integrals computed using PRISM.
 NBasis=   242 RedAO= T EigKep=  1.49D-03  NBF=   242
 NBsUse=   242 1.00D-06 EigRej= -1.00D+00 NBFU=   242
 Initial guess from the checkpoint file:  "/scratch/10502103.yak.local/Gau-17911.chk"
 B after Tr=    -0.036822    0.016309   -0.013445
         Rot=    1.000000   -0.000007   -0.000006    0.000007 Ang=  -0.00 deg.
 ExpMin= 1.61D-01 ExpMax= 5.48D+03 ExpMxC= 8.25D+02 IAcc=1 IRadAn=         1 AccDes= 0.00D+00
 Harris functional with IExCor=  402 and IRadAn=       1 diagonalized for initial guess.
 HarFok:  IExCor=  402 AccDes= 0.00D+00 IRadAn=         1 IDoV= 1 UseB2=F ITyADJ=14
 ICtDFT=  3500011 ScaDFX=  1.000000  1.000000  1.000000  1.000000
 FoFCou: FMM=F IPFlag=           0 FMFlag=      100000 FMFlg1=           0
         NFxFlg=           0 DoJE=T BraDBF=F KetDBF=T FulRan=T
         wScrn=  0.000000 ICntrl=     500 IOpCl=  0 I1Cent=   200000004 NGrid=           0
         NMat0=    1 NMatS0=      1 NMatT0=    0 NMatD0=    1 NMtDS0=    0 NMtDT0=    0
 Symmetry not used in FoFCou.
 Requested convergence on RMS density matrix=1.00D-08 within 128 cycles.
 Requested convergence on MAX density matrix=1.00D-06.
 Requested convergence on             energy=1.00D-06.
 No special actions if energy rises.
 Integral accuracy reduced to 1.0D-05 until final iterations.
 Initial convergence to 1.0D-05 achieved.  Increase integral accuracy.
 SCF Done:  E(RB3LYP) =  -839.997497228     A.U. after   10 cycles
            NFock= 10  Conv=0.87D-08     -V/T= 2.0085
 DoSCS=F DFT=T ScalE2(SS,OS)=  1.000000  1.000000
 Range of M.O.s used for correlation:     1   242
 NBasis=   242 NAE=    58 NBE=    58 NFC=     0 NFV=     0
 NROrb=    242 NOA=    58 NOB=    58 NVA=   184 NVB=   184
 Symmetrizing basis deriv contribution to polar:
 IMax=3 JMax=2 DiffMx= 0.00D+00
 Calling FoFJK, ICntrl=      2147 FMM=F ISym2X=0 I1Cent= 0 IOpClX= 0 NMat=1 NMatS=1 NMatT=0.
 -------------------------------------------------------------------
 Center     Atomic                   Forces (Hartrees/Bohr)
 Number     Number              X              Y              Z
 -------------------------------------------------------------------
      1        6          -0.000007037    0.000004278    0.000000694
      2        6           0.000010503    0.000004143   -0.000005938
      3        6           0.000003301    0.000002431   -0.000034085
      4        6           0.000008236   -0.000000812   -0.000004073
      5        1           0.000001554    0.000004275    0.000000985
      6        1          -0.000014652   -0.000000533   -0.000005942
      7        1          -0.000004149   -0.000007844   -0.000015718
      8        1           0.000011531    0.000004839    0.000050571
      9        6          -0.000031620   -0.000004128   -0.000013603
     10        1           0.000011186    0.000011388   -0.000029764
     11        8           0.000038283   -0.000017562    0.000064444
     12        6          -0.000005288   -0.000010315   -0.000002908
     13        1          -0.000002106   -0.000001162   -0.000002741
     14        1          -0.000000805   -0.000000390    0.000004622
     15        8          -0.000005969    0.000009172    0.000001777
     16        1           0.000003501   -0.000007809    0.000003994
     17        8           0.000013283    0.000065697    0.000003059
     18        8           0.000047991   -0.000000429    0.000020897
     19        1          -0.000054355   -0.000001848   -0.000013295
     20        8           0.000015801    0.000002582    0.000037843
     21        1           0.000024979    0.000010338    0.000002996
     22        8          -0.000041149   -0.000068359   -0.000107054
     23        1          -0.000031563    0.000001164    0.000016078
     24        8           0.000003653    0.000004154    0.000007978
     25        1           0.000000733   -0.000005251    0.000000194
     26        1          -0.000003959   -0.000002546    0.000000821
     27        1          -0.000000315   -0.000001673    0.000005347
     28        8          -0.000002260    0.000008495   -0.000028214
     29        1           0.000002678    0.000000363    0.000003131
     30        1           0.000008013   -0.000002658    0.000037905
 -------------------------------------------------------------------
 Cartesian Forces:  Max     0.000107054 RMS     0.000023077
 IRC-IRC-IRC-IRC-IRC-IRC-IRC-IRC-IRC-IRC-IRC-IRC-IRC-IRC-IRC-IRC-IRC-IRC
 Pt  1 Step number   1 out of a maximum of  20
 Modified Bulirsch-Stoer Extrapolation Cycles:
    EPS =    0.000010000000000
 Maximum DWI energy   std dev =  0.000000047 at pt  1536
 Maximum DWI gradient std dev =  0.921044580 at pt     4
 WARNING: Bulirsch-Stoer Method is not Converging
 CORRECTOR INTEGRATION CONVERGENCE:
   Recorrection delta-x convergence threshold:    0.010000
   Delta-x Convergence NOT Met
 IRC-IRC-IRC-IRC-IRC-IRC-IRC-IRC-IRC-IRC-IRC-IRC-IRC-IRC-IRC-IRC-IRC-IRC
                          Input orientation:                          
 ---------------------------------------------------------------------
 Center     Atomic      Atomic             Coordinates (Angstroms)
 Number     Number       Type             X           Y           Z
 ---------------------------------------------------------------------
      1          6           0        0.225568    1.171267    0.120744
      2          6           0        2.130063   -0.513400   -0.281682
      3          6           0        1.478860    0.842577   -0.700080
      4          6           0        1.415234   -1.150155    0.927743
      5          1           0        1.776833   -2.181442    1.038932
      6          1           0        3.169965   -0.295653    0.001581
      7          1           0        0.533410    1.508551    1.116293
      8          1           0        1.194297    0.725578   -1.756664
      9          6           0       -0.088285   -1.215927    0.655047
     10          1           0       -0.628940   -1.492671    1.570724
     11          8           0       -0.632417    0.035012    0.227205
     12          6           0       -0.601067    2.259610   -0.542760
     13          1           0        0.015115    3.161789   -0.637525
     14          1           0       -0.904013    1.925746   -1.546345
     15          8           0       -1.753219    2.506504    0.273550
     16          1           0       -2.284896    3.194683   -0.155009
     17          8           0       -0.278909   -2.169580   -0.351751
     18          8           0        1.590776   -0.407562    2.129028
     19          1           0        2.543355   -0.305734    2.279506
     20          8           0        2.186904   -1.427518   -1.363459
     21          1           0        1.305237   -1.852515   -1.399064
     22          8           0        2.361559    1.953502   -0.536437
     23          1           0        3.083911    1.847091   -1.174951
     24          8           0       -3.654290    0.392929    0.306134
     25          1           0       -3.205931   -1.161169   -0.363655
     26          1           0       -2.847250    0.956076    0.318700
     27          1           0       -3.831641    0.218628    1.242916
     28          8           0       -2.955739   -2.056905   -0.713833
     29          1           0       -1.256679   -2.195405   -0.548863
     30          1           0       -3.203520   -2.027870   -1.649726
 ---------------------------------------------------------------------
                    Distance matrix (angstroms):
                    1          2          3          4          5
     1  C    0.000000
     2  C    2.574326   0.000000
     3  C    1.533797   1.561345   0.000000
     4  C    2.730485   1.542448   2.573876   0.000000
     5  H    3.806593   2.156654   3.501092   1.098485   0.000000
     6  H    3.291736   1.099567   2.155860   2.160331   2.563809
     7  H    1.095284   2.931198   2.153279   2.807468   3.894628
     8  H    2.159105   2.141564   1.100470   3.282260   4.074981
     9  C    2.466308   2.508401   2.920574   1.529463   2.135006
    10  H    3.151062   3.464460   3.879789   2.170112   2.558310
    11  O    1.427776   2.861996   2.443258   2.467437   3.372840
    12  C    1.519228   3.900874   2.521672   4.225440   5.280066
    13  H    2.140430   4.255191   2.743211   4.796171   5.870628
    14  H    2.150437   4.093218   2.750910   4.578339   5.544330
    15  O    2.392029   4.950554   3.763368   4.882439   5.918100
    16  H    3.236152   5.766957   4.471618   5.808694   6.842942
    17  O    3.411599   2.924208   3.504879   2.355091   2.481979
    18  O    2.896498   2.472560   3.095033   1.423146   2.090352
    19  H    3.494843   2.602618   3.365963   1.952682   2.375891
    20  O    3.578181   1.417422   2.468750   2.433519   2.551087
    21  H    3.552289   1.929277   2.789667   2.432990   2.504880
    22  O    2.367749   2.490802   1.428317   3.559781   4.463345
    23  H    3.210248   2.698087   1.952111   4.023592   4.778997
    24  O    3.961499   5.884361   5.250132   5.335502   6.054872
    25  H    4.177330   5.375794   5.106413   4.798228   5.275997
    26  H    3.086698   5.224315   4.445900   4.793319   5.634261
    27  H    4.315985   6.196949   5.689109   5.431629   6.103845
    28  O    4.608506   5.332405   5.298383   4.756298   5.048260
    29  H    3.738972   3.790851   4.090890   3.226768   3.423957
    30  H    5.012752   5.710716   5.573686   5.361587   5.661835
                    6          7          8          9         10
     6  H    0.000000
     7  H    3.383660   0.000000
     8  H    2.835066   3.050197   0.000000
     9  C    3.448205   2.832319   3.351240   0.000000
    10  H    4.280974   3.250369   4.395035   1.098799   0.000000
    11  O    3.823395   2.078689   2.783792   1.429677   2.034422
    12  C    4.587631   2.145597   2.655212   3.711744   4.306647
    13  H    4.723922   2.465301   2.928833   4.565724   5.191838
    14  H    4.891625   3.054486   2.426426   3.921945   4.634368
    15  O    5.671313   2.633401   3.997663   4.095612   4.352019
    16  H    6.477845   3.521662   4.557034   4.993473   5.262285
    17  O    3.940962   4.042730   3.539217   1.399798   2.068004
    18  O    2.651866   2.411461   4.066916   2.375988   2.533042
    19  H    2.362559   2.946960   4.378839   3.223794   3.460440
    20  O    2.027527   4.183744   2.403269   3.048872   4.067266
    21  H    2.804075   4.268431   2.605139   2.562522   3.562327
    22  O    2.449833   2.504322   2.087882   4.179312   5.025865
    23  H    2.446014   3.445209   2.273064   4.774285   5.698948
    24  O    6.865665   4.408833   5.279639   3.927665   3.782516
    25  H    6.444731   4.827041   4.986211   3.280315   3.239228
    26  H    6.154207   3.517137   4.549107   3.527409   3.533388
    27  H    7.129367   4.553417   5.874906   4.051697   3.645997
    28  O    6.413897   5.313756   5.104166   3.286847   3.309313
    29  H    4.848425   4.438069   3.999776   1.942658   2.319599
    30  H    6.807988   5.841385   5.189770   3.959282   4.157668
                   11         12         13         14         15
    11  O    0.000000
    12  C    2.354286   0.000000
    13  H    3.308140   1.096626   0.000000
    14  H    2.606553   1.100193   1.788450   0.000000
    15  O    2.714151   1.433447   2.094388   2.090562   0.000000
    16  H    3.586125   1.964686   2.350309   2.335135   0.969502
    17  O    2.306596   4.444997   5.347113   4.311556   4.942707
    18  O    2.958951   4.365367   4.782969   5.017636   4.808002
    19  H    3.796522   4.943032   5.188910   5.612575   5.512993
    20  O    3.552151   4.694810   5.128878   4.564164   5.803524
    21  H    3.156265   4.612680   5.233316   4.379239   5.581472
    22  O    3.636982   2.978405   2.641207   3.418282   4.230046
    23  H    4.365863   3.761502   3.381533   4.005953   5.092230
    24  O    3.044019   3.677946   4.692719   3.653113   2.842944
    25  H    2.898783   4.303385   5.397973   4.028229   3.996026
    26  H    2.400462   2.736175   3.738004   2.862661   1.898096
    27  H    3.361609   4.217920   5.195747   4.389218   3.239426
    28  O    3.264889   4.919964   6.005545   4.556772   4.821377
    29  H    2.442693   4.503002   5.506801   4.254790   4.799048
    30  H    3.793274   5.136207   6.190051   4.574877   5.134482
                   16         17         18         19         20
    16  H    0.000000
    17  O    5.730446   0.000000
    18  O    5.763144   3.571372   0.000000
    19  H    6.441413   4.285162   0.969752   0.000000
    20  O    6.543859   2.766667   3.686888   3.828401   0.000000
    21  H    6.317510   1.925335   3.823200   4.178199   0.979401
    22  O    4.824475   4.899591   3.643272   3.614794   3.485078
    23  H    5.628532   5.302817   4.269566   4.106110   3.400473
    24  O    3.152415   4.288643   5.610210   6.541647   6.342012
    25  H    4.457050   3.095883   5.458002   6.385324   5.491194
    26  H    2.356270   4.100684   4.983259   5.873291   5.818409
    27  H    3.633664   4.568195   5.529911   6.479973   6.762090
    28  O    5.323673   2.703556   5.610079   6.501286   5.221581
    29  H    5.501401   0.997774   4.298311   5.100077   3.620977
    30  H    5.509366   3.202837   6.315825   7.171554   5.431301
                   21         22         23         24         25
    21  H    0.000000
    22  O    4.042982   0.000000
    23  H    4.111081   0.969957   0.000000
    24  O    5.704965   6.271822   7.050642   0.000000
    25  H    4.679814   6.381847   7.019255   1.750676   0.000000
    26  H    5.299249   5.371947   6.180904   0.984178   2.253217
    27  H    6.136546   6.673200   7.504853   0.969224   2.208263
    28  O    4.320559   6.662469   7.206329   2.744083   0.993762
    29  H    2.720998   5.505019   5.964435   3.630294   2.214392
    30  H    4.519122   6.932593   7.400846   3.144654   1.550856
                   26         27         28         29         30
    26  H    0.000000
    27  H    1.538514   0.000000
    28  O    3.186840   3.126359   0.000000
    29  H    3.635164   3.958340   1.712659   0.000000
    30  H    3.592432   3.716002   0.968574   2.242801   0.000000
 Symmetry turned off by external request.
 Stoichiometry    C6H16O8
 Framework group  C1[X(C6H16O8)]
 Deg. of freedom    84
 Full point group                 C1      NOp   1
 Rotational constants (GHZ):      0.7342064      0.5149686      0.3804480
 Standard basis: 6-31G(d) (6D, 7F)
   242 basis functions,   456 primitive gaussians,   242 cartesian basis functions
    58 alpha electrons       58 beta electrons
       nuclear repulsion energy      1109.5710179295 Hartrees.
 NAtoms=   30 NActive=   30 NUniq=   30 SFac= 1.00D+00 NAtFMM=   60 NAOKFM=F Big=F
 Integral buffers will be    131072 words long.
 Raffenetti 2 integral format.
 Two-electron integral symmetry is turned off.
 One-electron integrals computed using PRISM.
 NBasis=   242 RedAO= T EigKep=  1.49D-03  NBF=   242
 NBsUse=   242 1.00D-06 EigRej= -1.00D+00 NBFU=   242
 Initial guess from the checkpoint file:  "/scratch/10502103.yak.local/Gau-17911.chk"
 B after Tr=    -0.000008    0.000002   -0.000010
         Rot=    1.000000    0.000223   -0.000183   -0.000085 Ang=   0.03 deg.
 ExpMin= 1.61D-01 ExpMax= 5.48D+03 ExpMxC= 8.25D+02 IAcc=1 IRadAn=         1 AccDes= 0.00D+00
 Harris functional with IExCor=  402 and IRadAn=       1 diagonalized for initial guess.
 HarFok:  IExCor=  402 AccDes= 0.00D+00 IRadAn=         1 IDoV= 1 UseB2=F ITyADJ=14
 ICtDFT=  3500011 ScaDFX=  1.000000  1.000000  1.000000  1.000000
 FoFCou: FMM=F IPFlag=           0 FMFlag=      100000 FMFlg1=           0
         NFxFlg=           0 DoJE=T BraDBF=F KetDBF=T FulRan=T
         wScrn=  0.000000 ICntrl=     500 IOpCl=  0 I1Cent=   200000004 NGrid=           0
         NMat0=    1 NMatS0=      1 NMatT0=    0 NMatD0=    1 NMtDS0=    0 NMtDT0=    0
 Symmetry not used in FoFCou.
 Requested convergence on RMS density matrix=1.00D-08 within 128 cycles.
 Requested convergence on MAX density matrix=1.00D-06.
 Requested convergence on             energy=1.00D-06.
 No special actions if energy rises.
 Integral accuracy reduced to 1.0D-05 until final iterations.
 Initial convergence to 1.0D-05 achieved.  Increase integral accuracy.
 SCF Done:  E(RB3LYP) =  -839.997497165     A.U. after    9 cycles
            NFock=  9  Conv=0.30D-08     -V/T= 2.0085
 DoSCS=F DFT=T ScalE2(SS,OS)=  1.000000  1.000000
 Range of M.O.s used for correlation:     1   242
 NBasis=   242 NAE=    58 NBE=    58 NFC=     0 NFV=     0
 NROrb=    242 NOA=    58 NOB=    58 NVA=   184 NVB=   184
 Symmetrizing basis deriv contribution to polar:
 IMax=3 JMax=2 DiffMx= 0.00D+00
 Calling FoFJK, ICntrl=      2147 FMM=F ISym2X=0 I1Cent= 0 IOpClX= 0 NMat=1 NMatS=1 NMatT=0.
 -------------------------------------------------------------------
 Center     Atomic                   Forces (Hartrees/Bohr)
 Number     Number              X              Y              Z
 -------------------------------------------------------------------
      1        6          -0.000001060    0.000001180    0.000003324
      2        6           0.000002000    0.000002826    0.000005498
      3        6          -0.000012966   -0.000011606   -0.000013358
      4        6           0.000000420    0.000001340    0.000006076
      5        1           0.000000632    0.000000416    0.000000429
      6        1           0.000000984    0.000001873    0.000000314
      7        1           0.000000291    0.000000546   -0.000002954
      8        1          -0.000001486   -0.000002386    0.000002621
      9        6           0.000005320   -0.000000579    0.000004104
     10        1          -0.000000852   -0.000002776    0.000004106
     11        8          -0.000004733    0.000015316    0.000047796
     12        6          -0.000007614   -0.000006855   -0.000002549
     13        1          -0.000001812   -0.000001816   -0.000001622
     14        1          -0.000000956   -0.000001132    0.000001250
     15        8          -0.000001736    0.000001051    0.000004258
     16        1          -0.000000775   -0.000000166   -0.000000265
     17        8           0.000009582    0.000020350   -0.000029499
     18        8          -0.000017844    0.000000622    0.000003974
     19        1           0.000015680    0.000001544    0.000003645
     20        8           0.000041930   -0.000007029    0.000016680
     21        1          -0.000002425   -0.000002543   -0.000000465
     22        8          -0.000025508   -0.000007667   -0.000074915
     23        1          -0.000002920   -0.000001696   -0.000004235
     24        8          -0.000001034   -0.000000948    0.000010922
     25        1           0.000000207   -0.000000191    0.000001149
     26        1           0.000000310    0.000000122    0.000000898
     27        1           0.000000116   -0.000000793    0.000002526
     28        8           0.000006138    0.000002333    0.000007795
     29        1           0.000001068   -0.000000016   -0.000000437
     30        1          -0.000000952   -0.000001320    0.000002936
 -------------------------------------------------------------------
 Cartesian Forces:  Max     0.000074915 RMS     0.000012487
 IRC-IRC-IRC-IRC-IRC-IRC-IRC-IRC-IRC-IRC-IRC-IRC-IRC-IRC-IRC-IRC-IRC-IRC
 Error in corrector energy =           0.0000000299
 Magnitude of corrector gradient =     0.0001155159
 Magnitude of analytic gradient =      0.0001184629
 Magnitude of difference =             0.0000267258
 Angle between gradients (degrees)=   13.0384
 Pt  1 Step number   2 out of a maximum of  20
 Modified Bulirsch-Stoer Extrapolation Cycles:
    EPS =    0.000010000000000
 Maximum DWI energy   std dev =  0.000000091 at pt     2
 Maximum DWI gradient std dev =  0.872253057 at pt     6
 WARNING: Bulirsch-Stoer Method is not Converging
 CORRECTOR INTEGRATION CONVERGENCE:
   Recorrection delta-x convergence threshold:    0.010000
   Delta-x Convergence NOT Met
 IRC-IRC-IRC-IRC-IRC-IRC-IRC-IRC-IRC-IRC-IRC-IRC-IRC-IRC-IRC-IRC-IRC-IRC
                          Input orientation:                          
 ---------------------------------------------------------------------
 Center     Atomic      Atomic             Coordinates (Angstroms)
 Number     Number       Type             X           Y           Z
 ---------------------------------------------------------------------
      1          6           0        0.225547    1.171307    0.120648
      2          6           0        2.130071   -0.513338   -0.281777
      3          6           0        1.478820    0.842606   -0.700203
      4          6           0        1.415342   -1.150022    0.927745
      5          1           0        1.776987   -2.181286    1.038995
      6          1           0        3.169997   -0.295561    0.001382
      7          1           0        0.533423    1.508694    1.116149
      8          1           0        1.194237    0.725564   -1.756772
      9          6           0       -0.088193   -1.215864    0.655152
     10          1           0       -0.628774   -1.492558    1.570895
     11          8           0       -0.632390    0.035035    0.227257
     12          6           0       -0.601166    2.259556   -0.542911
     13          1           0        0.014975    3.161748   -0.637807
     14          1           0       -0.904162    1.925581   -1.546444
     15          8           0       -1.753275    2.506489    0.273445
     16          1           0       -2.285042    3.194553   -0.155188
     17          8           0       -0.278864   -2.169600   -0.351570
     18          8           0        1.590930   -0.407325    2.128959
     19          1           0        2.543528   -0.305330    2.279304
     20          8           0        2.186841   -1.427525   -1.363501
     21          1           0        1.305174   -1.852542   -1.399012
     22          8           0        2.361491    1.953556   -0.536621
     23          1           0        3.083831    1.847140   -1.175146
     24          8           0       -3.654271    0.392854    0.306294
     25          1           0       -3.205923   -1.161309   -0.363359
     26          1           0       -2.847225    0.955993    0.318789
     27          1           0       -3.831616    0.218665    1.243099
     28          8           0       -2.955715   -2.057063   -0.713479
     29          1           0       -1.256649   -2.195492   -0.548591
     30          1           0       -3.203564   -2.028123   -1.649356
 ---------------------------------------------------------------------
                    Distance matrix (angstroms):
                    1          2          3          4          5
     1  C    0.000000
     2  C    2.574333   0.000000
     3  C    1.533798   1.561343   0.000000
     4  C    2.730491   1.542448   2.573870   0.000000
     5  H    3.806600   2.156654   3.501090   1.098485   0.000000
     6  H    3.291764   1.099569   2.155858   2.160339   2.563801
     7  H    1.095281   2.931228   2.153272   2.807498   3.894657
     8  H    2.159109   2.141559   1.100465   3.282276   4.075007
     9  C    2.466316   2.508401   2.920585   1.529464   2.135011
    10  H    3.151072   3.464461   3.879798   2.170112   2.558310
    11  O    1.427772   2.861996   2.443269   2.467438   3.372847
    12  C    1.519227   3.900870   2.521672   4.225441   5.280068
    13  H    2.140432   4.255190   2.743201   4.796179   5.870635
    14  H    2.150434   4.093199   2.750921   4.578323   5.544313
    15  O    2.392027   4.950556   3.763368   4.882449   5.918112
    16  H    3.236151   5.766950   4.471617   5.808694   6.842938
    17  O    3.411609   2.924217   3.504908   2.355105   2.482001
    18  O    2.896492   2.472561   3.095005   1.423146   2.090353
    19  H    3.494752   2.602565   3.365831   1.952695   2.375955
    20  O    3.578170   1.417423   2.468755   2.433521   2.551102
    21  H    3.552270   1.929284   2.789679   2.432996   2.504907
    22  O    2.367736   2.490796   1.428312   3.559741   4.463309
    23  H    3.210237   2.698078   1.952107   4.023554   4.778962
    24  O    3.961495   5.884355   5.250137   5.335508   6.054884
    25  H    4.177360   5.375812   5.106462   4.798246   5.276015
    26  H    3.086672   5.224279   4.445882   4.793287   5.634230
    27  H    4.316016   6.196999   5.689153   5.431696   6.103921
    28  O    4.608532   5.332418   5.298430   4.756310   5.048274
    29  H    3.739000   3.790872   4.090944   3.226781   3.423972
    30  H    5.012790   5.710737   5.573751   5.361605   5.661853
                    6          7          8          9         10
     6  H    0.000000
     7  H    3.383720   0.000000
     8  H    2.835036   3.050186   0.000000
     9  C    3.448214   2.832339   3.351290   0.000000
    10  H    4.280986   3.250386   4.395088   1.098805   0.000000
    11  O    3.823410   2.078682   2.783840   1.429683   2.034433
    12  C    4.587652   2.145592   2.655195   3.711744   4.306657
    13  H    4.723950   2.465306   2.928776   4.565728   5.191853
    14  H    4.891626   3.054479   2.426429   3.921926   4.634362
    15  O    5.671341   2.633388   3.997662   4.095621   4.352040
    16  H    6.477875   3.521671   4.557013   4.993454   5.262281
    17  O    3.940970   4.042753   3.539293   1.399806   2.068017
    18  O    2.651892   2.411480   4.066904   2.375984   2.533032
    19  H    2.362517   2.946886   4.378725   3.223802   3.460470
    20  O    2.027522   4.183759   2.403272   3.048859   4.067259
    21  H    2.804079   4.268435   2.605173   2.562502   3.562315
    22  O    2.449827   2.504273   2.087873   4.179294   5.025834
    23  H    2.445978   3.445165   2.273057   4.774278   5.698927
    24  O    6.865678   4.408826   5.279675   3.927670   3.782543
    25  H    6.444758   4.827066   4.986311   3.280332   3.239253
    26  H    6.154193   3.517106   4.549117   3.527373   3.533369
    27  H    7.129438   4.553445   5.874978   4.051762   3.646084
    28  O    6.413912   5.313779   5.104270   3.286860   3.309333
    29  H    4.848444   4.438098   3.999889   1.942667   2.319605
    30  H    6.808009   5.841418   5.189892   3.959300   4.157691
                   11         12         13         14         15
    11  O    0.000000
    12  C    2.354278   0.000000
    13  H    3.308133   1.096625   0.000000
    14  H    2.606537   1.100192   1.788447   0.000000
    15  O    2.714148   1.433447   2.094386   2.090560   0.000000
    16  H    3.586095   1.964686   2.350336   2.335105   0.969503
    17  O    2.306608   4.444987   5.347106   4.311523   4.942706
    18  O    2.958937   4.365367   4.782981   5.017621   4.808010
    19  H    3.796473   4.942939   5.188810   5.612475   5.512923
    20  O    3.552134   4.694775   5.128846   4.564109   5.803497
[...]
 ICtDFT=  3500011 ScaDFX=  1.000000  1.000000  1.000000  1.000000
 FoFCou: FMM=F IPFlag=           0 FMFlag=      100000 FMFlg1=           0
         NFxFlg=           0 DoJE=T BraDBF=F KetDBF=T FulRan=T
         wScrn=  0.000000 ICntrl=     500 IOpCl=  0 I1Cent=   200000004 NGrid=           0
         NMat0=    1 NMatS0=      1 NMatT0=    0 NMatD0=    1 NMtDS0=    0 NMtDT0=    0
 Symmetry not used in FoFCou.
 Requested convergence on RMS density matrix=1.00D-08 within 128 cycles.
 Requested convergence on MAX density matrix=1.00D-06.
 Requested convergence on             energy=1.00D-06.
 No special actions if energy rises.
 Integral accuracy reduced to 1.0D-05 until final iterations.
 Initial convergence to 1.0D-05 achieved.  Increase integral accuracy.
 SCF Done:  E(RB3LYP) =  -839.997497207     A.U. after    7 cycles
            NFock=  7  Conv=0.82D-08     -V/T= 2.0085
 DoSCS=F DFT=T ScalE2(SS,OS)=  1.000000  1.000000
 Range of M.O.s used for correlation:     1   242
 NBasis=   242 NAE=    58 NBE=    58 NFC=     0 NFV=     0
 NROrb=    242 NOA=    58 NOB=    58 NVA=   184 NVB=   184
 Symmetrizing basis deriv contribution to polar:
 IMax=3 JMax=2 DiffMx= 0.00D+00
 Calling FoFJK, ICntrl=      2147 FMM=F ISym2X=0 I1Cent= 0 IOpClX= 0 NMat=1 NMatS=1 NMatT=0.
 -------------------------------------------------------------------
 Center     Atomic                   Forces (Hartrees/Bohr)
 Number     Number              X              Y              Z
 -------------------------------------------------------------------
      1        6          -0.000000894    0.000001061    0.000002482
      2        6           0.000002646    0.000001695    0.000005583
      3        6          -0.000014262   -0.000012408   -0.000012456
      4        6           0.000001518    0.000000896    0.000004875
      5        1           0.000000359    0.000000161    0.000000460
      6        1          -0.000000295    0.000001655    0.000001157
      7        1           0.000001266    0.000001304   -0.000000606
      8        1          -0.000002877   -0.000003162   -0.000000379
      9        6           0.000002703   -0.000001151    0.000003075
     10        1           0.000000228   -0.000001997   -0.000000333
     11        8          -0.000005851    0.000008336    0.000048078
     12        6          -0.000007810   -0.000006830   -0.000002879
     13        1          -0.000000832   -0.000000595   -0.000001530
     14        1          -0.000001292   -0.000001559    0.000000268
     15        8          -0.000002579    0.000000979    0.000004123
     16        1          -0.000000310   -0.000000148    0.000000104
     17        8           0.000012013    0.000024370   -0.000023302
     18        8          -0.000002238    0.000002930    0.000005953
     19        1          -0.000000152   -0.000000891    0.000001195
     20        8           0.000036209   -0.000008023    0.000017276
     21        1           0.000002318   -0.000000459   -0.000000099
     22        8          -0.000022876   -0.000004663   -0.000073382
     23        1          -0.000002143   -0.000001511   -0.000005229
     24        8          -0.000000782   -0.000001266    0.000012754
     25        1           0.000000307    0.000000136    0.000000526
     26        1          -0.000000127    0.000000038    0.000000904
     27        1           0.000000335   -0.000000679    0.000000770
     28        8           0.000006065    0.000001535    0.000010659
     29        1           0.000000726    0.000001060   -0.000001153
     30        1          -0.000001373   -0.000000813    0.000001104
 -------------------------------------------------------------------
 Cartesian Forces:  Max     0.000073382 RMS     0.000011787
 IRC-IRC-IRC-IRC-IRC-IRC-IRC-IRC-IRC-IRC-IRC-IRC-IRC-IRC-IRC-IRC-IRC-IRC
 Error in corrector energy =           0.0000000000
 Magnitude of corrector gradient =     0.0001118203
 Magnitude of analytic gradient =      0.0001118203
 Magnitude of difference =             0.0000000000
 Angle between gradients (degrees)=    0.0000
 Pt  1 Step number  19 out of a maximum of  20
 Modified Bulirsch-Stoer Extrapolation Cycles:
    EPS =    0.000010000000000
 Maximum DWI energy   std dev =  0.000000103 at pt     2
 Maximum DWI gradient std dev =  0.872858931 at pt     6
 WARNING: Bulirsch-Stoer Method is not Converging
 CORRECTOR INTEGRATION CONVERGENCE:
   Recorrection delta-x convergence threshold:    0.010000
   Delta-x Convergence NOT Met
 IRC-IRC-IRC-IRC-IRC-IRC-IRC-IRC-IRC-IRC-IRC-IRC-IRC-IRC-IRC-IRC-IRC-IRC
                          Input orientation:                          
 ---------------------------------------------------------------------
 Center     Atomic      Atomic             Coordinates (Angstroms)
 Number     Number       Type             X           Y           Z
 ---------------------------------------------------------------------
      1          6           0        0.225548    1.171312    0.120644
      2          6           0        2.130073   -0.513333   -0.281781
      3          6           0        1.478821    0.842610   -0.700207
      4          6           0        1.415349   -1.150011    0.927747
      5          1           0        1.776996   -2.181274    1.039000
      6          1           0        3.170002   -0.295556    0.001371
      7          1           0        0.533426    1.508702    1.116143
      8          1           0        1.194238    0.725568   -1.756776
      9          6           0       -0.088187   -1.215857    0.655160
     10          1           0       -0.628764   -1.492544    1.570908
     11          8           0       -0.632386    0.035041    0.227259
     12          6           0       -0.601167    2.259558   -0.542916
     13          1           0        0.014972    3.161751   -0.637812
     14          1           0       -0.904163    1.925583   -1.546447
     15          8           0       -1.753276    2.506490    0.273441
     16          1           0       -2.285048    3.194550   -0.155195
     17          8           0       -0.278863   -2.169599   -0.351556
     18          8           0        1.590941   -0.407310    2.128958
     19          1           0        2.543540   -0.305279    2.279278
     20          8           0        2.186837   -1.427524   -1.363502
     21          1           0        1.305169   -1.852541   -1.399006
     22          8           0        2.361490    1.953561   -0.536627
     23          1           0        3.083839    1.847139   -1.175140
     24          8           0       -3.654270    0.392853    0.306299
     25          1           0       -3.205922   -1.161315   -0.363345
     26          1           0       -2.847221    0.955990    0.318791
     27          1           0       -3.831619    0.218675    1.243106
     28          8           0       -2.955712   -2.057068   -0.713466
     29          1           0       -1.256649   -2.195495   -0.548571
     30          1           0       -3.203549   -2.028123   -1.649346
 ---------------------------------------------------------------------
                    Distance matrix (angstroms):
                    1          2          3          4          5
     1  C    0.000000
     2  C    2.574333   0.000000
     3  C    1.533798   1.561343   0.000000
     4  C    2.730491   1.542448   2.573870   0.000000
     5  H    3.806600   2.156654   3.501090   1.098485   0.000000
     6  H    3.291768   1.099569   2.155859   2.160340   2.563800
     7  H    1.095280   2.931228   2.153272   2.807497   3.894656
     8  H    2.159109   2.141558   1.100465   3.282278   4.075010
     9  C    2.466316   2.508401   2.920586   1.529465   2.135012
    10  H    3.151070   3.464462   3.879797   2.170112   2.558312
    11  O    1.427771   2.861995   2.443268   2.467438   3.372848
    12  C    1.519227   3.900871   2.521673   4.225441   5.280068
    13  H    2.140431   4.255191   2.743203   4.796178   5.870635
    14  H    2.150434   4.093199   2.750920   4.578324   5.544315
    15  O    2.392027   4.950556   3.763368   4.882449   5.918111
    16  H    3.236151   5.766950   4.471618   5.808693   6.842937
    17  O    3.411611   2.924219   3.504913   2.355107   2.482003
    18  O    2.896492   2.472562   3.095003   1.423146   2.090353
    19  H    3.494726   2.602549   3.365800   1.952697   2.375971
    20  O    3.578169   1.417423   2.468756   2.433521   2.551103
    21  H    3.552268   1.929284   2.789680   2.432995   2.504907
    22  O    2.367734   2.490796   1.428311   3.559737   4.463305
    23  H    3.210238   2.698071   1.952107   4.023543   4.778950
    24  O    3.961496   5.884355   5.250139   5.335510   6.054885
    25  H    4.177366   5.375814   5.106468   4.798249   5.276018
    26  H    3.086671   5.224276   4.445881   4.793285   5.634227
    27  H    4.316022   6.197006   5.689160   5.431706   6.103932
    28  O    4.608535   5.332418   5.298433   4.756313   5.048277
    29  H    3.739004   3.790875   4.090950   3.226783   3.423973
    30  H    5.012779   5.710722   5.573739   5.361595   5.661845
                    6          7          8          9         10
     6  H    0.000000
     7  H    3.383725   0.000000
     8  H    2.835033   3.050186   0.000000
     9  C    3.448215   2.832336   3.351295   0.000000
    10  H    4.280987   3.250381   4.395093   1.098806   0.000000
    11  O    3.823411   2.078680   2.783842   1.429684   2.034434
    12  C    4.587654   2.145591   2.655196   3.711744   4.306656
    13  H    4.723954   2.465303   2.928777   4.565727   5.191850
    14  H    4.891627   3.054478   2.426429   3.921929   4.634365
    15  O    5.671345   2.633388   3.997663   4.095619   4.352037
    16  H    6.477879   3.521672   4.557013   4.993451   5.262277
    17  O    3.940971   4.042753   3.539302   1.399806   2.068019
    18  O    2.651895   2.411480   4.066904   2.375984   2.533030
    19  H    2.362501   2.946858   4.378697   3.223803   3.460477
    20  O    2.027521   4.183758   2.403273   3.048858   4.067259
    21  H    2.804079   4.268433   2.605178   2.562500   3.562314
    22  O    2.449828   2.504269   2.087871   4.179292   5.025829
    23  H    2.445964   3.445160   2.273062   4.774274   5.698920
    24  O    6.865680   4.408827   5.279678   3.927670   3.782544
    25  H    6.444762   4.827070   4.986320   3.280335   3.239258
    26  H    6.154193   3.517106   4.549118   3.527369   3.533365
    27  H    7.129448   4.553450   5.874987   4.051770   3.646094
    28  O    6.413913   5.313781   5.104277   3.286864   3.309342
    29  H    4.848447   4.438099   3.999902   1.942669   2.319606
    30  H    6.807995   5.841407   5.189883   3.959293   4.157691
                   11         12         13         14         15
    11  O    0.000000
    12  C    2.354277   0.000000
    13  H    3.308132   1.096624   0.000000
    14  H    2.606539   1.100192   1.788446   0.000000
    15  O    2.714146   1.433446   2.094386   2.090560   0.000000
    16  H    3.586092   1.964686   2.350337   2.335103   0.969503
    17  O    2.306608   4.444990   5.347109   4.311528   4.942704
    18  O    2.958938   4.365367   4.782979   5.017622   4.808010
    19  H    3.796460   4.942910   5.188773   5.612448   5.512900
    20  O    3.552131   4.694774   5.128847   4.564107   5.803494
    21  H    3.156235   4.612631   5.233273   4.379167   5.581426
    22  O    3.636967   2.978424   2.641232   3.418334   4.230040
    23  H    4.365862   3.761525   3.381549   4.006018   5.092231
    24  O    3.044020   3.677933   4.692705   3.653083   2.842942
    25  H    2.898822   4.303414   5.397999   4.028246   3.996057
    26  H    2.400421   2.736163   3.737997   2.862639   1.898110
    27  H    3.361660   4.217926   5.195750   4.389207   3.239422
    28  O    3.264924   4.919983   6.005560   4.556777   4.821400
    29  H    2.442726   4.503020   5.506820   4.254796   4.799063
    30  H    3.793306   5.136223   6.190062   4.574883   5.134502
                   16         17         18         19         20
    16  H    0.000000
    17  O    5.730395   0.000000
    18  O    5.763162   3.571383   0.000000
    19  H    6.441329   4.285200   0.969769   0.000000
    20  O    6.543800   2.766655   3.686896   3.828383   0.000000
    21  H    6.317424   1.925313   3.823203   4.178200   0.979407
    22  O    4.824505   4.899607   3.643185   3.614529   3.485105
    23  H    5.628566   5.302851   4.269466   4.105828   3.400516
    24  O    3.152341   4.288625   5.610221   6.541627   6.341966
    25  H    4.457006   3.095877   5.458021   6.385341   5.491178
    26  H    2.356237   4.100627   4.983229   5.873212   5.818332
    27  H    3.633588   4.568247   5.529986   6.480034   6.762114
    28  O    5.323622   2.703547   5.610092   6.501313   5.221559
    29  H    5.501358   0.997773   4.298318   5.100107   3.620978
    30  H    5.509306   3.202821   6.315832   7.171563   5.431269
                   21         22         23         24         25
    21  H    0.000000
    22  O    4.043009   0.000000
    23  H    4.111133   0.969956   0.000000
    24  O    5.704900   6.271817   7.050654   0.000000
    25  H    4.679779   6.381893   7.019324   1.750678   0.000000
    26  H    5.299153   5.371923   6.180895   0.984178   2.253211
    27  H    6.136553   6.673221   7.504890   0.969225   2.208292
    28  O    4.320521   6.662511   7.206397   2.744087   0.993762
    29  H    2.720986   5.505064   5.964505   3.630280   2.214386
    30  H    4.519074   6.932647   7.400931   3.144649   1.550858
                   26         27         28         29         30
    26  H    0.000000
    27  H    1.538516   0.000000
    28  O    3.186823   3.126402   0.000000
    29  H    3.635120   3.958383   1.712650   0.000000
    30  H    3.592418   3.716026   0.968571   2.242796   0.000000
 Symmetry turned off by external request.
 Stoichiometry    C6H16O8
 Framework group  C1[X(C6H16O8)]
 Deg. of freedom    84
 Full point group                 C1      NOp   1
 Rotational constants (GHZ):      0.7342079      0.5149694      0.3804471
 Standard basis: 6-31G(d) (6D, 7F)
   242 basis functions,   456 primitive gaussians,   242 cartesian basis functions
    58 alpha electrons       58 beta electrons
       nuclear repulsion energy      1109.5710152817 Hartrees.
 NAtoms=   30 NActive=   30 NUniq=   30 SFac= 1.00D+00 NAtFMM=   60 NAOKFM=F Big=F
 Integral buffers will be    131072 words long.
 Raffenetti 2 integral format.
 Two-electron integral symmetry is turned off.
 One-electron integrals computed using PRISM.
 NBasis=   242 RedAO= T EigKep=  1.49D-03  NBF=   242
 NBsUse=   242 1.00D-06 EigRej= -1.00D+00 NBFU=   242
 Initial guess from the checkpoint file:  "/scratch/10502103.yak.local/Gau-17911.chk"
 B after Tr=    -0.000000   -0.000000   -0.000000
         Rot=    1.000000    0.000000   -0.000000   -0.000000 Ang=   0.00 deg.
 ExpMin= 1.61D-01 ExpMax= 5.48D+03 ExpMxC= 8.25D+02 IAcc=1 IRadAn=         1 AccDes= 0.00D+00
 Harris functional with IExCor=  402 and IRadAn=       1 diagonalized for initial guess.
 HarFok:  IExCor=  402 AccDes= 0.00D+00 IRadAn=         1 IDoV= 1 UseB2=F ITyADJ=14
 ICtDFT=  3500011 ScaDFX=  1.000000  1.000000  1.000000  1.000000
 FoFCou: FMM=F IPFlag=           0 FMFlag=      100000 FMFlg1=           0
         NFxFlg=           0 DoJE=T BraDBF=F KetDBF=T FulRan=T
         wScrn=  0.000000 ICntrl=     500 IOpCl=  0 I1Cent=   200000004 NGrid=           0
         NMat0=    1 NMatS0=      1 NMatT0=    0 NMatD0=    1 NMtDS0=    0 NMtDT0=    0
 Symmetry not used in FoFCou.
 Requested convergence on RMS density matrix=1.00D-08 within 128 cycles.
 Requested convergence on MAX density matrix=1.00D-06.
 Requested convergence on             energy=1.00D-06.
 No special actions if energy rises.
 Integral accuracy reduced to 1.0D-05 until final iterations.
 Initial convergence to 1.0D-05 achieved.  Increase integral accuracy.
 SCF Done:  E(RB3LYP) =  -839.997497207     A.U. after    7 cycles
            NFock=  7  Conv=0.82D-08     -V/T= 2.0085
 DoSCS=F DFT=T ScalE2(SS,OS)=  1.000000  1.000000
 Range of M.O.s used for correlation:     1   242
 NBasis=   242 NAE=    58 NBE=    58 NFC=     0 NFV=     0
 NROrb=    242 NOA=    58 NOB=    58 NVA=   184 NVB=   184
 Symmetrizing basis deriv contribution to polar:
 IMax=3 JMax=2 DiffMx= 0.00D+00
 Calling FoFJK, ICntrl=      2147 FMM=F ISym2X=0 I1Cent= 0 IOpClX= 0 NMat=1 NMatS=1 NMatT=0.
 -------------------------------------------------------------------
 Center     Atomic                   Forces (Hartrees/Bohr)
 Number     Number              X              Y              Z
 -------------------------------------------------------------------
      1        6          -0.000000894    0.000001061    0.000002482
      2        6           0.000002646    0.000001695    0.000005583
      3        6          -0.000014262   -0.000012408   -0.000012456
      4        6           0.000001518    0.000000896    0.000004875
      5        1           0.000000359    0.000000161    0.000000460
      6        1          -0.000000295    0.000001655    0.000001157
      7        1           0.000001266    0.000001304   -0.000000606
      8        1          -0.000002877   -0.000003162   -0.000000379
      9        6           0.000002703   -0.000001151    0.000003075
     10        1           0.000000228   -0.000001997   -0.000000333
     11        8          -0.000005851    0.000008336    0.000048078
     12        6          -0.000007810   -0.000006830   -0.000002879
     13        1          -0.000000832   -0.000000595   -0.000001530
     14        1          -0.000001292   -0.000001559    0.000000268
     15        8          -0.000002579    0.000000979    0.000004123
     16        1          -0.000000310   -0.000000148    0.000000104
     17        8           0.000012013    0.000024370   -0.000023302
     18        8          -0.000002238    0.000002930    0.000005953
     19        1          -0.000000152   -0.000000891    0.000001195
     20        8           0.000036209   -0.000008023    0.000017276
     21        1           0.000002318   -0.000000459   -0.000000099
     22        8          -0.000022876   -0.000004663   -0.000073382
     23        1          -0.000002143   -0.000001511   -0.000005229
     24        8          -0.000000782   -0.000001266    0.000012754
     25        1           0.000000307    0.000000136    0.000000526
     26        1          -0.000000127    0.000000038    0.000000904
     27        1           0.000000335   -0.000000679    0.000000770
     28        8           0.000006065    0.000001535    0.000010659
     29        1           0.000000726    0.000001060   -0.000001153
     30        1          -0.000001373   -0.000000813    0.000001104
 -------------------------------------------------------------------
 Cartesian Forces:  Max     0.000073382 RMS     0.000011787
 IRC-IRC-IRC-IRC-IRC-IRC-IRC-IRC-IRC-IRC-IRC-IRC-IRC-IRC-IRC-IRC-IRC-IRC
 Error in corrector energy =          -0.0000000000
 Magnitude of corrector gradient =     0.0001118205
 Magnitude of analytic gradient =      0.0001118205
 Magnitude of difference =             0.0000000002
 Angle between gradients (degrees)=    0.0001
 Pt  1 Step number  20 out of a maximum of  20
 Modified Bulirsch-Stoer Extrapolation Cycles:
    EPS =    0.000010000000000
 Maximum DWI energy   std dev =  0.000000103 at pt     2
 Maximum DWI gradient std dev =  0.872858792 at pt     6
 WARNING: Bulirsch-Stoer Method is not Converging
 CORRECTOR INTEGRATION CONVERGENCE:
   Recorrection delta-x convergence threshold:    0.010000
   Delta-x Convergence NOT Met
 Maximum number of corrector steps exceded.
 Error termination via Lnk1e in /global/software/gaussian/g09.e01/l123.exe at Tue Jan 31 15:11:36 2017.
 Job cpu time:       0 days  3 hours 51 minutes 40.0 seconds.
 File lengths (MBytes):  RWF=    220 Int=      0 D2E=      0 Chk=      8 Scr=      1
