 Entering Gaussian System, Link 0=g09
 Initial command:
 /global/software/gaussian/g09.e01/l1.exe "/scratch/10502075.yak.local/Gau-6770.inp" -scrdir="/scratch/10502075.yak.local/"
 Entering Link 1 = /global/software/gaussian/g09.e01/l1.exe PID=      6771.
  
 Copyright (c) 1988,1990,1992,1993,1995,1998,2003,2009,2015,
            Gaussian, Inc.  All Rights Reserved.
  
 This is part of the Gaussian(R) 09 program.  It is based on
 the Gaussian(R) 03 system (copyright 2003, Gaussian, Inc.),
 the Gaussian(R) 98 system (copyright 1998, Gaussian, Inc.),
 the Gaussian(R) 94 system (copyright 1995, Gaussian, Inc.),
 the Gaussian 92(TM) system (copyright 1992, Gaussian, Inc.),
 the Gaussian 90(TM) system (copyright 1990, Gaussian, Inc.),
 the Gaussian 88(TM) system (copyright 1988, Gaussian, Inc.),
 the Gaussian 86(TM) system (copyright 1986, Carnegie Mellon
 University), and the Gaussian 82(TM) system (copyright 1983,
 Carnegie Mellon University). Gaussian is a federally registered
 trademark of Gaussian, Inc.
  
 This software contains proprietary and confidential information,
 including trade secrets, belonging to Gaussian, Inc.
  
 This software is provided under written license and may be
 used, copied, transmitted, or stored only in accord with that
 written license.
  
 The following legend is applicable only to US Government
 contracts under FAR:
  
                    RESTRICTED RIGHTS LEGEND
  
 Use, reproduction and disclosure by the US Government is
 subject to restrictions as set forth in subparagraphs (a)
 and (c) of the Commercial Computer Software - Restricted
 Rights clause in FAR 52.227-19.
  
 Gaussian, Inc.
 340 Quinnipiac St., Bldg. 40, Wallingford CT 06492
  
  
 ---------------------------------------------------------------
 Warning -- This program may not be used in any manner that
 competes with the business of Gaussian, Inc. or will provide
 assistance to any competitor of Gaussian, Inc.  The licensee
 of this program is prohibited from giving any competitor of
 Gaussian, Inc. access to this program.  By using this program,
 the user acknowledges that Gaussian, Inc. is engaged in the
 business of creating and licensing software in the field of
 computational chemistry and represents and warrants to the
 licensee that it is not a competitor of Gaussian, Inc. and that
 it will not use this program in any manner prohibited above.
 ---------------------------------------------------------------
  

 Cite this work as:
 Gaussian 09, Revision E.01,
 M. J. Frisch, G. W. Trucks, H. B. Schlegel, G. E. Scuseria, 
 M. A. Robb, J. R. Cheeseman, G. Scalmani, V. Barone, B. Mennucci, 
 G. A. Petersson, H. Nakatsuji, M. Caricato, X. Li, H. P. Hratchian, 
 A. F. Izmaylov, J. Bloino, G. Zheng, J. L. Sonnenberg, M. Hada, 
 M. Ehara, K. Toyota, R. Fukuda, J. Hasegawa, M. Ishida, T. Nakajima, 
 Y. Honda, O. Kitao, H. Nakai, T. Vreven, J. A. Montgomery, Jr., 
 J. E. Peralta, F. Ogliaro, M. Bearpark, J. J. Heyd, E. Brothers, 
 K. N. Kudin, V. N. Staroverov, T. Keith, R. Kobayashi, J. Normand, 
 K. Raghavachari, A. Rendell, J. C. Burant, S. S. Iyengar, J. Tomasi, 
 M. Cossi, N. Rega, J. M. Millam, M. Klene, J. E. Knox, J. B. Cross, 
 V. Bakken, C. Adamo, J. Jaramillo, R. Gomperts, R. E. Stratmann, 
 O. Yazyev, A. J. Austin, R. Cammi, C. Pomelli, J. W. Ochterski, 
 R. L. Martin, K. Morokuma, V. G. Zakrzewski, G. A. Voth, 
 P. Salvador, J. J. Dannenberg, S. Dapprich, A. D. Daniels, 
 O. Farkas, J. B. Foresman, J. V. Ortiz, J. Cioslowski, 
 and D. J. Fox, Gaussian, Inc., Wallingford CT, 2013.
 
 ******************************************
 Gaussian 09:  ES64L-G09RevE.01 30-Nov-2015
                31-Jan-2017 
 ******************************************
 %NPROCS=4
 Will use up to    4 processors via shared memory.
 --------------------------------------------------
 # b3lyp/6-31g(d) irc=(calcfc,forward,maxpoints=20)
 --------------------------------------------------
 1/10=4,14=-1,18=10,22=1,26=3,38=1,42=20,44=3/1,23;
 2/12=2,17=6,18=5,29=1,40=1/2;
 3/5=1,6=6,7=1,11=2,16=1,25=1,30=1,71=2,74=-5,140=1/1,2,3;
 4//1;
 5/5=2,38=5/2;
 8/6=4,10=90,11=11/1;
 11/6=1,8=1,9=11,15=111,16=1/1,2,10;
 10/6=1,13=1/2;
 6/7=2,8=2,9=2,10=2,28=1/1;
 7/10=1,18=20,25=1/1,2,3,16;
 1/10=4,14=-1,18=10,22=1,26=3,42=20,44=3/23(2);
 2/29=1/2;
 99/5=20/99;
 2/29=1/2;
 3/5=1,6=6,7=1,11=2,16=1,25=1,30=1,71=2,74=-5,140=1/1,2,3;
 4/5=5,16=3,69=1/1;
 5/5=2,38=5/2;
 8/6=4,10=90,11=11/1;
 11/6=1,8=1,9=11,15=111,16=1/1,2,10;
 10/6=1,13=1/2;
 7/10=1,18=20,25=1/1,2,3,16;
 1/14=-1,18=10,22=1,26=3,42=20,44=3/23(-8);
 2/29=1/2;
 6/7=2,8=2,9=2,10=2,19=2,28=1/1;
 99/5=20,9=1/99;
 -------------------------------------------
 ./4/glo_2w_alpha_boat4_b3lyp_631Gd_iopt.out
 -------------------------------------------
 Symbolic Z-matrix:
 Charge =  0 Multiplicity = 1
 O                    -0.59258   0.62234   0.00698 
 C                     1.76913  -0.103    -0.14013 
 C                    -0.12752  -1.75688  -0.40475 
 C                     1.24457  -1.48869   0.23387 
 C                    -0.76658  -0.45728  -0.94084 
 C                     0.77183   0.99073   0.28013 
 H                     1.10764  -1.51646   1.32594 
 H                     0.85255   1.0977    1.3703 
 H                     1.92191  -0.07302  -1.23136 
 C                     1.07001   2.33904  -0.38745 
 H                     0.99674   2.24055  -1.4752 
 H                     0.33667   3.09061  -0.06891 
 H                     0.01728  -2.44364  -1.25225 
 O                     2.41312   2.76778  -0.11949 
 H                     2.4345    3.12967   0.78069 
 O                    -0.98119  -2.32875   0.5753 
 H                    -1.86868  -2.28038   0.17582 
 O                     2.16058  -2.48567  -0.18671 
 H                     3.02904  -2.20026   0.14546 
 O                     3.01568   0.06854   0.52098 
 H                     3.33588   0.94981   0.25273 
 H                    -0.29753  -0.14977  -1.88948 
 O                    -2.11865  -0.69549  -1.0904 
 H                    -2.64347   0.1522   -1.09666 
 O                    -3.73164   1.3711   -0.53915 
 H                    -3.53769   1.15611   0.40892 
 H                    -4.64947   1.09177  -0.67695 
 O                    -2.68576   0.49554   1.84397 
 H                    -1.83184   0.55137   1.36195 
 H                    -2.80862  -0.4629    1.93218 
 
 IRC-IRC-IRC-IRC-IRC-IRC-IRC-IRC-IRC-IRC-IRC-IRC-IRC-IRC-IRC-IRC-IRC-IRC
 ------------------------------------------------------------------------
 INPUT DATA FOR L123
 ------------------------------------------------------------------------
 GENERAL PARAMETERS:
 Rxn path following direction = Forward
 Maximum points per path      =  20
 Step size                    =   0.100 bohr
 Integration scheme           = HPC                                 
    Redo corrector integration= Yes                                 
    DWI Weight Power          =  2
    DWI will use Hessian update vectors when possible.
    Max correction cycles     =  20
 Initial Hessian              = CalcFC
 Hessian evaluation           = All updating
 Hessian updating method      = Bofill                              
 ------------------------------------------------------------------------
 IRC-IRC-IRC-IRC-IRC-IRC-IRC-IRC-IRC-IRC-IRC-IRC-IRC-IRC-IRC-IRC-IRC-IRC
                          Input orientation:                          
 ---------------------------------------------------------------------
 Center     Atomic      Atomic             Coordinates (Angstroms)
 Number     Number       Type             X           Y           Z
 ---------------------------------------------------------------------
      1          8           0       -0.592580    0.622340    0.006980
      2          6           0        1.769130   -0.103000   -0.140130
      3          6           0       -0.127520   -1.756880   -0.404750
      4          6           0        1.244570   -1.488690    0.233870
      5          6           0       -0.766580   -0.457280   -0.940840
      6          6           0        0.771830    0.990730    0.280130
      7          1           0        1.107640   -1.516460    1.325940
      8          1           0        0.852550    1.097700    1.370300
      9          1           0        1.921910   -0.073020   -1.231360
     10          6           0        1.070010    2.339040   -0.387450
     11          1           0        0.996740    2.240550   -1.475200
     12          1           0        0.336670    3.090610   -0.068910
     13          1           0        0.017280   -2.443640   -1.252250
     14          8           0        2.413120    2.767780   -0.119490
     15          1           0        2.434500    3.129670    0.780690
     16          8           0       -0.981190   -2.328750    0.575300
     17          1           0       -1.868680   -2.280380    0.175820
     18          8           0        2.160580   -2.485670   -0.186710
     19          1           0        3.029040   -2.200260    0.145460
     20          8           0        3.015680    0.068540    0.520980
     21          1           0        3.335880    0.949810    0.252730
     22          1           0       -0.297530   -0.149770   -1.889480
     23          8           0       -2.118650   -0.695490   -1.090400
     24          1           0       -2.643470    0.152200   -1.096660
     25          8           0       -3.731640    1.371100   -0.539150
     26          1           0       -3.537690    1.156110    0.408920
     27          1           0       -4.649470    1.091770   -0.676950
     28          8           0       -2.685760    0.495540    1.843970
     29          1           0       -1.831840    0.551370    1.361950
     30          1           0       -2.808620   -0.462900    1.932180
 ---------------------------------------------------------------------
                    Distance matrix (angstroms):
                    1          2          3          4          5
     1  O    0.000000
     2  C    2.474961   0.000000
     3  C    2.458961   2.530341   0.000000
     4  C    2.807676   1.528128   1.537008   0.000000
     5  C    1.447141   2.682625   1.544264   2.547248   0.000000
     6  C    1.439422   1.538659   2.971069   2.524509   2.440124
     7  H    3.033953   2.141214   2.139792   1.100971   3.126156
     8  H    2.042794   2.136164   3.501424   2.852116   3.221942
     9  H    2.887849   1.102281   2.778279   2.147047   2.731307
    10  C    2.422156   2.552155   4.267428   3.881756   3.390975
    11  H    2.709502   2.805570   4.288271   4.109692   3.266975
    12  H    2.638489   3.500880   4.881231   4.678242   3.816405
    13  H    3.370137   3.128000   1.100392   2.150982   2.158017
    14  O    3.695016   2.942198   5.196997   4.428082   4.602838
    15  H    4.006063   3.426482   5.643366   4.800437   5.106544
    16  O    3.030336   3.609718   1.419960   2.403390   2.418086
    17  H    3.175330   4.251408   1.908599   3.212860   2.405254
    18  O    4.156577   2.415061   2.411240   1.417720   3.640240
    19  H    4.593733   2.463216   3.234685   1.923144   4.315641
    20  O    3.686520   1.421400   3.750845   2.375758   4.088875
    21  H    3.949738   1.928070   4.444501   3.212509   4.498299
    22  H    2.068760   2.708043   2.194568   2.946081   1.102038
    23  O    2.295606   4.045849   2.358233   3.700555   1.381016
    24  H    2.375964   4.522291   3.233161   4.424894   1.979510
    25  O    3.273010   5.708823   4.774097   5.791254   3.506552
    26  H    3.019957   5.481711   4.558161   5.467689   3.479070
    27  H    4.140831   6.550884   5.351349   6.498313   4.188798
    28  O    2.787833   4.913344   4.083470   4.687972   3.513728
    29  H    1.837592   3.956189   3.369563   3.859884   2.730384
    30  H    3.129692   5.037836   3.784696   4.512743   3.524798
                    6          7          8          9         10
     6  C    0.000000
     7  H    2.737241   0.000000
     8  H    1.098376   2.626951   0.000000
     9  H    2.176890   3.047349   3.046761   0.000000
    10  C    1.533791   4.219242   2.162845   2.693687   0.000000
    11  H    2.166522   4.687623   3.069815   2.503598   1.094655
    12  H    2.172715   4.874946   2.511802   3.724625   1.097321
    13  H    3.835679   2.948832   4.485146   3.041035   4.972942
    14  O    2.451823   4.706194   2.728373   3.089933   1.435118
    15  H    2.755013   4.862549   2.641800   3.816846   1.962519
    16  O    3.765521   2.363575   3.966760   4.096380   5.188697
    17  H    4.205156   3.280980   4.499255   4.606644   5.503836
    18  O    3.772522   2.082345   4.120165   2.639912   4.950502
    19  H    3.910953   2.356458   4.136893   2.765234   4.972629
    20  O    2.437890   2.607835   2.541583   2.070523   3.125068
    21  H    2.564523   3.492753   2.727226   2.290855   2.733854
    22  H    2.674225   3.765803   3.674919   2.316231   3.212543
    23  O    3.616153   4.113592   4.254245   4.090656   4.457585
    24  H    3.776633   4.766995   4.382011   4.572916   4.367514
    25  O    4.593163   5.935924   4.973484   5.875991   4.900588
    26  H    4.314615   5.437154   4.494649   5.831682   4.823321
    27  H    5.506061   6.630139   5.870561   6.696801   5.861053
    28  O    3.826975   4.325088   3.620304   5.568800   4.741681
    29  H    2.853501   3.594129   2.739433   4.604971   3.831044
    30  H    4.202610   4.100562   4.019372   5.704201   5.317454
                   11         12         13         14         15
    11  H    0.000000
    12  H    1.770860   0.000000
    13  H    4.790687   5.668353   0.000000
    14  O    2.030284   2.102004   5.846545   0.000000
    15  H    2.818994   2.263678   6.406058   0.970436   0.000000
    16  O    5.384725   5.614377   2.085685   6.162685   6.442319
    17  H    5.601367   5.811282   2.371262   6.626080   6.939155
    18  O    5.035066   5.868170   2.393925   5.259946   5.704642
    19  H    5.145637   5.940380   3.329193   5.013081   5.400477
    20  O    3.574700   4.081418   4.294857   2.838869   3.126617
    21  H    3.181718   3.698883   4.979315   2.072450   2.417233
    22  H    2.749617   3.770510   2.401459   4.358048   5.034732
    23  O    4.298146   4.626726   2.764855   5.785659   6.234100
    24  H    4.213743   4.309496   3.720509   5.776264   6.178637
    25  O    4.897929   4.441732   5.395846   6.315450   6.546436
    26  H    5.028615   4.356751   5.324988   6.187797   6.300810
    27  H    5.816922   5.406169   5.882912   7.280106   7.514012
    28  O    5.255735   4.419115   5.052898   5.917502   5.855448
    29  H    4.347829   3.632841   4.384447   5.012666   5.018680
    30  H    5.779243   5.150208   4.695704   6.474041   6.459319
                   16         17         18         19         20
    16  O    0.000000
    17  H    0.974455   0.000000
    18  O    3.236665   4.050742   0.000000
    19  H    4.035247   4.898469   0.972635   0.000000
    20  O    4.661000   5.430795   2.784961   2.299706   0.000000
    21  H    5.430479   6.125968   3.657453   3.166796   0.975255
    22  H    3.360132   3.357600   3.794491   4.405855   4.103089
    23  O    2.595363   2.043936   4.725803   5.503671   5.435221
    24  H    3.422534   2.852534   5.555651   6.265325   5.886403
    25  O    4.742981   4.161143   7.051039   7.676594   6.953191
    26  H    4.325231   3.827453   6.788786   7.379470   6.643946
    27  H    5.169561   4.453247   7.708125   8.394840   7.825379
    28  O    3.534359   3.340071   6.041381   6.543028   5.868479
    29  H    3.104435   3.070353   5.249893   5.716596   4.943562
    30  H    2.943131   2.696576   5.768383   6.347367   6.016343
                   21         22         23         24         25
    21  H    0.000000
    22  H    4.358877   0.000000
    23  O    5.853453   2.062236   0.000000
    24  H    6.181396   2.494631   0.997022   0.000000
    25  O    7.124212   3.991184   2.678882   1.726455   0.000000
    26  H    6.878439   4.181698   2.773095   2.018474   0.991299
    27  H    8.040539   4.685193   3.125746   2.254547   0.969240
    28  O    6.244882   4.478696   3.217249   2.960908   2.745857
    29  H    5.300420   3.662991   2.766033   2.619703   2.809872
    30  H    6.524660   4.583526   3.109043   3.095076   3.212942
                   26         27         28         29         30
    26  H    0.000000
    27  H    1.555413   0.000000
    28  O    1.794855   3.250644   0.000000
    29  H    2.045459   3.519685   0.982161   0.000000
    30  H    2.339457   3.551519   0.970300   1.519212   0.000000
 Symmetry turned off by external request.
 Stoichiometry    C6H16O8
 Framework group  C1[X(C6H16O8)]
 Deg. of freedom    84
 Full point group                 C1      NOp   1
 Rotational constants (GHZ):      0.7504410      0.4843062      0.3447298
 Standard basis: 6-31G(d) (6D, 7F)
   242 basis functions,   456 primitive gaussians,   242 cartesian basis functions
    58 alpha electrons       58 beta electrons
       nuclear repulsion energy      1100.6040479158 Hartrees.
 NAtoms=   30 NActive=   30 NUniq=   30 SFac= 1.00D+00 NAtFMM=   60 NAOKFM=F Big=F
 Integral buffers will be    131072 words long.
 Raffenetti 2 integral format.
 Two-electron integral symmetry is turned off.
 One-electron integrals computed using PRISM.
 NBasis=   242 RedAO= T EigKep=  1.24D-03  NBF=   242
 NBsUse=   242 1.00D-06 EigRej= -1.00D+00 NBFU=   242
 ExpMin= 1.61D-01 ExpMax= 5.48D+03 ExpMxC= 8.25D+02 IAcc=1 IRadAn=         1 AccDes= 0.00D+00
 Harris functional with IExCor=  402 and IRadAn=       1 diagonalized for initial guess.
 HarFok:  IExCor=  402 AccDes= 0.00D+00 IRadAn=         1 IDoV= 1 UseB2=F ITyADJ=14
 ICtDFT=  3500011 ScaDFX=  1.000000  1.000000  1.000000  1.000000
 FoFCou: FMM=F IPFlag=           0 FMFlag=      100000 FMFlg1=           0
         NFxFlg=           0 DoJE=T BraDBF=F KetDBF=T FulRan=T
         wScrn=  0.000000 ICntrl=     500 IOpCl=  0 I1Cent=   200000004 NGrid=           0
         NMat0=    1 NMatS0=      1 NMatT0=    0 NMatD0=    1 NMtDS0=    0 NMtDT0=    0
 Symmetry not used in FoFCou.
 Requested convergence on RMS density matrix=1.00D-08 within 128 cycles.
 Requested convergence on MAX density matrix=1.00D-06.
 Requested convergence on             energy=1.00D-06.
 No special actions if energy rises.
 Integral accuracy reduced to 1.0D-05 until final iterations.
 Initial convergence to 1.0D-05 achieved.  Increase integral accuracy.
 SCF Done:  E(RB3LYP) =  -839.998064132     A.U. after   14 cycles
            NFock= 14  Conv=0.38D-08     -V/T= 2.0085
 DoSCS=F DFT=T ScalE2(SS,OS)=  1.000000  1.000000
 Range of M.O.s used for correlation:     1   242
 NBasis=   242 NAE=    58 NBE=    58 NFC=     0 NFV=     0
 NROrb=    242 NOA=    58 NOB=    58 NVA=   184 NVB=   184
 Symmetrizing basis deriv contribution to polar:
 IMax=3 JMax=2 DiffMx= 0.00D+00
 G2DrvN: will do    31 centers at a time, making    1 passes.
 Calling FoFCou, ICntrl=  3107 FMM=F I1Cent=   0 AccDes= 0.00D+00.
 End of G2Drv F.D. properties file   721 does not exist.
 End of G2Drv F.D. properties file   722 does not exist.
 End of G2Drv F.D. properties file   788 does not exist.
          IDoAtm=111111111111111111111111111111
          Differentiating once with respect to nuclear coordinates.
          There are    93 degrees of freedom in the 1st order CPHF.  IDoFFX=6 NUNeed=     0.
     87 vectors produced by pass  0 Test12= 1.15D-14 1.08D-09 XBig12= 1.01D-01 6.93D-02.
 AX will form    87 AO Fock derivatives at one time.
     87 vectors produced by pass  1 Test12= 1.15D-14 1.08D-09 XBig12= 1.10D-02 1.00D-02.
     87 vectors produced by pass  2 Test12= 1.15D-14 1.08D-09 XBig12= 1.32D-04 1.84D-03.
     87 vectors produced by pass  3 Test12= 1.15D-14 1.08D-09 XBig12= 3.03D-07 6.03D-05.
     87 vectors produced by pass  4 Test12= 1.15D-14 1.08D-09 XBig12= 4.87D-10 1.84D-06.
     65 vectors produced by pass  5 Test12= 1.15D-14 1.08D-09 XBig12= 4.07D-13 6.44D-08.
      1 vectors produced by pass  6 Test12= 1.15D-14 1.08D-09 XBig12= 3.26D-16 1.97D-09.
 InvSVY:  IOpt=1 It=  1 EMax= 7.22D-16
 Solved reduced A of dimension   501 with    93 vectors.
 End of Minotr F.D. properties file   721 does not exist.
 End of Minotr F.D. properties file   722 does not exist.
 End of Minotr F.D. properties file   788 does not exist.

 **********************************************************************

            Population analysis using the SCF density.

 **********************************************************************

 Alpha  occ. eigenvalues --  -19.18268 -19.17895 -19.15566 -19.15261 -19.14961
 Alpha  occ. eigenvalues --  -19.14887 -19.14306 -19.14056 -10.29620 -10.25673
 Alpha  occ. eigenvalues --  -10.25374 -10.24697 -10.23752 -10.23731  -1.08246
 Alpha  occ. eigenvalues --   -1.05217  -1.03628  -1.02364  -1.01452  -1.00982
 Alpha  occ. eigenvalues --   -1.00488  -0.99607  -0.78708  -0.77114  -0.69932
 Alpha  occ. eigenvalues --   -0.65407  -0.63531  -0.56808  -0.55275  -0.54739
 Alpha  occ. eigenvalues --   -0.53533  -0.53219  -0.52148  -0.51021  -0.50726
 Alpha  occ. eigenvalues --   -0.50245  -0.46411  -0.45116  -0.43873  -0.42642
 Alpha  occ. eigenvalues --   -0.41979  -0.40811  -0.40079  -0.38425  -0.37672
 Alpha  occ. eigenvalues --   -0.36848  -0.36508  -0.35938  -0.34298  -0.33407
 Alpha  occ. eigenvalues --   -0.31802  -0.30817  -0.30141  -0.29825  -0.27944
 Alpha  occ. eigenvalues --   -0.27837  -0.27274  -0.25155
 Alpha virt. eigenvalues --    0.03583   0.05391   0.07428   0.08044   0.09059
 Alpha virt. eigenvalues --    0.09952   0.11962   0.13016   0.13132   0.13850
 Alpha virt. eigenvalues --    0.15123   0.15607   0.16449   0.17540   0.17956
 Alpha virt. eigenvalues --    0.19272   0.20588   0.21777   0.21959   0.24021
 Alpha virt. eigenvalues --    0.24361   0.25385   0.25762   0.26389   0.28719
 Alpha virt. eigenvalues --    0.31760   0.33493   0.35171   0.50620   0.51529
 Alpha virt. eigenvalues --    0.52686   0.55826   0.57043   0.59628   0.60157
 Alpha virt. eigenvalues --    0.61112   0.61672   0.63687   0.65067   0.68243
 Alpha virt. eigenvalues --    0.68638   0.71030   0.72641   0.74491   0.76146
 Alpha virt. eigenvalues --    0.77084   0.77627   0.78427   0.79296   0.80312
 Alpha virt. eigenvalues --    0.81361   0.82640   0.83140   0.83758   0.83948
 Alpha virt. eigenvalues --    0.85109   0.86361   0.87295   0.88138   0.88984
 Alpha virt. eigenvalues --    0.89391   0.89836   0.91940   0.93402   0.94369
 Alpha virt. eigenvalues --    0.94935   0.97357   0.99867   1.01305   1.02280
 Alpha virt. eigenvalues --    1.03026   1.04961   1.06152   1.07111   1.08294
 Alpha virt. eigenvalues --    1.08942   1.10565   1.13394   1.14354   1.16033
 Alpha virt. eigenvalues --    1.17318   1.18131   1.20550   1.23396   1.24193
 Alpha virt. eigenvalues --    1.26659   1.29503   1.31195   1.33893   1.35287
 Alpha virt. eigenvalues --    1.36210   1.40453   1.43689   1.48451   1.50755
 Alpha virt. eigenvalues --    1.52248   1.54065   1.55708   1.59209   1.60607
 Alpha virt. eigenvalues --    1.62406   1.64333   1.65101   1.68803   1.71016
 Alpha virt. eigenvalues --    1.71574   1.72014   1.72374   1.73080   1.73318
 Alpha virt. eigenvalues --    1.74168   1.75212   1.76612   1.77723   1.79428
 Alpha virt. eigenvalues --    1.81036   1.81595   1.82957   1.84548   1.86517
 Alpha virt. eigenvalues --    1.87095   1.89906   1.91481   1.92626   1.94999
 Alpha virt. eigenvalues --    1.96085   1.97867   2.00789   2.03543   2.04900
 Alpha virt. eigenvalues --    2.06817   2.08397   2.12197   2.13598   2.15490
 Alpha virt. eigenvalues --    2.18821   2.22369   2.24080   2.26639   2.29603
 Alpha virt. eigenvalues --    2.31570   2.32334   2.34522   2.36594   2.37437
 Alpha virt. eigenvalues --    2.38696   2.42983   2.45894   2.48478   2.50383
 Alpha virt. eigenvalues --    2.51699   2.52656   2.56118   2.56738   2.58641
 Alpha virt. eigenvalues --    2.60039   2.61471   2.62058   2.64398   2.69685
 Alpha virt. eigenvalues --    2.73387   2.76304   2.80738   2.84836   2.90320
 Alpha virt. eigenvalues --    2.92949   2.95789   2.98764   3.02118   3.06314
 Alpha virt. eigenvalues --    3.70320   3.74178   3.75686   3.84081   3.86329
 Alpha virt. eigenvalues --    3.91415   4.00768   4.14144   4.24752   4.37972
 Alpha virt. eigenvalues --    4.46996   4.49668   4.65416   4.81729
          Condensed to atoms (all electrons):
               1          2          3          4          5          6
     1  O    8.411432  -0.025997  -0.028343  -0.002023   0.162996   0.151829
     2  C   -0.025997   5.013178  -0.027047   0.329209  -0.001395   0.273669
     3  C   -0.028343  -0.027047   5.046101   0.313071   0.275459  -0.017244
     4  C   -0.002023   0.329209   0.313071   4.888660  -0.035904  -0.030213
     5  C    0.162996  -0.001395   0.275459  -0.035904   4.700812  -0.021628
     6  C    0.151829   0.273669  -0.017244  -0.030213  -0.021628   5.068561
     7  H    0.000817  -0.051261  -0.051007   0.348368   0.001107  -0.002684
     8  H   -0.034337  -0.043598   0.000465  -0.008608   0.003918   0.354050
     9  H    0.001906   0.345045  -0.004510  -0.046844   0.000475  -0.056040
    10  C   -0.034687  -0.035884  -0.000129   0.003948  -0.003706   0.326549
    11  H    0.002621  -0.009530   0.000054  -0.000071   0.001332  -0.041149
    12  H    0.004104   0.004998   0.000012  -0.000109  -0.000086  -0.044078
    13  H    0.003300   0.000028   0.341207  -0.047322  -0.040652   0.000945
    14  O    0.001496   0.001940   0.000002   0.000080   0.000060  -0.039966
    15  H    0.000007  -0.001523   0.000001  -0.000010   0.000001  -0.000983
    16  O   -0.001400   0.001482   0.229081  -0.036280  -0.025595   0.001121
    17  H    0.000514  -0.000371  -0.037589   0.007193  -0.013907  -0.000032
    18  O    0.000015  -0.035022  -0.034616   0.234035   0.001314   0.003832
    19  H   -0.000007  -0.011612   0.006896  -0.030506  -0.000278   0.000746
    20  O    0.001341   0.221859   0.002705  -0.040061   0.000228  -0.037223
    21  H    0.000018  -0.021887  -0.000237   0.005497   0.000032  -0.005922
    22  H   -0.056996  -0.003806  -0.074106   0.002629   0.363493   0.004612
    23  O   -0.048630   0.000120  -0.049326   0.001888   0.293455   0.002631
    24  H    0.004674   0.000054   0.005850  -0.000113  -0.016313  -0.000288
    25  O    0.000062  -0.000001  -0.000045   0.000001  -0.000783   0.000011
    26  H    0.000827   0.000001  -0.000016   0.000000   0.000057  -0.000003
    27  H    0.000040   0.000000  -0.000000  -0.000000   0.000048  -0.000000
    28  O   -0.019216  -0.000016  -0.000175  -0.000006   0.002907   0.000314
    29  H    0.052274   0.000224  -0.001573  -0.000005  -0.002953  -0.000405
    30  H    0.000680  -0.000010  -0.000904  -0.000041   0.000802   0.000023
               7          8          9         10         11         12
     1  O    0.000817  -0.034337   0.001906  -0.034687   0.002621   0.004104
     2  C   -0.051261  -0.043598   0.345045  -0.035884  -0.009530   0.004998
     3  C   -0.051007   0.000465  -0.004510  -0.000129   0.000054   0.000012
     4  C    0.348368  -0.008608  -0.046844   0.003948  -0.000071  -0.000109
     5  C    0.001107   0.003918   0.000475  -0.003706   0.001332  -0.000086
     6  C   -0.002684   0.354050  -0.056040   0.326549  -0.041149  -0.044078
     7  H    0.628927   0.005317   0.007951  -0.000106   0.000002   0.000007
     8  H    0.005317   0.622347   0.007381  -0.057660   0.005781  -0.004988
     9  H    0.007951   0.007381   0.661062  -0.008299   0.005189   0.000042
    10  C   -0.000106  -0.057660  -0.008299   4.945908   0.372282   0.366011
    11  H    0.000002   0.005781   0.005189   0.372282   0.563846  -0.035651
    12  H    0.000007  -0.004988   0.000042   0.366011  -0.035651   0.586879
    13  H    0.006061  -0.000004   0.001505   0.000019  -0.000006  -0.000001
    14  O   -0.000010   0.002486  -0.000007   0.221220  -0.034732  -0.026732
    15  H    0.000001   0.004113   0.000133  -0.028019   0.006714  -0.008530
    16  O    0.004034   0.000020  -0.000023   0.000000   0.000000  -0.000000
    17  H   -0.000108   0.000009   0.000013  -0.000001   0.000000   0.000000
    18  O   -0.038409  -0.000055   0.002410  -0.000058  -0.000002   0.000000
    19  H   -0.002588   0.000004  -0.000240  -0.000010   0.000000   0.000000
    20  O   -0.001226   0.004623  -0.040899   0.000644   0.000059  -0.000230
    21  H   -0.000224  -0.000394  -0.004095  -0.003899  -0.000046   0.000488
    22  H   -0.000065  -0.000521   0.001091   0.001499   0.000599  -0.000045
    23  O   -0.000085  -0.000079   0.000035  -0.000026  -0.000031  -0.000000
    24  H    0.000004   0.000010  -0.000001  -0.000002   0.000005   0.000020
    25  O   -0.000000   0.000000  -0.000000   0.000000   0.000001   0.000010
    26  H   -0.000000  -0.000008  -0.000000  -0.000006   0.000000   0.000009
    27  H    0.000000   0.000000  -0.000000   0.000000  -0.000000  -0.000000
    28  O    0.000008   0.000697   0.000000  -0.000026   0.000001  -0.000008
    29  H    0.000060  -0.002271  -0.000016   0.000371  -0.000029   0.000132
    30  H    0.000049  -0.000027   0.000000   0.000002  -0.000000  -0.000001
              13         14         15         16         17         18
     1  O    0.003300   0.001496   0.000007  -0.001400   0.000514   0.000015
     2  C    0.000028   0.001940  -0.001523   0.001482  -0.000371  -0.035022
     3  C    0.341207   0.000002   0.000001   0.229081  -0.037589  -0.034616
     4  C   -0.047322   0.000080  -0.000010  -0.036280   0.007193   0.234035
     5  C   -0.040652   0.000060   0.000001  -0.025595  -0.013907   0.001314
     6  C    0.000945  -0.039966  -0.000983   0.001121  -0.000032   0.003832
     7  H    0.006061  -0.000010   0.000001   0.004034  -0.000108  -0.038409
     8  H   -0.000004   0.002486   0.004113   0.000020   0.000009  -0.000055
     9  H    0.001505  -0.000007   0.000133  -0.000023   0.000013   0.002410
    10  C    0.000019   0.221220  -0.028019   0.000000  -0.000001  -0.000058
    11  H   -0.000006  -0.034732   0.006714   0.000000   0.000000  -0.000002
    12  H   -0.000001  -0.026732  -0.008530  -0.000000   0.000000   0.000000
    13  H    0.617343  -0.000000  -0.000000  -0.035898  -0.001848   0.003689
    14  O   -0.000000   8.226604   0.235470   0.000000  -0.000000   0.000000
    15  H   -0.000000   0.235470   0.387328  -0.000000  -0.000000   0.000000
    16  O   -0.035898   0.000000  -0.000000   8.290737   0.227885   0.000737
    17  H   -0.001848  -0.000000  -0.000000   0.227885   0.372992  -0.000157
    18  O    0.003689   0.000000   0.000000   0.000737  -0.000157   8.275786
    19  H   -0.000158   0.000004  -0.000001  -0.000145   0.000015   0.235860
    20  O   -0.000091  -0.012635   0.001804  -0.000008   0.000001  -0.004664
    21  H    0.000007   0.044071  -0.002311   0.000001  -0.000000   0.000030
    22  H    0.003135  -0.000051   0.000000   0.003450   0.001264   0.000036
    23  O   -0.000496   0.000000  -0.000000  -0.016198   0.036808  -0.000008
    24  H   -0.000250   0.000000   0.000000   0.000070  -0.001097   0.000000
    25  O    0.000001   0.000000  -0.000000  -0.000002   0.000019  -0.000000
    26  H   -0.000001   0.000000  -0.000000  -0.000023   0.000019   0.000000
    27  H   -0.000000   0.000000  -0.000000   0.000000  -0.000001   0.000000
    28  O   -0.000005   0.000000  -0.000000  -0.001135   0.000644  -0.000000
    29  H    0.000046  -0.000003  -0.000001   0.002696   0.000089   0.000001
    30  H    0.000036  -0.000000  -0.000000   0.006262   0.000762   0.000000
              19         20         21         22         23         24
     1  O   -0.000007   0.001341   0.000018  -0.056996  -0.048630   0.004674
     2  C   -0.011612   0.221859  -0.021887  -0.003806   0.000120   0.000054
     3  C    0.006896   0.002705  -0.000237  -0.074106  -0.049326   0.005850
     4  C   -0.030506  -0.040061   0.005497   0.002629   0.001888  -0.000113
     5  C   -0.000278   0.000228   0.000032   0.363493   0.293455  -0.016313
     6  C    0.000746  -0.037223  -0.005922   0.004612   0.002631  -0.000288
     7  H   -0.002588  -0.001226  -0.000224  -0.000065  -0.000085   0.000004
     8  H    0.000004   0.004623  -0.000394  -0.000521  -0.000079   0.000010
     9  H   -0.000240  -0.040899  -0.004095   0.001091   0.000035  -0.000001
    10  C   -0.000010   0.000644  -0.003899   0.001499  -0.000026  -0.000002
    11  H    0.000000   0.000059  -0.000046   0.000599  -0.000031   0.000005
    12  H    0.000000  -0.000230   0.000488  -0.000045  -0.000000   0.000020
    13  H   -0.000158  -0.000091   0.000007   0.003135  -0.000496  -0.000250
    14  O    0.000004  -0.012635   0.044071  -0.000051   0.000000   0.000000
    15  H   -0.000001   0.001804  -0.002311   0.000000  -0.000000   0.000000
    16  O   -0.000145  -0.000008   0.000001   0.003450  -0.016198   0.000070
    17  H    0.000015   0.000001  -0.000000   0.001264   0.036808  -0.001097
    18  O    0.235860  -0.004664   0.000030   0.000036  -0.000008   0.000000
    19  H    0.374285   0.020113  -0.000434   0.000008   0.000001  -0.000000
    20  O    0.020113   8.326965   0.223692   0.000047  -0.000000  -0.000000
    21  H   -0.000434   0.223692   0.352374  -0.000014  -0.000000   0.000000
    22  H    0.000008   0.000047  -0.000014   0.682162  -0.046032  -0.004264
    23  O    0.000001  -0.000000  -0.000000  -0.046032   8.361613   0.184799
    24  H   -0.000000  -0.000000   0.000000  -0.004264   0.184799   0.310169
    25  O    0.000000   0.000000  -0.000000   0.000011  -0.031639   0.089860
    26  H   -0.000000  -0.000000   0.000000   0.000023   0.004566  -0.009070
    27  H   -0.000000  -0.000000   0.000000   0.000004   0.001944  -0.004802
    28  O   -0.000000   0.000000   0.000000  -0.000061  -0.001481   0.002076
    29  H    0.000000  -0.000003  -0.000000   0.000942   0.001754  -0.000710
    30  H    0.000000  -0.000000   0.000000   0.000046   0.001578  -0.000302
              25         26         27         28         29         30
     1  O    0.000062   0.000827   0.000040  -0.019216   0.052274   0.000680
     2  C   -0.000001   0.000001   0.000000  -0.000016   0.000224  -0.000010
     3  C   -0.000045  -0.000016  -0.000000  -0.000175  -0.001573  -0.000904
     4  C    0.000001   0.000000  -0.000000  -0.000006  -0.000005  -0.000041
     5  C   -0.000783   0.000057   0.000048   0.002907  -0.002953   0.000802
     6  C    0.000011  -0.000003  -0.000000   0.000314  -0.000405   0.000023
     7  H   -0.000000  -0.000000   0.000000   0.000008   0.000060   0.000049
     8  H    0.000000  -0.000008   0.000000   0.000697  -0.002271  -0.000027
     9  H   -0.000000  -0.000000  -0.000000   0.000000  -0.000016   0.000000
    10  C    0.000000  -0.000006   0.000000  -0.000026   0.000371   0.000002
    11  H    0.000001   0.000000  -0.000000   0.000001  -0.000029  -0.000000
    12  H    0.000010   0.000009  -0.000000  -0.000008   0.000132  -0.000001
    13  H    0.000001  -0.000001  -0.000000  -0.000005   0.000046   0.000036
    14  O    0.000000   0.000000   0.000000   0.000000  -0.000003  -0.000000
    15  H   -0.000000  -0.000000  -0.000000  -0.000000  -0.000001  -0.000000
    16  O   -0.000002  -0.000023   0.000000  -0.001135   0.002696   0.006262
    17  H    0.000019   0.000019  -0.000001   0.000644   0.000089   0.000762
    18  O   -0.000000   0.000000   0.000000  -0.000000   0.000001   0.000000
    19  H    0.000000  -0.000000  -0.000000  -0.000000   0.000000   0.000000
    20  O    0.000000  -0.000000  -0.000000   0.000000  -0.000003  -0.000000
    21  H   -0.000000   0.000000   0.000000   0.000000  -0.000000   0.000000
    22  H    0.000011   0.000023   0.000004  -0.000061   0.000942   0.000046
    23  O   -0.031639   0.004566   0.001944  -0.001481   0.001754   0.001578
    24  H    0.089860  -0.009070  -0.004802   0.002076  -0.000710  -0.000302
    25  O    8.343704   0.195812   0.237893  -0.027411   0.003344   0.001680
    26  H    0.195812   0.326493  -0.011398   0.078293  -0.008761  -0.004048
    27  H    0.237893  -0.011398   0.380138   0.001081  -0.000089  -0.000012
    28  O   -0.027411   0.078293   0.001081   8.324860   0.212606   0.239034
    29  H    0.003344  -0.008761  -0.000089   0.212606   0.325029  -0.016878
    30  H    0.001680  -0.004048  -0.000012   0.239034  -0.016878   0.375800
 Mulliken charges:
               1
     1  O   -0.549315
     2  C    0.077153
     3  C    0.105965
     4  C    0.143535
     5  C    0.354704
     6  C    0.108965
     7  H    0.145063
     8  H    0.141330
     9  H    0.126736
    10  C   -0.065935
    11  H    0.162762
    12  H    0.157748
    13  H    0.149410
    14  O   -0.619295
    15  H    0.405806
    16  O   -0.650869
    17  H    0.406884
    18  O   -0.644754
    19  H    0.408048
    20  O   -0.667040
    21  H    0.413253
    22  H    0.120910
    23  O   -0.697160
    24  H    0.439621
    25  O   -0.812528
    26  H    0.427233
    27  H    0.395154
    28  O   -0.812982
    29  H    0.434131
    30  H    0.395467
 Sum of Mulliken charges =  -0.00000
 Mulliken charges with hydrogens summed into heavy atoms:
               1
     1  O   -0.549315
     2  C    0.203889
     3  C    0.255375
     4  C    0.288598
     5  C    0.475614
     6  C    0.250296
    10  C    0.254575
    14  O   -0.213489
    16  O   -0.243985
    18  O   -0.236707
    20  O   -0.253787
    23  O   -0.257539
    25  O    0.009859
    28  O    0.016616
 APT charges:
               1
     1  O   -0.425091
     2  C   -0.212439
     3  C   -0.360746
     4  C   -0.167624
     5  C   -0.150938
     6  C   -0.205017
     7  H    0.326637
     8  H    0.354860
     9  H    0.342626
    10  C   -0.597582
    11  H    0.365592
    12  H    0.439267
    13  H    0.491310
    14  O   -0.830931
    15  H    0.715558
    16  O   -0.732166
    17  H    0.597418
    18  O   -0.821312
    19  H    0.710998
    20  O   -0.815154
    21  H    0.643396
    22  H    0.354317
    23  O   -0.632319
    24  H    0.536559
    25  O   -1.258048
    26  H    0.297986
    27  H    0.994486
    28  O   -0.701394
    29  H    0.172454
    30  H    0.567299
 Sum of APT charges =  -0.00000
 APT charges with hydrogens summed into heavy atoms:
               1
     1  O   -0.425091
     2  C    0.130187
     3  C    0.130564
     4  C    0.159013
     5  C    0.203379
     6  C    0.149843
    10  C    0.207277
    14  O   -0.115372
    16  O   -0.134748
    18  O   -0.110314
    20  O   -0.171759
    23  O   -0.095760
    25  O    0.034423
    28  O    0.038359
 Electronic spatial extent (au):  <R**2>=           3306.1801
 Charge=             -0.0000 electrons
 Dipole moment (field-independent basis, Debye):
    X=             -0.4446    Y=              2.4857    Z=             -0.0523  Tot=              2.5257
 Quadrupole moment (field-independent basis, Debye-Ang):
   XX=            -74.0875   YY=            -89.5448   ZZ=            -84.8063
   XY=              9.2628   XZ=              3.7072   YZ=              2.9840
 Traceless Quadrupole moment (field-independent basis, Debye-Ang):
   XX=              8.7253   YY=             -6.7319   ZZ=             -1.9934
   XY=              9.2628   XZ=              3.7072   YZ=              2.9840
 Octapole moment (field-independent basis, Debye-Ang**2):
  XXX=            -81.3527  YYY=             38.5185  ZZZ=             -2.6060  XYY=              1.9449
  XXY=            -11.7502  XXZ=              4.0371  XZZ=              5.7713  YZZ=              1.9343
  YYZ=             17.4266  XYZ=             14.9519
 Hexadecapole moment (field-independent basis, Debye-Ang**3):
 XXXX=          -1613.1319 YYYY=          -1390.4136 ZZZZ=           -391.7536 XXXY=             -2.6070
 XXXZ=             55.2123 YYYX=             65.3018 YYYZ=             66.7188 ZZZX=             17.1160
 ZZZY=            -16.6159 XXYY=           -581.1239 XXZZ=           -431.1163 YYZZ=           -279.3045
 XXYZ=             -5.2039 YYXZ=             46.8793 ZZXY=             26.1403
 N-N= 1.100604047916D+03 E-N=-4.173382047387D+03  KE= 8.328905944013D+02
  Exact polarizability:   0.000   0.000   0.000   0.000   0.000   0.000
 Approx polarizability: 139.722   2.051 122.838   2.619   2.439 122.323
 Calling FoFJK, ICntrl=    100147 FMM=F ISym2X=0 I1Cent= 0 IOpClX= 0 NMat=1 NMatS=1 NMatT=0.
 -------------------------------------------------------------------
 Center     Atomic                   Forces (Hartrees/Bohr)
 Number     Number              X              Y              Z
 -------------------------------------------------------------------
      1        8          -0.000004365   -0.000000635    0.000000311
      2        6           0.000000138   -0.000003808    0.000006688
      3        6           0.000000915    0.000000136   -0.000006924
      4        6           0.000001662   -0.000002166   -0.000003861
      5        6           0.000005059    0.000005990    0.000001044
      6        6           0.000006231    0.000001788   -0.000000663
      7        1          -0.000000178   -0.000000772   -0.000002692
      8        1           0.000000956   -0.000002163    0.000000714
      9        1           0.000000207   -0.000000708   -0.000004682
     10        6           0.000007468   -0.000005909    0.000009008
     11        1           0.000000462    0.000000181   -0.000005068
     12        1          -0.000000789    0.000002705    0.000002899
     13        1          -0.000001351    0.000000713   -0.000000993
     14        8           0.000002655   -0.000006273   -0.000001992
     15        1           0.000002548    0.000000077    0.000006587
     16        8          -0.000010384   -0.000000991   -0.000000718
     17        1           0.000000726    0.000000374    0.000001130
     18        8          -0.000002413   -0.000001165   -0.000004597
     19        1          -0.000005705   -0.000002836   -0.000003809
     20        8          -0.000002079   -0.000006085   -0.000004515
     21        1           0.000001159   -0.000002209    0.000000071
     22        1          -0.000000086    0.000001349   -0.000001230
     23        8          -0.000003323   -0.000004573   -0.000000311
     24        1          -0.000004594    0.000010620    0.000000791
     25        8          -0.000001248    0.000007365    0.000006430
     26        1           0.000000975    0.000001330   -0.000000424
     27        1           0.000002801    0.000003760    0.000002014
     28        8           0.000014916   -0.000018506   -0.000002746
     29        1          -0.000014949    0.000000287    0.000009089
     30        1           0.000002586    0.000022124   -0.000001554
 -------------------------------------------------------------------
 Cartesian Forces:  Max     0.000022124 RMS     0.000005318
 IRC-IRC-IRC-IRC-IRC-IRC-IRC-IRC-IRC-IRC-IRC-IRC-IRC-IRC-IRC-IRC-IRC-IRC
          ******** Start new reaction path calculation ********
 Supplied step size of   0.1000 bohr.
    Integration on MW PES will use step size of   0.2416 sqrt(amu)*bohr.
 Point Number:   0          Path Number:   1
 Calculating another point on the path.
 IRC-IRC-IRC-IRC-IRC-IRC-IRC-IRC-IRC-IRC-IRC-IRC-IRC-IRC-IRC-IRC-IRC-IRC
                          Input orientation:                          
 ---------------------------------------------------------------------
 Center     Atomic      Atomic             Coordinates (Angstroms)
 Number     Number       Type             X           Y           Z
 ---------------------------------------------------------------------
      1          8           0       -0.608906    0.646376    0.000455
      2          6           0        1.752222   -0.082929   -0.138094
      3          6           0       -0.146183   -1.734351   -0.404132
      4          6           0        1.224514   -1.466995    0.237704
      5          6           0       -0.781498   -0.434988   -0.945459
      6          6           0        0.755337    1.013216    0.276892
      7          1           0        1.084725   -1.492027    1.329497
      8          1           0        0.832919    1.122282    1.367097
      9          1           0        1.908029   -0.055711   -1.228976
     10          6           0        1.057472    2.359760   -0.392433
     11          1           0        0.987496    2.259220   -1.480219
     12          1           0        0.324155    3.112942   -0.077654
     13          1           0       -0.000195   -2.423725   -1.249269
     14          8           0        2.400309    2.787131   -0.121065
     15          1           0        2.419389    3.150721    0.778487
     16          8           0       -1.004406   -2.302164    0.574612
     17          1           0       -1.890134   -2.253251    0.171077
     18          8           0        2.140063   -2.466344   -0.178247
     19          1           0        3.008114   -2.181642    0.155604
     20          8           0        2.997180    0.088265    0.526053
     21          1           0        3.319292    0.968607    0.257021
     22          1           0       -0.308774   -0.130452   -1.893249
     23          8           0       -2.133419   -0.671810   -1.099400
     24          1           0       -2.658949    0.175510   -1.097926
     25          8           0       -3.752386    1.384570   -0.528888
     26          1           0       -3.556048    1.163185    0.417209
     27          1           0       -4.668654    1.100673   -0.667862
     28          8           0       -2.693562    0.502149    1.846319
     29          1           0       -1.842579    0.570336    1.360680
     30          1           0       -2.802539   -0.458376    1.931918
 ---------------------------------------------------------------------
                    Distance matrix (angstroms):
                    1          2          3          4          5
     1  O    0.000000
     2  C    2.475077   0.000000
     3  C    2.458793   2.530200   0.000000
     4  C    2.807856   1.528182   1.536959   0.000000
     5  C    1.447029   2.682447   1.544345   2.547352   0.000000
     6  C    1.439495   1.538677   2.970800   2.524502   2.439939
     7  H    3.034387   2.141246   2.139936   1.100990   3.126587
     8  H    2.042805   2.136177   3.500892   2.851882   3.221700
     9  H    2.887800   1.102288   2.778127   2.147107   2.730896
    10  C    2.422160   2.552272   4.267396   3.881885   3.390910
    11  H    2.709642   2.805667   4.288566   4.110002   3.267119
    12  H    2.638304   3.500946   4.880989   4.678240   3.816198
    13  H    3.370143   3.128098   1.100366   2.150891   2.158196
    14  O    3.694993   2.942372   5.196975   4.428183   4.602780
    15  H    4.005951   3.426621   5.643109   4.800362   5.106367
    16  O    3.029846   3.609980   1.420176   2.403976   2.417985
    17  H    3.174665   4.251193   1.908268   3.213047   2.404539
    18  O    4.156656   2.415098   2.411174   1.417725   3.640129
    19  H    4.593973   2.463355   3.234650   1.923197   4.315588
    20  O    3.686678   1.421380   3.750721   2.375779   4.088710
    21  H    3.949734   1.928096   4.444393   3.212573   4.498058
    22  H    2.068734   2.707495   2.194629   2.945893   1.102051
    23  O    2.295961   4.045874   2.358282   3.700795   1.381113
    24  H    2.372938   4.521780   3.231549   4.423010   1.980095
    25  O    3.272094   5.710252   4.769478   5.786935   3.508632
    26  H    3.020997   5.480774   4.549450   5.459289   3.479820
    27  H    4.139395   6.550512   5.344123   6.491718   4.188710
    28  O    2.788155   4.903592   4.068858   4.670813   3.511160
    29  H    1.837918   3.949136   3.362127   3.849526   2.730357
    30  H    3.124588   5.017146   3.760514   4.483841   3.516312
                    6          7          8          9         10
     6  C    0.000000
     7  H    2.737283   0.000000
     8  H    1.098391   2.626677   0.000000
     9  H    2.176911   3.047395   3.046822   0.000000
    10  C    1.533774   4.219247   2.162804   2.694021   0.000000
    11  H    2.166532   4.687837   3.069810   2.503879   1.094662
    12  H    2.172665   4.874862   2.511748   3.724858   1.097326
    13  H    3.835695   2.948753   4.484821   3.041253   4.973385
    14  O    2.451751   4.705963   2.728198   3.090560   1.435095
    15  H    2.754922   4.862104   2.641574   3.817408   1.962521
    16  O    3.765246   2.364454   3.966186   4.096555   5.188454
    17  H    4.204702   3.281948   4.498856   4.606015   5.503254
    18  O    3.772526   2.082384   4.120067   2.639891   4.950672
    19  H    3.911116   2.356484   4.137040   2.765290   4.972894
    20  O    2.437924   2.607744   2.541765   2.070533   3.125023
    21  H    2.564421   3.492594   2.727258   2.291087   2.733665
    22  H    2.673915   3.765876   3.674597   2.315397   3.212512
    23  O    3.616407   4.114456   4.254590   4.090192   4.457803
    24  H    3.774815   4.763209   4.377883   4.574705   4.368119
    25  O    4.594208   5.926722   4.968759   5.882587   4.909618
    26  H    4.316273   5.423946   4.490767   5.835389   4.834447
    27  H    5.506349   6.619131   5.865904   6.701107   5.869385
    28  O    3.823506   4.303405   3.612518   5.562670   4.746893
    29  H    2.849545   3.580980   2.731845   4.600578   3.832198
    30  H    4.190844   4.067206   4.004254   5.687077   5.314526
                   11         12         13         14         15
    11  H    0.000000
    12  H    1.770890   0.000000
    13  H    4.791539   5.668560   0.000000
    14  O    2.030279   2.102012   5.847075   0.000000
    15  H    2.819015   2.263717   6.406296   0.970441   0.000000
    16  O    5.384815   5.613725   2.085608   6.162547   6.441886
    17  H    5.600887   5.810420   2.370298   6.625610   6.938578
    18  O    5.035325   5.868226   2.393660   5.260228   5.704803
    19  H    5.145878   5.940595   3.328993   5.013450   5.400803
    20  O    3.574493   4.081445   4.294895   2.838819   3.126692
    21  H    3.181345   3.698788   4.979540   2.072320   2.417307
    22  H    2.749808   3.770490   2.401881   4.357988   5.034595
    23  O    4.298380   4.626876   2.764473   5.785854   6.234282
    24  H    4.217174   4.309104   3.721277   5.776757   6.177567
    25  O    4.912894   4.450737   5.394534   6.323698   6.551284
    26  H    5.044335   4.370631   5.318568   6.197187   6.307667
    27  H    5.830453   5.415322   5.878259   7.287892   7.518974
    28  O    5.263397   4.429959   5.039606   5.919398   5.856404
    29  H    4.351133   3.637085   4.378426   5.011173   5.016145
    30  H    5.778613   5.154504   4.672866   6.466660   6.451706
                   16         17         18         19         20
    16  O    0.000000
    17  H    0.974550   0.000000
    18  O    3.237505   4.050917   0.000000
    19  H    4.036138   4.898796   0.972638   0.000000
    20  O    4.661459   5.430888   2.785088   2.299963   0.000000
    21  H    5.430762   6.125837   3.657722   3.167204   0.975262
    22  H    3.360145   3.356847   3.793999   4.405329   4.102462
    23  O    2.595196   2.043099   4.725624   5.503634   5.435334
    24  H    3.416689   2.846107   5.554792   6.264432   5.885297
    25  O    4.728754   4.146284   7.047939   7.674030   6.953412
    26  H    4.306309   3.808922   6.780393   7.371873   6.641693
    27  H    5.152645   4.435403   7.702075   8.389544   7.824027
    28  O    3.512073   3.323276   6.022852   6.524596   5.856530
    29  H    3.093815   3.064321   5.239385   5.705682   4.934801
    30  H    2.911205   2.674812   5.737076   6.315743   5.992663
                   21         22         23         24         25
    21  H    0.000000
    22  H    4.358263   0.000000
    23  O    5.853453   2.062182   0.000000
    24  H    6.180959   2.499895   0.997063   0.000000
    25  O    7.127363   4.001904   2.678663   1.726625   0.000000
    26  H    6.879958   4.190048   2.773298   2.018892   0.991291
    27  H    8.042396   4.693165   3.123353   2.253840   0.969257
    28  O    6.236816   4.480153   3.220124   2.962511   2.746158
    29  H    5.293543   3.664930   2.771192   2.620514   2.807277
    30  H    6.505257   4.578024   3.111618   3.098772   3.217798
                   26         27         28         29         30
    26  H    0.000000
    27  H    1.555371   0.000000
    28  O    1.795329   3.252741   0.000000
    29  H    2.043914   3.518940   0.982175   0.000000
    30  H    2.343413   3.559758   0.970469   1.518579   0.000000
 Symmetry turned off by external request.
 Stoichiometry    C6H16O8
 Framework group  C1[X(C6H16O8)]
 Deg. of freedom    84
 Full point group                 C1      NOp   1
 Rotational constants (GHZ):      0.7511992      0.4843260      0.3451120
 Standard basis: 6-31G(d) (6D, 7F)
   242 basis functions,   456 primitive gaussians,   242 cartesian basis functions
    58 alpha electrons       58 beta electrons
       nuclear repulsion energy      1100.8231642107 Hartrees.
 NAtoms=   30 NActive=   30 NUniq=   30 SFac= 1.00D+00 NAtFMM=   60 NAOKFM=F Big=F
 Integral buffers will be    131072 words long.
 Raffenetti 2 integral format.
 Two-electron integral symmetry is turned off.
 One-electron integrals computed using PRISM.
 NBasis=   242 RedAO= T EigKep=  1.24D-03  NBF=   242
 NBsUse=   242 1.00D-06 EigRej= -1.00D+00 NBFU=   242
 Initial guess from the checkpoint file:  "/scratch/10502075.yak.local/Gau-6771.chk"
 B after Tr=    -0.031174    0.037403    0.000636
         Rot=    1.000000    0.000026   -0.000014   -0.000021 Ang=   0.00 deg.
 ExpMin= 1.61D-01 ExpMax= 5.48D+03 ExpMxC= 8.25D+02 IAcc=1 IRadAn=         1 AccDes= 0.00D+00
 Harris functional with IExCor=  402 and IRadAn=       1 diagonalized for initial guess.
 HarFok:  IExCor=  402 AccDes= 0.00D+00 IRadAn=         1 IDoV= 1 UseB2=F ITyADJ=14
 ICtDFT=  3500011 ScaDFX=  1.000000  1.000000  1.000000  1.000000
 FoFCou: FMM=F IPFlag=           0 FMFlag=      100000 FMFlg1=           0
         NFxFlg=           0 DoJE=T BraDBF=F KetDBF=T FulRan=T
         wScrn=  0.000000 ICntrl=     500 IOpCl=  0 I1Cent=   200000004 NGrid=           0
         NMat0=    1 NMatS0=      1 NMatT0=    0 NMatD0=    1 NMtDS0=    0 NMtDT0=    0
 Symmetry not used in FoFCou.
 Requested convergence on RMS density matrix=1.00D-08 within 128 cycles.
 Requested convergence on MAX density matrix=1.00D-06.
 Requested convergence on             energy=1.00D-06.
 No special actions if energy rises.
 Integral accuracy reduced to 1.0D-05 until final iterations.
 Initial convergence to 1.0D-05 achieved.  Increase integral accuracy.
 SCF Done:  E(RB3LYP) =  -839.998065270     A.U. after    9 cycles
            NFock=  9  Conv=0.88D-08     -V/T= 2.0085
 DoSCS=F DFT=T ScalE2(SS,OS)=  1.000000  1.000000
 Range of M.O.s used for correlation:     1   242
 NBasis=   242 NAE=    58 NBE=    58 NFC=     0 NFV=     0
 NROrb=    242 NOA=    58 NOB=    58 NVA=   184 NVB=   184
 Symmetrizing basis deriv contribution to polar:
 IMax=3 JMax=2 DiffMx= 0.00D+00
 Calling FoFJK, ICntrl=      2147 FMM=F ISym2X=0 I1Cent= 0 IOpClX= 0 NMat=1 NMatS=1 NMatT=0.
 -------------------------------------------------------------------
 Center     Atomic                   Forces (Hartrees/Bohr)
 Number     Number              X              Y              Z
 -------------------------------------------------------------------
      1        8          -0.000001675    0.000002592   -0.000010004
      2        6          -0.000000684   -0.000004282    0.000008134
      3        6          -0.000002910    0.000003039   -0.000005633
      4        6          -0.000000266   -0.000000945    0.000000799
      5        6           0.000007894    0.000004761   -0.000002618
      6        6           0.000007964    0.000005213   -0.000003480
      7        1           0.000000776   -0.000000017   -0.000007236
      8        1           0.000000856   -0.000001561   -0.000004044
      9        1          -0.000000672   -0.000001318    0.000000459
     10        6           0.000011411   -0.000005288    0.000003282
     11        1           0.000001122   -0.000000283   -0.000000761
     12        1           0.000003481   -0.000000272    0.000000945
     13        1          -0.000003740    0.000002433    0.000003047
     14        8           0.000004680   -0.000006155   -0.000000714
     15        1           0.000002908   -0.000001355    0.000002595
     16        8          -0.000021939    0.000009228   -0.000013796
     17        1           0.000007393    0.000001407    0.000004548
     18        8          -0.000012077    0.000002052    0.000008452
     19        1          -0.000008252   -0.000002477   -0.000003130
     20        8          -0.000007184   -0.000003168   -0.000000048
     21        1           0.000000729   -0.000004320    0.000001304
     22        1          -0.000003188   -0.000000723    0.000004007
     23        8          -0.000009666    0.000026382   -0.000015338
     24        1           0.000005278   -0.000010598    0.000003756
     25        8          -0.000012814   -0.000013053    0.000039733
     26        1           0.000001991    0.000003301   -0.000019335
     27        1           0.000013169    0.000006620    0.000001284
     28        8           0.000077359   -0.000118620   -0.000027731
     29        1          -0.000083237   -0.000011885    0.000046516
     30        1           0.000021294    0.000119293   -0.000014991
 -------------------------------------------------------------------
 Cartesian Forces:  Max     0.000119293 RMS     0.000023740
 IRC-IRC-IRC-IRC-IRC-IRC-IRC-IRC-IRC-IRC-IRC-IRC-IRC-IRC-IRC-IRC-IRC-IRC
 Pt  1 Step number   1 out of a maximum of  20
 Modified Bulirsch-Stoer Extrapolation Cycles:
    EPS =    0.000010000000000
 Maximum DWI energy   std dev =  0.000000053 at pt    19
 Maximum DWI gradient std dev =  1.560114272 at pt     3
 WARNING: Bulirsch-Stoer Method is not Converging
 CORRECTOR INTEGRATION CONVERGENCE:
   Recorrection delta-x convergence threshold:    0.010000
   Delta-x Convergence NOT Met
 IRC-IRC-IRC-IRC-IRC-IRC-IRC-IRC-IRC-IRC-IRC-IRC-IRC-IRC-IRC-IRC-IRC-IRC
                          Input orientation:                          
 ---------------------------------------------------------------------
 Center     Atomic      Atomic             Coordinates (Angstroms)
 Number     Number       Type             X           Y           Z
 ---------------------------------------------------------------------
      1          8           0       -0.608898    0.644940    0.003069
      2          6           0        1.752314   -0.083297   -0.138848
      3          6           0       -0.145756   -1.735255   -0.404497
      4          6           0        1.225563   -1.467937    0.236070
      5          6           0       -0.782246   -0.435620   -0.943676
      6          6           0        0.755489    1.012053    0.278319
      7          1           0        1.086934   -1.494154    1.327969
      8          1           0        0.834282    1.120121    1.368528
      9          1           0        1.906944   -0.054902   -1.229866
     10          6           0        1.056382    2.359315   -0.390110
     11          1           0        0.985158    2.259745   -1.477906
     12          1           0        0.323183    3.111969   -0.073798
     13          1           0       -0.000413   -2.423593   -1.250592
     14          8           0        2.399387    2.786924   -0.119940
     15          1           0        2.419397    3.149698    0.779923
     16          8           0       -1.002335   -2.304518    0.574732
     17          1           0       -1.888738   -2.255541    0.172797
     18          8           0        2.141062   -2.466488   -0.181862
     19          1           0        3.009336   -2.181753    0.151358
     20          8           0        2.997921    0.087708    0.524129
     21          1           0        3.319450    0.968397    0.255550
     22          1           0       -0.310887   -0.129952   -1.891769
     23          8           0       -2.134283   -0.672695   -1.095955
     24          1           0       -2.659404    0.174850   -1.097160
     25          8           0       -3.750698    1.387598   -0.532171
     26          1           0       -3.555178    1.168470    0.414599
     27          1           0       -4.667578    1.105449   -0.670686
     28          8           0       -2.696573    0.507434    1.845801
     29          1           0       -1.844597    0.570913    1.361445
     30          1           0       -2.810857   -0.452231    1.932333
 ---------------------------------------------------------------------
                    Distance matrix (angstroms):
                    1          2          3          4          5
     1  O    0.000000
     2  C    2.475034   0.000000
     3  C    2.458849   2.530257   0.000000
     4  C    2.807809   1.528156   1.536977   0.000000
     5  C    1.447061   2.682512   1.544307   2.547308   0.000000
     6  C    1.439475   1.538662   2.970888   2.524501   2.440012
     7  H    3.034293   2.141214   2.139881   1.100975   3.126451
     8  H    2.042803   2.136160   3.501037   2.851948   3.221766
     9  H    2.887797   1.102287   2.778200   2.147073   2.731042
    10  C    2.422154   2.552216   4.267416   3.881827   3.390966
    11  H    2.709594   2.805611   4.288496   4.109882   3.267126
    12  H    2.638355   3.500910   4.881070   4.678232   3.816287
    13  H    3.370136   3.128101   1.100369   2.150921   2.158124
    14  O    3.694997   2.942317   5.197001   4.428143   4.602838
    15  H    4.005981   3.426572   5.643192   4.800372   5.106448
    16  O    3.029999   3.609862   1.420098   2.403765   2.418012
    17  H    3.174836   4.251237   1.908390   3.212972   2.404776
    18  O    4.156617   2.415072   2.411183   1.417713   3.640126
    19  H    4.593888   2.463299   3.234647   1.923163   4.315574
    20  O    3.686619   1.421379   3.750765   2.375766   4.088763
    21  H    3.949720   1.928088   4.444439   3.212548   4.498145
    22  H    2.068739   2.707713   2.194594   2.945944   1.102040
    23  O    2.295825   4.045871   2.358259   3.700711   1.381085
    24  H    2.374039   4.521975   3.232137   4.423711   1.979887
    25  O    3.272450   5.709762   4.771176   5.788562   3.507872
    26  H    3.020596   5.481121   4.552658   5.462417   3.479535
    27  H    4.139915   6.550647   5.346712   6.494123   4.188701
    28  O    2.788001   4.907177   4.074329   4.677229   3.512147
    29  H    1.837829   3.951789   3.364970   3.853474   2.730436
    30  H    3.126414   5.024782   3.769574   4.494625   3.519512
                    6          7          8          9         10
     6  C    0.000000
     7  H    2.737278   0.000000
     8  H    1.098382   2.626768   0.000000
     9  H    2.176893   3.047357   3.046791   0.000000
    10  C    1.533770   4.219236   2.162808   2.693898   0.000000
    11  H    2.166521   4.687756   3.069804   2.503758   1.094664
    12  H    2.172676   4.874898   2.511769   3.724763   1.097325
    13  H    3.835704   2.948755   4.484910   3.041240   4.973274
    14  O    2.451770   4.706018   2.728245   3.090374   1.435096
    15  H    2.754945   4.862219   2.641634   3.817240   1.962521
    16  O    3.765295   2.364127   3.966285   4.096492   5.188504
    17  H    4.204787   3.281578   4.498855   4.606242   5.503407
    18  O    3.772510   2.082356   4.120091   2.639862   4.950583
    19  H    3.911054   2.356445   4.136996   2.765239   4.972777
    20  O    2.437896   2.607741   2.541696   2.070524   3.124996
    21  H    2.564433   3.492615   2.727233   2.291021   2.733679
    22  H    2.674064   3.765855   3.674729   2.315712   3.212610
    23  O    3.616322   4.114175   4.254438   4.090368   4.457763
    24  H    3.775493   4.764648   4.379383   4.574049   4.367937
    25  O    4.593871   5.930203   4.970538   5.880178   4.906367
    26  H    4.315656   5.428905   4.492179   5.834010   4.830337
    27  H    5.506268   6.623214   5.867629   6.699510   5.866398
    28  O    3.824705   4.311546   3.615260   5.564918   4.744832
    29  H    2.851002   3.586014   2.734606   4.602238   3.831711
    30  H    4.195082   4.079662   4.009639   5.693419   5.315456
                   11         12         13         14         15
    11  H    0.000000
    12  H    1.770881   0.000000
    13  H    4.791313   5.668510   0.000000
    14  O    2.030279   2.102000   5.846957   0.000000
    15  H    2.819016   2.263708   6.406250   0.970442   0.000000
    16  O    5.384789   5.613904   2.085626   6.162553   6.441957
    17  H    5.601063   5.810642   2.370664   6.625719   6.938676
    18  O    5.035189   5.868181   2.393729   5.260124   5.704739
    19  H    5.145747   5.940506   3.329045   5.013322   5.400693
    20  O    3.574508   4.081408   4.294913   2.838809   3.126644
    21  H    3.181410   3.698782   4.979513   2.072330   2.417258
    22  H    2.749849   3.770560   2.401727   4.358111   5.034729
    23  O    4.298372   4.626838   2.764589   5.785822   6.234229
    24  H    4.215992   4.309265   3.720978   5.776613   6.177975
    25  O    4.907483   4.447479   5.394993   6.320727   6.549554
    26  H    5.038562   4.365478   5.320915   6.193703   6.305099
    27  H    5.825584   5.412032   5.879869   7.285099   7.517209
    28  O    5.260491   4.425764   5.044586   5.918531   5.855835
    29  H    4.349895   3.635403   4.380733   5.011647   5.016966
    30  H    5.778779   5.152697   4.681440   6.469203   6.454262
                   16         17         18         19         20
    16  O    0.000000
    17  H    0.974506   0.000000
    18  O    3.237223   4.050872   0.000000
    19  H    4.035817   4.898676   0.972630   0.000000
    20  O    4.661260   5.430808   2.785058   2.299900   0.000000
    21  H    5.430623   6.125833   3.657644   3.167092   0.975258
    22  H    3.360129   3.357107   3.794106   4.405467   4.102701
    23  O    2.595255   2.043385   4.725657   5.503622   5.435292
    24  H    3.418825   2.848423   5.555080   6.264742   5.885703
    25  O    4.733968   4.151667   7.049081   7.674995   6.953369
    26  H    4.313270   3.815671   6.783497   7.374695   6.642525
    27  H    5.158774   4.441809   7.704237   8.391452   7.824529
    28  O    3.520388   3.329500   6.029788   6.531482   5.860908
    29  H    3.097809   3.066541   5.243384   5.709829   4.938073
    30  H    2.923149   2.682946   5.748788   6.327540   6.001373
                   21         22         23         24         25
    21  H    0.000000
    22  H    4.358520   0.000000
    23  O    5.853456   2.062198   0.000000
    24  H    6.181119   2.497967   0.997039   0.000000
    25  O    7.126235   3.997970   2.678705   1.726526   0.000000
    26  H    6.879377   4.186963   2.773195   2.018689   0.991272
    27  H    8.041723   4.690204   3.124138   2.254031   0.969259
    28  O    6.239704   4.479641   3.219131   2.961927   2.746019
    29  H    5.296071   3.664271   2.769350   2.620213   2.808199
    30  H    6.512330   4.580117   3.110770   3.097417   3.215906
                   26         27         28         29         30
    26  H    0.000000
    27  H    1.555394   0.000000
    28  O    1.795135   3.251952   0.000000
    29  H    2.044426   3.519163   0.982086   0.000000
    30  H    2.341837   3.556612   0.970313   1.518682   0.000000
 Symmetry turned off by external request.
 Stoichiometry    C6H16O8
 Framework group  C1[X(C6H16O8)]
 Deg. of freedom    84
 Full point group                 C1      NOp   1
 Rotational constants (GHZ):      0.7509217      0.4843179      0.3449713
 Standard basis: 6-31G(d) (6D, 7F)
   242 basis functions,   456 primitive gaussians,   242 cartesian basis functions
    58 alpha electrons       58 beta electrons
       nuclear repulsion energy      1100.7444466802 Hartrees.
 NAtoms=   30 NActive=   30 NUniq=   30 SFac= 1.00D+00 NAtFMM=   60 NAOKFM=F Big=F
 Integral buffers will be    131072 words long.
 Raffenetti 2 integral format.
 Two-electron integral symmetry is turned off.
 One-electron integrals computed using PRISM.
 NBasis=   242 RedAO= T EigKep=  1.24D-03  NBF=   242
 NBsUse=   242 1.00D-06 EigRej= -1.00D+00 NBFU=   242
 Initial guess from the checkpoint file:  "/scratch/10502075.yak.local/Gau-6771.chk"
 B after Tr=    -0.000076    0.000064   -0.000013
         Rot=    1.000000   -0.000088   -0.000023    0.000097 Ang=  -0.02 deg.
 ExpMin= 1.61D-01 ExpMax= 5.48D+03 ExpMxC= 8.25D+02 IAcc=1 IRadAn=         1 AccDes= 0.00D+00
 Harris functional with IExCor=  402 and IRadAn=       1 diagonalized for initial guess.
 HarFok:  IExCor=  402 AccDes= 0.00D+00 IRadAn=         1 IDoV= 1 UseB2=F ITyADJ=14
 ICtDFT=  3500011 ScaDFX=  1.000000  1.000000  1.000000  1.000000
 FoFCou: FMM=F IPFlag=           0 FMFlag=      100000 FMFlg1=           0
         NFxFlg=           0 DoJE=T BraDBF=F KetDBF=T FulRan=T
         wScrn=  0.000000 ICntrl=     500 IOpCl=  0 I1Cent=   200000004 NGrid=           0
         NMat0=    1 NMatS0=      1 NMatT0=    0 NMatD0=    1 NMtDS0=    0 NMtDT0=    0
 Symmetry not used in FoFCou.
 Requested convergence on RMS density matrix=1.00D-08 within 128 cycles.
 Requested convergence on MAX density matrix=1.00D-06.
 Requested convergence on             energy=1.00D-06.
 No special actions if energy rises.
 Integral accuracy reduced to 1.0D-05 until final iterations.
 Initial convergence to 1.0D-05 achieved.  Increase integral accuracy.
 SCF Done:  E(RB3LYP) =  -839.998064683     A.U. after    9 cycles
            NFock=  9  Conv=0.42D-08     -V/T= 2.0085
 DoSCS=F DFT=T ScalE2(SS,OS)=  1.000000  1.000000
 Range of M.O.s used for correlation:     1   242
 NBasis=   242 NAE=    58 NBE=    58 NFC=     0 NFV=     0
 NROrb=    242 NOA=    58 NOB=    58 NVA=   184 NVB=   184
 Symmetrizing basis deriv contribution to polar:
 IMax=3 JMax=2 DiffMx= 0.00D+00
 Calling FoFJK, ICntrl=      2147 FMM=F ISym2X=0 I1Cent= 0 IOpClX= 0 NMat=1 NMatS=1 NMatT=0.
 -------------------------------------------------------------------
 Center     Atomic                   Forces (Hartrees/Bohr)
 Number     Number              X              Y              Z
 -------------------------------------------------------------------
      1        8           0.000001322    0.000004866   -0.000004497
      2        6          -0.000000444   -0.000002391   -0.000000070
      3        6          -0.000004144    0.000002301   -0.000002242
      4        6          -0.000004282   -0.000001016   -0.000000874
      5        6          -0.000000302    0.000003956   -0.000003633
      6        6           0.000001419    0.000000016   -0.000001523
      7        1          -0.000001007   -0.000001418   -0.000000612
      8        1           0.000000846   -0.000001270    0.000000744
      9        1          -0.000000262   -0.000000619   -0.000001052
     10        6           0.000006022   -0.000000667   -0.000000305
     11        1           0.000001269    0.000000178    0.000000449
     12        1           0.000001760    0.000000152    0.000001607
     13        1          -0.000001839    0.000000483   -0.000001911
     14        8           0.000008181   -0.000004936    0.000001433
     15        1           0.000002193   -0.000001905    0.000001720
     16        8          -0.000009081    0.000006628   -0.000002973
     17        1          -0.000002161    0.000001341   -0.000001497
     18        8          -0.000007367   -0.000004591    0.000000670
     19        1          -0.000001548   -0.000002193   -0.000001939
     20        8          -0.000000884   -0.000006650    0.000002328
     21        1           0.000000600   -0.000002361   -0.000000294
     22        1          -0.000000273    0.000001334   -0.000000681
     23        8          -0.000000196    0.000007458   -0.000007744
     24        1          -0.000000686    0.000003306    0.000000519
     25        8          -0.000019073   -0.000002145    0.000006670
     26        1           0.000000486    0.000000670    0.000004771
     27        1           0.000017722    0.000008005    0.000005403
     28        8           0.000005480   -0.000004500    0.000006632
     29        1           0.000005453    0.000001628   -0.000002073
     30        1           0.000000797   -0.000005662    0.000000973
 -------------------------------------------------------------------
 Cartesian Forces:  Max     0.000019073 RMS     0.000004374
 IRC-IRC-IRC-IRC-IRC-IRC-IRC-IRC-IRC-IRC-IRC-IRC-IRC-IRC-IRC-IRC-IRC-IRC
 Error in corrector energy =           0.0000000327
 Magnitude of corrector gradient =     0.0000394595
 Magnitude of analytic gradient =      0.0000414926
 Magnitude of difference =             0.0000163361
 Angle between gradients (degrees)=   23.1082
 Pt  1 Step number   2 out of a maximum of  20
 Modified Bulirsch-Stoer Extrapolation Cycles:
    EPS =    0.000010000000000
 Maximum DWI energy   std dev =  0.000000027 at pt  1535
 Maximum DWI gradient std dev =  0.611926550 at pt     4
 WARNING: Bulirsch-Stoer Method is not Converging
 CORRECTOR INTEGRATION CONVERGENCE:
   Recorrection delta-x convergence threshold:    0.010000
   Delta-x Convergence NOT Met
 IRC-IRC-IRC-IRC-IRC-IRC-IRC-IRC-IRC-IRC-IRC-IRC-IRC-IRC-IRC-IRC-IRC-IRC
                          Input orientation:                          
 ---------------------------------------------------------------------
 Center     Atomic      Atomic             Coordinates (Angstroms)
 Number     Number       Type             X           Y           Z
 ---------------------------------------------------------------------
      1          8           0       -0.608748    0.645139    0.003222
      2          6           0        1.752272   -0.083680   -0.139052
      3          6           0       -0.146242   -1.735088   -0.404906
      4          6           0        1.225206   -1.468277    0.235598
      5          6           0       -0.782453   -0.435172   -0.943743
      6          6           0        0.755758    1.011818    0.278469
      7          1           0        1.086662   -1.494720    1.327500
      8          1           0        0.834668    1.119554    1.368704
      9          1           0        1.906811   -0.055077   -1.230077
     10          6           0        1.056944    2.359192   -0.389607
     11          1           0        0.985527    2.259964   -1.477421
     12          1           0        0.324013    3.111964   -0.072953
     13          1           0       -0.001175   -2.423274   -1.251173
     14          8           0        2.400105    2.786352   -0.119534
     15          1           0        2.420425    3.148615    0.780529
     16          8           0       -1.002892   -2.304340    0.574274
     17          1           0       -1.889313   -2.255024    0.172409
     18          8           0        2.140409   -2.466968   -0.182644
     19          1           0        3.008792   -2.182543    0.150549
     20          8           0        2.997981    0.086869    0.523855
     21          1           0        3.319775    0.967471    0.255318
     22          1           0       -0.311109   -0.129408   -1.891814
     23          8           0       -2.134559   -0.671899   -1.095959
     24          1           0       -2.659506    0.175761   -1.096847
     25          8           0       -3.750422    1.388585   -0.531345
     26          1           0       -3.554858    1.169101    0.415337
     27          1           0       -4.667456    1.106918   -0.669795
     28          8           0       -2.696179    0.507460    1.846210
     29          1           0       -1.844252    0.571187    1.361786
     30          1           0       -2.810351   -0.452266    1.932353
 ---------------------------------------------------------------------
                    Distance matrix (angstroms):
                    1          2          3          4          5
     1  O    0.000000
     2  C    2.475043   0.000000
     3  C    2.458853   2.530253   0.000000
     4  C    2.807830   1.528158   1.536978   0.000000
     5  C    1.447062   2.682518   1.544309   2.547321   0.000000
     6  C    1.439476   1.538662   2.970874   2.524497   2.440015
     7  H    3.034324   2.141225   2.139874   1.100974   3.126464
     8  H    2.042807   2.136141   3.500979   2.851897   3.221749
     9  H    2.887796   1.102287   2.778195   2.147073   2.731043
    10  C    2.422153   2.552232   4.267437   3.881844   3.391005
    11  H    2.709553   2.805672   4.288546   4.109946   3.267158
    12  H    2.638385   3.500920   4.881111   4.678243   3.816375
    13  H    3.370135   3.128112   1.100369   2.150934   2.158114
    14  O    3.695005   2.942305   5.196993   4.428134   4.602849
    15  H    4.005932   3.426338   5.643012   4.800123   5.106375
    16  O    3.029996   3.609860   1.420102   2.403772   2.418007
    17  H    3.174809   4.251221   1.908382   3.212972   2.404745
    18  O    4.156636   2.415080   2.411186   1.417713   3.640135
    19  H    4.593918   2.463318   3.234653   1.923171   4.315590
    20  O    3.686628   1.421381   3.750768   2.375774   4.088771
    21  H    3.949778   1.928085   4.444434   3.212550   4.498158
    22  H    2.068737   2.707731   2.194604   2.945966   1.102041
    23  O    2.295841   4.045878   2.358247   3.700713   1.381087
    24  H    2.374041   4.521997   3.232123   4.423714   1.979901
    25  O    3.272398   5.709737   4.771104   5.788500   3.507849
    26  H    3.020586   5.481099   4.552558   5.462333   3.479515
    27  H    4.139964   6.550734   5.346826   6.494215   4.188835
    28  O    2.787997   4.907080   4.074153   4.677057   3.512085
    29  H    1.837834   3.951753   3.365018   3.853477   2.730503
    30  H    3.126163   5.024351   3.769070   4.494104   3.519175
                    6          7          8          9         10
     6  C    0.000000
     7  H    2.737279   0.000000
     8  H    1.098384   2.626714   0.000000
     9  H    2.176901   3.047363   3.046787   0.000000
    10  C    1.533772   4.219240   2.162815   2.693949   0.000000
    11  H    2.166521   4.687799   3.069808   2.503868   1.094662
    12  H    2.172675   4.874879   2.511741   3.724827   1.097325
    13  H    3.835701   2.948756   4.484866   3.041252   4.973318
    14  O    2.451787   4.706020   2.728308   3.090366   1.435092
    15  H    2.754829   4.861960   2.641526   3.817064   1.962521
    16  O    3.765269   2.364121   3.966207   4.096491   5.188499
    17  H    4.204747   3.281573   4.498774   4.606223   5.503388
    18  O    3.772510   2.082351   4.120047   2.639868   4.950612
    19  H    3.911069   2.356459   4.136975   2.765249   4.972810
    20  O    2.437890   2.607760   2.541679   2.070526   3.124979
    21  H    2.564505   3.492671   2.727364   2.290954   2.733720
    22  H    2.674084   3.765876   3.674736   2.315726   3.212681
    23  O    3.616336   4.114177   4.254430   4.090370   4.457817
    24  H    3.775515   4.764634   4.379376   4.574088   4.368015
    25  O    4.593845   5.930104   4.970474   5.880193   4.906418
    26  H    4.315656   5.428784   4.492138   5.834024   4.830421
    27  H    5.506315   6.623261   5.867624   6.699637   5.866468
    28  O    3.824665   4.311342   3.615184   5.564846   4.744863
    29  H    2.850927   3.586001   2.734477   4.602221   3.831616
    30  H    4.194759   4.079126   4.009299   5.693008   5.315239
                   11         12         13         14         15
    11  H    0.000000
    12  H    1.770886   0.000000
    13  H    4.791397   5.668581   0.000000
    14  O    2.030264   2.101988   5.846961   0.000000
    15  H    2.819037   2.263784   6.406083   0.970444   0.000000
    16  O    5.384806   5.613906   2.085626   6.162541   6.441767
    17  H    5.601050   5.810644   2.370645   6.625693   6.938513
    18  O    5.035284   5.868204   2.393751   5.260114   5.704462
    19  H    5.145848   5.940521   3.329066   5.013318   5.400397
    20  O    3.574552   4.081359   4.294936   2.838770   3.126298
[...]
 ICtDFT=  3500011 ScaDFX=  1.000000  1.000000  1.000000  1.000000
 FoFCou: FMM=F IPFlag=           0 FMFlag=      100000 FMFlg1=           0
         NFxFlg=           0 DoJE=T BraDBF=F KetDBF=T FulRan=T
         wScrn=  0.000000 ICntrl=     500 IOpCl=  0 I1Cent=   200000004 NGrid=           0
         NMat0=    1 NMatS0=      1 NMatT0=    0 NMatD0=    1 NMtDS0=    0 NMtDT0=    0
 Symmetry not used in FoFCou.
 Requested convergence on RMS density matrix=1.00D-08 within 128 cycles.
 Requested convergence on MAX density matrix=1.00D-06.
 Requested convergence on             energy=1.00D-06.
 No special actions if energy rises.
 Integral accuracy reduced to 1.0D-05 until final iterations.
 Initial convergence to 1.0D-05 achieved.  Increase integral accuracy.
 SCF Done:  E(RB3LYP) =  -839.998064831     A.U. after    7 cycles
            NFock=  7  Conv=0.77D-08     -V/T= 2.0085
 DoSCS=F DFT=T ScalE2(SS,OS)=  1.000000  1.000000
 Range of M.O.s used for correlation:     1   242
 NBasis=   242 NAE=    58 NBE=    58 NFC=     0 NFV=     0
 NROrb=    242 NOA=    58 NOB=    58 NVA=   184 NVB=   184
 Symmetrizing basis deriv contribution to polar:
 IMax=3 JMax=2 DiffMx= 0.00D+00
 Calling FoFJK, ICntrl=      2147 FMM=F ISym2X=0 I1Cent= 0 IOpClX= 0 NMat=1 NMatS=1 NMatT=0.
 -------------------------------------------------------------------
 Center     Atomic                   Forces (Hartrees/Bohr)
 Number     Number              X              Y              Z
 -------------------------------------------------------------------
      1        8           0.000001896    0.000004821   -0.000003269
      2        6          -0.000000439   -0.000003104   -0.000000544
      3        6          -0.000004968    0.000002559   -0.000002980
      4        6          -0.000004631   -0.000001923   -0.000001893
      5        6          -0.000000692    0.000004626   -0.000003112
      6        6           0.000002226   -0.000000626   -0.000000659
      7        1          -0.000000444   -0.000000200   -0.000000170
      8        1           0.000000114   -0.000000161   -0.000000038
      9        1           0.000000046   -0.000000238   -0.000000034
     10        6           0.000006767   -0.000000799    0.000001034
     11        1           0.000000650    0.000000041    0.000000071
     12        1           0.000000714    0.000000079    0.000000084
     13        1          -0.000000547    0.000000188   -0.000000254
     14        8           0.000010165   -0.000006414    0.000003947
     15        1           0.000000657   -0.000000551    0.000000302
     16        8          -0.000010527    0.000006553   -0.000005314
     17        1          -0.000000589    0.000000675   -0.000000449
     18        8          -0.000009679   -0.000005631   -0.000002916
     19        1          -0.000000564   -0.000000609   -0.000000104
     20        8          -0.000000706   -0.000009290    0.000000816
     21        1           0.000000178   -0.000000653    0.000000124
     22        1           0.000000106    0.000000313   -0.000000215
     23        8          -0.000001451    0.000010917   -0.000006575
     24        1          -0.000000133    0.000000871    0.000000139
     25        8          -0.000017464    0.000001536    0.000009490
     26        1           0.000000052   -0.000000750    0.000002906
     27        1           0.000017298    0.000005413    0.000003951
     28        8           0.000010099   -0.000008724    0.000005588
     29        1           0.000000381    0.000000047    0.000000180
     30        1           0.000001486    0.000001035   -0.000000107
 -------------------------------------------------------------------
 Cartesian Forces:  Max     0.000017464 RMS     0.000004593
 IRC-IRC-IRC-IRC-IRC-IRC-IRC-IRC-IRC-IRC-IRC-IRC-IRC-IRC-IRC-IRC-IRC-IRC
 Error in corrector energy =           0.0000000000
 Magnitude of corrector gradient =     0.0000435693
 Magnitude of analytic gradient =      0.0000435693
 Magnitude of difference =             0.0000000001
 Angle between gradients (degrees)=    0.0002
 Pt  1 Step number  19 out of a maximum of  20
 Modified Bulirsch-Stoer Extrapolation Cycles:
    EPS =    0.000010000000000
 Maximum DWI energy   std dev =  0.000000020 at pt     2
 Maximum DWI gradient std dev =  0.758632774 at pt     4
 WARNING: Bulirsch-Stoer Method is not Converging
 CORRECTOR INTEGRATION CONVERGENCE:
   Recorrection delta-x convergence threshold:    0.010000
   Delta-x Convergence NOT Met
 IRC-IRC-IRC-IRC-IRC-IRC-IRC-IRC-IRC-IRC-IRC-IRC-IRC-IRC-IRC-IRC-IRC-IRC
                          Input orientation:                          
 ---------------------------------------------------------------------
 Center     Atomic      Atomic             Coordinates (Angstroms)
 Number     Number       Type             X           Y           Z
 ---------------------------------------------------------------------
      1          8           0       -0.608788    0.645033    0.003370
      2          6           0        1.752260   -0.083655   -0.139078
      3          6           0       -0.146185   -1.735149   -0.404901
      4          6           0        1.225289   -1.468296    0.235535
      5          6           0       -0.782491   -0.435241   -0.943640
      6          6           0        0.755714    1.011770    0.278557
      7          1           0        1.086807   -1.494800    1.327443
      8          1           0        0.834684    1.119456    1.368793
      9          1           0        1.906734   -0.054988   -1.230111
     10          6           0        1.056785    2.359192   -0.389477
     11          1           0        0.985262    2.260016   -1.477289
     12          1           0        0.323855    3.111918   -0.072710
     13          1           0       -0.001133   -2.423288   -1.251211
     14          8           0        2.399957    2.786393   -0.119513
     15          1           0        2.420343    3.148624    0.780562
     16          8           0       -1.002729   -2.304483    0.574316
     17          1           0       -1.889189   -2.255205    0.172537
     18          8           0        2.140521   -2.466920   -0.182804
     19          1           0        3.008913   -2.182443    0.150322
     20          8           0        2.998000    0.086926    0.523766
     21          1           0        3.319741    0.967547    0.255228
     22          1           0       -0.311219   -0.129406   -1.891724
     23          8           0       -2.134596   -0.672016   -1.095781
     24          1           0       -2.659531    0.175648   -1.096849
     25          8           0       -3.750307    1.388734   -0.531637
     26          1           0       -3.554815    1.169433    0.415101
     27          1           0       -4.667394    1.107221   -0.670055
     28          8           0       -2.696447    0.507769    1.846140
     29          1           0       -1.844438    0.571072    1.361805
     30          1           0       -2.811096   -0.451884    1.932398
 ---------------------------------------------------------------------
                    Distance matrix (angstroms):
                    1          2          3          4          5
     1  O    0.000000
     2  C    2.475040   0.000000
     3  C    2.458852   2.530254   0.000000
     4  C    2.807828   1.528157   1.536980   0.000000
     5  C    1.447064   2.682516   1.544308   2.547319   0.000000
     6  C    1.439475   1.538661   2.970875   2.524495   2.440017
     7  H    3.034321   2.141224   2.139873   1.100974   3.126462
     8  H    2.042809   2.136141   3.500981   2.851895   3.221752
     9  H    2.887794   1.102287   2.778198   2.147073   2.731041
    10  C    2.422148   2.552231   4.267435   3.881841   3.391001
    11  H    2.709524   2.805689   4.288535   4.109950   3.267131
    12  H    2.638395   3.500918   4.881121   4.678242   3.816393
    13  H    3.370135   3.128116   1.100371   2.150938   2.158112
    14  O    3.695006   2.942289   5.196982   4.428123   4.602834
    15  H    4.005949   3.426324   5.643016   4.800120   5.106379
    16  O    3.029986   3.609844   1.420097   2.403757   2.418008
    17  H    3.174811   4.251221   1.908391   3.212968   2.404767
    18  O    4.156635   2.415080   2.411191   1.417713   3.640136
    19  H    4.593907   2.463299   3.234655   1.923171   4.315578
    20  O    3.686626   1.421382   3.750770   2.375773   4.088771
    21  H    3.949784   1.928082   4.444433   3.212546   4.498156
    22  H    2.068740   2.707731   2.194604   2.945965   1.102041
    23  O    2.295830   4.045873   2.358250   3.700714   1.381085
    24  H    2.374100   4.521997   3.232158   4.423756   1.979884
    25  O    3.272379   5.709665   4.771206   5.788585   3.507786
    26  H    3.020528   5.481093   4.552775   5.462531   3.479502
    27  H    4.139976   6.550731   5.347028   6.494389   4.188855
    28  O    2.788003   4.907328   4.074519   4.677488   3.512175
    29  H    1.837838   3.951905   3.365111   3.853664   2.730472
    30  H    3.126425   5.025019   3.769813   4.494979   3.519533
                    6          7          8          9         10
     6  C    0.000000
     7  H    2.737276   0.000000
     8  H    1.098384   2.626712   0.000000
     9  H    2.176901   3.047363   3.046787   0.000000
    10  C    1.533773   4.219238   2.162819   2.693945   0.000000
    11  H    2.166519   4.687801   3.069810   2.503887   1.094662
    12  H    2.172674   4.874872   2.511728   3.724832   1.097326
    13  H    3.835705   2.948756   4.484869   3.041257   4.973317
    14  O    2.451791   4.706024   2.728335   3.090330   1.435093
    15  H    2.754840   4.861974   2.641562   3.817031   1.962520
    16  O    3.765253   2.364096   3.966187   4.096481   5.188483
    17  H    4.204744   3.281551   4.498761   4.606235   5.503388
    18  O    3.772510   2.082349   4.120044   2.639872   4.950611
    19  H    3.911055   2.356471   4.136965   2.765223   4.972789
    20  O    2.437890   2.607760   2.541678   2.070527   3.124983
    21  H    2.564515   3.492677   2.727382   2.290938   2.733732
    22  H    2.674088   3.765875   3.674741   2.315726   3.212677
    23  O    3.616328   4.114174   4.254423   4.090368   4.457801
    24  H    3.775545   4.764729   4.379464   4.574028   4.367979
    25  O    4.593771   5.930314   4.970541   5.879992   4.906131
    26  H    4.315571   5.429104   4.492185   5.833904   4.830085
    27  H    5.506275   6.623545   5.867700   6.699518   5.866206
    28  O    3.824755   4.311884   3.615371   5.565006   4.744734
    29  H    2.851040   3.586253   2.734679   4.602312   3.831639
    30  H    4.195188   4.080109   4.009797   5.693585   5.315426
                   11         12         13         14         15
    11  H    0.000000
    12  H    1.770886   0.000000
    13  H    4.791391   5.668596   0.000000
    14  O    2.030267   2.101989   5.846943   0.000000
    15  H    2.819037   2.263776   6.406079   0.970444   0.000000
    16  O    5.384779   5.613899   2.085631   6.162523   6.441765
    17  H    5.601037   5.810655   2.370668   6.625690   6.938525
    18  O    5.035300   5.868205   2.393759   5.260096   5.704446
    19  H    5.145845   5.940500   3.329067   5.013279   5.400360
    20  O    3.574584   4.081349   4.294941   2.838764   3.126279
    21  H    3.181491   3.698811   4.979491   2.072350   2.417021
    22  H    2.749902   3.770717   2.401729   4.358106   5.034682
    23  O    4.298357   4.626965   2.764557   5.785832   6.234213
    24  H    4.215904   4.309423   3.720937   5.776641   6.178056
    25  O    4.907036   4.447332   5.394961   6.320525   6.549503
    26  H    5.038136   4.365236   5.320986   6.193519   6.305019
    27  H    5.825211   5.411856   5.880155   7.284926   7.517155
    28  O    5.260279   4.425585   5.044739   5.918551   5.855862
    29  H    4.349735   3.635275   4.380847   5.011670   5.016969
    30  H    5.778642   5.152578   4.681633   6.469300   6.454327
                   16         17         18         19         20
    16  O    0.000000
    17  H    0.974507   0.000000
    18  O    3.237227   4.050883   0.000000
    19  H    4.035832   4.898693   0.972628   0.000000
    20  O    4.661247   5.430797   2.785075   2.299916   0.000000
    21  H    5.430631   6.125840   3.657594   3.167026   0.975255
    22  H    3.360133   3.357109   3.794129   4.405473   4.102721
    23  O    2.595244   2.043366   4.725657   5.503621   5.435297
    24  H    3.418894   2.848476   5.555101   6.264766   5.885738
    25  O    4.734149   4.151857   7.049086   7.674987   6.953288
    26  H    4.313535   3.815926   6.783613   7.374802   6.642515
    27  H    5.159259   4.442330   7.704519   8.391698   7.824606
    28  O    3.520650   3.329660   6.030062   6.531782   5.861101
    29  H    3.097972   3.066628   5.243579   5.710040   4.938210
    30  H    2.923474   2.683094   5.749171   6.327964   6.001679
                   21         22         23         24         25
    21  H    0.000000
    22  H    4.358507   0.000000
    23  O    5.853476   2.062196   0.000000
    24  H    6.181174   2.497890   0.997042   0.000000
    25  O    7.126158   3.997738   2.678707   1.726509   0.000000
    26  H    6.879378   4.186805   2.773214   2.018695   0.991273
    27  H    8.041765   4.690200   3.124419   2.254217   0.969256
    28  O    6.239946   4.479612   3.219078   2.961899   2.746005
    29  H    5.296268   3.664271   2.769330   2.620251   2.808207
    30  H    6.512668   4.580096   3.110624   3.097274   3.215815
                   26         27         28         29         30
    26  H    0.000000
    27  H    1.555399   0.000000
    28  O    1.795123   3.251955   0.000000
    29  H    2.044425   3.519231   0.982093   0.000000
    30  H    2.341790   3.556602   0.970319   1.518698   0.000000
 Symmetry turned off by external request.
 Stoichiometry    C6H16O8
 Framework group  C1[X(C6H16O8)]
 Deg. of freedom    84
 Full point group                 C1      NOp   1
 Rotational constants (GHZ):      0.7509142      0.4843207      0.3449675
 Standard basis: 6-31G(d) (6D, 7F)
   242 basis functions,   456 primitive gaussians,   242 cartesian basis functions
    58 alpha electrons       58 beta electrons
       nuclear repulsion energy      1100.7424753139 Hartrees.
 NAtoms=   30 NActive=   30 NUniq=   30 SFac= 1.00D+00 NAtFMM=   60 NAOKFM=F Big=F
 Integral buffers will be    131072 words long.
 Raffenetti 2 integral format.
 Two-electron integral symmetry is turned off.
 One-electron integrals computed using PRISM.
 NBasis=   242 RedAO= T EigKep=  1.24D-03  NBF=   242
 NBsUse=   242 1.00D-06 EigRej= -1.00D+00 NBFU=   242
 Initial guess from the checkpoint file:  "/scratch/10502075.yak.local/Gau-6771.chk"
 B after Tr=     0.000000   -0.000000    0.000000
         Rot=    1.000000   -0.000000   -0.000000    0.000000 Ang=   0.00 deg.
 ExpMin= 1.61D-01 ExpMax= 5.48D+03 ExpMxC= 8.25D+02 IAcc=1 IRadAn=         1 AccDes= 0.00D+00
 Harris functional with IExCor=  402 and IRadAn=       1 diagonalized for initial guess.
 HarFok:  IExCor=  402 AccDes= 0.00D+00 IRadAn=         1 IDoV= 1 UseB2=F ITyADJ=14
 ICtDFT=  3500011 ScaDFX=  1.000000  1.000000  1.000000  1.000000
 FoFCou: FMM=F IPFlag=           0 FMFlag=      100000 FMFlg1=           0
         NFxFlg=           0 DoJE=T BraDBF=F KetDBF=T FulRan=T
         wScrn=  0.000000 ICntrl=     500 IOpCl=  0 I1Cent=   200000004 NGrid=           0
         NMat0=    1 NMatS0=      1 NMatT0=    0 NMatD0=    1 NMtDS0=    0 NMtDT0=    0
 Symmetry not used in FoFCou.
 Requested convergence on RMS density matrix=1.00D-08 within 128 cycles.
 Requested convergence on MAX density matrix=1.00D-06.
 Requested convergence on             energy=1.00D-06.
 No special actions if energy rises.
 Integral accuracy reduced to 1.0D-05 until final iterations.
 Initial convergence to 1.0D-05 achieved.  Increase integral accuracy.
 SCF Done:  E(RB3LYP) =  -839.998064831     A.U. after    7 cycles
            NFock=  7  Conv=0.77D-08     -V/T= 2.0085
 DoSCS=F DFT=T ScalE2(SS,OS)=  1.000000  1.000000
 Range of M.O.s used for correlation:     1   242
 NBasis=   242 NAE=    58 NBE=    58 NFC=     0 NFV=     0
 NROrb=    242 NOA=    58 NOB=    58 NVA=   184 NVB=   184
 Symmetrizing basis deriv contribution to polar:
 IMax=3 JMax=2 DiffMx= 0.00D+00
 Calling FoFJK, ICntrl=      2147 FMM=F ISym2X=0 I1Cent= 0 IOpClX= 0 NMat=1 NMatS=1 NMatT=0.
 -------------------------------------------------------------------
 Center     Atomic                   Forces (Hartrees/Bohr)
 Number     Number              X              Y              Z
 -------------------------------------------------------------------
      1        8           0.000001896    0.000004821   -0.000003269
      2        6          -0.000000439   -0.000003104   -0.000000544
      3        6          -0.000004968    0.000002559   -0.000002980
      4        6          -0.000004631   -0.000001923   -0.000001893
      5        6          -0.000000692    0.000004626   -0.000003112
      6        6           0.000002226   -0.000000626   -0.000000659
      7        1          -0.000000444   -0.000000200   -0.000000170
      8        1           0.000000114   -0.000000161   -0.000000038
      9        1           0.000000046   -0.000000238   -0.000000034
     10        6           0.000006767   -0.000000799    0.000001034
     11        1           0.000000650    0.000000041    0.000000071
     12        1           0.000000714    0.000000079    0.000000084
     13        1          -0.000000547    0.000000188   -0.000000254
     14        8           0.000010165   -0.000006414    0.000003947
     15        1           0.000000657   -0.000000550    0.000000302
     16        8          -0.000010527    0.000006553   -0.000005314
     17        1          -0.000000589    0.000000675   -0.000000449
     18        8          -0.000009679   -0.000005631   -0.000002916
     19        1          -0.000000564   -0.000000609   -0.000000104
     20        8          -0.000000706   -0.000009290    0.000000816
     21        1           0.000000178   -0.000000653    0.000000124
     22        1           0.000000106    0.000000313   -0.000000215
     23        8          -0.000001451    0.000010917   -0.000006575
     24        1          -0.000000133    0.000000871    0.000000139
     25        8          -0.000017464    0.000001536    0.000009490
     26        1           0.000000052   -0.000000749    0.000002906
     27        1           0.000017298    0.000005413    0.000003951
     28        8           0.000010100   -0.000008724    0.000005588
     29        1           0.000000381    0.000000047    0.000000180
     30        1           0.000001486    0.000001036   -0.000000107
 -------------------------------------------------------------------
 Cartesian Forces:  Max     0.000017464 RMS     0.000004593
 IRC-IRC-IRC-IRC-IRC-IRC-IRC-IRC-IRC-IRC-IRC-IRC-IRC-IRC-IRC-IRC-IRC-IRC
 Error in corrector energy =          -0.0000000000
 Magnitude of corrector gradient =     0.0000435695
 Magnitude of analytic gradient =      0.0000435695
 Magnitude of difference =             0.0000000002
 Angle between gradients (degrees)=    0.0002
 Pt  1 Step number  20 out of a maximum of  20
 Modified Bulirsch-Stoer Extrapolation Cycles:
    EPS =    0.000010000000000
 Maximum DWI energy   std dev =  0.000000020 at pt     2
 Maximum DWI gradient std dev =  0.758640137 at pt     4
 WARNING: Bulirsch-Stoer Method is not Converging
 CORRECTOR INTEGRATION CONVERGENCE:
   Recorrection delta-x convergence threshold:    0.010000
   Delta-x Convergence NOT Met
 Maximum number of corrector steps exceded.
 Error termination via Lnk1e in /global/software/gaussian/g09.e01/l123.exe at Tue Jan 31 13:18:26 2017.
 Job cpu time:       0 days  3 hours  1 minutes  8.0 seconds.
 File lengths (MBytes):  RWF=    220 Int=      0 D2E=      0 Chk=      8 Scr=      1
