 Entering Gaussian System, Link 0=g09
 Initial command:
 /global/software/gaussian/g09.e01/l1.exe "/scratch/10502070.yak.local/Gau-16043.inp" -scrdir="/scratch/10502070.yak.local/"
 Entering Link 1 = /global/software/gaussian/g09.e01/l1.exe PID=     16044.
  
 Copyright (c) 1988,1990,1992,1993,1995,1998,2003,2009,2015,
            Gaussian, Inc.  All Rights Reserved.
  
 This is part of the Gaussian(R) 09 program.  It is based on
 the Gaussian(R) 03 system (copyright 2003, Gaussian, Inc.),
 the Gaussian(R) 98 system (copyright 1998, Gaussian, Inc.),
 the Gaussian(R) 94 system (copyright 1995, Gaussian, Inc.),
 the Gaussian 92(TM) system (copyright 1992, Gaussian, Inc.),
 the Gaussian 90(TM) system (copyright 1990, Gaussian, Inc.),
 the Gaussian 88(TM) system (copyright 1988, Gaussian, Inc.),
 the Gaussian 86(TM) system (copyright 1986, Carnegie Mellon
 University), and the Gaussian 82(TM) system (copyright 1983,
 Carnegie Mellon University). Gaussian is a federally registered
 trademark of Gaussian, Inc.
  
 This software contains proprietary and confidential information,
 including trade secrets, belonging to Gaussian, Inc.
  
 This software is provided under written license and may be
 used, copied, transmitted, or stored only in accord with that
 written license.
  
 The following legend is applicable only to US Government
 contracts under FAR:
  
                    RESTRICTED RIGHTS LEGEND
  
 Use, reproduction and disclosure by the US Government is
 subject to restrictions as set forth in subparagraphs (a)
 and (c) of the Commercial Computer Software - Restricted
 Rights clause in FAR 52.227-19.
  
 Gaussian, Inc.
 340 Quinnipiac St., Bldg. 40, Wallingford CT 06492
  
  
 ---------------------------------------------------------------
 Warning -- This program may not be used in any manner that
 competes with the business of Gaussian, Inc. or will provide
 assistance to any competitor of Gaussian, Inc.  The licensee
 of this program is prohibited from giving any competitor of
 Gaussian, Inc. access to this program.  By using this program,
 the user acknowledges that Gaussian, Inc. is engaged in the
 business of creating and licensing software in the field of
 computational chemistry and represents and warrants to the
 licensee that it is not a competitor of Gaussian, Inc. and that
 it will not use this program in any manner prohibited above.
 ---------------------------------------------------------------
  

 Cite this work as:
 Gaussian 09, Revision E.01,
 M. J. Frisch, G. W. Trucks, H. B. Schlegel, G. E. Scuseria, 
 M. A. Robb, J. R. Cheeseman, G. Scalmani, V. Barone, B. Mennucci, 
 G. A. Petersson, H. Nakatsuji, M. Caricato, X. Li, H. P. Hratchian, 
 A. F. Izmaylov, J. Bloino, G. Zheng, J. L. Sonnenberg, M. Hada, 
 M. Ehara, K. Toyota, R. Fukuda, J. Hasegawa, M. Ishida, T. Nakajima, 
 Y. Honda, O. Kitao, H. Nakai, T. Vreven, J. A. Montgomery, Jr., 
 J. E. Peralta, F. Ogliaro, M. Bearpark, J. J. Heyd, E. Brothers, 
 K. N. Kudin, V. N. Staroverov, T. Keith, R. Kobayashi, J. Normand, 
 K. Raghavachari, A. Rendell, J. C. Burant, S. S. Iyengar, J. Tomasi, 
 M. Cossi, N. Rega, J. M. Millam, M. Klene, J. E. Knox, J. B. Cross, 
 V. Bakken, C. Adamo, J. Jaramillo, R. Gomperts, R. E. Stratmann, 
 O. Yazyev, A. J. Austin, R. Cammi, C. Pomelli, J. W. Ochterski, 
 R. L. Martin, K. Morokuma, V. G. Zakrzewski, G. A. Voth, 
 P. Salvador, J. J. Dannenberg, S. Dapprich, A. D. Daniels, 
 O. Farkas, J. B. Foresman, J. V. Ortiz, J. Cioslowski, 
 and D. J. Fox, Gaussian, Inc., Wallingford CT, 2013.
 
 ******************************************
 Gaussian 09:  ES64L-G09RevE.01 30-Nov-2015
                31-Jan-2017 
 ******************************************
 %NPROCS=4
 Will use up to    4 processors via shared memory.
 --------------------------------------------------
 # b3lyp/6-31g(d) irc=(calcfc,forward,maxpoints=20)
 --------------------------------------------------
 1/10=4,14=-1,18=10,22=1,26=3,38=1,42=20,44=3/1,23;
 2/12=2,17=6,18=5,29=1,40=1/2;
 3/5=1,6=6,7=1,11=2,16=1,25=1,30=1,71=2,74=-5,140=1/1,2,3;
 4//1;
 5/5=2,38=5/2;
 8/6=4,10=90,11=11/1;
 11/6=1,8=1,9=11,15=111,16=1/1,2,10;
 10/6=1,13=1/2;
 6/7=2,8=2,9=2,10=2,28=1/1;
 7/10=1,18=20,25=1/1,2,3,16;
 1/10=4,14=-1,18=10,22=1,26=3,42=20,44=3/23(2);
 2/29=1/2;
 99/5=20/99;
 2/29=1/2;
 3/5=1,6=6,7=1,11=2,16=1,25=1,30=1,71=2,74=-5,140=1/1,2,3;
 4/5=5,16=3,69=1/1;
 5/5=2,38=5/2;
 8/6=4,10=90,11=11/1;
 11/6=1,8=1,9=11,15=111,16=1/1,2,10;
 10/6=1,13=1/2;
 7/10=1,18=20,25=1/1,2,3,16;
 1/14=-1,18=10,22=1,26=3,42=20,44=3/23(-8);
 2/29=1/2;
 6/7=2,8=2,9=2,10=2,19=2,28=1/1;
 99/5=20,9=1/99;
 ------------------------------------------
 ./4/glo_2w_beta_boat4_b3lyp_631Gd_iopt.out
 ------------------------------------------
 Symbolic Z-matrix:
 Charge =  0 Multiplicity = 1
 O                     0.4518    0.56214  -0.82635 
 C                    -1.31654  -0.09227   0.69254 
 C                     0.06218  -1.88285  -0.54468 
 C                    -0.82463  -1.55889   0.66893 
 C                     1.04557  -0.76002  -0.92015 
 C                    -0.96677   0.63426  -0.61398 
 H                    -1.71617  -2.19226   0.57225 
 H                    -1.49867   0.1571   -1.44752 
 H                    -0.76562   0.42264   1.49857 
 H                     1.34086  -0.8709   -1.9773 
 C                    -1.29662   2.13035  -0.57475 
 H                    -0.77677   2.60484   0.26347 
 H                    -0.95393   2.61072  -1.50075 
 H                     0.66177  -2.76734  -0.29712 
 O                     2.1447   -0.8449   -0.0835 
 H                     2.84448  -0.20446  -0.37259 
 O                    -2.69116   2.36798  -0.34842 
 H                    -3.17427   2.07897  -1.13946 
 O                    -0.83504  -2.14703  -1.62556 
 H                    -0.30645  -2.43431  -2.38655 
 O                    -0.08466  -1.89067   1.84081 
 H                    -0.69194  -1.79193   2.59109 
 O                    -2.71135  -0.10486   0.95203 
 H                    -3.01903   0.814     0.83357 
 O                     1.85679   1.61649   1.43766 
 H                     1.91585   0.71222   1.79345 
 H                     1.32532   1.44996   0.63043 
 O                     3.92879   1.19637  -0.32384 
 H                     4.75858   0.96482   0.12051 
 H                     3.35782   1.57822   0.38804 
 
 IRC-IRC-IRC-IRC-IRC-IRC-IRC-IRC-IRC-IRC-IRC-IRC-IRC-IRC-IRC-IRC-IRC-IRC
 ------------------------------------------------------------------------
 INPUT DATA FOR L123
 ------------------------------------------------------------------------
 GENERAL PARAMETERS:
 Rxn path following direction = Forward
 Maximum points per path      =  20
 Step size                    =   0.100 bohr
 Integration scheme           = HPC                                 
    Redo corrector integration= Yes                                 
    DWI Weight Power          =  2
    DWI will use Hessian update vectors when possible.
    Max correction cycles     =  20
 Initial Hessian              = CalcFC
 Hessian evaluation           = All updating
 Hessian updating method      = Bofill                              
 ------------------------------------------------------------------------
 IRC-IRC-IRC-IRC-IRC-IRC-IRC-IRC-IRC-IRC-IRC-IRC-IRC-IRC-IRC-IRC-IRC-IRC
                          Input orientation:                          
 ---------------------------------------------------------------------
 Center     Atomic      Atomic             Coordinates (Angstroms)
 Number     Number       Type             X           Y           Z
 ---------------------------------------------------------------------
      1          8           0        0.451800    0.562140   -0.826350
      2          6           0       -1.316540   -0.092270    0.692540
      3          6           0        0.062180   -1.882850   -0.544680
      4          6           0       -0.824630   -1.558890    0.668930
      5          6           0        1.045570   -0.760020   -0.920150
      6          6           0       -0.966770    0.634260   -0.613980
      7          1           0       -1.716170   -2.192260    0.572250
      8          1           0       -1.498670    0.157100   -1.447520
      9          1           0       -0.765620    0.422640    1.498570
     10          1           0        1.340860   -0.870900   -1.977300
     11          6           0       -1.296620    2.130350   -0.574750
     12          1           0       -0.776770    2.604840    0.263470
     13          1           0       -0.953930    2.610720   -1.500750
     14          1           0        0.661770   -2.767340   -0.297120
     15          8           0        2.144700   -0.844900   -0.083500
     16          1           0        2.844480   -0.204460   -0.372590
     17          8           0       -2.691160    2.367980   -0.348420
     18          1           0       -3.174270    2.078970   -1.139460
     19          8           0       -0.835040   -2.147030   -1.625560
     20          1           0       -0.306450   -2.434310   -2.386550
     21          8           0       -0.084660   -1.890670    1.840810
     22          1           0       -0.691940   -1.791930    2.591090
     23          8           0       -2.711350   -0.104860    0.952030
     24          1           0       -3.019030    0.814000    0.833570
     25          8           0        1.856790    1.616490    1.437660
     26          1           0        1.915850    0.712220    1.793450
     27          1           0        1.325320    1.449960    0.630430
     28          8           0        3.928790    1.196370   -0.323840
     29          1           0        4.758580    0.964820    0.120510
     30          1           0        3.357820    1.578220    0.388040
 ---------------------------------------------------------------------
                    Distance matrix (angstroms):
                    1          2          3          4          5
     1  O    0.000000
     2  C    2.421220   0.000000
     3  C    2.491810   2.576385   0.000000
     4  C    2.892042   1.547096   1.537606   0.000000
     5  C    1.452401   2.937043   1.539084   2.580895   0.000000
     6  C    1.436191   1.535311   2.720181   2.544792   2.467239
     7  H    3.773976   2.141059   2.122686   1.097883   3.450475
     8  H    2.086682   2.162224   2.722640   2.806833   2.755428
     9  H    2.628084   1.103780   3.189891   2.149010   3.244888
    10  H    2.041744   3.846568   2.170591   3.487866   1.103203
    11  C    2.362109   2.558605   4.237100   3.921735   3.736227
    12  H    2.621014   2.783856   4.636411   4.183699   4.005516
    13  H    2.574407   3.499737   4.705180   4.702114   3.961942
    14  H    3.377811   3.471187   1.096867   2.145458   2.136540
    15  O    2.323252   3.626137   2.372112   3.145291   1.383934
    16  H    2.553134   4.296647   3.253890   4.047421   1.960751
    17  O    3.656183   3.004332   5.068427   4.465338   4.906568
    18  H    3.942993   3.394358   5.150183   4.693092   5.090679
    19  O    3.103916   3.134879   1.429369   2.368692   2.440921
    20  H    3.462352   3.998278   1.957672   3.220377   2.604138
    21  O    3.663033   2.463797   2.390018   1.425109   3.190406
    22  H    4.304496   2.623635   3.226456   1.940776   4.051245
    23  O    3.689586   1.418798   3.618544   2.398762   4.248381
    24  H    3.855571   1.933827   4.320466   3.236218   4.698302
    25  O    2.865553   3.680365   4.404052   4.226582   3.444582
    26  H    3.004882   3.508212   3.954407   3.732655   3.207570
    27  H    1.916630   3.059699   3.752869   3.698235   2.714143
    28  O    3.569905   5.496099   4.947832   5.583194   3.534969
    29  H    4.427985   6.192878   5.532438   6.151594   4.224274
    30  H    3.309398   4.973218   4.869314   5.235766   3.539100
                    6          7          8          9         10
     6  C    0.000000
     7  H    3.155623   0.000000
     8  H    1.097902   3.105844   0.000000
     9  H    2.132630   2.932459   3.047510   0.000000
    10  H    3.073972   4.194238   3.066004   4.265229   0.000000
    11  C    1.532523   4.491836   2.167087   2.738045   4.234495
    12  H    2.165457   4.897957   3.072468   2.507507   4.646093
    13  H    2.166315   5.286488   2.513926   3.717402   4.197004
    14  H    3.784630   2.596367   3.813564   3.929112   2.623100
    15  O    3.485767   4.141462   4.017300   3.546768   2.057502
    16  H    3.909904   5.063951   4.488781   4.114282   2.297849
    17  O    2.459640   4.753318   2.741905   3.302033   5.422249
    18  H    2.690051   4.826946   2.568291   3.937541   5.458031
    19  O    2.962469   2.368291   2.404396   4.045765   2.546914
    20  H    3.604740   3.286396   3.003094   4.844291   2.307676
    21  O    3.630342   2.088546   4.123821   2.435619   4.201191
    22  H    4.029194   2.298918   4.556304   2.470496   5.084364
    23  O    2.458098   2.343471   2.701306   2.088738   5.058478
    24  H    2.517832   3.286842   2.818933   2.381857   5.454220
    25  O    3.625809   5.293539   4.659742   2.882017   4.256201
    26  H    3.756500   4.808212   4.740358   2.713133   4.129823
    27  H    2.732691   4.745504   3.736881   2.486178   3.490972
    28  O    4.936259   6.644649   5.639154   5.094833   3.702015
    29  H    5.781728   7.217590   6.501100   5.719248   4.410384
    30  H    4.538412   6.324225   5.382783   4.423957   3.957417
                   11         12         13         14         15
    11  C    0.000000
    12  H    1.094531   0.000000
    13  H    1.098029   1.773102   0.000000
    14  H    5.282020   5.589631   5.743060   0.000000
    15  O    4.575601   4.533881   4.852980   2.437312   0.000000
    16  H    4.758247   4.627115   4.860648   3.367235   0.991680
    17  O    1.432632   2.023710   2.098751   6.133211   5.811912
    18  H    1.961404   2.827147   2.311536   6.237905   6.160804
    19  O    4.428683   5.113912   4.760871   2.095227   3.598936
    20  H    5.009908   5.712866   5.162964   2.326817   3.720000
    21  O    4.844830   4.814211   5.673109   2.428261   3.125164
    22  H    5.076658   4.975600   6.016238   3.335523   4.012085
    23  O    3.054289   3.399881   4.059437   4.475166   5.020080
    24  H    2.585119   2.925722   3.597484   5.258588   5.500643
    25  O    3.775956   3.048146   4.186036   4.863692   2.907793
    26  H    4.235496   3.629470   4.763580   4.248592   2.449477
    27  H    2.964786   2.426353   3.329305   4.368783   2.539185
    28  O    5.314149   4.946819   5.217898   5.136646   2.721677
    29  H    6.205425   5.774963   6.162000   5.557633   3.185761
    30  H    4.784937   4.261960   4.819209   5.159653   2.750549
                   16         17         18         19         20
    16  H    0.000000
    17  O    6.104207   0.000000
    18  H    6.482862   0.970910   0.000000
    19  O    4.345386   5.045947   4.854623   0.000000
    20  H    4.353921   5.736097   5.490840   0.970074   0.000000
    21  O    4.040087   5.451850   5.846857   3.555912   4.267940
    22  H    4.879521   5.471970   5.921388   4.233995   5.033702
    23  O    5.712424   2.794014   3.059042   3.786155   4.728213
    24  H    6.072300   1.979761   2.348850   4.425475   5.317780
    25  O    2.751072   4.943548   5.671596   5.549175   5.976050
    26  H    2.528712   5.343565   6.031525   5.237589   5.684335
    27  H    2.459878   4.234740   4.875908   4.763925   5.181930
    28  O    1.772126   6.722872   7.204004   5.963797   5.947593
    29  H    2.296550   7.595221   8.109190   6.634829   6.594995
    30  H    2.005000   6.144612   6.726976   5.959207   6.101280
                   21         22         23         24         25
    21  O    0.000000
    22  H    0.970288   0.000000
    23  O    3.298264   3.100119   0.000000
    24  H    4.115860   3.910894   0.976219   0.000000
    25  O    4.028887   4.409507   4.905791   4.978206   0.000000
    26  H    3.283187   3.702373   4.773530   5.028396   0.973539
    27  H    3.822679   4.292246   4.337695   4.395348   0.980721
    28  O    5.506660   6.227190   6.885674   7.053936   2.751830
    29  H    5.879645   6.588748   7.591804   7.811685   3.252682
    30  H    5.098471   5.710683   6.323422   6.437915   1.832009
                   26         27         28         29         30
    26  H    0.000000
    27  H    1.498533   0.000000
    28  O    2.961291   2.784420   0.000000
    29  H    3.308119   3.504662   0.969337   0.000000
    30  H    2.191897   2.050917   0.989237   1.552405   0.000000
 Symmetry turned off by external request.
 Stoichiometry    C6H16O8
 Framework group  C1[X(C6H16O8)]
 Deg. of freedom    84
 Full point group                 C1      NOp   1
 Rotational constants (GHZ):      0.7127812      0.5074579      0.4004948
 Standard basis: 6-31G(d) (6D, 7F)
   242 basis functions,   456 primitive gaussians,   242 cartesian basis functions
    58 alpha electrons       58 beta electrons
       nuclear repulsion energy      1113.0809686159 Hartrees.
 NAtoms=   30 NActive=   30 NUniq=   30 SFac= 1.00D+00 NAtFMM=   60 NAOKFM=F Big=F
 Integral buffers will be    131072 words long.
 Raffenetti 2 integral format.
 Two-electron integral symmetry is turned off.
 One-electron integrals computed using PRISM.
 NBasis=   242 RedAO= T EigKep=  1.33D-03  NBF=   242
 NBsUse=   242 1.00D-06 EigRej= -1.00D+00 NBFU=   242
 ExpMin= 1.61D-01 ExpMax= 5.48D+03 ExpMxC= 8.25D+02 IAcc=1 IRadAn=         1 AccDes= 0.00D+00
 Harris functional with IExCor=  402 and IRadAn=       1 diagonalized for initial guess.
 HarFok:  IExCor=  402 AccDes= 0.00D+00 IRadAn=         1 IDoV= 1 UseB2=F ITyADJ=14
 ICtDFT=  3500011 ScaDFX=  1.000000  1.000000  1.000000  1.000000
 FoFCou: FMM=F IPFlag=           0 FMFlag=      100000 FMFlg1=           0
         NFxFlg=           0 DoJE=T BraDBF=F KetDBF=T FulRan=T
         wScrn=  0.000000 ICntrl=     500 IOpCl=  0 I1Cent=   200000004 NGrid=           0
         NMat0=    1 NMatS0=      1 NMatT0=    0 NMatD0=    1 NMtDS0=    0 NMtDT0=    0
 Symmetry not used in FoFCou.
 Requested convergence on RMS density matrix=1.00D-08 within 128 cycles.
 Requested convergence on MAX density matrix=1.00D-06.
 Requested convergence on             energy=1.00D-06.
 No special actions if energy rises.
 Integral accuracy reduced to 1.0D-05 until final iterations.
 Initial convergence to 1.0D-05 achieved.  Increase integral accuracy.
 SCF Done:  E(RB3LYP) =  -839.990558885     A.U. after   14 cycles
            NFock= 14  Conv=0.44D-08     -V/T= 2.0085
 DoSCS=F DFT=T ScalE2(SS,OS)=  1.000000  1.000000
 Range of M.O.s used for correlation:     1   242
 NBasis=   242 NAE=    58 NBE=    58 NFC=     0 NFV=     0
 NROrb=    242 NOA=    58 NOB=    58 NVA=   184 NVB=   184
 Symmetrizing basis deriv contribution to polar:
 IMax=3 JMax=2 DiffMx= 0.00D+00
 G2DrvN: will do    31 centers at a time, making    1 passes.
 Calling FoFCou, ICntrl=  3107 FMM=F I1Cent=   0 AccDes= 0.00D+00.
 End of G2Drv F.D. properties file   721 does not exist.
 End of G2Drv F.D. properties file   722 does not exist.
 End of G2Drv F.D. properties file   788 does not exist.
          IDoAtm=111111111111111111111111111111
          Differentiating once with respect to nuclear coordinates.
          There are    93 degrees of freedom in the 1st order CPHF.  IDoFFX=6 NUNeed=     0.
     87 vectors produced by pass  0 Test12= 1.15D-14 1.08D-09 XBig12= 1.09D-01 8.64D-02.
 AX will form    87 AO Fock derivatives at one time.
     87 vectors produced by pass  1 Test12= 1.15D-14 1.08D-09 XBig12= 1.32D-02 1.10D-02.
     87 vectors produced by pass  2 Test12= 1.15D-14 1.08D-09 XBig12= 1.44D-04 1.83D-03.
     87 vectors produced by pass  3 Test12= 1.15D-14 1.08D-09 XBig12= 3.82D-07 1.04D-04.
     87 vectors produced by pass  4 Test12= 1.15D-14 1.08D-09 XBig12= 5.51D-10 2.77D-06.
     63 vectors produced by pass  5 Test12= 1.15D-14 1.08D-09 XBig12= 4.65D-13 6.60D-08.
      1 vectors produced by pass  6 Test12= 1.15D-14 1.08D-09 XBig12= 3.31D-16 1.50D-09.
 InvSVY:  IOpt=1 It=  1 EMax= 4.72D-16
 Solved reduced A of dimension   499 with    93 vectors.
 End of Minotr F.D. properties file   721 does not exist.
 End of Minotr F.D. properties file   722 does not exist.
 End of Minotr F.D. properties file   788 does not exist.

 **********************************************************************

            Population analysis using the SCF density.

 **********************************************************************

 Alpha  occ. eigenvalues --  -19.17679 -19.16976 -19.16111 -19.14840 -19.14772
 Alpha  occ. eigenvalues --  -19.14509 -19.14436 -19.13698 -10.29246 -10.24771
 Alpha  occ. eigenvalues --  -10.24445 -10.24407 -10.23736 -10.23444  -1.07208
 Alpha  occ. eigenvalues --   -1.04575  -1.03382  -1.02262  -1.01370  -1.00871
 Alpha  occ. eigenvalues --   -1.00311  -0.99494  -0.77857  -0.76762  -0.69604
 Alpha  occ. eigenvalues --   -0.64807  -0.63259  -0.56516  -0.56158  -0.54183
 Alpha  occ. eigenvalues --   -0.53009  -0.52111  -0.51445  -0.50499  -0.49762
 Alpha  occ. eigenvalues --   -0.49439  -0.46701  -0.44849  -0.43302  -0.41464
 Alpha  occ. eigenvalues --   -0.40898  -0.40452  -0.39829  -0.38890  -0.38077
 Alpha  occ. eigenvalues --   -0.37056  -0.35964  -0.34769  -0.34400  -0.32802
 Alpha  occ. eigenvalues --   -0.31191  -0.29986  -0.29795  -0.29002  -0.28168
 Alpha  occ. eigenvalues --   -0.27571  -0.26970  -0.25048
 Alpha virt. eigenvalues --    0.04415   0.05363   0.06557   0.08333   0.09415
 Alpha virt. eigenvalues --    0.09804   0.11813   0.12800   0.13790   0.14651
 Alpha virt. eigenvalues --    0.15828   0.16061   0.16938   0.17713   0.19084
 Alpha virt. eigenvalues --    0.20573   0.20686   0.21379   0.22352   0.22926
 Alpha virt. eigenvalues --    0.24126   0.24809   0.25545   0.28369   0.30599
 Alpha virt. eigenvalues --    0.31373   0.32236   0.33926   0.51814   0.52769
 Alpha virt. eigenvalues --    0.54368   0.56217   0.56422   0.57560   0.58781
 Alpha virt. eigenvalues --    0.61415   0.62206   0.64759   0.65581   0.67679
 Alpha virt. eigenvalues --    0.68816   0.70709   0.72809   0.74796   0.76085
 Alpha virt. eigenvalues --    0.77279   0.77520   0.78936   0.79796   0.81084
 Alpha virt. eigenvalues --    0.81684   0.82441   0.83570   0.84706   0.85480
 Alpha virt. eigenvalues --    0.85585   0.87263   0.87664   0.88797   0.89519
 Alpha virt. eigenvalues --    0.90320   0.92278   0.93270   0.94247   0.94565
 Alpha virt. eigenvalues --    0.95236   0.98209   1.00027   1.01551   1.03131
 Alpha virt. eigenvalues --    1.03239   1.04403   1.06285   1.07599   1.08284
 Alpha virt. eigenvalues --    1.09535   1.10715   1.12367   1.12784   1.15376
 Alpha virt. eigenvalues --    1.15937   1.20043   1.21626   1.22689   1.24650
 Alpha virt. eigenvalues --    1.26340   1.30614   1.31880   1.35587   1.38479
 Alpha virt. eigenvalues --    1.40498   1.43108   1.44127   1.47239   1.51383
 Alpha virt. eigenvalues --    1.53816   1.53982   1.57071   1.58633   1.58980
 Alpha virt. eigenvalues --    1.60429   1.62319   1.66407   1.68788   1.69618
 Alpha virt. eigenvalues --    1.71323   1.71971   1.73123   1.73224   1.74613
 Alpha virt. eigenvalues --    1.74935   1.75838   1.77276   1.78635   1.79038
 Alpha virt. eigenvalues --    1.79413   1.81204   1.82331   1.84000   1.87018
 Alpha virt. eigenvalues --    1.88885   1.90010   1.92524   1.94644   1.96988
 Alpha virt. eigenvalues --    1.99644   1.99802   2.01787   2.03053   2.04432
 Alpha virt. eigenvalues --    2.05995   2.08178   2.09408   2.11487   2.13561
 Alpha virt. eigenvalues --    2.17309   2.18744   2.24643   2.25476   2.29435
 Alpha virt. eigenvalues --    2.29972   2.33945   2.36738   2.37010   2.39603
 Alpha virt. eigenvalues --    2.43641   2.44303   2.47448   2.48952   2.50926
 Alpha virt. eigenvalues --    2.51545   2.53329   2.54927   2.57777   2.58111
 Alpha virt. eigenvalues --    2.59879   2.61290   2.63764   2.67469   2.68158
 Alpha virt. eigenvalues --    2.72675   2.75008   2.82893   2.84652   2.88391
 Alpha virt. eigenvalues --    2.96119   2.98902   2.99238   3.04938   3.08702
 Alpha virt. eigenvalues --    3.67841   3.72856   3.75256   3.81513   3.87978
 Alpha virt. eigenvalues --    3.93919   4.01258   4.18702   4.25426   4.34133
 Alpha virt. eigenvalues --    4.44853   4.53853   4.71873   4.82419
          Condensed to atoms (all electrons):
               1          2          3          4          5          6
     1  O    8.419858  -0.033968  -0.027307  -0.005488   0.181262   0.139874
     2  C   -0.033968   5.021518  -0.029795   0.319517  -0.017415   0.284225
     3  C   -0.027307  -0.029795   5.072165   0.316883   0.281054   0.000036
     4  C   -0.005488   0.319517   0.316883   4.912916  -0.024965  -0.029892
     5  C    0.181262  -0.017415   0.281054  -0.024965   4.712198  -0.023565
     6  C    0.139874   0.284225   0.000036  -0.029892  -0.023565   5.081647
     7  H    0.000051  -0.052656  -0.045831   0.351956   0.005421   0.001836
     8  H   -0.027932  -0.053502  -0.002910  -0.009521  -0.005671   0.347398
     9  H    0.002642   0.337264   0.000519  -0.060073   0.002134  -0.051264
    10  H   -0.056253  -0.000062  -0.070833   0.004863   0.375985   0.001331
    11  C   -0.034628  -0.030527   0.000329   0.003945   0.002082   0.331400
    12  H    0.000360  -0.010309   0.000005   0.000005  -0.000173  -0.036077
    13  H    0.005527   0.005410   0.000048  -0.000153  -0.000074  -0.046053
    14  H    0.003087   0.004987   0.353958  -0.036661  -0.049649   0.000462
    15  O   -0.059403   0.000865  -0.042174   0.000950   0.258115   0.002702
    16  H    0.003437  -0.000046   0.004487  -0.000237  -0.012275  -0.000208
    17  O    0.001351   0.000618   0.000012   0.000002  -0.000033  -0.038417
    18  H   -0.000003  -0.001552  -0.000000  -0.000002  -0.000002  -0.001365
    19  O    0.000521   0.002326   0.189036  -0.044439  -0.034052  -0.006744
    20  H   -0.000413  -0.000384  -0.024929   0.007467  -0.003196   0.000395
    21  O   -0.000212  -0.043077  -0.044237   0.226254   0.002647   0.003341
    22  H   -0.000011  -0.001987   0.007344  -0.025408  -0.000174   0.000209
    23  O    0.001509   0.216090   0.002045  -0.039543   0.000237  -0.029547
    24  H    0.000065  -0.022958  -0.000227   0.005133  -0.000022  -0.009107
    25  O   -0.015872  -0.002098  -0.000038   0.000055   0.000454   0.001929
    26  H    0.000886  -0.000305  -0.000561  -0.000017   0.000068  -0.000032
    27  H    0.052974  -0.000152   0.000148  -0.000115  -0.002001  -0.005918
    28  O   -0.000133  -0.000001  -0.000021   0.000000  -0.000242   0.000011
    29  H    0.000015   0.000000  -0.000000  -0.000000  -0.000020  -0.000000
    30  H    0.000282   0.000020   0.000015  -0.000001   0.000035  -0.000034
               7          8          9         10         11         12
     1  O    0.000051  -0.027932   0.002642  -0.056253  -0.034628   0.000360
     2  C   -0.052656  -0.053502   0.337264  -0.000062  -0.030527  -0.010309
     3  C   -0.045831  -0.002910   0.000519  -0.070833   0.000329   0.000005
     4  C    0.351956  -0.009521  -0.060073   0.004863   0.003945   0.000005
     5  C    0.005421  -0.005671   0.002134   0.375985   0.002082  -0.000173
     6  C    0.001836   0.347398  -0.051264   0.001331   0.331400  -0.036077
     7  H    0.598266   0.001212   0.006532  -0.000215  -0.000249  -0.000001
     8  H    0.001212   0.609839   0.007211   0.002317  -0.046461   0.005157
     9  H    0.006532   0.007211   0.667201   0.000016  -0.013682   0.006632
    10  H   -0.000215   0.002317   0.000016   0.674430  -0.000220   0.000009
    11  C   -0.000249  -0.046461  -0.013682  -0.000220   4.935925   0.368348
    12  H   -0.000001   0.005157   0.006632   0.000009   0.368348   0.552603
    13  H    0.000006  -0.005826  -0.000037  -0.000042   0.362232  -0.037081
    14  H   -0.003224   0.000310  -0.000285   0.000581   0.000014  -0.000000
    15  O   -0.000067  -0.000178  -0.000208  -0.044407  -0.000059  -0.000013
    16  H    0.000007   0.000007  -0.000003  -0.007575   0.000009  -0.000004
    17  O    0.000001   0.000482   0.000126   0.000001   0.227429  -0.033605
    18  H    0.000001   0.005011   0.000131  -0.000000  -0.028971   0.006777
    19  O    0.005656   0.014292   0.000024   0.000438   0.000278  -0.000006
    20  H   -0.000054   0.000087   0.000012   0.008434  -0.000020   0.000000
    21  O   -0.031413  -0.000007   0.003168  -0.000048  -0.000055  -0.000009
    22  H   -0.005540   0.000009   0.000938   0.000010  -0.000001   0.000000
    23  O    0.004610   0.005727  -0.036602   0.000007  -0.000136   0.000249
    24  H    0.000008  -0.000365  -0.002643  -0.000000  -0.003744  -0.000655
    25  O   -0.000002  -0.000038   0.006392  -0.000107  -0.001056   0.002944
    26  H    0.000017   0.000012   0.002268   0.000210  -0.000006  -0.000144
    27  H    0.000003   0.000654   0.002715   0.000733  -0.001159   0.003122
    28  O   -0.000000  -0.000000   0.000004   0.000232  -0.000002   0.000002
    29  H    0.000000   0.000000  -0.000000  -0.000002   0.000000  -0.000000
    30  H    0.000000  -0.000000  -0.000062  -0.000024   0.000020  -0.000029
              13         14         15         16         17         18
     1  O    0.005527   0.003087  -0.059403   0.003437   0.001351  -0.000003
     2  C    0.005410   0.004987   0.000865  -0.000046   0.000618  -0.001552
     3  C    0.000048   0.353958  -0.042174   0.004487   0.000012  -0.000000
     4  C   -0.000153  -0.036661   0.000950  -0.000237   0.000002  -0.000002
     5  C   -0.000074  -0.049649   0.258115  -0.012275  -0.000033  -0.000002
     6  C   -0.046053   0.000462   0.002702  -0.000208  -0.038417  -0.001365
     7  H    0.000006  -0.003224  -0.000067   0.000007   0.000001   0.000001
     8  H   -0.005826   0.000310  -0.000178   0.000007   0.000482   0.005011
     9  H   -0.000037  -0.000285  -0.000208  -0.000003   0.000126   0.000131
    10  H   -0.000042   0.000581  -0.044407  -0.007575   0.000001  -0.000000
    11  C    0.362232   0.000014  -0.000059   0.000009   0.227429  -0.028971
    12  H   -0.037081  -0.000000  -0.000013  -0.000004  -0.033605   0.006777
    13  H    0.597310  -0.000001   0.000006   0.000001  -0.028138  -0.007329
    14  H   -0.000001   0.586274   0.006670  -0.000057  -0.000000  -0.000000
    15  O    0.000006   0.006670   8.356377   0.182602   0.000000  -0.000000
    16  H    0.000001  -0.000057   0.182602   0.326719  -0.000000   0.000000
    17  O   -0.028138  -0.000000   0.000000  -0.000000   8.220061   0.234549
    18  H   -0.007329  -0.000000  -0.000000   0.000000   0.234549   0.389276
    19  O    0.000002  -0.028901   0.001605  -0.000061  -0.000000  -0.000007
    20  H   -0.000000  -0.005354  -0.000108  -0.000016   0.000000   0.000000
    21  O    0.000001   0.005390   0.000643   0.000070   0.000000  -0.000000
    22  H    0.000000  -0.000149   0.000087  -0.000005   0.000000  -0.000000
    23  O   -0.000206  -0.000065  -0.000000  -0.000000  -0.015508   0.002411
    24  H    0.000722   0.000006  -0.000000   0.000000   0.049566  -0.003206
    25  O    0.000013   0.000006  -0.005372   0.003025   0.000001  -0.000000
    26  H    0.000001  -0.000010   0.015583  -0.001262  -0.000000   0.000000
    27  H   -0.000018  -0.000046   0.002497   0.000662   0.000022   0.000007
    28  O    0.000000  -0.000000  -0.027956   0.084659   0.000000  -0.000000
    29  H   -0.000000  -0.000000   0.001612  -0.003919   0.000000   0.000000
    30  H   -0.000000  -0.000001   0.004042  -0.009497  -0.000000   0.000000
              19         20         21         22         23         24
     1  O    0.000521  -0.000413  -0.000212  -0.000011   0.001509   0.000065
     2  C    0.002326  -0.000384  -0.043077  -0.001987   0.216090  -0.022958
     3  C    0.189036  -0.024929  -0.044237   0.007344   0.002045  -0.000227
     4  C   -0.044439   0.007467   0.226254  -0.025408  -0.039543   0.005133
     5  C   -0.034052  -0.003196   0.002647  -0.000174   0.000237  -0.000022
     6  C   -0.006744   0.000395   0.003341   0.000209  -0.029547  -0.009107
     7  H    0.005656  -0.000054  -0.031413  -0.005540   0.004610   0.000008
     8  H    0.014292   0.000087  -0.000007   0.000009   0.005727  -0.000365
     9  H    0.000024   0.000012   0.003168   0.000938  -0.036602  -0.002643
    10  H    0.000438   0.008434  -0.000048   0.000010   0.000007  -0.000000
    11  C    0.000278  -0.000020  -0.000055  -0.000001  -0.000136  -0.003744
    12  H   -0.000006   0.000000  -0.000009   0.000000   0.000249  -0.000655
    13  H    0.000002  -0.000000   0.000001   0.000000  -0.000206   0.000722
    14  H   -0.028901  -0.005354   0.005390  -0.000149  -0.000065   0.000006
    15  O    0.001605  -0.000108   0.000643   0.000087  -0.000000  -0.000000
    16  H   -0.000061  -0.000016   0.000070  -0.000005  -0.000000   0.000000
    17  O   -0.000000   0.000000   0.000000   0.000000  -0.015508   0.049566
    18  H   -0.000007   0.000000  -0.000000  -0.000000   0.002411  -0.003206
    19  O    8.298913   0.231205   0.001013  -0.000120  -0.000102   0.000001
    20  H    0.231205   0.390463  -0.000121   0.000010   0.000011  -0.000001
    21  O    0.001013  -0.000121   8.275045   0.234241   0.000724  -0.000124
    22  H   -0.000120   0.000010   0.234241   0.388714   0.001359  -0.000074
    23  O   -0.000102   0.000011   0.000724   0.001359   8.332050   0.221275
    24  H    0.000001  -0.000001  -0.000124  -0.000074   0.221275   0.354046
    25  O    0.000000  -0.000000  -0.000158  -0.000000   0.000004   0.000001
    26  H    0.000001   0.000000   0.002530  -0.000031   0.000002  -0.000000
    27  H   -0.000003   0.000001  -0.000046   0.000004   0.000006   0.000003
    28  O    0.000000   0.000000  -0.000000   0.000000   0.000000   0.000000
    29  H   -0.000000   0.000000   0.000000  -0.000000  -0.000000   0.000000
    30  H   -0.000000   0.000000  -0.000001   0.000000  -0.000000  -0.000000
              25         26         27         28         29         30
     1  O   -0.015872   0.000886   0.052974  -0.000133   0.000015   0.000282
     2  C   -0.002098  -0.000305  -0.000152  -0.000001   0.000000   0.000020
     3  C   -0.000038  -0.000561   0.000148  -0.000021  -0.000000   0.000015
     4  C    0.000055  -0.000017  -0.000115   0.000000  -0.000000  -0.000001
     5  C    0.000454   0.000068  -0.002001  -0.000242  -0.000020   0.000035
     6  C    0.001929  -0.000032  -0.005918   0.000011  -0.000000  -0.000034
     7  H   -0.000002   0.000017   0.000003  -0.000000   0.000000   0.000000
     8  H   -0.000038   0.000012   0.000654  -0.000000   0.000000  -0.000000
     9  H    0.006392   0.002268   0.002715   0.000004  -0.000000  -0.000062
    10  H   -0.000107   0.000210   0.000733   0.000232  -0.000002  -0.000024
    11  C   -0.001056  -0.000006  -0.001159  -0.000002   0.000000   0.000020
    12  H    0.002944  -0.000144   0.003122   0.000002  -0.000000  -0.000029
    13  H    0.000013   0.000001  -0.000018   0.000000  -0.000000  -0.000000
    14  H    0.000006  -0.000010  -0.000046  -0.000000  -0.000000  -0.000001
    15  O   -0.005372   0.015583   0.002497  -0.027956   0.001612   0.004042
    16  H    0.003025  -0.001262   0.000662   0.084659  -0.003919  -0.009497
    17  O    0.000001  -0.000000   0.000022   0.000000   0.000000  -0.000000
    18  H   -0.000000   0.000000   0.000007  -0.000000   0.000000   0.000000
    19  O    0.000000   0.000001  -0.000003   0.000000  -0.000000  -0.000000
    20  H   -0.000000   0.000000   0.000001   0.000000   0.000000   0.000000
    21  O   -0.000158   0.002530  -0.000046  -0.000000   0.000000  -0.000001
    22  H   -0.000000  -0.000031   0.000004   0.000000  -0.000000   0.000000
    23  O    0.000004   0.000002   0.000006   0.000000  -0.000000  -0.000000
    24  H    0.000001  -0.000000   0.000003   0.000000   0.000000  -0.000000
    25  O    8.330477   0.239342   0.210565  -0.026085   0.001046   0.075533
    26  H    0.239342   0.361019  -0.023305   0.002673   0.000080  -0.004843
    27  H    0.210565  -0.023305   0.329688   0.002404  -0.000106  -0.005435
    28  O   -0.026085   0.002673   0.002404   8.338961   0.238537   0.195219
    29  H    0.001046   0.000080  -0.000106   0.238537   0.378956  -0.012215
    30  H    0.075533  -0.004843  -0.005435   0.195219  -0.012215   0.338031
 Mulliken charges:
               1
     1  O   -0.552078
     2  C    0.107952
     3  C    0.060779
     4  C    0.126568
     5  C    0.351837
     6  C    0.081428
     7  H    0.163670
     8  H    0.152688
     9  H    0.118932
    10  H    0.110193
    11  C   -0.071036
    12  H    0.171895
    13  H    0.153682
    14  H    0.162659
    15  O   -0.654412
    16  H    0.429481
    17  O   -0.618521
    18  H    0.404274
    19  O   -0.630874
    20  H    0.396512
    21  O   -0.635556
    22  H    0.400573
    23  O   -0.666607
    24  H    0.412301
    25  O   -0.820960
    26  H    0.405826
    27  H    0.432095
    28  O   -0.808262
    29  H    0.396018
    30  H    0.418943
 Sum of Mulliken charges =  -0.00000
 Mulliken charges with hydrogens summed into heavy atoms:
               1
     1  O   -0.552078
     2  C    0.226883
     3  C    0.223438
     4  C    0.290237
     5  C    0.462030
     6  C    0.234117
    11  C    0.254540
    15  O   -0.224930
    17  O   -0.214246
    19  O   -0.234363
    21  O   -0.234983
    23  O   -0.254306
    25  O    0.016961
    28  O    0.006700
 APT charges:
               1
     1  O   -0.401967
     2  C   -0.097568
     3  C   -0.337772
     4  C   -0.402320
     5  C   -0.264554
     6  C   -0.267365
     7  H    0.507206
     8  H    0.374056
     9  H    0.254242
    10  H    0.441930
    11  C   -0.594502
    12  H    0.332841
    13  H    0.465691
    14  H    0.515745
    15  O   -0.670443
    16  H    0.570453
    17  O   -0.803443
    18  H    0.701639
    19  O   -0.881714
    20  H    0.760085
    21  O   -0.856886
    22  H    0.737209
    23  O   -0.755739
    24  H    0.594769
    25  O   -0.672326
    26  H    0.434876
    27  H    0.258370
    28  O   -1.158046
    29  H    0.963628
    30  H    0.251905
 Sum of APT charges =  -0.00000
 APT charges with hydrogens summed into heavy atoms:
               1
     1  O   -0.401967
     2  C    0.156673
     3  C    0.177973
     4  C    0.104886
     5  C    0.177377
     6  C    0.106691
    11  C    0.204030
    15  O   -0.099991
    17  O   -0.101804
    19  O   -0.121629
    21  O   -0.119677
    23  O   -0.160970
    25  O    0.020920
    28  O    0.057487
 Electronic spatial extent (au):  <R**2>=           3101.6117
 Charge=             -0.0000 electrons
 Dipole moment (field-independent basis, Debye):
    X=              0.2183    Y=             -0.5239    Z=             -1.8879  Tot=              1.9714
 Quadrupole moment (field-independent basis, Debye-Ang):
   XX=            -79.0295   YY=            -88.1217   ZZ=            -75.8289
   XY=             -5.1484   XZ=              5.1179   YZ=              0.1396
 Traceless Quadrupole moment (field-independent basis, Debye-Ang):
   XX=              1.9638   YY=             -7.1283   ZZ=              5.1644
   XY=             -5.1484   XZ=              5.1179   YZ=              0.1396
 Octapole moment (field-independent basis, Debye-Ang**2):
  XXX=             67.5006  YYY=            -14.0747  ZZZ=              0.2537  XYY=             -1.6016
  XXY=             11.9261  XXZ=              6.6948  XZZ=             -7.7849  YZZ=            -15.8684
  YYZ=            -18.4225  XYZ=             21.0851
 Hexadecapole moment (field-independent basis, Debye-Ang**3):
 XXXX=          -1401.3594 YYYY=          -1249.8647 ZZZZ=           -484.5833 XXXY=            -15.8172
 XXXZ=            165.0339 YYYX=             16.2515 YYYZ=              7.8627 ZZZX=             -1.7693
 ZZZY=             -0.4747 XXYY=           -554.7943 XXZZ=           -384.1164 YYZZ=           -269.3661
 XXYZ=             -3.8439 YYXZ=            -10.6362 ZZXY=            -24.2877
 N-N= 1.113080968616D+03 E-N=-4.198766927142D+03  KE= 8.328886823670D+02
  Exact polarizability:   0.000   0.000   0.000   0.000   0.000   0.000
 Approx polarizability: 139.380  -2.298 120.313   3.206   1.843 126.860
 Calling FoFJK, ICntrl=    100147 FMM=F ISym2X=0 I1Cent= 0 IOpClX= 0 NMat=1 NMatS=1 NMatT=0.
 -------------------------------------------------------------------
 Center     Atomic                   Forces (Hartrees/Bohr)
 Number     Number              X              Y              Z
 -------------------------------------------------------------------
      1        8           0.000004796   -0.000005286    0.000000094
      2        6          -0.000002671    0.000002676   -0.000007499
      3        6          -0.000002335   -0.000001617    0.000009585
      4        6           0.000000114    0.000010140   -0.000000014
      5        6           0.000000613   -0.000001898    0.000005563
      6        6           0.000006303   -0.000001632   -0.000001717
      7        1          -0.000005755   -0.000001538    0.000001428
      8        1          -0.000000448   -0.000003139   -0.000005690
      9        1          -0.000002669    0.000003287   -0.000000556
     10        1           0.000002383   -0.000004598    0.000004613
     11        6           0.000008107    0.000000893   -0.000017379
     12        1           0.000001097    0.000000694   -0.000004533
     13        1           0.000002597   -0.000003205   -0.000004539
     14        1          -0.000000746   -0.000002616    0.000006630
     15        8          -0.000002467   -0.000005003    0.000014709
     16        1           0.000001932   -0.000001007    0.000003935
     17        8           0.000000317    0.000000941   -0.000027436
     18        1           0.000004561    0.000001280   -0.000004252
     19        8           0.000005317   -0.000007330    0.000005042
     20        1           0.000001170   -0.000003635    0.000004487
     21        8          -0.000009333    0.000008333    0.000009760
     22        1          -0.000006077    0.000004991    0.000004232
     23        8          -0.000003880    0.000013070   -0.000011313
     24        1           0.000000252   -0.000000650   -0.000005614
     25        8          -0.000005126   -0.000001208   -0.000000877
     26        1          -0.000003007    0.000007128   -0.000000379
     27        1           0.000001571    0.000001049    0.000002416
     28        8           0.000001703   -0.000006753    0.000010791
     29        1           0.000002330   -0.000003020    0.000006100
     30        1          -0.000000648   -0.000000348    0.000002414
 -------------------------------------------------------------------
 Cartesian Forces:  Max     0.000027436 RMS     0.000005994
 IRC-IRC-IRC-IRC-IRC-IRC-IRC-IRC-IRC-IRC-IRC-IRC-IRC-IRC-IRC-IRC-IRC-IRC
          ******** Start new reaction path calculation ********
 Supplied step size of   0.1000 bohr.
    Integration on MW PES will use step size of   0.2532 sqrt(amu)*bohr.
 Point Number:   0          Path Number:   1
 Calculating another point on the path.
 IRC-IRC-IRC-IRC-IRC-IRC-IRC-IRC-IRC-IRC-IRC-IRC-IRC-IRC-IRC-IRC-IRC-IRC
                          Input orientation:                          
 ---------------------------------------------------------------------
 Center     Atomic      Atomic             Coordinates (Angstroms)
 Number     Number       Type             X           Y           Z
 ---------------------------------------------------------------------
      1          8           0        0.467749    0.577497   -0.824287
      2          6           0       -1.304272   -0.076326    0.689784
      3          6           0        0.076166   -1.867543   -0.545411
      4          6           0       -0.806013   -1.541183    0.670872
      5          6           0        1.058749   -0.745351   -0.925843
      6          6           0       -0.951347    0.649743   -0.616179
      7          1           0       -1.695241   -2.179049    0.582587
      8          1           0       -1.480988    0.171909   -1.450749
      9          1           0       -0.758975    0.441889    1.497567
     10          1           0        1.346030   -0.854675   -1.985498
     11          6           0       -1.282004    2.145601   -0.578316
     12          1           0       -0.763842    2.620780    0.260572
     13          1           0       -0.938104    2.625860   -1.503914
     14          1           0        0.676511   -2.751690   -0.298466
     15          8           0        2.163290   -0.833536   -0.097014
     16          1           0        2.859540   -0.188386   -0.384321
     17          8           0       -2.677134    2.382290   -0.354382
     18          1           0       -3.158440    2.094794   -1.147069
     19          8           0       -0.824859   -2.133542   -1.622611
     20          1           0       -0.299069   -2.424039   -2.384316
     21          8           0       -0.057675   -1.863620    1.840328
     22          1           0       -0.661322   -1.765225    2.593581
     23          8           0       -2.700197   -0.093446    0.942755
     24          1           0       -3.009739    0.824674    0.823462
     25          8           0        1.872045    1.616370    1.445800
     26          1           0        1.929738    0.709890    1.796282
     27          1           0        1.339919    1.455441    0.637867
     28          8           0        3.941716    1.213734   -0.323064
     29          1           0        4.771981    0.977623    0.118028
     30          1           0        3.371168    1.587140    0.393739
 ---------------------------------------------------------------------
                    Distance matrix (angstroms):
                    1          2          3          4          5
     1  O    0.000000
     2  C    2.420734   0.000000
     3  C    2.491853   2.576776   0.000000
     4  C    2.889079   1.547393   1.537561   0.000000
     5  C    1.452419   2.939679   1.539323   2.580734   0.000000
     6  C    1.436093   1.535341   2.719838   2.545148   2.466305
     7  H    3.775761   2.141447   2.123040   1.097905   3.451857
     8  H    2.086752   2.162113   2.720979   2.809191   2.750846
     9  H    2.629496   1.103815   3.194479   2.149003   3.253702
    10  H    2.042279   3.845395   2.170785   3.486959   1.103335
    11  C    2.362433   2.558424   4.236866   3.921660   3.735974
    12  H    2.620828   2.784002   4.636837   4.182351   4.007524
    13  H    2.575676   3.499743   4.705119   4.702275   3.960638
    14  H    3.376915   3.472421   1.096864   2.145418   2.136611
    15  O    2.322671   3.635437   2.371986   3.147566   1.383744
    16  H    2.549669   4.301580   3.254641   4.047193   1.961200
    17  O    3.656279   3.003303   5.067370   4.466082   4.905663
    18  H    3.944062   3.394957   5.150221   4.696717   5.089208
    19  O    3.107714   3.131955   1.429322   2.368820   2.441421
    20  H    3.468562   3.996533   1.957565   3.220342   2.605534
    21  O    3.651753   2.464178   2.389493   1.425343   3.185692
    22  H    4.294761   2.624920   3.226085   1.941118   4.047855
    23  O    3.688968   1.418765   3.615280   2.399541   4.248095
    24  H    3.856047   1.933466   4.317946   3.236815   4.698685
    25  O    2.864368   3.677740   4.396335   4.212203   3.444397
    26  H    3.003718   3.507320   3.944923   3.717286   3.207229
    27  H    1.915557   3.056264   3.746924   3.685902   2.714356
    28  O    3.567137   5.496408   4.948352   5.578388   3.537352
    29  H    4.424305   6.193429   5.530443   6.145245   4.224500
    30  H    3.306480   4.971368   4.865581   5.226093   3.539646
                    6          7          8          9         10
     6  C    0.000000
     7  H    3.161089   0.000000
     8  H    1.097885   3.115664   0.000000
     9  H    2.132634   2.929693   3.047418   0.000000
    10  H    3.068590   4.195040   3.054810   4.271283   0.000000
    11  C    1.532436   4.496783   2.167070   2.735961   4.229466
    12  H    2.165372   4.899955   3.072440   2.505542   4.644908
    13  H    2.166400   5.292816   2.513847   3.716276   4.190861
    14  H    3.784257   2.594105   3.811822   3.935136   2.625452
    15  O    3.488640   4.142527   4.015505   3.564972   2.057846
    16  H    3.908846   5.063960   4.484113   4.127033   2.301829
    17  O    2.459390   4.758975   2.742001   3.297606   5.415194
    18  H    2.690962   4.837189   2.569738   3.934924   5.449090
    19  O    2.962360   2.371188   2.403153   4.046318   2.545574
    20  H    3.605539   3.288134   3.001237   4.847068   2.308314
    21  O    3.626302   2.088788   4.123152   2.434067   4.198249
    22  H    4.027249   2.298768   4.558611   2.466198   5.081980
    23  O    2.457861   2.342947   2.699211   2.088718   5.052334
    24  H    2.517965   3.287595   2.816952   2.380522   5.448229
    25  O    3.627350   5.279762   4.660397   2.881727   4.261052
    26  H    3.758222   4.791608   4.739798   2.718498   4.134058
    27  H    2.733437   4.735481   3.737283   2.484296   3.495527
    28  O    4.934173   6.641271   5.635849   5.099699   3.712086
    29  H    5.779537   7.211474   6.496912   5.725523   4.418062
    30  H    4.536825   6.315723   5.380375   4.425846   3.965401
                   11         12         13         14         15
    11  C    0.000000
    12  H    1.094541   0.000000
    13  H    1.098020   1.773078   0.000000
    14  H    5.281813   5.590220   5.742659   0.000000
    15  O    4.580061   4.541835   4.854424   2.435243   0.000000
    16  H    4.757891   4.629925   4.857528   3.368013   0.991730
    17  O    1.432674   2.023791   2.098803   6.132521   5.816999
    18  H    1.961395   2.827050   2.310684   6.238219   6.164296
    19  O    4.428385   5.114066   4.762228   2.095132   3.598124
    20  H    5.010929   5.715036   5.165748   2.325915   3.718153
    21  O    4.839698   4.806677   5.666970   2.429430   3.122026
    22  H    5.073532   4.968951   6.012295   3.335692   4.010708
    23  O    3.055856   3.403213   4.060269   4.473147   5.028156
    24  H    2.587450   2.930340   3.598976   5.257142   5.509734
    25  O    3.784859   3.059658   4.197240   4.853011   2.909835
    26  H    4.244440   3.642153   4.773547   4.235691   2.453829
    27  H    2.971515   2.434374   3.338637   4.360823   2.541143
    28  O    5.312324   4.945977   5.215472   5.136804   2.721252
    29  H    6.204821   5.776298   6.160556   5.554648   3.183050
    30  H    4.786312   4.264323   4.821810   5.154199   2.749451
                   16         17         18         19         20
    16  H    0.000000
    17  O    6.104428   0.000000
    18  H    6.481572   0.970908   0.000000
    19  O    4.346468   5.043022   4.852892   0.000000
    20  H    4.356023   5.733814   5.488773   0.970071   0.000000
    21  O    4.033065   5.450328   5.848789   3.557158   4.268484
    22  H    4.873478   5.473195   5.926871   4.235407   5.034353
    23  O    5.716714   2.795061   3.060350   3.776239   4.718737
    24  H    6.077292   1.980937   2.349109   4.416788   5.309586
    25  O    2.753478   4.952002   5.679581   5.545293   5.975654
    26  H    2.535047   5.352154   6.039108   5.230845   5.680360
    27  H    2.460952   4.240321   4.881598   4.762018   5.183651
    28  O    1.772230   6.721285   7.201907   5.967689   5.955369
    29  H    2.295509   7.595102   8.108028   6.635796   6.599135
    30  H    2.004903   6.146048   6.728119   5.959512   6.105554
                   21         22         23         24         25
    21  O    0.000000
    22  H    0.970290   0.000000
    23  O    3.304857   3.110801   0.000000
    24  H    4.120149   3.918668   0.976212   0.000000
    25  O    3.998726   4.378417   4.907334   4.984567   0.000000
    26  H    3.251877   3.670895   4.775998   5.035672   0.973587
    27  H    3.796755   4.266436   4.337574   4.399073   0.980721
    28  O    5.490492   6.210392   6.886655   7.056105   2.752187
    29  H    5.862129   6.570568   7.593471   7.815127   3.252784
    30  H    5.075168   5.686706   6.323548   6.440652   1.831681
                   26         27         28         29         30
    26  H    0.000000
    27  H    1.498552   0.000000
    28  O    2.965390   2.784090   0.000000
    29  H    3.311580   3.503940   0.969356   0.000000
    30  H    2.194177   2.050101   0.989325   1.552355   0.000000
 Symmetry turned off by external request.
 Stoichiometry    C6H16O8
 Framework group  C1[X(C6H16O8)]
 Deg. of freedom    84
 Full point group                 C1      NOp   1
 Rotational constants (GHZ):      0.7139584      0.5070979      0.4008108
 Standard basis: 6-31G(d) (6D, 7F)
   242 basis functions,   456 primitive gaussians,   242 cartesian basis functions
    58 alpha electrons       58 beta electrons
       nuclear repulsion energy      1113.2148647645 Hartrees.
 NAtoms=   30 NActive=   30 NUniq=   30 SFac= 1.00D+00 NAtFMM=   60 NAOKFM=F Big=F
 Integral buffers will be    131072 words long.
 Raffenetti 2 integral format.
 Two-electron integral symmetry is turned off.
 One-electron integrals computed using PRISM.
 NBasis=   242 RedAO= T EigKep=  1.33D-03  NBF=   242
 NBsUse=   242 1.00D-06 EigRej= -1.00D+00 NBFU=   242
 Initial guess from the checkpoint file:  "/scratch/10502070.yak.local/Gau-16044.chk"
 B after Tr=     0.028613    0.027086   -0.003603
         Rot=    1.000000    0.000022   -0.000011    0.000014 Ang=   0.00 deg.
 ExpMin= 1.61D-01 ExpMax= 5.48D+03 ExpMxC= 8.25D+02 IAcc=1 IRadAn=         1 AccDes= 0.00D+00
 Harris functional with IExCor=  402 and IRadAn=       1 diagonalized for initial guess.
 HarFok:  IExCor=  402 AccDes= 0.00D+00 IRadAn=         1 IDoV= 1 UseB2=F ITyADJ=14
 ICtDFT=  3500011 ScaDFX=  1.000000  1.000000  1.000000  1.000000
 FoFCou: FMM=F IPFlag=           0 FMFlag=      100000 FMFlg1=           0
         NFxFlg=           0 DoJE=T BraDBF=F KetDBF=T FulRan=T
         wScrn=  0.000000 ICntrl=     500 IOpCl=  0 I1Cent=   200000004 NGrid=           0
         NMat0=    1 NMatS0=      1 NMatT0=    0 NMatD0=    1 NMtDS0=    0 NMtDT0=    0
 Symmetry not used in FoFCou.
 Requested convergence on RMS density matrix=1.00D-08 within 128 cycles.
 Requested convergence on MAX density matrix=1.00D-06.
 Requested convergence on             energy=1.00D-06.
 No special actions if energy rises.
 Integral accuracy reduced to 1.0D-05 until final iterations.
 Initial convergence to 1.0D-05 achieved.  Increase integral accuracy.
 SCF Done:  E(RB3LYP) =  -839.990561183     A.U. after    9 cycles
            NFock=  9  Conv=0.94D-08     -V/T= 2.0085
 DoSCS=F DFT=T ScalE2(SS,OS)=  1.000000  1.000000
 Range of M.O.s used for correlation:     1   242
 NBasis=   242 NAE=    58 NBE=    58 NFC=     0 NFV=     0
 NROrb=    242 NOA=    58 NOB=    58 NVA=   184 NVB=   184
 Symmetrizing basis deriv contribution to polar:
 IMax=3 JMax=2 DiffMx= 0.00D+00
 Calling FoFJK, ICntrl=      2147 FMM=F ISym2X=0 I1Cent= 0 IOpClX= 0 NMat=1 NMatS=1 NMatT=0.
 -------------------------------------------------------------------
 Center     Atomic                   Forces (Hartrees/Bohr)
 Number     Number              X              Y              Z
 -------------------------------------------------------------------
      1        8           0.000012988   -0.000018606    0.000005837
      2        6          -0.000009808    0.000000989    0.000004638
      3        6          -0.000002574   -0.000002932    0.000013900
      4        6          -0.000003392    0.000007027    0.000023580
      5        6           0.000003575    0.000003486    0.000000690
      6        6           0.000008178   -0.000000164   -0.000000484
      7        1           0.000018209    0.000014915    0.000008163
      8        1           0.000001378   -0.000002518   -0.000004145
      9        1          -0.000010178   -0.000003285   -0.000009565
     10        1          -0.000004422    0.000000244    0.000024760
     11        6           0.000006428    0.000003103   -0.000019222
     12        1           0.000000338    0.000000197   -0.000005854
     13        1           0.000002420   -0.000003371   -0.000004246
     14        1          -0.000001335   -0.000002707    0.000006203
     15        8          -0.000004667    0.000002110   -0.000037051
     16        1          -0.000007924   -0.000009139    0.000010610
     17        8          -0.000002319   -0.000000004   -0.000039005
     18        1           0.000006596    0.000002649   -0.000001635
     19        8           0.000000992   -0.000011196    0.000016946
     20        1          -0.000003885   -0.000001522    0.000013105
     21        8          -0.000009006    0.000045835   -0.000010363
     22        1           0.000000248    0.000006888   -0.000005205
     23        8           0.000003621    0.000006371   -0.000026632
     24        1           0.000001957   -0.000003056   -0.000007211
     25        8          -0.000006737   -0.000048464    0.000008956
     26        1          -0.000005239    0.000020509   -0.000006031
     27        1           0.000009543    0.000001177    0.000016188
     28        8          -0.000014257    0.000008814    0.000051528
     29        1          -0.000009448   -0.000000392   -0.000002146
     30        1           0.000018719   -0.000016958   -0.000026308
 -------------------------------------------------------------------
 Cartesian Forces:  Max     0.000051528 RMS     0.000014265
 IRC-IRC-IRC-IRC-IRC-IRC-IRC-IRC-IRC-IRC-IRC-IRC-IRC-IRC-IRC-IRC-IRC-IRC
 Pt  1 Step number   1 out of a maximum of  20
 Modified Bulirsch-Stoer Extrapolation Cycles:
    EPS =    0.000010000000000
 Maximum DWI energy   std dev =  0.000000250 at pt  1536
 Maximum DWI gradient std dev =  0.851631903 at pt     2
 WARNING: Bulirsch-Stoer Method is not Converging
 CORRECTOR INTEGRATION CONVERGENCE:
   Recorrection delta-x convergence threshold:    0.010000
   Delta-x Convergence NOT Met
 IRC-IRC-IRC-IRC-IRC-IRC-IRC-IRC-IRC-IRC-IRC-IRC-IRC-IRC-IRC-IRC-IRC-IRC
                          Input orientation:                          
 ---------------------------------------------------------------------
 Center     Atomic      Atomic             Coordinates (Angstroms)
 Number     Number       Type             X           Y           Z
 ---------------------------------------------------------------------
      1          8           0        0.468098    0.576603   -0.825205
      2          6           0       -1.304071   -0.075833    0.689391
      3          6           0        0.076230   -1.868135   -0.544214
      4          6           0       -0.807300   -1.541117    0.670900
      5          6           0        1.059353   -0.746296   -0.924121
      6          6           0       -0.950979    0.649272   -0.617050
      7          1           0       -1.697042   -2.178001    0.581145
      8          1           0       -1.480731    0.171034   -1.451329
      9          1           0       -0.757995    0.442264    1.496696
     10          1           0        1.348516   -0.856747   -1.983082
     11          6           0       -1.281196    2.145272   -0.580223
     12          1           0       -0.762939    2.620867    0.258365
     13          1           0       -0.937065    2.624749   -1.506141
     14          1           0        0.676131   -2.752281   -0.296175
     15          8           0        2.162503   -0.833482   -0.093337
     16          1           0        2.859647   -0.189533   -0.381078
     17          8           0       -2.676264    2.382597   -0.356570
     18          1           0       -3.157610    2.094631   -1.149055
     19          8           0       -0.823601   -2.134427   -1.622344
     20          1           0       -0.297005   -2.425441   -2.383282
     21          8           0       -0.061154   -1.864599    1.841357
     22          1           0       -0.665681   -1.765043    2.593743
     23          8           0       -2.699879   -0.091640    0.942976
     24          1           0       -3.008880    0.826546    0.822807
     25          8           0        1.871729    1.619701    1.443615
     26          1           0        1.929234    0.713941    1.795893
     27          1           0        1.340028    1.457208    0.635740
     28          8           0        3.942548    1.212087   -0.322536
     29          1           0        4.772365    0.976771    0.119789
     30          1           0        3.371642    1.587649    0.392768
 ---------------------------------------------------------------------
                    Distance matrix (angstroms):
                    1          2          3          4          5
     1  O    0.000000
     2  C    2.420796   0.000000
     3  C    2.491839   2.576695   0.000000
     4  C    2.889587   1.547314   1.537553   0.000000
     5  C    1.452387   2.939169   1.539280   2.580742   0.000000
     6  C    1.436102   1.535330   2.719890   2.545047   2.466442
     7  H    3.775380   2.141321   2.122956   1.097870   3.451568
     8  H    2.086733   2.162136   2.721249   2.808706   2.751630
     9  H    2.629178   1.103796   3.193617   2.148993   3.252043
    10  H    2.042133   3.845537   2.170705   3.487052   1.103273
    11  C    2.362365   2.558466   4.236902   3.921652   3.735987
    12  H    2.620800   2.784025   4.636753   4.182615   4.007095
    13  H    2.575473   3.499743   4.705112   4.702211   3.960856
    14  H    3.377072   3.472162   1.096867   2.145395   2.136622
    15  O    2.322709   3.633707   2.371990   3.147148   1.383743
    16  H    2.550238   4.300625   3.254494   4.047214   1.961107
    17  O    3.656261   3.003469   5.067559   4.465899   4.905805
    18  H    3.943989   3.395055   5.150443   4.696260   5.089620
    19  O    3.107024   3.132535   1.429325   2.368808   2.441298
    20  H    3.467745   3.997018   1.957566   3.220320   2.605453
    21  O    3.653783   2.464052   2.389527   1.425252   3.186536
    22  H    4.296274   2.624410   3.226118   1.941011   4.048328
    23  O    3.689050   1.418744   3.615861   2.399346   4.248111
    24  H    3.855878   1.933511   4.318328   3.236643   4.698522
    25  O    2.864572   3.678232   4.397759   4.214861   3.444426
    26  H    3.003986   3.507470   3.946751   3.720150   3.207408
    27  H    1.915747   3.056853   3.747985   3.688118   2.714292
    28  O    3.567677   5.496339   4.948265   5.579257   3.536946
    29  H    4.424914   6.193181   5.530649   6.146231   4.224354
    30  H    3.306999   4.971665   4.866223   5.227819   3.539517
                    6          7          8          9         10
     6  C    0.000000
     7  H    3.160024   0.000000
     8  H    1.097893   3.113793   0.000000
     9  H    2.132609   2.930159   3.047420   0.000000
    10  H    3.069497   4.194806   3.056752   4.270091   0.000000
    11  C    1.532455   4.495820   2.167085   2.736342   4.230310
    12  H    2.165387   4.899579   3.072452   2.505953   4.645011
    13  H    2.166377   5.291573   2.513821   3.716496   4.191917
    14  H    3.784310   2.594501   3.812112   3.933982   2.625035
    15  O    3.488066   4.142312   4.015762   3.561607   2.057730
    16  H    3.908982   5.063920   4.484899   4.124625   2.301110
    17  O    2.459446   4.757861   2.742045   3.298370   5.416433
    18  H    2.690969   4.835518   2.569731   3.935539   5.450817
    19  O    2.962400   2.370688   2.403375   4.046239   2.545720
    20  H    3.605706   3.287728   3.001904   4.846697   2.308398
    21  O    3.626996   2.088656   4.123200   2.434336   4.198723
    22  H    4.027345   2.298867   4.557994   2.466625   5.082256
    23  O    2.457902   2.342970   2.699632   2.088677   5.053385
    24  H    2.517851   3.287343   2.817203   2.380816   5.449164
    25  O    3.627086   5.282284   4.660292   2.881774   4.260140
    26  H    3.757939   4.794666   4.739943   2.717448   4.133394
    27  H    2.733305   4.737249   3.737216   2.484564   3.494666
    28  O    4.934583   6.641861   5.636481   5.098759   3.710322
    29  H    5.779866   7.212397   6.497602   5.724199   4.416627
    30  H    4.537107   6.317212   5.380801   4.425434   3.963934
                   11         12         13         14         15
    11  C    0.000000
    12  H    1.094536   0.000000
    13  H    1.098021   1.773081   0.000000
    14  H    5.281840   5.590094   5.742723   0.000000
    15  O    4.579203   4.540312   4.854143   2.435618   0.000000
    16  H    4.757894   4.629294   4.858083   3.367882   0.991703
    17  O    1.432675   2.023790   2.098801   6.132631   5.816023
    18  H    1.961393   2.827048   2.310704   6.238391   6.163764
    19  O    4.428457   5.114055   4.761946   2.095152   3.598213
    20  H    5.011095   5.714947   5.165605   2.325905   3.718516
    21  O    4.840621   4.808094   5.668087   2.429117   3.122643
    22  H    5.073804   4.969875   6.012735   3.335675   4.010840
    23  O    3.055580   3.402664   4.060105   4.473471   5.026632
    24  H    2.586971   2.929579   3.598604   5.257321   5.508014
    25  O    3.783263   3.057553   4.195296   4.854951   2.909446
    26  H    4.242817   3.639801   4.771822   4.238126   2.453187
    27  H    2.970322   2.432896   3.337059   4.362227   2.540724
    28  O    5.312697   4.946081   5.216049   5.136769   2.721295
    29  H    6.204919   5.775972   6.160931   5.554997   3.183366
    30  H    4.786080   4.263845   4.821452   5.155135   2.749580
                   16         17         18         19         20
    16  H    0.000000
    17  O    6.104323   0.000000
    18  H    6.481864   0.970902   0.000000
    19  O    4.346224   5.043614   4.853506   0.000000
    20  H    4.355750   5.734603   5.489757   0.970062   0.000000
    21  O    4.034370   5.450537   5.848598   3.556874   4.268225
    22  H    4.874395   5.472633   5.925819   4.235183   5.034166
    23  O    5.715857   2.794857   3.060374   3.778129   4.720638
    24  H    6.076295   1.980621   2.349127   4.418321   5.311186
    25  O    2.752964   4.950446   5.678181   5.546024   5.975928
    26  H    2.533996   5.350525   6.037797   5.232174   5.681317
    27  H    2.460674   4.239295   4.880630   4.762360   5.183564
    28  O    1.772186   6.721601   7.202379   5.966978   5.954166
    29  H    2.295566   7.595086   8.108272   6.635466   6.598403
    30  H    2.004832   6.145781   6.727955   5.959412   6.104942
                   21         22         23         24         25
    21  O    0.000000
    22  H    0.970283   0.000000
    23  O    3.303534   3.108580   0.000000
    24  H    4.119319   3.917031   0.976211   0.000000
    25  O    4.004320   4.383804   4.907028   4.983457   0.000000
    26  H    3.257696   3.676345   4.775470   5.034337   0.973554
    27  H    3.801477   4.270779   4.337531   4.398378   0.980699
    28  O    5.493457   6.213193   6.886441   7.055693   2.752041
    29  H    5.865159   6.573458   7.592995   7.814383   3.252625
    30  H    5.079421   5.690766   6.323457   6.440130   1.831679
                   26         27         28         29         30
    26  H    0.000000
    27  H    1.498521   0.000000
    28  O    2.964680   2.784150   0.000000
    29  H    3.310861   3.503993   0.969341   0.000000
    30  H    2.193779   2.050246   0.989263   1.552325   0.000000
 Symmetry turned off by external request.
 Stoichiometry    C6H16O8
 Framework group  C1[X(C6H16O8)]
 Deg. of freedom    84
 Full point group                 C1      NOp   1
 Rotational constants (GHZ):      0.7137464      0.5071681      0.4007547
 Standard basis: 6-31G(d) (6D, 7F)
   242 basis functions,   456 primitive gaussians,   242 cartesian basis functions
    58 alpha electrons       58 beta electrons
       nuclear repulsion energy      1113.1977479003 Hartrees.
 NAtoms=   30 NActive=   30 NUniq=   30 SFac= 1.00D+00 NAtFMM=   60 NAOKFM=F Big=F
 Integral buffers will be    131072 words long.
 Raffenetti 2 integral format.
 Two-electron integral symmetry is turned off.
 One-electron integrals computed using PRISM.
 NBasis=   242 RedAO= T EigKep=  1.33D-03  NBF=   242
 NBsUse=   242 1.00D-06 EigRej= -1.00D+00 NBFU=   242
 Initial guess from the checkpoint file:  "/scratch/10502070.yak.local/Gau-16044.chk"
 B after Tr=    -0.000002    0.000004   -0.000001
         Rot=    1.000000    0.000364    0.000235    0.000105 Ang=   0.05 deg.
 ExpMin= 1.61D-01 ExpMax= 5.48D+03 ExpMxC= 8.25D+02 IAcc=1 IRadAn=         1 AccDes= 0.00D+00
 Harris functional with IExCor=  402 and IRadAn=       1 diagonalized for initial guess.
 HarFok:  IExCor=  402 AccDes= 0.00D+00 IRadAn=         1 IDoV= 1 UseB2=F ITyADJ=14
 ICtDFT=  3500011 ScaDFX=  1.000000  1.000000  1.000000  1.000000
 FoFCou: FMM=F IPFlag=           0 FMFlag=      100000 FMFlg1=           0
         NFxFlg=           0 DoJE=T BraDBF=F KetDBF=T FulRan=T
         wScrn=  0.000000 ICntrl=     500 IOpCl=  0 I1Cent=   200000004 NGrid=           0
         NMat0=    1 NMatS0=      1 NMatT0=    0 NMatD0=    1 NMtDS0=    0 NMtDT0=    0
 Symmetry not used in FoFCou.
 Requested convergence on RMS density matrix=1.00D-08 within 128 cycles.
 Requested convergence on MAX density matrix=1.00D-06.
 Requested convergence on             energy=1.00D-06.
 No special actions if energy rises.
 Integral accuracy reduced to 1.0D-05 until final iterations.
 Initial convergence to 1.0D-05 achieved.  Increase integral accuracy.
 SCF Done:  E(RB3LYP) =  -839.990561339     A.U. after    9 cycles
            NFock=  9  Conv=0.31D-08     -V/T= 2.0085
 DoSCS=F DFT=T ScalE2(SS,OS)=  1.000000  1.000000
 Range of M.O.s used for correlation:     1   242
 NBasis=   242 NAE=    58 NBE=    58 NFC=     0 NFV=     0
 NROrb=    242 NOA=    58 NOB=    58 NVA=   184 NVB=   184
 Symmetrizing basis deriv contribution to polar:
 IMax=3 JMax=2 DiffMx= 0.00D+00
 Calling FoFJK, ICntrl=      2147 FMM=F ISym2X=0 I1Cent= 0 IOpClX= 0 NMat=1 NMatS=1 NMatT=0.
 -------------------------------------------------------------------
 Center     Atomic                   Forces (Hartrees/Bohr)
 Number     Number              X              Y              Z
 -------------------------------------------------------------------
      1        8           0.000002719   -0.000001593    0.000006088
      2        6          -0.000006703    0.000008666   -0.000006948
      3        6          -0.000002133   -0.000001244    0.000012489
      4        6          -0.000000883    0.000011595    0.000010239
      5        6          -0.000002662   -0.000008069    0.000002199
      6        6           0.000003245   -0.000000490   -0.000007340
      7        1          -0.000003947    0.000000164    0.000000682
      8        1           0.000001338   -0.000001126   -0.000000881
      9        1          -0.000001112    0.000002205   -0.000001618
     10        1           0.000002324   -0.000003564   -0.000001761
     11        6           0.000004683   -0.000000301   -0.000019537
     12        1           0.000000594    0.000000519   -0.000003947
     13        1           0.000001973   -0.000001570   -0.000003315
     14        1          -0.000000319   -0.000000409    0.000003932
     15        8           0.000007291   -0.000014493   -0.000001878
     16        1           0.000001970    0.000000277    0.000001382
     17        8           0.000004522    0.000002463   -0.000036878
     18        1           0.000001744   -0.000000042   -0.000004972
     19        8          -0.000006459   -0.000012752    0.000018545
     20        1           0.000000536   -0.000002156    0.000004052
     21        8           0.000014115    0.000036703    0.000016518
     22        1          -0.000004596    0.000003283    0.000002427
     23        8          -0.000013292    0.000006619   -0.000025503
     24        1           0.000000227    0.000001402   -0.000003363
     25        8          -0.000003176   -0.000017414    0.000019123
     26        1          -0.000001094   -0.000002360    0.000002562
     27        1          -0.000001952    0.000000381   -0.000003569
     28        8           0.000003185   -0.000007107    0.000009466
     29        1           0.000002352   -0.000002303    0.000004436
     30        1          -0.000004488    0.000002715    0.000007369
 -------------------------------------------------------------------
 Cartesian Forces:  Max     0.000036878 RMS     0.000008964
 IRC-IRC-IRC-IRC-IRC-IRC-IRC-IRC-IRC-IRC-IRC-IRC-IRC-IRC-IRC-IRC-IRC-IRC
 Error in corrector energy =           0.0000002273
 Magnitude of corrector gradient =     0.0000878180
 Magnitude of analytic gradient =      0.0000850365
 Magnitude of difference =             0.0000291406
 Angle between gradients (degrees)=   19.3241
 Pt  1 Step number   2 out of a maximum of  20
 Modified Bulirsch-Stoer Extrapolation Cycles:
    EPS =    0.000010000000000
 Maximum DWI energy   std dev =  0.000000203 at pt   574
 Maximum DWI gradient std dev =  0.665246957 at pt     3
 WARNING: Bulirsch-Stoer Method is not Converging
 CORRECTOR INTEGRATION CONVERGENCE:
   Recorrection delta-x convergence threshold:    0.010000
   Delta-x Convergence NOT Met
 IRC-IRC-IRC-IRC-IRC-IRC-IRC-IRC-IRC-IRC-IRC-IRC-IRC-IRC-IRC-IRC-IRC-IRC
                          Input orientation:                          
 ---------------------------------------------------------------------
 Center     Atomic      Atomic             Coordinates (Angstroms)
 Number     Number       Type             X           Y           Z
 ---------------------------------------------------------------------
      1          8           0        0.468364    0.576259   -0.825414
      2          6           0       -1.304174   -0.075475    0.689055
      3          6           0        0.076249   -1.868340   -0.543587
      4          6           0       -0.807683   -1.540850    0.671108
      5          6           0        1.059596   -0.746716   -0.923533
      6          6           0       -0.950755    0.649111   -0.617582
      7          1           0       -1.697527   -2.177569    0.581154
      8          1           0       -1.480362    0.170604   -1.451799
      9          1           0       -0.758121    0.442811    1.496254
     10          1           0        1.349216   -0.857625   -1.982318
     11          6           0       -1.280830    2.145161   -0.581391
     12          1           0       -0.762610    2.621043    0.257054
     13          1           0       -0.936535    2.624215   -1.507470
     14          1           0        0.675978   -2.752455   -0.295017
     15          8           0        2.162401   -0.833632   -0.092246
     16          1           0        2.859736   -0.189907   -0.380023
     17          8           0       -2.675900    2.382731   -0.357999
     18          1           0       -3.157155    2.094647   -1.150499
     19          8           0       -0.823208   -2.134910   -1.621965
     20          1           0       -0.296362   -2.426456   -2.382526
     21          8           0       -0.062070   -1.864207    1.841939
     22          1           0       -0.666873   -1.764243    2.594055
     23          8           0       -2.700019   -0.090965    0.942459
     24          1           0       -3.008870    0.827214    0.821832
     25          8           0        1.871421    1.620308    1.443398
     26          1           0        1.928689    0.714676    1.796048
     27          1           0        1.339972    1.457570    0.635405
     28          8           0        3.942835    1.211605   -0.321815
     29          1           0        4.772395    0.976283    0.120998
     30          1           0        3.371702    1.587603    0.393087
 ---------------------------------------------------------------------
                    Distance matrix (angstroms):
                    1          2          3          4          5
     1  O    0.000000
     2  C    2.420797   0.000000
     3  C    2.491836   2.576691   0.000000
     4  C    2.889641   1.547304   1.537553   0.000000
     5  C    1.452393   2.939117   1.539277   2.580748   0.000000
     6  C    1.436106   1.535327   2.719885   2.545019   2.466465
     7  H    3.775326   2.141301   2.122957   1.097873   3.451543
     8  H    2.086731   2.162141   2.721246   2.808613   2.751714
     9  H    2.629110   1.103795   3.193516   2.149007   3.251836
    10  H    2.042144   3.845578   2.170700   3.487073   1.103271
    11  C    2.362346   2.558476   4.236896   3.921645   3.735988
    12  H    2.620721   2.784084   4.636731   4.182682   4.006997
    13  H    2.575474   3.499744   4.705089   4.702189   3.960896
    14  H    3.377094   3.472120   1.096869   2.145374   2.136630
    15  O    2.322733   3.633507   2.371995   3.147104   1.383752
    16  H    2.550303   4.300485   3.254488   4.047207   1.961108
    17  O    3.656256   3.003453   5.067581   4.465847   4.905833
    18  H    3.944055   3.395133   5.150583   4.696287   5.089779
    19  O    3.106942   3.132637   1.429329   2.368825   2.441279
    20  H    3.467809   3.997175   1.957558   3.220315   2.605535
    21  O    3.654040   2.464047   2.389536   1.425252   3.186653
    22  H    4.296450   2.624332   3.226122   1.940994   4.048393
    23  O    3.689066   1.418745   3.615945   2.399319   4.248134
    24  H    3.855846   1.933511   4.318372   3.236614   4.698507
    25  O    2.864632   3.678195   4.397888   4.215086   3.444448
    26  H    3.003959   3.507303   3.946821   3.720298   3.207352
    27  H    1.915829   3.056896   3.748159   3.688390   2.714364
    28  O    3.567804   5.496319   4.948306   5.579366   3.536969
    29  H    4.424974   6.193025   5.530582   6.146206   4.224292
    30  H    3.307103   4.971643   4.866304   5.227980   3.539543
                    6          7          8          9         10
     6  C    0.000000
     7  H    3.159867   0.000000
     8  H    1.097893   3.113516   0.000000
     9  H    2.132598   2.930236   3.047416   0.000000
    10  H    3.069629   4.194793   3.056994   4.269950   0.000000
    11  C    1.532457   4.495681   2.167094   2.736390   4.230421
    12  H    2.165388   4.899571   3.072458   2.506060   4.644968
    13  H    2.166365   5.291370   2.513773   3.716547   4.192058
    14  H    3.784305   2.594550   3.812115   3.933829   2.624999
    15  O    3.488015   4.142304   4.015793   3.561192   2.057722
    16  H    3.908993   5.063922   4.484989   4.124275   2.301058
    17  O    2.459460   4.757685   2.742118   3.298397   5.416629
    18  H    2.691054   4.835387   2.569894   3.935636   5.451166
    19  O    2.962402   2.370652   2.403374   4.046254   2.545729
    20  H    3.605880   3.287645   3.002138   4.846736   2.308533
    21  O    3.627089   2.088658   4.123193   2.434403   4.198795
    22  H    4.027342   2.298881   4.557887   2.466694   5.082299
    23  O    2.457919   2.342957   2.699714   2.088677   5.053552
    24  H    2.517830   3.287289   2.817245   2.380857   5.449298
    25  O    3.627057   5.282493   4.660285   2.881630   4.260092
    26  H    3.757806   4.794840   4.739847   2.717120   4.133276
    27  H    2.733315   4.737466   3.737242   2.484511   3.494666
    28  O    4.934683   6.641953   5.636630   5.098569   3.710235
    29  H    5.779877   7.212379   6.497674   5.723856   4.416482
    30  H    4.537163   6.317355   5.380893   4.425264   3.963854
                   11         12         13         14         15
    11  C    0.000000
    12  H    1.094534   0.000000
    13  H    1.098024   1.773078   0.000000
    14  H    5.281832   5.590063   5.742719   0.000000
    15  O    4.579117   4.540097   4.854170   2.435663   0.000000
    16  H    4.757876   4.629115   4.858199   3.367890   0.991702
    17  O    1.432677   2.023798   2.098806   6.132633   5.815907
    18  H    1.961385   2.827038   2.310633   6.238522   6.163797
    19  O    4.428456   5.114047   4.761851   2.095164   3.598226
    20  H    5.011282   5.715070   5.165736   2.325816   3.718600
[...]
 ICtDFT=  3500011 ScaDFX=  1.000000  1.000000  1.000000  1.000000
 FoFCou: FMM=F IPFlag=           0 FMFlag=      100000 FMFlg1=           0
         NFxFlg=           0 DoJE=T BraDBF=F KetDBF=T FulRan=T
         wScrn=  0.000000 ICntrl=     500 IOpCl=  0 I1Cent=   200000004 NGrid=           0
         NMat0=    1 NMatS0=      1 NMatT0=    0 NMatD0=    1 NMtDS0=    0 NMtDT0=    0
 Symmetry not used in FoFCou.
 Requested convergence on RMS density matrix=1.00D-08 within 128 cycles.
 Requested convergence on MAX density matrix=1.00D-06.
 Requested convergence on             energy=1.00D-06.
 No special actions if energy rises.
 Integral accuracy reduced to 1.0D-05 until final iterations.
 Initial convergence to 1.0D-05 achieved.  Increase integral accuracy.
 SCF Done:  E(RB3LYP) =  -839.990561657     A.U. after    8 cycles
            NFock=  8  Conv=0.64D-08     -V/T= 2.0085
 DoSCS=F DFT=T ScalE2(SS,OS)=  1.000000  1.000000
 Range of M.O.s used for correlation:     1   242
 NBasis=   242 NAE=    58 NBE=    58 NFC=     0 NFV=     0
 NROrb=    242 NOA=    58 NOB=    58 NVA=   184 NVB=   184
 Symmetrizing basis deriv contribution to polar:
 IMax=3 JMax=2 DiffMx= 0.00D+00
 Calling FoFJK, ICntrl=      2147 FMM=F ISym2X=0 I1Cent= 0 IOpClX= 0 NMat=1 NMatS=1 NMatT=0.
 -------------------------------------------------------------------
 Center     Atomic                   Forces (Hartrees/Bohr)
 Number     Number              X              Y              Z
 -------------------------------------------------------------------
      1        8           0.000006983   -0.000006391    0.000003692
      2        6          -0.000006436    0.000008630   -0.000006247
      3        6          -0.000002324   -0.000002408    0.000013271
      4        6          -0.000001253    0.000009811    0.000010660
      5        6           0.000000116   -0.000007192    0.000004128
      6        6           0.000003825   -0.000001115   -0.000008929
      7        1           0.000000064    0.000000462    0.000001791
      8        1           0.000000793   -0.000000563   -0.000000778
      9        1          -0.000001304    0.000001438   -0.000000460
     10        1          -0.000000464   -0.000001062    0.000000258
     11        6           0.000005171   -0.000000580   -0.000021878
     12        1           0.000000131    0.000000437   -0.000001927
     13        1           0.000000859   -0.000000655   -0.000001996
     14        1          -0.000000335   -0.000000113    0.000001773
     15        8           0.000004076   -0.000010158   -0.000000388
     16        1           0.000000067   -0.000000374    0.000000107
     17        8           0.000005536    0.000002986   -0.000040758
     18        1           0.000000727    0.000000214   -0.000002809
     19        8          -0.000003291   -0.000013523    0.000020468
     20        1          -0.000000266   -0.000002044    0.000001705
     21        8           0.000004570    0.000036058    0.000016986
     22        1           0.000000488    0.000003004    0.000001136
     23        8          -0.000011599    0.000009460   -0.000025732
     24        1          -0.000000777    0.000000477   -0.000002438
     25        8          -0.000005632   -0.000016566    0.000014374
     26        1          -0.000000826   -0.000001098    0.000000854
     27        1          -0.000000129   -0.000000778    0.000000707
     28        8           0.000001521   -0.000006499    0.000019669
     29        1          -0.000000165   -0.000000982    0.000001453
     30        1          -0.000000128   -0.000000876    0.000001310
 -------------------------------------------------------------------
 Cartesian Forces:  Max     0.000040758 RMS     0.000008985
 IRC-IRC-IRC-IRC-IRC-IRC-IRC-IRC-IRC-IRC-IRC-IRC-IRC-IRC-IRC-IRC-IRC-IRC
 Error in corrector energy =          -0.0000000000
 Magnitude of corrector gradient =     0.0000852379
 Magnitude of analytic gradient =      0.0000852378
 Magnitude of difference =             0.0000000006
 Angle between gradients (degrees)=    0.0004
 Pt  1 Step number  19 out of a maximum of  20
 Modified Bulirsch-Stoer Extrapolation Cycles:
    EPS =    0.000010000000000
 Maximum DWI energy   std dev =  0.000000284 at pt     2
 Maximum DWI gradient std dev =  0.614199707 at pt     3
 WARNING: Bulirsch-Stoer Method is not Converging
 CORRECTOR INTEGRATION CONVERGENCE:
   Recorrection delta-x convergence threshold:    0.010000
   Delta-x Convergence NOT Met
 IRC-IRC-IRC-IRC-IRC-IRC-IRC-IRC-IRC-IRC-IRC-IRC-IRC-IRC-IRC-IRC-IRC-IRC
                          Input orientation:                          
 ---------------------------------------------------------------------
 Center     Atomic      Atomic             Coordinates (Angstroms)
 Number     Number       Type             X           Y           Z
 ---------------------------------------------------------------------
      1          8           0        0.468383    0.576243   -0.825532
      2          6           0       -1.304089   -0.075497    0.689032
      3          6           0        0.076318   -1.868351   -0.543615
      4          6           0       -0.807767   -1.540918    0.670985
      5          6           0        1.059699   -0.746714   -0.923410
      6          6           0       -0.950727    0.649092   -0.617616
      7          1           0       -1.697671   -2.177522    0.580777
      8          1           0       -1.480380    0.170597   -1.451811
      9          1           0       -0.757901    0.442699    1.496194
     10          1           0        1.349579   -0.857675   -1.982119
     11          6           0       -1.280782    2.145147   -0.581405
     12          1           0       -0.762535    2.621015    0.257030
     13          1           0       -0.936501    2.624200   -1.507490
     14          1           0        0.676021   -2.752476   -0.295017
     15          8           0        2.162336   -0.833540   -0.091874
     16          1           0        2.859773   -0.189939   -0.379682
     17          8           0       -2.675838    2.382746   -0.357977
     18          1           0       -3.157138    2.094537   -1.150403
     19          8           0       -0.823022   -2.134874   -1.622105
     20          1           0       -0.296078   -2.426200   -2.382681
     21          8           0       -0.062413   -1.864510    1.841914
     22          1           0       -0.667399   -1.764714    2.593907
     23          8           0       -2.699914   -0.090866    0.942575
     24          1           0       -3.008693    0.827347    0.822033
     25          8           0        1.871393    1.620697    1.443176
     26          1           0        1.928694    0.715090    1.795885
     27          1           0        1.339980    1.457880    0.635174
     28          8           0        3.942891    1.211572   -0.321840
     29          1           0        4.772464    0.976439    0.121052
     30          1           0        3.371742    1.587804    0.392929
 ---------------------------------------------------------------------
                    Distance matrix (angstroms):
                    1          2          3          4          5
     1  O    0.000000
     2  C    2.420811   0.000000
     3  C    2.491833   2.576677   0.000000
     4  C    2.889722   1.547295   1.537554   0.000000
     5  C    1.452395   2.939046   1.539269   2.580752   0.000000
     6  C    1.436109   1.535325   2.719893   2.545010   2.466495
     7  H    3.775277   2.141292   2.122942   1.097876   3.451504
     8  H    2.086732   2.162139   2.721294   2.808550   2.751848
     9  H    2.629072   1.103793   3.193383   2.148998   3.251593
    10  H    2.042137   3.845621   2.170703   3.487108   1.103272
    11  C    2.362337   2.558478   4.236899   3.921645   3.735997
    12  H    2.620723   2.784077   4.636714   4.182714   4.006941
    13  H    2.575440   3.499741   4.705090   4.702184   3.960937
    14  H    3.377119   3.472089   1.096869   2.145381   2.136625
    15  O    2.322762   3.633255   2.371998   3.147038   1.383763
    16  H    2.550404   4.300347   3.254468   4.047208   1.961098
    17  O    3.656253   3.003478   5.067608   4.465825   4.905861
    18  H    3.944003   3.395049   5.150526   4.696119   5.089789
    19  O    3.106833   3.132700   1.429332   2.368813   2.441270
    20  H    3.467532   3.997163   1.957560   3.220315   2.605432
    21  O    3.654352   2.464034   2.389563   1.425250   3.186788
    22  H    4.296818   2.624382   3.226127   1.940983   4.048544
    23  O    3.689084   1.418748   3.616031   2.399298   4.248143
    24  H    3.855850   1.933518   4.318458   3.236599   4.698516
    25  O    2.864674   3.678247   4.398078   4.215447   3.444447
    26  H    3.003933   3.507284   3.946989   3.720644   3.207271
    27  H    1.915888   3.057000   3.748359   3.688752   2.714402
    28  O    3.567851   5.496290   4.948282   5.579485   3.536887
    29  H    4.425075   6.193034   5.530678   6.146421   4.224309
    30  H    3.307174   4.971684   4.866410   5.228242   3.539530
                    6          7          8          9         10
     6  C    0.000000
     7  H    3.159717   0.000000
     8  H    1.097893   3.113244   0.000000
     9  H    2.132598   2.930309   3.047416   0.000000
    10  H    3.069792   4.194778   3.057326   4.269790   0.000000
    11  C    1.532458   4.495545   2.167093   2.736448   4.230572
    12  H    2.165388   4.899515   3.072456   2.506114   4.645008
    13  H    2.166363   5.291197   2.513776   3.716579   4.192242
    14  H    3.784315   2.594610   3.812164   3.933664   2.624931
    15  O    3.487946   4.142270   4.015856   3.560692   2.057713
    16  H    3.909027   5.063918   4.485128   4.123919   2.300948
    17  O    2.459467   4.757532   2.742115   3.298517   5.416840
    18  H    2.690989   4.835030   2.569807   3.935656   5.451405
    19  O    2.962393   2.370552   2.403397   4.046222   2.545790
    20  H    3.605751   3.287611   3.002074   4.846600   2.308443
    21  O    3.627201   2.088663   4.123216   2.434428   4.198889
    22  H    4.027482   2.298818   4.557872   2.466949   5.082414
    23  O    2.457923   2.342972   2.699761   2.088683   5.053734
    24  H    2.517854   3.287282   2.817344   2.380864   5.449505
    25  O    3.627016   5.282842   4.660271   2.881611   4.259961
    26  H    3.757713   4.795229   4.739808   2.716948   4.133071
    27  H    2.733306   4.737766   3.737249   2.484563   3.494583
    28  O    4.934711   6.642034   5.636695   5.098418   3.709930
    29  H    5.779940   7.212591   6.497795   5.723708   4.416270
    30  H    4.537194   6.317588   5.380951   4.425202   3.963631
                   11         12         13         14         15
    11  C    0.000000
    12  H    1.094534   0.000000
    13  H    1.098023   1.773078   0.000000
    14  H    5.281837   5.590045   5.742731   0.000000
    15  O    4.579004   4.539885   4.854145   2.435717   0.000000
    16  H    4.757889   4.629036   4.858294   3.367869   0.991703
    17  O    1.432674   2.023793   2.098803   6.132652   5.815775
    18  H    1.961386   2.827044   2.310689   6.238456   6.163678
    19  O    4.428451   5.114028   4.761806   2.095167   3.598255
    20  H    5.011133   5.714896   5.165524   2.325892   3.718624
    21  O    4.840893   4.808530   5.668425   2.429042   3.122810
    22  H    5.074038   4.970379   6.013022   3.335616   4.010973
    23  O    3.055520   3.402603   4.060052   4.473560   5.026243
    24  H    2.586872   2.929454   3.598518   5.257381   5.507569
    25  O    3.782881   3.056985   4.194963   4.855397   2.909348
    26  H    4.242323   3.639139   4.771407   4.238523   2.452851
    27  H    2.969982   2.432374   3.336716   4.362705   2.540763
    28  O    5.312787   4.945974   5.216297   5.136812   2.721350
    29  H    6.204927   5.775754   6.161132   5.555067   3.183415
    30  H    4.786015   4.263595   4.821480   5.155407   2.749656
                   16         17         18         19         20
    16  H    0.000000
    17  O    6.104274   0.000000
    18  H    6.481980   0.970904   0.000000
    19  O    4.346190   5.043791   4.853712   0.000000
    20  H    4.355716   5.734862   5.490104   0.970061   0.000000
    21  O    4.034705   5.450568   5.848533   3.556832   4.268173
    22  H    4.874740   5.472556   5.925579   4.235090   5.034071
    23  O    5.715618   2.794776   3.060326   3.778660   4.721180
    24  H    6.076009   1.980525   2.349108   4.418792   5.311689
    25  O    2.752836   4.949968   5.677791   5.546182   5.975993
    26  H    2.533589   5.349945   6.037316   5.232293   5.681349
    27  H    2.460693   4.238929   4.880338   4.762538   5.183649
    28  O    1.772209   6.721647   7.202539   5.966852   5.953933
    29  H    2.295552   7.595023   8.108350   6.635385   6.598238
    30  H    2.004847   6.145651   6.727922   5.959425   6.104846
                   21         22         23         24         25
    21  O    0.000000
    22  H    0.970288   0.000000
    23  O    3.303185   3.108019   0.000000
    24  H    4.119080   3.916629   0.976212   0.000000
    25  O    4.005654   4.385278   4.906822   4.983018   0.000000
    26  H    3.258982   3.677767   4.775114   5.033764   0.973556
    27  H    3.802788   4.272156   4.337493   4.398118   0.980702
    28  O    5.494231   6.214067   6.886359   7.055537   2.752048
    29  H    5.865867   6.574271   7.592791   7.814091   3.252582
    30  H    5.080497   5.691954   6.323373   6.439905   1.831706
                   26         27         28         29         30
    26  H    0.000000
    27  H    1.498522   0.000000
    28  O    2.964496   2.784186   0.000000
    29  H    3.310649   3.504005   0.969346   0.000000
    30  H    2.193696   2.050273   0.989271   1.552323   0.000000
 Symmetry turned off by external request.
 Stoichiometry    C6H16O8
 Framework group  C1[X(C6H16O8)]
 Deg. of freedom    84
 Full point group                 C1      NOp   1
 Rotational constants (GHZ):      0.7136835      0.5071867      0.4007432
 Standard basis: 6-31G(d) (6D, 7F)
   242 basis functions,   456 primitive gaussians,   242 cartesian basis functions
    58 alpha electrons       58 beta electrons
       nuclear repulsion energy      1113.1908019679 Hartrees.
 NAtoms=   30 NActive=   30 NUniq=   30 SFac= 1.00D+00 NAtFMM=   60 NAOKFM=F Big=F
 Integral buffers will be    131072 words long.
 Raffenetti 2 integral format.
 Two-electron integral symmetry is turned off.
 One-electron integrals computed using PRISM.
 NBasis=   242 RedAO= T EigKep=  1.33D-03  NBF=   242
 NBsUse=   242 1.00D-06 EigRej= -1.00D+00 NBFU=   242
 Initial guess from the checkpoint file:  "/scratch/10502070.yak.local/Gau-16044.chk"
 B after Tr=    -0.000000   -0.000000    0.000000
         Rot=    1.000000    0.000000    0.000000    0.000000 Ang=   0.00 deg.
 ExpMin= 1.61D-01 ExpMax= 5.48D+03 ExpMxC= 8.25D+02 IAcc=1 IRadAn=         1 AccDes= 0.00D+00
 Harris functional with IExCor=  402 and IRadAn=       1 diagonalized for initial guess.
 HarFok:  IExCor=  402 AccDes= 0.00D+00 IRadAn=         1 IDoV= 1 UseB2=F ITyADJ=14
 ICtDFT=  3500011 ScaDFX=  1.000000  1.000000  1.000000  1.000000
 FoFCou: FMM=F IPFlag=           0 FMFlag=      100000 FMFlg1=           0
         NFxFlg=           0 DoJE=T BraDBF=F KetDBF=T FulRan=T
         wScrn=  0.000000 ICntrl=     500 IOpCl=  0 I1Cent=   200000004 NGrid=           0
         NMat0=    1 NMatS0=      1 NMatT0=    0 NMatD0=    1 NMtDS0=    0 NMtDT0=    0
 Symmetry not used in FoFCou.
 Requested convergence on RMS density matrix=1.00D-08 within 128 cycles.
 Requested convergence on MAX density matrix=1.00D-06.
 Requested convergence on             energy=1.00D-06.
 No special actions if energy rises.
 Integral accuracy reduced to 1.0D-05 until final iterations.
 Initial convergence to 1.0D-05 achieved.  Increase integral accuracy.
 SCF Done:  E(RB3LYP) =  -839.990561657     A.U. after    8 cycles
            NFock=  8  Conv=0.64D-08     -V/T= 2.0085
 DoSCS=F DFT=T ScalE2(SS,OS)=  1.000000  1.000000
 Range of M.O.s used for correlation:     1   242
 NBasis=   242 NAE=    58 NBE=    58 NFC=     0 NFV=     0
 NROrb=    242 NOA=    58 NOB=    58 NVA=   184 NVB=   184
 Symmetrizing basis deriv contribution to polar:
 IMax=3 JMax=2 DiffMx= 0.00D+00
 Calling FoFJK, ICntrl=      2147 FMM=F ISym2X=0 I1Cent= 0 IOpClX= 0 NMat=1 NMatS=1 NMatT=0.
 -------------------------------------------------------------------
 Center     Atomic                   Forces (Hartrees/Bohr)
 Number     Number              X              Y              Z
 -------------------------------------------------------------------
      1        8           0.000006983   -0.000006391    0.000003692
      2        6          -0.000006436    0.000008630   -0.000006247
      3        6          -0.000002324   -0.000002408    0.000013271
      4        6          -0.000001253    0.000009811    0.000010660
      5        6           0.000000116   -0.000007192    0.000004128
      6        6           0.000003825   -0.000001115   -0.000008929
      7        1           0.000000064    0.000000462    0.000001790
      8        1           0.000000793   -0.000000563   -0.000000778
      9        1          -0.000001303    0.000001438   -0.000000460
     10        1          -0.000000464   -0.000001062    0.000000258
     11        6           0.000005171   -0.000000580   -0.000021879
     12        1           0.000000131    0.000000437   -0.000001927
     13        1           0.000000859   -0.000000655   -0.000001996
     14        1          -0.000000335   -0.000000113    0.000001773
     15        8           0.000004076   -0.000010158   -0.000000388
     16        1           0.000000067   -0.000000374    0.000000107
     17        8           0.000005536    0.000002986   -0.000040758
     18        1           0.000000727    0.000000214   -0.000002809
     19        8          -0.000003291   -0.000013523    0.000020468
     20        1          -0.000000266   -0.000002044    0.000001706
     21        8           0.000004570    0.000036058    0.000016986
     22        1           0.000000488    0.000003004    0.000001136
     23        8          -0.000011599    0.000009460   -0.000025732
     24        1          -0.000000777    0.000000476   -0.000002438
     25        8          -0.000005632   -0.000016566    0.000014374
     26        1          -0.000000826   -0.000001098    0.000000854
     27        1          -0.000000129   -0.000000778    0.000000706
     28        8           0.000001521   -0.000006499    0.000019669
     29        1          -0.000000165   -0.000000982    0.000001453
     30        1          -0.000000128   -0.000000876    0.000001310
 -------------------------------------------------------------------
 Cartesian Forces:  Max     0.000040758 RMS     0.000008985
 IRC-IRC-IRC-IRC-IRC-IRC-IRC-IRC-IRC-IRC-IRC-IRC-IRC-IRC-IRC-IRC-IRC-IRC
 Error in corrector energy =          -0.0000000000
 Magnitude of corrector gradient =     0.0000852383
 Magnitude of analytic gradient =      0.0000852383
 Magnitude of difference =             0.0000000004
 Angle between gradients (degrees)=    0.0003
 Pt  1 Step number  20 out of a maximum of  20
 Modified Bulirsch-Stoer Extrapolation Cycles:
    EPS =    0.000010000000000
 Maximum DWI energy   std dev =  0.000000284 at pt     2
 Maximum DWI gradient std dev =  0.614194834 at pt     3
 WARNING: Bulirsch-Stoer Method is not Converging
 CORRECTOR INTEGRATION CONVERGENCE:
   Recorrection delta-x convergence threshold:    0.010000
   Delta-x Convergence NOT Met
 Maximum number of corrector steps exceded.
 Error termination via Lnk1e in /global/software/gaussian/g09.e01/l123.exe at Tue Jan 31 14:01:19 2017.
 Job cpu time:       0 days  4 hours 32 minutes 46.6 seconds.
 File lengths (MBytes):  RWF=    220 Int=      0 D2E=      0 Chk=      8 Scr=      1
