 Entering Gaussian System, Link 0=g09
 Initial command:
 /global/software/gaussian/g09.e01/l1.exe "/scratch/10502072.yak.local/Gau-14205.inp" -scrdir="/scratch/10502072.yak.local/"
 Entering Link 1 = /global/software/gaussian/g09.e01/l1.exe PID=     14206.
  
 Copyright (c) 1988,1990,1992,1993,1995,1998,2003,2009,2015,
            Gaussian, Inc.  All Rights Reserved.
  
 This is part of the Gaussian(R) 09 program.  It is based on
 the Gaussian(R) 03 system (copyright 2003, Gaussian, Inc.),
 the Gaussian(R) 98 system (copyright 1998, Gaussian, Inc.),
 the Gaussian(R) 94 system (copyright 1995, Gaussian, Inc.),
 the Gaussian 92(TM) system (copyright 1992, Gaussian, Inc.),
 the Gaussian 90(TM) system (copyright 1990, Gaussian, Inc.),
 the Gaussian 88(TM) system (copyright 1988, Gaussian, Inc.),
 the Gaussian 86(TM) system (copyright 1986, Carnegie Mellon
 University), and the Gaussian 82(TM) system (copyright 1983,
 Carnegie Mellon University). Gaussian is a federally registered
 trademark of Gaussian, Inc.
  
 This software contains proprietary and confidential information,
 including trade secrets, belonging to Gaussian, Inc.
  
 This software is provided under written license and may be
 used, copied, transmitted, or stored only in accord with that
 written license.
  
 The following legend is applicable only to US Government
 contracts under FAR:
  
                    RESTRICTED RIGHTS LEGEND
  
 Use, reproduction and disclosure by the US Government is
 subject to restrictions as set forth in subparagraphs (a)
 and (c) of the Commercial Computer Software - Restricted
 Rights clause in FAR 52.227-19.
  
 Gaussian, Inc.
 340 Quinnipiac St., Bldg. 40, Wallingford CT 06492
  
  
 ---------------------------------------------------------------
 Warning -- This program may not be used in any manner that
 competes with the business of Gaussian, Inc. or will provide
 assistance to any competitor of Gaussian, Inc.  The licensee
 of this program is prohibited from giving any competitor of
 Gaussian, Inc. access to this program.  By using this program,
 the user acknowledges that Gaussian, Inc. is engaged in the
 business of creating and licensing software in the field of
 computational chemistry and represents and warrants to the
 licensee that it is not a competitor of Gaussian, Inc. and that
 it will not use this program in any manner prohibited above.
 ---------------------------------------------------------------
  

 Cite this work as:
 Gaussian 09, Revision E.01,
 M. J. Frisch, G. W. Trucks, H. B. Schlegel, G. E. Scuseria, 
 M. A. Robb, J. R. Cheeseman, G. Scalmani, V. Barone, B. Mennucci, 
 G. A. Petersson, H. Nakatsuji, M. Caricato, X. Li, H. P. Hratchian, 
 A. F. Izmaylov, J. Bloino, G. Zheng, J. L. Sonnenberg, M. Hada, 
 M. Ehara, K. Toyota, R. Fukuda, J. Hasegawa, M. Ishida, T. Nakajima, 
 Y. Honda, O. Kitao, H. Nakai, T. Vreven, J. A. Montgomery, Jr., 
 J. E. Peralta, F. Ogliaro, M. Bearpark, J. J. Heyd, E. Brothers, 
 K. N. Kudin, V. N. Staroverov, T. Keith, R. Kobayashi, J. Normand, 
 K. Raghavachari, A. Rendell, J. C. Burant, S. S. Iyengar, J. Tomasi, 
 M. Cossi, N. Rega, J. M. Millam, M. Klene, J. E. Knox, J. B. Cross, 
 V. Bakken, C. Adamo, J. Jaramillo, R. Gomperts, R. E. Stratmann, 
 O. Yazyev, A. J. Austin, R. Cammi, C. Pomelli, J. W. Ochterski, 
 R. L. Martin, K. Morokuma, V. G. Zakrzewski, G. A. Voth, 
 P. Salvador, J. J. Dannenberg, S. Dapprich, A. D. Daniels, 
 O. Farkas, J. B. Foresman, J. V. Ortiz, J. Cioslowski, 
 and D. J. Fox, Gaussian, Inc., Wallingford CT, 2013.
 
 ******************************************
 Gaussian 09:  ES64L-G09RevE.01 30-Nov-2015
                31-Jan-2017 
 ******************************************
 %NPROCS=4
 Will use up to    4 processors via shared memory.
 --------------------------------------------------
 # b3lyp/6-31g(d) irc=(calcfc,forward,maxpoints=20)
 --------------------------------------------------
 1/10=4,14=-1,18=10,22=1,26=3,38=1,42=20,44=3/1,23;
 2/12=2,17=6,18=5,29=1,40=1/2;
 3/5=1,6=6,7=1,11=2,16=1,25=1,30=1,71=2,74=-5,140=1/1,2,3;
 4//1;
 5/5=2,38=5/2;
 8/6=4,10=90,11=11/1;
 11/6=1,8=1,9=11,15=111,16=1/1,2,10;
 10/6=1,13=1/2;
 6/7=2,8=2,9=2,10=2,28=1/1;
 7/10=1,18=20,25=1/1,2,3,16;
 1/10=4,14=-1,18=10,22=1,26=3,42=20,44=3/23(2);
 2/29=1/2;
 99/5=20/99;
 2/29=1/2;
 3/5=1,6=6,7=1,11=2,16=1,25=1,30=1,71=2,74=-5,140=1/1,2,3;
 4/5=5,16=3,69=1/1;
 5/5=2,38=5/2;
 8/6=4,10=90,11=11/1;
 11/6=1,8=1,9=11,15=111,16=1/1,2,10;
 10/6=1,13=1/2;
 7/10=1,18=20,25=1/1,2,3,16;
 1/14=-1,18=10,22=1,26=3,42=20,44=3/23(-8);
 2/29=1/2;
 6/7=2,8=2,9=2,10=2,19=2,28=1/1;
 99/5=20,9=1/99;
 -------------------------------------------
 ./4/glo_1w_alpha_boat4_b3lyp_631Gd_iopt.out
 -------------------------------------------
 Symbolic Z-matrix:
 Charge =  0 Multiplicity = 1
 O                    -1.3268    0.96322  -0.32406 
 C                     1.04955   0.24258  -0.31079 
 C                    -0.83922  -1.45905  -0.30835 
 C                     0.6405   -1.196     0.04181 
 C                    -1.52832  -0.28405  -1.02779 
 C                    -0.00838   1.26402   0.13989 
 H                     0.74086  -1.30375   1.13387 
 H                    -0.0143    1.2581    1.24281 
 H                     1.18372   0.30182  -1.40204 
 C                     0.30191   2.68531  -0.3577 
 H                     0.35642   2.68214  -1.45022 
 H                    -0.5083    3.36407  -0.06388 
 H                    -0.85307  -2.31347  -0.99368 
 O                     1.57443   3.16931   0.09961 
 H                     1.4828    3.42229   1.03216 
 O                    -1.54094  -1.80364   0.89938 
 H                    -2.3413   -2.28061   0.62452 
 O                     1.40964  -2.15199  -0.65328 
 H                     2.33613  -2.12417  -0.31636 
 O                     2.28564   0.54125   0.34884 
 H                     2.45625   1.49431   0.19897 
 H                    -1.11816  -0.19908  -2.04329 
 O                    -2.8935   -0.4697   -1.16097 
 H                    -3.30289  -0.30113  -0.2774 
 O                    -3.44336   0.23178   1.49374 
 H                    -2.96192   1.01823   1.18406 
 H                    -2.71229  -0.39172   1.67888 
 O                     3.93576  -1.66495   0.38211 
 H                     3.59212  -0.74525   0.38956 
 H                     3.96075  -1.92093   1.31659 
 
 IRC-IRC-IRC-IRC-IRC-IRC-IRC-IRC-IRC-IRC-IRC-IRC-IRC-IRC-IRC-IRC-IRC-IRC
 ------------------------------------------------------------------------
 INPUT DATA FOR L123
 ------------------------------------------------------------------------
 GENERAL PARAMETERS:
 Rxn path following direction = Forward
 Maximum points per path      =  20
 Step size                    =   0.100 bohr
 Integration scheme           = HPC                                 
    Redo corrector integration= Yes                                 
    DWI Weight Power          =  2
    DWI will use Hessian update vectors when possible.
    Max correction cycles     =  20
 Initial Hessian              = CalcFC
 Hessian evaluation           = All updating
 Hessian updating method      = Bofill                              
 ------------------------------------------------------------------------
 IRC-IRC-IRC-IRC-IRC-IRC-IRC-IRC-IRC-IRC-IRC-IRC-IRC-IRC-IRC-IRC-IRC-IRC
                          Input orientation:                          
 ---------------------------------------------------------------------
 Center     Atomic      Atomic             Coordinates (Angstroms)
 Number     Number       Type             X           Y           Z
 ---------------------------------------------------------------------
      1          8           0       -1.326800    0.963220   -0.324060
      2          6           0        1.049550    0.242580   -0.310790
      3          6           0       -0.839220   -1.459050   -0.308350
      4          6           0        0.640500   -1.196000    0.041810
      5          6           0       -1.528320   -0.284050   -1.027790
      6          6           0       -0.008380    1.264020    0.139890
      7          1           0        0.740860   -1.303750    1.133870
      8          1           0       -0.014300    1.258100    1.242810
      9          1           0        1.183720    0.301820   -1.402040
     10          6           0        0.301910    2.685310   -0.357700
     11          1           0        0.356420    2.682140   -1.450220
     12          1           0       -0.508300    3.364070   -0.063880
     13          1           0       -0.853070   -2.313470   -0.993680
     14          8           0        1.574430    3.169310    0.099610
     15          1           0        1.482800    3.422290    1.032160
     16          8           0       -1.540940   -1.803640    0.899380
     17          1           0       -2.341300   -2.280610    0.624520
     18          8           0        1.409640   -2.151990   -0.653280
     19          1           0        2.336130   -2.124170   -0.316360
     20          8           0        2.285640    0.541250    0.348840
     21          1           0        2.456250    1.494310    0.198970
     22          1           0       -1.118160   -0.199080   -2.043290
     23          8           0       -2.893500   -0.469700   -1.160970
     24          1           0       -3.302890   -0.301130   -0.277400
     25          8           0       -3.443360    0.231780    1.493740
     26          1           0       -2.961920    1.018230    1.184060
     27          1           0       -2.712290   -0.391720    1.678880
     28          8           0        3.935760   -1.664950    0.382110
     29          1           0        3.592120   -0.745250    0.389560
     30          1           0        3.960750   -1.920930    1.316590
 ---------------------------------------------------------------------
                    Distance matrix (angstroms):
                    1          2          3          4          5
     1  O    0.000000
     2  C    2.483251   0.000000
     3  C    2.470905   2.542244   0.000000
     4  C    2.943868   1.536607   1.543172   0.000000
     5  C    1.446212   2.727057   1.540480   2.584468   0.000000
     6  C    1.429672   1.538073   2.882069   2.546049   2.463781
     7  H    3.397047   2.138567   2.144940   1.101942   3.295715
     8  H    2.065113   2.139329   3.235660   2.809586   3.134662
     9  H    2.811085   1.101062   2.896396   2.150176   2.799726
    10  C    2.370532   2.555014   4.298876   3.916480   3.551881
    11  H    2.656342   2.780321   4.459022   4.164952   3.539629
    12  H    2.549846   3.497365   4.840636   4.703738   3.908752
    13  H    3.377796   3.258787   1.095401   2.133478   2.139082
    14  O    3.669259   3.001612   5.235824   4.464471   4.777424
    15  H    3.972431   3.478761   5.569221   4.797798   5.200692
    16  O    3.032849   3.515987   1.438668   2.421432   2.454241
    17  H    3.528661   4.328875   1.949731   3.225998   2.716122
    18  O    4.159450   2.445594   2.378343   1.410193   3.501581
    19  H    4.790521   2.693849   3.244271   1.965947   4.338911
    20  O    3.698726   1.432562   3.768003   2.412217   4.137937
    21  H    3.855786   1.950766   4.454193   3.249525   4.532582
    22  H    2.085719   2.809909   2.162255   2.904200   1.098495
    23  O    2.282154   4.096070   2.434305   3.803071   1.384167
    24  H    2.346421   4.386396   2.722390   4.056231   1.926779
    25  O    2.884307   4.841765   3.589983   4.563394   3.208048
    26  H    2.225100   4.350644   3.587486   4.380066   2.939970
    27  H    2.786972   4.302623   2.932007   3.816813   2.956254
    28  O    5.924567   3.528313   4.829033   3.345812   5.809550
    29  H    5.255844   2.816196   4.542396   3.006022   5.332963
    30  H    6.242455   3.975453   5.088563   3.629690   6.189134
                    6          7          8          9         10
     6  C    0.000000
     7  H    2.853559   0.000000
     8  H    1.102952   2.673053   0.000000
     9  H    2.173587   3.033945   3.056952   0.000000
    10  C    1.537511   4.281362   2.167614   2.747592   0.000000
    11  H    2.161618   4.765777   3.068833   2.520450   1.093884
    12  H    2.168329   4.978308   2.527169   3.745795   1.097035
    13  H    3.846676   2.843698   4.296689   3.339912   5.169744
    14  O    2.477305   4.666133   2.735634   3.260384   1.436209
    15  H    2.770901   4.785005   2.639962   3.968893   1.967067
    16  O    3.512279   2.347656   3.438434   4.141650   5.012686
    17  H    4.271040   3.273134   4.280150   4.816810   5.710663
    18  O    3.782727   2.088225   4.153490   2.575435   4.971308
    19  H    4.145446   2.306760   4.404008   2.896925   5.222151
    20  O    2.414246   2.531135   2.569588   2.082579   3.005225
    21  H    2.476070   3.412586   2.692399   2.367403   2.523795
    22  H    2.852814   3.843253   3.760364   2.441466   3.630085
    23  O    3.608592   4.378413   4.129557   4.156571   4.561795
    24  H    3.671188   4.398732   3.944244   4.664551   4.681864
    25  O    3.833734   4.471583   3.588140   5.458967   4.845068
    26  H    3.142308   4.370891   2.957947   4.938369   3.976024
    27  H    3.524357   3.612905   3.192368   5.015173   4.764575
    28  O    4.918717   3.301968   4.988787   3.824278   5.716375
    29  H    4.130751   2.999267   4.212803   3.179084   4.811717
    30  H    5.223267   3.283594   5.090452   4.476993   6.116192
                   11         12         13         14         15
    11  H    0.000000
    12  H    1.770511   0.000000
    13  H    5.160176   5.763493   0.000000
    14  O    2.030482   2.098196   6.094991   0.000000
    15  H    2.824671   2.273581   6.516077   0.970590   0.000000
    16  O    5.407663   5.357186   2.077683   5.922448   6.039121
    17  H    6.017568   5.974629   2.198745   6.731278   6.878443
    18  O    5.011307   5.869651   2.293862   5.376824   5.823973
    19  H    5.320292   6.186704   3.265822   5.364154   5.771473
    20  O    3.397340   3.993088   4.450088   2.733978   3.067877
    21  H    2.922337   3.514776   5.183937   1.895548   2.314934
    22  H    3.290524   4.121411   2.375416   4.815404   5.416429
    23  O    4.536490   4.646566   2.755146   5.898632   6.253751
    24  H    4.864767   4.614002   3.250260   5.997861   6.203357
    25  O    5.395321   4.566399   4.401722   5.979205   5.887229
    26  H    4.551858   3.616707   4.504445   5.136307   5.055503
    27  H    5.353211   4.690495   3.780529   5.792322   5.706461
    28  O    5.921680   6.726040   5.024567   5.387556   5.685032
    29  H    5.059797   5.822848   4.912472   4.413493   4.714929
    30  H    6.467974   7.057573   5.353905   5.752052   5.896706
                   16         17         18         19         20
    16  O    0.000000
    17  H    0.971403   0.000000
    18  O    3.352316   3.964703   0.000000
    19  H    4.075835   4.773686   0.986242   0.000000
    20  O    4.521539   5.426552   3.004191   2.747636   0.000000
    21  H    5.229204   6.119444   3.888088   3.656965   0.979741
    22  H    3.378263   3.598062   3.483642   4.315134   4.225663
    23  O    2.802473   2.602363   4.648103   5.549745   5.488628
    24  H    2.597463   2.378331   5.076899   5.926512   5.686251
    25  O    2.848754   2.877878   5.817531   6.498420   5.850471
    26  H    3.172251   3.403028   5.704091   6.339974   5.334978
    27  H    1.993289   2.194815   5.052507   5.698150   5.255354
    28  O    5.502822   6.311837   2.773179   1.804871   2.755235
    29  H    5.265777   6.133352   2.798151   1.994305   1.834020
    30  H    5.518733   6.350131   3.231399   2.312406   3.131272
                   21         22         23         24         25
    21  H    0.000000
    22  H    4.546615   0.000000
    23  O    5.858890   2.000889   0.000000
    24  H    6.051300   2.811019   0.988287   0.000000
    25  O    6.170560   4.254736   2.800340   1.854902   0.000000
    26  H    5.527533   3.911149   2.778090   1.998208   0.972723
    27  H    5.697460   4.053753   2.846694   2.045494   0.978515
    28  O    3.493338   5.794260   7.102711   7.395472   7.699657
    29  H    2.518363   5.329521   6.674080   6.941415   7.188309
    30  H    3.895697   6.328419   7.431360   7.610849   7.712742
                   26         27         28         29         30
    26  H    0.000000
    27  H    1.514966   0.000000
    28  O    7.444499   6.891973   0.000000
    29  H    6.833486   6.444604   0.981831   0.000000
    30  H    7.521940   6.855596   0.969228   1.541913   0.000000
 Symmetry turned off by external request.
 Stoichiometry    C6H16O8
 Framework group  C1[X(C6H16O8)]
 Deg. of freedom    84
 Full point group                 C1      NOp   1
 Rotational constants (GHZ):      0.7411730      0.4823425      0.3392079
 Standard basis: 6-31G(d) (6D, 7F)
   242 basis functions,   456 primitive gaussians,   242 cartesian basis functions
    58 alpha electrons       58 beta electrons
       nuclear repulsion energy      1100.3854119727 Hartrees.
 NAtoms=   30 NActive=   30 NUniq=   30 SFac= 1.00D+00 NAtFMM=   60 NAOKFM=F Big=F
 Integral buffers will be    131072 words long.
 Raffenetti 2 integral format.
 Two-electron integral symmetry is turned off.
 One-electron integrals computed using PRISM.
 NBasis=   242 RedAO= T EigKep=  1.25D-03  NBF=   242
 NBsUse=   242 1.00D-06 EigRej= -1.00D+00 NBFU=   242
 ExpMin= 1.61D-01 ExpMax= 5.48D+03 ExpMxC= 8.25D+02 IAcc=1 IRadAn=         1 AccDes= 0.00D+00
 Harris functional with IExCor=  402 and IRadAn=       1 diagonalized for initial guess.
 HarFok:  IExCor=  402 AccDes= 0.00D+00 IRadAn=         1 IDoV= 1 UseB2=F ITyADJ=14
 ICtDFT=  3500011 ScaDFX=  1.000000  1.000000  1.000000  1.000000
 FoFCou: FMM=F IPFlag=           0 FMFlag=      100000 FMFlg1=           0
         NFxFlg=           0 DoJE=T BraDBF=F KetDBF=T FulRan=T
         wScrn=  0.000000 ICntrl=     500 IOpCl=  0 I1Cent=   200000004 NGrid=           0
         NMat0=    1 NMatS0=      1 NMatT0=    0 NMatD0=    1 NMtDS0=    0 NMtDT0=    0
 Symmetry not used in FoFCou.
 Requested convergence on RMS density matrix=1.00D-08 within 128 cycles.
 Requested convergence on MAX density matrix=1.00D-06.
 Requested convergence on             energy=1.00D-06.
 No special actions if energy rises.
 Integral accuracy reduced to 1.0D-05 until final iterations.
 Initial convergence to 1.0D-05 achieved.  Increase integral accuracy.
 SCF Done:  E(RB3LYP) =  -839.997776912     A.U. after   13 cycles
            NFock= 13  Conv=0.93D-08     -V/T= 2.0086
 DoSCS=F DFT=T ScalE2(SS,OS)=  1.000000  1.000000
 Range of M.O.s used for correlation:     1   242
 NBasis=   242 NAE=    58 NBE=    58 NFC=     0 NFV=     0
 NROrb=    242 NOA=    58 NOB=    58 NVA=   184 NVB=   184
 Symmetrizing basis deriv contribution to polar:
 IMax=3 JMax=2 DiffMx= 0.00D+00
 G2DrvN: will do    31 centers at a time, making    1 passes.
 Calling FoFCou, ICntrl=  3107 FMM=F I1Cent=   0 AccDes= 0.00D+00.
 End of G2Drv F.D. properties file   721 does not exist.
 End of G2Drv F.D. properties file   722 does not exist.
 End of G2Drv F.D. properties file   788 does not exist.
          IDoAtm=111111111111111111111111111111
          Differentiating once with respect to nuclear coordinates.
          There are    93 degrees of freedom in the 1st order CPHF.  IDoFFX=6 NUNeed=     0.
     87 vectors produced by pass  0 Test12= 1.15D-14 1.08D-09 XBig12= 9.91D-02 7.17D-02.
 AX will form    87 AO Fock derivatives at one time.
     87 vectors produced by pass  1 Test12= 1.15D-14 1.08D-09 XBig12= 9.23D-03 1.01D-02.
     87 vectors produced by pass  2 Test12= 1.15D-14 1.08D-09 XBig12= 1.37D-04 1.34D-03.
     87 vectors produced by pass  3 Test12= 1.15D-14 1.08D-09 XBig12= 3.81D-07 6.65D-05.
     87 vectors produced by pass  4 Test12= 1.15D-14 1.08D-09 XBig12= 4.39D-10 2.08D-06.
     68 vectors produced by pass  5 Test12= 1.15D-14 1.08D-09 XBig12= 3.87D-13 5.11D-08.
      2 vectors produced by pass  6 Test12= 1.15D-14 1.08D-09 XBig12= 2.94D-16 1.64D-09.
 InvSVY:  IOpt=1 It=  1 EMax= 8.33D-16
 Solved reduced A of dimension   505 with    93 vectors.
 End of Minotr F.D. properties file   721 does not exist.
 End of Minotr F.D. properties file   722 does not exist.
 End of Minotr F.D. properties file   788 does not exist.

 **********************************************************************

            Population analysis using the SCF density.

 **********************************************************************

 Alpha  occ. eigenvalues --  -19.19317 -19.17456 -19.17361 -19.17105 -19.14906
 Alpha  occ. eigenvalues --  -19.14778 -19.14653 -19.12694 -10.29339 -10.26199
 Alpha  occ. eigenvalues --  -10.26023 -10.25385 -10.24571 -10.24339  -1.08077
 Alpha  occ. eigenvalues --   -1.06261  -1.04198  -1.03917  -1.01056  -1.00976
 Alpha  occ. eigenvalues --   -1.00336  -0.99921  -0.79092  -0.77685  -0.70415
 Alpha  occ. eigenvalues --   -0.65830  -0.64028  -0.57531  -0.56175  -0.56010
 Alpha  occ. eigenvalues --   -0.53421  -0.52875  -0.52672  -0.51945  -0.50915
 Alpha  occ. eigenvalues --   -0.48603  -0.47043  -0.45996  -0.45518  -0.42671
 Alpha  occ. eigenvalues --   -0.42384  -0.41624  -0.40237  -0.38950  -0.38006
 Alpha  occ. eigenvalues --   -0.37299  -0.36965  -0.36088  -0.34704  -0.33833
 Alpha  occ. eigenvalues --   -0.32039  -0.31288  -0.30330  -0.30150  -0.29066
 Alpha  occ. eigenvalues --   -0.28920  -0.26112  -0.25549
 Alpha virt. eigenvalues --    0.02913   0.04778   0.06971   0.07257   0.08568
 Alpha virt. eigenvalues --    0.10567   0.12147   0.12481   0.13350   0.13833
 Alpha virt. eigenvalues --    0.14663   0.15550   0.16054   0.17031   0.18411
 Alpha virt. eigenvalues --    0.19535   0.20107   0.20945   0.22096   0.22244
 Alpha virt. eigenvalues --    0.22715   0.24333   0.25171   0.26822   0.29934
 Alpha virt. eigenvalues --    0.30953   0.33614   0.34579   0.50403   0.51243
 Alpha virt. eigenvalues --    0.51929   0.55550   0.56337   0.57938   0.58919
 Alpha virt. eigenvalues --    0.60617   0.61250   0.62087   0.64192   0.66494
 Alpha virt. eigenvalues --    0.67660   0.71741   0.72484   0.74110   0.75516
 Alpha virt. eigenvalues --    0.75957   0.76900   0.77977   0.79016   0.81050
 Alpha virt. eigenvalues --    0.81640   0.83095   0.83231   0.83981   0.84441
 Alpha virt. eigenvalues --    0.85415   0.86078   0.86993   0.87746   0.88721
 Alpha virt. eigenvalues --    0.89283   0.90443   0.91949   0.92547   0.93795
 Alpha virt. eigenvalues --    0.94497   0.97235   0.98395   1.00163   1.02200
 Alpha virt. eigenvalues --    1.04001   1.04657   1.04940   1.07884   1.09001
 Alpha virt. eigenvalues --    1.11046   1.11819   1.13793   1.14041   1.15410
 Alpha virt. eigenvalues --    1.16972   1.19330   1.23245   1.24405   1.25699
 Alpha virt. eigenvalues --    1.26036   1.28693   1.31079   1.33542   1.36047
 Alpha virt. eigenvalues --    1.41393   1.41563   1.44458   1.46269   1.49240
 Alpha virt. eigenvalues --    1.51160   1.54718   1.55565   1.57998   1.59832
 Alpha virt. eigenvalues --    1.60981   1.62353   1.64566   1.66499   1.68784
 Alpha virt. eigenvalues --    1.70436   1.71424   1.72631   1.73578   1.73962
 Alpha virt. eigenvalues --    1.74503   1.75309   1.75557   1.77601   1.78319
 Alpha virt. eigenvalues --    1.80544   1.81856   1.82351   1.82821   1.85355
 Alpha virt. eigenvalues --    1.85606   1.88628   1.89541   1.91725   1.93382
 Alpha virt. eigenvalues --    1.95425   1.98358   2.00130   2.02985   2.03387
 Alpha virt. eigenvalues --    2.05720   2.06466   2.12072   2.13414   2.15083
 Alpha virt. eigenvalues --    2.16718   2.20991   2.24070   2.24525   2.28190
 Alpha virt. eigenvalues --    2.31281   2.31565   2.31865   2.33039   2.35543
 Alpha virt. eigenvalues --    2.40197   2.41046   2.44273   2.46248   2.49448
 Alpha virt. eigenvalues --    2.50030   2.51544   2.53844   2.55931   2.56857
 Alpha virt. eigenvalues --    2.59301   2.61322   2.64156   2.66236   2.68629
 Alpha virt. eigenvalues --    2.73405   2.77352   2.81397   2.83469   2.88417
 Alpha virt. eigenvalues --    2.93680   2.95756   2.99565   3.05119   3.06646
 Alpha virt. eigenvalues --    3.72657   3.73902   3.76260   3.80048   3.87217
 Alpha virt. eigenvalues --    3.95419   4.04084   4.12852   4.25635   4.35390
 Alpha virt. eigenvalues --    4.44427   4.50575   4.57452   4.81115
          Condensed to atoms (all electrons):
               1          2          3          4          5          6
     1  O    8.397283  -0.024218  -0.034311  -0.004544   0.176891   0.167705
     2  C   -0.024218   5.028738  -0.039149   0.326519  -0.000650   0.267819
     3  C   -0.034311  -0.039149   5.184623   0.270107   0.256323  -0.011917
     4  C   -0.004544   0.326519   0.270107   4.911405  -0.039172  -0.025972
     5  C    0.176891  -0.000650   0.256323  -0.039172   4.706373  -0.026093
     6  C    0.167705   0.267819  -0.011917  -0.025972  -0.026093   5.045078
     7  H    0.000229  -0.054126  -0.049036   0.342689   0.002463  -0.002742
     8  H   -0.038024  -0.055758   0.000043  -0.007279   0.003051   0.348303
     9  H    0.001775   0.344779  -0.003498  -0.044283   0.001638  -0.049525
    10  C   -0.040069  -0.020175   0.000060   0.003483  -0.000332   0.327048
    11  H    0.005003  -0.009242   0.000041  -0.000045   0.000638  -0.041104
    12  H    0.004227   0.004680   0.000024  -0.000119  -0.000259  -0.044421
    13  H    0.003246   0.002298   0.347514  -0.039678  -0.036909   0.000538
    14  O    0.001569  -0.001563   0.000008  -0.000015   0.000004  -0.036059
    15  H    0.000003  -0.001209   0.000000  -0.000001   0.000001  -0.001432
    16  O   -0.000908   0.000719   0.194355  -0.032292  -0.038576   0.002149
    17  H    0.000336  -0.000274  -0.020742   0.007494  -0.003780  -0.000123
    18  O   -0.000001  -0.043944  -0.039185   0.242524   0.000837   0.004088
    19  H    0.000003  -0.002601   0.005131  -0.018940  -0.000167   0.000018
    20  O    0.001273   0.204705   0.002990  -0.037879   0.000163  -0.029234
    21  H    0.000023  -0.018401  -0.000209   0.004205   0.000029  -0.008563
    22  H   -0.044337  -0.002138  -0.077650   0.005553   0.372473   0.002102
    23  O   -0.050719  -0.000118  -0.040642   0.003131   0.304269   0.002400
    24  H    0.000077  -0.000026  -0.008736   0.000072  -0.019887  -0.000010
    25  O   -0.008731  -0.000015  -0.000656  -0.000009   0.006689   0.000112
    26  H    0.024366   0.000178   0.000124   0.000002  -0.001050   0.000068
    27  H    0.002303  -0.000114  -0.005872  -0.000071   0.000522   0.000505
    28  O    0.000000  -0.000585   0.000063   0.004985   0.000000  -0.000011
    29  H   -0.000003  -0.003122   0.000052  -0.001382  -0.000004   0.000562
    30  H   -0.000000  -0.000238   0.000013   0.000445  -0.000000  -0.000001
               7          8          9         10         11         12
     1  O    0.000229  -0.038024   0.001775  -0.040069   0.005003   0.004227
     2  C   -0.054126  -0.055758   0.344779  -0.020175  -0.009242   0.004680
     3  C   -0.049036   0.000043  -0.003498   0.000060   0.000041   0.000024
     4  C    0.342689  -0.007279  -0.044283   0.003483  -0.000045  -0.000119
     5  C    0.002463   0.003051   0.001638  -0.000332   0.000638  -0.000259
     6  C   -0.002742   0.348303  -0.049525   0.327048  -0.041104  -0.044421
     7  H    0.641647   0.005264   0.007774  -0.000251   0.000003   0.000007
     8  H    0.005264   0.664074   0.007550  -0.063959   0.006365  -0.005038
     9  H    0.007774   0.007550   0.636696  -0.011014   0.005911  -0.000023
    10  C   -0.000251  -0.063959  -0.011014   4.962797   0.368650   0.366784
    11  H    0.000003   0.006365   0.005911   0.368650   0.555269  -0.034680
    12  H    0.000007  -0.005038  -0.000023   0.366784  -0.034680   0.586551
    13  H    0.004127  -0.000043   0.000100   0.000016  -0.000003  -0.000001
    14  O   -0.000006   0.003485   0.000123   0.208317  -0.033403  -0.027391
    15  H    0.000000   0.004326   0.000100  -0.027078   0.006638  -0.008147
    16  O    0.004024   0.000234  -0.000020   0.000013  -0.000000  -0.000000
    17  H   -0.000025   0.000009   0.000010  -0.000001   0.000000   0.000000
    18  O   -0.035114  -0.000017   0.003872  -0.000055  -0.000002   0.000000
    19  H   -0.004162   0.000001  -0.000333   0.000001   0.000000  -0.000000
    20  O   -0.000370   0.004805  -0.039167   0.000563   0.000056  -0.000240
    21  H   -0.000102  -0.000244  -0.002304  -0.005930  -0.000347   0.000870
    22  H   -0.000114  -0.000595   0.000780   0.000678  -0.000290   0.000032
    23  O   -0.000079  -0.000002   0.000020  -0.000053  -0.000005  -0.000002
    24  H   -0.000012  -0.000089  -0.000004  -0.000002  -0.000000   0.000002
    25  O   -0.000008   0.000616  -0.000000  -0.000005   0.000000  -0.000011
    26  H    0.000000  -0.000702  -0.000003  -0.000033  -0.000012   0.000260
    27  H    0.000169   0.000206   0.000001   0.000014  -0.000000  -0.000001
    28  O    0.001023  -0.000002  -0.000021  -0.000000   0.000000  -0.000000
    29  H    0.000204  -0.000006   0.000085  -0.000012  -0.000001   0.000001
    30  H    0.000245   0.000000   0.000006  -0.000000   0.000000   0.000000
              13         14         15         16         17         18
     1  O    0.003246   0.001569   0.000003  -0.000908   0.000336  -0.000001
     2  C    0.002298  -0.001563  -0.001209   0.000719  -0.000274  -0.043944
     3  C    0.347514   0.000008   0.000000   0.194355  -0.020742  -0.039185
     4  C   -0.039678  -0.000015  -0.000001  -0.032292   0.007494   0.242524
     5  C   -0.036909   0.000004   0.000001  -0.038576  -0.003780   0.000837
     6  C    0.000538  -0.036059  -0.001432   0.002149  -0.000123   0.004088
     7  H    0.004127  -0.000006   0.000000   0.004024  -0.000025  -0.035114
     8  H   -0.000043   0.003485   0.004326   0.000234   0.000009  -0.000017
     9  H    0.000100   0.000123   0.000100  -0.000020   0.000010   0.003872
    10  C    0.000016   0.208317  -0.027078   0.000013  -0.000001  -0.000055
    11  H   -0.000003  -0.033403   0.006638  -0.000000   0.000000  -0.000002
    12  H   -0.000001  -0.027391  -0.008147  -0.000000   0.000000   0.000000
    13  H    0.577127  -0.000000  -0.000000  -0.028256  -0.008260   0.006032
    14  O   -0.000000   8.231028   0.235791  -0.000000  -0.000000   0.000000
    15  H   -0.000000   0.235791   0.384134  -0.000000   0.000000  -0.000000
    16  O   -0.028256  -0.000000  -0.000000   8.273966   0.227539   0.000804
    17  H   -0.008260  -0.000000   0.000000   0.227539   0.377240  -0.000240
    18  O    0.006032   0.000000  -0.000000   0.000804  -0.000240   8.355607
    19  H    0.000190   0.000000  -0.000000  -0.000148   0.000012   0.202114
    20  O   -0.000065  -0.020435   0.002201  -0.000011   0.000001   0.000558
    21  H    0.000005   0.059347  -0.003547   0.000001  -0.000000  -0.000132
    22  H    0.001369  -0.000012  -0.000000   0.003527   0.000096   0.000379
    23  O    0.000605   0.000000  -0.000000  -0.004632   0.009428  -0.000011
    24  H   -0.000060  -0.000000  -0.000000   0.005933   0.002146   0.000000
    25  O   -0.000060   0.000000  -0.000000  -0.014890   0.002645  -0.000000
    26  H   -0.000012  -0.000000  -0.000001   0.000297  -0.000174   0.000000
    27  H    0.000568  -0.000000  -0.000000   0.051206  -0.004679  -0.000001
    28  O    0.000001  -0.000000   0.000000   0.000000  -0.000000  -0.026710
    29  H   -0.000004   0.000025  -0.000005  -0.000000   0.000000   0.005224
    30  H    0.000000   0.000000  -0.000000  -0.000000   0.000000   0.001338
              19         20         21         22         23         24
     1  O    0.000003   0.001273   0.000023  -0.044337  -0.050719   0.000077
     2  C   -0.002601   0.204705  -0.018401  -0.002138  -0.000118  -0.000026
     3  C    0.005131   0.002990  -0.000209  -0.077650  -0.040642  -0.008736
     4  C   -0.018940  -0.037879   0.004205   0.005553   0.003131   0.000072
     5  C   -0.000167   0.000163   0.000029   0.372473   0.304269  -0.019887
     6  C    0.000018  -0.029234  -0.008563   0.002102   0.002400  -0.000010
     7  H   -0.004162  -0.000370  -0.000102  -0.000114  -0.000079  -0.000012
     8  H    0.000001   0.004805  -0.000244  -0.000595  -0.000002  -0.000089
     9  H   -0.000333  -0.039167  -0.002304   0.000780   0.000020  -0.000004
    10  C    0.000001   0.000563  -0.005930   0.000678  -0.000053  -0.000002
    11  H    0.000000   0.000056  -0.000347  -0.000290  -0.000005  -0.000000
    12  H   -0.000000  -0.000240   0.000870   0.000032  -0.000002   0.000002
    13  H    0.000190  -0.000065   0.000005   0.001369   0.000605  -0.000060
    14  O    0.000000  -0.020435   0.059347  -0.000012   0.000000  -0.000000
    15  H   -0.000000   0.002201  -0.003547  -0.000000  -0.000000  -0.000000
    16  O   -0.000148  -0.000011   0.000001   0.003527  -0.004632   0.005933
    17  H    0.000012   0.000001  -0.000000   0.000096   0.009428   0.002146
    18  O    0.202114   0.000558  -0.000132   0.000379  -0.000011   0.000000
    19  H    0.323951   0.001833  -0.000009   0.000010   0.000001   0.000000
    20  O    0.001833   8.351241   0.214012  -0.000006  -0.000000  -0.000000
    21  H   -0.000009   0.214012   0.334521  -0.000013  -0.000000   0.000000
    22  H    0.000010  -0.000006  -0.000013   0.639454  -0.047172   0.006218
    23  O    0.000001  -0.000000  -0.000000  -0.047172   8.302276   0.191734
    24  H    0.000000  -0.000000   0.000000   0.006218   0.191734   0.345010
    25  O   -0.000000   0.000000  -0.000000  -0.000074  -0.024704   0.080464
    26  H   -0.000000  -0.000001  -0.000000   0.000249   0.002644  -0.006699
    27  H    0.000000  -0.000000  -0.000000   0.000155   0.002420  -0.008504
    28  O    0.078908  -0.019839   0.000442   0.000000  -0.000000  -0.000000
    29  H   -0.009787   0.052913  -0.001086   0.000000  -0.000000   0.000000
    30  H   -0.004147   0.001138  -0.000017  -0.000000   0.000000   0.000000
              25         26         27         28         29         30
     1  O   -0.008731   0.024366   0.002303   0.000000  -0.000003  -0.000000
     2  C   -0.000015   0.000178  -0.000114  -0.000585  -0.003122  -0.000238
     3  C   -0.000656   0.000124  -0.005872   0.000063   0.000052   0.000013
     4  C   -0.000009   0.000002  -0.000071   0.004985  -0.001382   0.000445
     5  C    0.006689  -0.001050   0.000522   0.000000  -0.000004  -0.000000
     6  C    0.000112   0.000068   0.000505  -0.000011   0.000562  -0.000001
     7  H   -0.000008   0.000000   0.000169   0.001023   0.000204   0.000245
     8  H    0.000616  -0.000702   0.000206  -0.000002  -0.000006   0.000000
     9  H   -0.000000  -0.000003   0.000001  -0.000021   0.000085   0.000006
    10  C   -0.000005  -0.000033   0.000014  -0.000000  -0.000012  -0.000000
    11  H    0.000000  -0.000012  -0.000000   0.000000  -0.000001   0.000000
    12  H   -0.000011   0.000260  -0.000001  -0.000000   0.000001   0.000000
    13  H   -0.000060  -0.000012   0.000568   0.000001  -0.000004   0.000000
    14  O    0.000000  -0.000000  -0.000000  -0.000000   0.000025   0.000000
    15  H   -0.000000  -0.000001  -0.000000   0.000000  -0.000005  -0.000000
    16  O   -0.014890   0.000297   0.051206   0.000000  -0.000000  -0.000000
    17  H    0.002645  -0.000174  -0.004679  -0.000000   0.000000   0.000000
    18  O   -0.000000   0.000000  -0.000001  -0.026710   0.005224   0.001338
    19  H   -0.000000  -0.000000   0.000000   0.078908  -0.009787  -0.004147
    20  O    0.000000  -0.000001  -0.000000  -0.019839   0.052913   0.001138
    21  H   -0.000000  -0.000000  -0.000000   0.000442  -0.001086  -0.000017
    22  H   -0.000074   0.000249   0.000155   0.000000   0.000000  -0.000000
    23  O   -0.024704   0.002644   0.002420  -0.000000  -0.000000   0.000000
    24  H    0.080464  -0.006699  -0.008504  -0.000000   0.000000   0.000000
    25  O    8.309819   0.234948   0.218969   0.000000  -0.000000  -0.000000
    26  H    0.234948   0.359856  -0.020454  -0.000000   0.000000   0.000000
    27  H    0.218969  -0.020454   0.352905  -0.000000   0.000000   0.000000
    28  O    0.000000  -0.000000  -0.000000   8.305423   0.215939   0.241413
    29  H   -0.000000   0.000000   0.000000   0.215939   0.327670  -0.016764
    30  H   -0.000000   0.000000   0.000000   0.241413  -0.016764   0.382378
 Mulliken charges:
               1
     1  O   -0.540452
     2  C    0.097231
     3  C    0.070133
     4  C    0.129068
     5  C    0.334516
     6  C    0.108712
     7  H    0.136277
     8  H    0.123426
     9  H    0.138973
    10  C   -0.069455
    11  H    0.170562
    12  H    0.156896
    13  H    0.169614
    14  O   -0.620813
    15  H    0.408225
    16  O   -0.645033
    17  H    0.411341
    18  O   -0.677966
    19  H    0.428121
    20  O   -0.691203
    21  H    0.427450
    22  H    0.139328
    23  O   -0.650790
    24  H    0.412375
    25  O   -0.805099
    26  H    0.406150
    27  H    0.409754
    28  O   -0.801030
    29  H    0.429503
    30  H    0.394191
 Sum of Mulliken charges =  -0.00000
 Mulliken charges with hydrogens summed into heavy atoms:
               1
     1  O   -0.540452
     2  C    0.236204
     3  C    0.239746
     4  C    0.265345
     5  C    0.473843
     6  C    0.232138
    10  C    0.258002
    14  O   -0.212589
    16  O   -0.233692
    18  O   -0.249845
    20  O   -0.263753
    23  O   -0.238415
    25  O    0.010804
    28  O    0.022663
 APT charges:
               1
     1  O   -0.420867
     2  C   -0.199283
     3  C   -0.317632
     4  C   -0.241167
     5  C   -0.224587
     6  C   -0.137365
     7  H    0.321165
     8  H    0.300704
     9  H    0.359002
    10  C   -0.719152
    11  H    0.403176
    12  H    0.512948
    13  H    0.502495
    14  O   -0.787423
    15  H    0.690303
    16  O   -1.004982
    17  H    0.819454
    18  O   -0.757845
    19  H    0.587596
    20  O   -0.827172
    21  H    0.618224
    22  H    0.383325
    23  O   -0.527491
    24  H    0.474336
    25  O   -0.444272
    26  H    0.296770
    27  H    0.242452
    28  O   -0.754907
    29  H    0.149635
    30  H    0.702558
 Sum of APT charges =  -0.00000
 APT charges with hydrogens summed into heavy atoms:
               1
     1  O   -0.420867
     2  C    0.159719
     3  C    0.184863
     4  C    0.079998
     5  C    0.158739
     6  C    0.163340
    10  C    0.196972
    14  O   -0.097121
    16  O   -0.185528
    18  O   -0.170249
    20  O   -0.208948
    23  O   -0.053154
    25  O    0.094950
    28  O    0.097286
 Electronic spatial extent (au):  <R**2>=           3345.0294
 Charge=              0.0000 electrons
 Dipole moment (field-independent basis, Debye):
    X=              1.5077    Y=              2.9507    Z=              2.6169  Tot=              4.2224
 Quadrupole moment (field-independent basis, Debye-Ang):
   XX=           -100.3834   YY=            -78.7953   ZZ=            -82.5896
   XY=              7.0564   XZ=              7.9786   YZ=              0.2273
 Traceless Quadrupole moment (field-independent basis, Debye-Ang):
   XX=            -13.1273   YY=              8.4608   ZZ=              4.6665
   XY=              7.0564   XZ=              7.9786   YZ=              0.2273
 Octapole moment (field-independent basis, Debye-Ang**2):
  XXX=             31.1611  YYY=             16.3979  ZZZ=              9.0194  XYY=            -21.9190
  XXY=             -2.5361  XXZ=             25.3388  XZZ=             29.7737  YZZ=              6.0052
  YYZ=             31.2837  XYZ=             -5.4391
 Hexadecapole moment (field-independent basis, Debye-Ang**3):
 XXXX=          -2449.4823 YYYY=          -1336.5466 ZZZZ=           -358.1462 XXXY=             82.1128
 XXXZ=            132.9052 YYYX=             18.7300 YYYZ=             46.7665 ZZZX=             27.1087
 ZZZY=             -7.0048 XXYY=           -555.4741 XXZZ=           -434.8965 YYZZ=           -258.0078
 XXYZ=            -53.7470 YYXZ=             48.3832 ZZXY=             -8.3539
 N-N= 1.100385411973D+03 E-N=-4.172452360199D+03  KE= 8.328669108838D+02
  Exact polarizability:   0.000   0.000   0.000   0.000   0.000   0.000
 Approx polarizability: 135.340   0.849 125.068   2.539   5.748 126.608
 Calling FoFJK, ICntrl=    100147 FMM=F ISym2X=0 I1Cent= 0 IOpClX= 0 NMat=1 NMatS=1 NMatT=0.
 -------------------------------------------------------------------
 Center     Atomic                   Forces (Hartrees/Bohr)
 Number     Number              X              Y              Z
 -------------------------------------------------------------------
      1        8          -0.000002551   -0.000005223   -0.000004064
      2        6           0.000000389    0.000006898    0.000004986
      3        6           0.000002577   -0.000003788   -0.000002030
      4        6           0.000000226    0.000001900   -0.000006845
      5        6           0.000003748   -0.000000753   -0.000009675
      6        6          -0.000001017    0.000000157    0.000007946
      7        1           0.000000563   -0.000001229    0.000003106
      8        1          -0.000001303   -0.000000290   -0.000002316
      9        1           0.000002381    0.000001474    0.000000054
     10        6           0.000001999   -0.000001950    0.000004807
     11        1          -0.000001691    0.000002489    0.000003986
     12        1          -0.000004298    0.000000705    0.000001600
     13        1           0.000003761    0.000001406   -0.000002789
     14        8          -0.000012101    0.000001241    0.000002480
     15        1          -0.000004196    0.000002257    0.000009647
     16        8           0.000002628   -0.000005256   -0.000005667
     17        1           0.000002069   -0.000002236   -0.000004988
     18        8           0.000010349    0.000005418    0.000002087
     19        1           0.000000561    0.000001374   -0.000001153
     20        8          -0.000005028    0.000001130    0.000005351
     21        1          -0.000000934    0.000004624    0.000002734
     22        1           0.000001715    0.000001069    0.000002403
     23        8           0.000001996   -0.000003843   -0.000004696
     24        1           0.000001352   -0.000003532   -0.000005452
     25        8          -0.000007981   -0.000014704   -0.000006959
     26        1           0.000000738    0.000000262   -0.000003116
     27        1          -0.000000142   -0.000004095   -0.000002531
     28        8           0.000003396    0.000007149    0.000009283
     29        1          -0.000000063    0.000005032    0.000001699
     30        1           0.000000857    0.000002312    0.000000110
 -------------------------------------------------------------------
 Cartesian Forces:  Max     0.000014704 RMS     0.000004395
 IRC-IRC-IRC-IRC-IRC-IRC-IRC-IRC-IRC-IRC-IRC-IRC-IRC-IRC-IRC-IRC-IRC-IRC
          ******** Start new reaction path calculation ********
 Supplied step size of   0.1000 bohr.
    Integration on MW PES will use step size of   0.2365 sqrt(amu)*bohr.
 Point Number:   0          Path Number:   1
 Calculating another point on the path.
 IRC-IRC-IRC-IRC-IRC-IRC-IRC-IRC-IRC-IRC-IRC-IRC-IRC-IRC-IRC-IRC-IRC-IRC
                          Input orientation:                          
 ---------------------------------------------------------------------
 Center     Atomic      Atomic             Coordinates (Angstroms)
 Number     Number       Type             X           Y           Z
 ---------------------------------------------------------------------
      1          8           0       -1.317127    0.973742   -0.304242
      2          6           0        1.059790    0.252574   -0.301413
      3          6           0       -0.829052   -1.448306   -0.303883
      4          6           0        0.649268   -1.185263    0.052125
      5          6           0       -1.518999   -0.268960   -1.015733
      6          6           0        0.004092    1.275801    0.150975
      7          1           0        0.745229   -1.291231    1.144806
      8          1           0        0.003697    1.273096    1.253861
      9          1           0        1.192821    0.311260   -1.392822
     10          6           0        0.313258    2.695493   -0.351862
     11          1           0        0.362925    2.689649   -1.444635
     12          1           0       -0.494941    3.375771   -0.056050
     13          1           0       -0.839543   -2.297343   -0.996052
     14          8           0        1.588379    3.179206    0.098701
     15          1           0        1.500454    3.436609    1.030407
     16          8           0       -1.532803   -1.804056    0.899346
     17          1           0       -2.333043   -2.277791    0.618454
     18          8           0        1.420867   -2.142686   -0.638175
     19          1           0        2.345920   -2.115540   -0.297325
     20          8           0        2.297096    0.550423    0.356295
     21          1           0        2.469138    1.502750    0.203496
     22          1           0       -1.109739   -0.177579   -2.031084
     23          8           0       -2.884193   -0.454247   -1.148826
     24          1           0       -3.292950   -0.290483   -0.263960
     25          8           0       -3.431633    0.230327    1.510086
     26          1           0       -2.947388    1.017521    1.206593
     27          1           0       -2.702692   -0.396854    1.691260
     28          8           0        3.945096   -1.657234    0.402711
     29          1           0        3.602572   -0.737106    0.404821
     30          1           0        3.967452   -1.908650    1.338513
 ---------------------------------------------------------------------
                    Distance matrix (angstroms):
                    1          2          3          4          5
     1  O    0.000000
     2  C    2.483913   0.000000
     3  C    2.470735   2.541795   0.000000
     4  C    2.941940   1.536520   1.543167   0.000000
     5  C    1.446126   2.726244   1.540653   2.584824   0.000000
     6  C    1.429714   1.538229   2.884750   2.546147   2.463190
     7  H    3.388680   2.138652   2.145165   1.101993   3.292369
     8  H    2.064430   2.139082   3.244390   2.811487   3.138088
     9  H    2.814911   1.101051   2.893065   2.150094   2.798717
    10  C    2.371677   2.554938   4.298632   3.916169   3.547658
    11  H    2.658460   2.780631   4.454750   4.163800   3.532558
    12  H    2.550948   3.497391   4.841979   4.703610   3.905605
    13  H    3.377378   3.254545   1.095478   2.133531   2.139249
    14  O    3.669932   3.000778   5.236402   4.464604   4.773637
    15  H    3.973130   3.479369   5.573986   4.800339   5.199522
    16  O    3.035012   3.520381   1.438605   2.421182   2.454432
    17  H    3.529294   4.331307   1.949549   3.226225   2.714523
    18  O    4.161760   2.445620   2.378246   1.410155   3.506596
    19  H    4.791828   2.694830   3.244332   1.966254   4.343221
    20  O    3.698394   1.432558   3.768761   2.412564   4.137201
    21  H    3.856611   1.950419   4.454685   3.249654   4.531083
    22  H    2.085793   2.807784   2.162581   2.906767   1.098536
    23  O    2.282142   4.095450   2.434274   3.802897   1.384124
    24  H    2.346010   4.386645   2.722671   4.054827   1.926792
    25  O    2.883676   4.843026   3.589112   4.558871   3.207369
    26  H    2.223126   4.349333   3.584576   4.372756   2.938377
    27  H    2.789328   4.306828   2.932008   3.813658   2.957244
    28  O    5.925606   3.531027   4.830674   3.347857   5.813400
    29  H    5.256730   2.818506   4.543936   3.007863   5.335506
    30  H    6.239680   3.976776   5.090760   3.631587   6.191301
                    6          7          8          9         10
     6  C    0.000000
     7  H    2.850726   0.000000
     8  H    1.102889   2.671616   0.000000
     9  H    2.174103   3.034447   3.056807   0.000000
    10  C    1.537516   4.280255   2.167346   2.746233   0.000000
    11  H    2.161874   4.764322   3.068802   2.519553   1.093916
    12  H    2.168355   4.976041   2.527004   3.745227   1.097027
    13  H    3.846394   2.847285   4.303625   3.330576   5.164527
    14  O    2.477024   4.667981   2.734752   3.256719   1.436286
    15  H    2.771568   4.789146   2.640265   3.966671   1.967067
    16  O    3.522446   2.347907   3.457655   4.142175   5.021892
    17  H    4.278873   3.275073   4.298010   4.814575   5.716465
    18  O    3.783658   2.088177   4.154003   2.577469   4.971594
    19  H    4.145639   2.306825   4.401708   2.901570   5.223095
    20  O    2.413752   2.534114   2.566624   2.082314   3.006397
    21  H    2.476029   3.415297   2.689685   2.365770   2.525644
    22  H    2.848564   3.842838   3.759662   2.438877   3.619289
    23  O    3.608981   4.374242   4.134795   4.155427   4.558476
    24  H    3.673677   4.392380   3.951764   4.664607   4.682789
    25  O    3.839844   4.460352   3.599238   5.460677   4.854699
    26  H    3.145198   4.355407   2.962509   4.939341   3.984493
    27  H    3.535100   3.603703   3.210077   5.018765   4.778380
    28  O    4.919104   3.305119   4.984568   3.830656   5.718904
    29  H    4.131016   3.003172   4.208763   3.183943   4.814031
    30  H    5.221034   3.286557   5.083505   4.481827   6.116260
                   11         12         13         14         15
    11  H    0.000000
    12  H    1.770555   0.000000
    13  H    5.149490   5.760779   0.000000
    14  O    2.030588   2.098287   6.089817   0.000000
    15  H    2.824491   2.272815   6.516159   0.970600   0.000000
    16  O    5.411231   5.368477   2.077612   5.934282   6.056599
    17  H    6.016647   5.983004   2.199444   6.739919   6.893458
    18  O    5.012094   5.870482   2.293785   5.375275   5.824005
    19  H    5.323385   6.187341   3.266258   5.363305   5.770965
    20  O    3.400096   3.993505   4.447147   2.734800   3.069061
    21  H    2.925953   3.515869   5.179478   1.896635   2.315587
    22  H    3.276227   4.111573   2.374384   4.804563   5.408159
    23  O    4.529389   4.644537   2.756980   5.895948   6.254034
    24  H    4.862160   4.616654   3.253098   5.999803   6.208326
    25  O    5.401603   4.579384   4.403269   5.990694   5.902188
    26  H    4.558859   3.629064   4.503663   5.145240   5.066194
    27  H    5.362681   4.707436   3.782172   5.808420   5.727006
    28  O    5.927903   6.727223   5.025838   5.388663   5.684850
    29  H    5.065417   5.823896   4.912145   4.414542   4.714887
    30  H    6.471698   7.055697   5.358029   5.751817   5.895151
                   16         17         18         19         20
    16  O    0.000000
    17  H    0.971447   0.000000
    18  O    3.347059   3.960961   0.000000
    19  H    4.071060   4.770500   0.986224   0.000000
    20  O    4.528422   5.431916   3.001597   2.745353   0.000000
    21  H    5.237815   6.125816   3.885420   3.654863   0.979730
    22  H    3.378140   3.595472   3.493682   4.324719   4.223280
    23  O    2.800581   2.598530   4.652434   5.553290   5.488216
    24  H    2.596594   2.376861   5.078461   5.926955   5.686867
    25  O    2.849083   2.879681   5.813173   6.492299   5.852524
    26  H    3.171238   3.403293   5.698397   6.332215   5.333461
    27  H    1.993987   2.196696   5.047567   5.691821   5.260927
    28  O    5.502325   6.312421   2.773236   1.804843   2.755324
    29  H    5.268303   6.136031   2.797022   1.993054   1.834218
    30  H    5.518751   6.352243   3.232207   2.312604   3.130796
                   21         22         23         24         25
    21  H    0.000000
    22  H    4.541499   0.000000
    23  O    5.858052   2.000903   0.000000
    24  H    6.052756   2.811029   0.988377   0.000000
    25  O    6.176191   4.254112   2.799669   1.854108   0.000000
    26  H    5.529955   3.909958   2.778146   1.998202   0.972767
    27  H    5.706992   4.054803   2.846458   2.045141   0.978538
    28  O    3.493370   5.802077   7.105888   7.396064   7.694498
    29  H    2.518364   5.334096   6.676223   6.942259   7.185930
    30  H    3.894978   6.334719   7.432846   7.609193   7.703968
                   26         27         28         29         30
    26  H    0.000000
    27  H    1.515004   0.000000
    28  O    7.436859   6.887815   0.000000
    29  H    6.828143   6.444149   0.981816   0.000000
    30  H    7.509654   6.848415   0.969244   1.541893   0.000000
 Symmetry turned off by external request.
 Stoichiometry    C6H16O8
 Framework group  C1[X(C6H16O8)]
 Deg. of freedom    84
 Full point group                 C1      NOp   1
 Rotational constants (GHZ):      0.7406464      0.4822697      0.3390139
 Standard basis: 6-31G(d) (6D, 7F)
   242 basis functions,   456 primitive gaussians,   242 cartesian basis functions
    58 alpha electrons       58 beta electrons
       nuclear repulsion energy      1100.2701630380 Hartrees.
 NAtoms=   30 NActive=   30 NUniq=   30 SFac= 1.00D+00 NAtFMM=   60 NAOKFM=F Big=F
 Integral buffers will be    131072 words long.
 Raffenetti 2 integral format.
 Two-electron integral symmetry is turned off.
 One-electron integrals computed using PRISM.
 NBasis=   242 RedAO= T EigKep=  1.26D-03  NBF=   242
 NBsUse=   242 1.00D-06 EigRej= -1.00D+00 NBFU=   242
 Initial guess from the checkpoint file:  "/scratch/10502072.yak.local/Gau-14206.chk"
 B after Tr=     0.019964    0.017039    0.019529
         Rot=    1.000000   -0.000007    0.000013   -0.000005 Ang=  -0.00 deg.
 ExpMin= 1.61D-01 ExpMax= 5.48D+03 ExpMxC= 8.25D+02 IAcc=1 IRadAn=         1 AccDes= 0.00D+00
 Harris functional with IExCor=  402 and IRadAn=       1 diagonalized for initial guess.
 HarFok:  IExCor=  402 AccDes= 0.00D+00 IRadAn=         1 IDoV= 1 UseB2=F ITyADJ=14
 ICtDFT=  3500011 ScaDFX=  1.000000  1.000000  1.000000  1.000000
 FoFCou: FMM=F IPFlag=           0 FMFlag=      100000 FMFlg1=           0
         NFxFlg=           0 DoJE=T BraDBF=F KetDBF=T FulRan=T
         wScrn=  0.000000 ICntrl=     500 IOpCl=  0 I1Cent=   200000004 NGrid=           0
         NMat0=    1 NMatS0=      1 NMatT0=    0 NMatD0=    1 NMtDS0=    0 NMtDT0=    0
 Symmetry not used in FoFCou.
 Requested convergence on RMS density matrix=1.00D-08 within 128 cycles.
 Requested convergence on MAX density matrix=1.00D-06.
 Requested convergence on             energy=1.00D-06.
 No special actions if energy rises.
 Integral accuracy reduced to 1.0D-05 until final iterations.
 Initial convergence to 1.0D-05 achieved.  Increase integral accuracy.
 SCF Done:  E(RB3LYP) =  -839.997777945     A.U. after    9 cycles
            NFock=  9  Conv=0.59D-08     -V/T= 2.0086
 DoSCS=F DFT=T ScalE2(SS,OS)=  1.000000  1.000000
 Range of M.O.s used for correlation:     1   242
 NBasis=   242 NAE=    58 NBE=    58 NFC=     0 NFV=     0
 NROrb=    242 NOA=    58 NOB=    58 NVA=   184 NVB=   184
 Symmetrizing basis deriv contribution to polar:
 IMax=3 JMax=2 DiffMx= 0.00D+00
 Calling FoFJK, ICntrl=      2147 FMM=F ISym2X=0 I1Cent= 0 IOpClX= 0 NMat=1 NMatS=1 NMatT=0.
 -------------------------------------------------------------------
 Center     Atomic                   Forces (Hartrees/Bohr)
 Number     Number              X              Y              Z
 -------------------------------------------------------------------
      1        8           0.000017295   -0.000015185    0.000005229
      2        6          -0.000001206    0.000008986    0.000006307
      3        6          -0.000002916   -0.000013015   -0.000007394
      4        6          -0.000001805   -0.000005003   -0.000005331
      5        6          -0.000000203    0.000004550   -0.000003716
      6        6          -0.000006713    0.000005006    0.000014834
      7        1           0.000000707   -0.000001492   -0.000003429
      8        1          -0.000003263   -0.000001888   -0.000015506
      9        1           0.000001909    0.000001791    0.000000603
     10        6           0.000002112   -0.000000627    0.000001997
     11        1          -0.000001772    0.000003328    0.000013548
     12        1          -0.000000680    0.000000073    0.000000028
     13        1           0.000003381    0.000021447    0.000013417
     14        8          -0.000019946    0.000001107    0.000005762
     15        1          -0.000003247   -0.000002028   -0.000006601
     16        8          -0.000002451   -0.000015133   -0.000052125
     17        1           0.000020117    0.000008883    0.000000458
     18        8           0.000011292    0.000011298    0.000008439
     19        1          -0.000007149    0.000002388   -0.000002248
     20        8          -0.000003317    0.000004309    0.000001022
     21        1          -0.000002052   -0.000000150    0.000002998
     22        1          -0.000000623    0.000001601    0.000015856
     23        8          -0.000003357    0.000007553    0.000008066
     24        1           0.000006340   -0.000005822   -0.000013400
     25        8           0.000013150   -0.000021651   -0.000003970
     26        1          -0.000007602   -0.000021728    0.000005020
     27        1          -0.000010413    0.000007014   -0.000008354
     28        8          -0.000001941    0.000014472    0.000028879
     29        1           0.000004309   -0.000007112    0.000002856
     30        1           0.000000042    0.000007026   -0.000013242
 -------------------------------------------------------------------
 Cartesian Forces:  Max     0.000052125 RMS     0.000010655
 IRC-IRC-IRC-IRC-IRC-IRC-IRC-IRC-IRC-IRC-IRC-IRC-IRC-IRC-IRC-IRC-IRC-IRC
 Pt  1 Step number   1 out of a maximum of  20
 Modified Bulirsch-Stoer Extrapolation Cycles:
    EPS =    0.000010000000000
 Maximum DWI energy   std dev =  0.000000136 at pt  1536
 Maximum DWI gradient std dev =  0.887331532 at pt     2
 WARNING: Bulirsch-Stoer Method is not Converging
 CORRECTOR INTEGRATION CONVERGENCE:
   Recorrection delta-x convergence threshold:    0.010000
   Delta-x Convergence NOT Met
 IRC-IRC-IRC-IRC-IRC-IRC-IRC-IRC-IRC-IRC-IRC-IRC-IRC-IRC-IRC-IRC-IRC-IRC
                          Input orientation:                          
 ---------------------------------------------------------------------
 Center     Atomic      Atomic             Coordinates (Angstroms)
 Number     Number       Type             X           Y           Z
 ---------------------------------------------------------------------
      1          8           0       -1.316995    0.972959   -0.307413
      2          6           0        1.059901    0.252620   -0.300756
      3          6           0       -0.828468   -1.449005   -0.302531
      4          6           0        0.650194   -1.185717    0.051828
      5          6           0       -1.518292   -0.271097   -1.016709
      6          6           0        0.003069    1.274774    0.151204
      7          1           0        0.747500   -1.292698    1.144271
      8          1           0        0.000542    1.270553    1.254082
      9          1           0        1.193534    0.311936   -1.392062
     10          6           0        0.312330    2.695274   -0.349245
     11          1           0        0.363846    2.690777   -1.441913
     12          1           0       -0.496795    3.374710   -0.054020
     13          1           0       -0.839763   -2.299642   -0.992636
     14          8           0        1.586331    3.179252    0.104034
     15          1           0        1.496902    3.434797    1.036096
     16          8           0       -1.531654   -1.801491    0.901975
     17          1           0       -2.331740   -2.276458    0.622837
     18          8           0        1.421318   -2.142180   -0.640339
     19          1           0        2.346785   -2.114699   -0.300652
     20          8           0        2.296573    0.550823    0.357972
     21          1           0        2.467915    1.503496    0.206551
     22          1           0       -1.108547   -0.181443   -2.031984
     23          8           0       -2.883409   -0.456821   -1.150157
     24          1           0       -3.292602   -0.291831   -0.265767
     25          8           0       -3.432438    0.232496    1.507420
     26          1           0       -2.949238    1.019631    1.202196
     27          1           0       -2.702683   -0.393320    1.689919
     28          8           0        3.945848   -1.655925    0.399368
     29          1           0        3.602711   -0.736033    0.403594
     30          1           0        3.968986   -1.909256    1.334596
 ---------------------------------------------------------------------
                    Distance matrix (angstroms):
                    1          2          3          4          5
     1  O    0.000000
     2  C    2.483660   0.000000
     3  C    2.470748   2.541942   0.000000
     4  C    2.942579   1.536550   1.543157   0.000000
     5  C    1.446132   2.726526   1.540576   2.584692   0.000000
     6  C    1.429682   1.538168   2.883800   2.546107   2.463387
     7  H    3.391567   2.138623   2.145075   1.101974   3.293527
     8  H    2.064638   2.139148   3.241342   2.810823   3.136883
     9  H    2.813569   1.101056   2.894216   2.150116   2.799075
    10  C    2.371248   2.554951   4.298680   3.916261   3.549090
    11  H    2.657671   2.780530   4.456187   4.164188   3.534960
    12  H    2.550557   3.497375   4.841487   4.703645   3.906679
    13  H    3.377454   3.255988   1.095424   2.133473   2.139153
    14  O    3.669648   3.001027   5.236155   4.464530   4.774899
    15  H    3.972868   3.479137   5.572324   4.799463   5.199909
    16  O    3.034184   3.518820   1.438594   2.421238   2.454309
    17  H    3.528992   4.330414   1.949566   3.226096   2.715010
    18  O    4.160924   2.445609   2.378265   1.410159   3.504841
    19  H    4.791343   2.694489   3.244285   1.966131   4.341708
    20  O    3.698487   1.432552   3.768483   2.412438   4.137450
    21  H    3.856316   1.950527   4.454500   3.249602   4.531599
    22  H    2.085723   2.808510   2.162444   2.905858   1.098504
    23  O    2.282136   4.095666   2.434272   3.802948   1.384141
    24  H    2.346157   4.386562   2.722565   4.055310   1.926790
    25  O    2.883922   4.842625   3.589433   4.560479   3.207615
    26  H    2.223807   4.349755   3.585531   4.375251   2.938899
    27  H    2.788582   4.305469   2.932066   3.814842   2.956951
    28  O    5.925207   3.530072   4.830070   3.347120   5.812043
    29  H    5.256396   2.817699   4.543379   3.007210   5.334613
    30  H    6.240589   3.976287   5.089949   3.630892   6.190510
                    6          7          8          9         10
     6  C    0.000000
     7  H    2.851714   0.000000
     8  H    1.102889   2.672127   0.000000
     9  H    2.173922   3.034269   3.056838   0.000000
    10  C    1.537502   4.280641   2.167417   2.746687   0.000000
    11  H    2.161769   4.764831   3.068781   2.519872   1.093891
    12  H    2.168343   4.976834   2.527044   3.745418   1.097030
    13  H    3.846451   2.845999   4.301179   3.333793   5.166281
    14  O    2.477091   4.667341   2.735045   3.257928   1.436237
    15  H    2.771330   4.787746   2.640182   3.967398   1.967047
    16  O    3.518869   2.347791   3.450950   4.141960   5.018637
    17  H    4.276098   3.274354   4.291771   4.815304   5.714382
    18  O    3.783324   2.088177   4.153815   2.576753   4.971474
    19  H    4.145565   2.306773   4.402498   2.899952   5.222759
    20  O    2.413922   2.533074   2.567642   2.082398   3.006002
    21  H    2.476054   3.414360   2.690635   2.366311   2.525033
    22  H    2.850012   3.842968   3.759867   2.439775   3.622983
    23  O    3.608839   4.375682   4.132960   4.155836   4.559596
    24  H    3.672814   4.394584   3.949149   4.664600   4.682445
    25  O    3.837757   4.464301   3.595427   5.460122   4.851367
    26  H    3.144169   4.360745   2.960888   4.938985   3.981529
    27  H    3.531469   3.606990   3.204037   5.017619   4.773668
    28  O    4.918952   3.303974   4.986005   3.828437   5.718025
    29  H    4.130917   3.001785   4.210148   3.182256   4.813237
    30  H    5.221777   3.285474   5.085884   4.480122   6.116220
                   11         12         13         14         15
    11  H    0.000000
    12  H    1.770512   0.000000
    13  H    5.153136   5.761675   0.000000
    14  O    2.030525   2.098237   6.091543   0.000000
    15  H    2.824520   2.273058   6.516099   0.970588   0.000000
    16  O    5.409917   5.364505   2.077599   5.930122   6.050525
    17  H    6.016876   5.980038   2.199155   6.736855   6.888230
    18  O    5.011811   5.870179   2.293774   5.375775   5.823986
    19  H    5.322324   6.187115   3.266059   5.363579   5.771144
    20  O    3.399180   3.993367   4.448134   2.734514   3.068653
    21  H    2.924752   3.515515   5.180989   1.896274   2.315369
    22  H    3.281124   4.114950   2.374712   4.808245   5.410978
    23  O    4.531795   4.645221   2.756318   5.896830   6.253921
    24  H    4.863011   4.615723   3.252085   5.999096   6.206605
    25  O    5.399397   4.574889   4.402723   5.986728   5.897056
    26  H    4.556377   3.624770   4.503859   5.142112   5.062488
    27  H    5.359443   4.701629   3.781618   5.802926   5.720007
    28  O    5.925780   6.726806   5.025348   5.388272   5.684910
    29  H    5.063514   5.823536   4.912220   4.414180   4.714904
    30  H    6.470421   7.056327   5.356536   5.751890   5.895693
                   16         17         18         19         20
    16  O    0.000000
    17  H    0.971416   0.000000
    18  O    3.348858   3.962207   0.000000
    19  H    4.072678   4.771540   0.986221   0.000000
    20  O    4.525997   5.430005   3.002492   2.746145   0.000000
    21  H    5.234798   6.123564   3.886328   3.655580   0.979731
    22  H    3.378119   3.596298   3.490184   4.321379   4.224092
    23  O    2.801182   2.599793   4.650917   5.552041   5.488353
    24  H    2.596850   2.377313   5.077907   5.926783   5.686650
    25  O    2.848973   2.879041   5.814715   6.494450   5.851849
    26  H    3.171499   3.403111   5.700329   6.334859   5.333951
    27  H    1.993767   2.196013   5.049356   5.694089   5.259092
    28  O    5.502439   6.312140   2.773208   1.804855   2.755278
    29  H    5.267381   6.135038   2.797413   1.993497   1.834142
    30  H    5.518679   6.351423   3.231908   2.312526   3.130934
                   21         22         23         24         25
    21  H    0.000000
    22  H    4.543253   0.000000
    23  O    5.858342   2.000897   0.000000
    24  H    6.052259   2.811014   0.988335   0.000000
    25  O    6.174291   4.254315   2.799876   1.854364   0.000000
    26  H    5.529104   3.910325   2.778094   1.998186   0.972741
    27  H    5.703804   4.054470   2.846529   2.045242   0.978517
    28  O    3.493337   5.799352   7.104761   7.395830   7.696299
    29  H    2.518349   5.332501   6.675467   6.941952   7.186781
    30  H    3.895199   6.332499   7.432286   7.609722   7.707013
                   26         27         28         29         30
    26  H    0.000000
    27  H    1.514957   0.000000
    28  O    7.439445   6.889314   0.000000
    29  H    6.829946   6.444384   0.981815   0.000000
    30  H    7.513836   6.850947   0.969208   1.541874   0.000000
 Symmetry turned off by external request.
 Stoichiometry    C6H16O8
 Framework group  C1[X(C6H16O8)]
 Deg. of freedom    84
 Full point group                 C1      NOp   1
 Rotational constants (GHZ):      0.7408397      0.4822973      0.3390835
 Standard basis: 6-31G(d) (6D, 7F)
   242 basis functions,   456 primitive gaussians,   242 cartesian basis functions
    58 alpha electrons       58 beta electrons
       nuclear repulsion energy      1100.3169483702 Hartrees.
 NAtoms=   30 NActive=   30 NUniq=   30 SFac= 1.00D+00 NAtFMM=   60 NAOKFM=F Big=F
 Integral buffers will be    131072 words long.
 Raffenetti 2 integral format.
 Two-electron integral symmetry is turned off.
 One-electron integrals computed using PRISM.
 NBasis=   242 RedAO= T EigKep=  1.26D-03  NBF=   242
 NBsUse=   242 1.00D-06 EigRej= -1.00D+00 NBFU=   242
 Initial guess from the checkpoint file:  "/scratch/10502072.yak.local/Gau-14206.chk"
 B after Tr=    -0.000011   -0.000021    0.000023
         Rot=    1.000000   -0.000179    0.000095   -0.000129 Ang=  -0.03 deg.
 ExpMin= 1.61D-01 ExpMax= 5.48D+03 ExpMxC= 8.25D+02 IAcc=1 IRadAn=         1 AccDes= 0.00D+00
 Harris functional with IExCor=  402 and IRadAn=       1 diagonalized for initial guess.
 HarFok:  IExCor=  402 AccDes= 0.00D+00 IRadAn=         1 IDoV= 1 UseB2=F ITyADJ=14
 ICtDFT=  3500011 ScaDFX=  1.000000  1.000000  1.000000  1.000000
 FoFCou: FMM=F IPFlag=           0 FMFlag=      100000 FMFlg1=           0
         NFxFlg=           0 DoJE=T BraDBF=F KetDBF=T FulRan=T
         wScrn=  0.000000 ICntrl=     500 IOpCl=  0 I1Cent=   200000004 NGrid=           0
         NMat0=    1 NMatS0=      1 NMatT0=    0 NMatD0=    1 NMtDS0=    0 NMtDT0=    0
 Symmetry not used in FoFCou.
 Requested convergence on RMS density matrix=1.00D-08 within 128 cycles.
 Requested convergence on MAX density matrix=1.00D-06.
 Requested convergence on             energy=1.00D-06.
 No special actions if energy rises.
 Integral accuracy reduced to 1.0D-05 until final iterations.
 Initial convergence to 1.0D-05 achieved.  Increase integral accuracy.
 SCF Done:  E(RB3LYP) =  -839.997777756     A.U. after    9 cycles
            NFock=  9  Conv=0.38D-08     -V/T= 2.0086
 DoSCS=F DFT=T ScalE2(SS,OS)=  1.000000  1.000000
 Range of M.O.s used for correlation:     1   242
 NBasis=   242 NAE=    58 NBE=    58 NFC=     0 NFV=     0
 NROrb=    242 NOA=    58 NOB=    58 NVA=   184 NVB=   184
 Symmetrizing basis deriv contribution to polar:
 IMax=3 JMax=2 DiffMx= 0.00D+00
 Calling FoFJK, ICntrl=      2147 FMM=F ISym2X=0 I1Cent= 0 IOpClX= 0 NMat=1 NMatS=1 NMatT=0.
 -------------------------------------------------------------------
 Center     Atomic                   Forces (Hartrees/Bohr)
 Number     Number              X              Y              Z
 -------------------------------------------------------------------
      1        8          -0.000005085   -0.000002361    0.000006660
      2        6          -0.000000143    0.000003639    0.000001421
      3        6           0.000003685    0.000000014   -0.000008571
      4        6           0.000001041    0.000002609   -0.000001847
      5        6           0.000001932    0.000002847   -0.000002977
      6        6          -0.000001255    0.000001165    0.000002866
      7        1           0.000000201   -0.000000230    0.000000028
      8        1          -0.000001768   -0.000000664    0.000002814
      9        1           0.000001094    0.000001981    0.000000952
     10        6          -0.000004824    0.000002304    0.000005053
     11        1          -0.000001077    0.000001159    0.000000668
     12        1          -0.000003201   -0.000000267    0.000002270
     13        1           0.000002947    0.000000017   -0.000002646
     14        8          -0.000004380    0.000004926    0.000002557
     15        1          -0.000003809    0.000001346    0.000006183
     16        8           0.000001636   -0.000014501   -0.000017150
     17        1           0.000001110   -0.000002854   -0.000004210
     18        8           0.000008530    0.000005646    0.000000206
     19        1           0.000002331    0.000002029    0.000000245
     20        8          -0.000001389    0.000004256    0.000004785
     21        1          -0.000000984    0.000003298    0.000002896
     22        1           0.000001729    0.000000510   -0.000001020
     23        8           0.000002915    0.000001156   -0.000006774
     24        1           0.000000742   -0.000002748   -0.000003339
     25        8          -0.000003968   -0.000020839   -0.000002934
     26        1          -0.000001711   -0.000003379   -0.000001776
     27        1          -0.000000063   -0.000004668   -0.000002325
     28        8           0.000001411    0.000015384   -0.000005830
     29        1           0.000001034    0.000001171    0.000001712
     30        1           0.000001319   -0.000002946    0.000020081
 -------------------------------------------------------------------
 Cartesian Forces:  Max     0.000020839 RMS     0.000005183
 IRC-IRC-IRC-IRC-IRC-IRC-IRC-IRC-IRC-IRC-IRC-IRC-IRC-IRC-IRC-IRC-IRC-IRC
 Error in corrector energy =           0.0000001745
 Magnitude of corrector gradient =     0.0000440956
 Magnitude of analytic gradient =      0.0000491684
 Magnitude of difference =             0.0000200716
 Angle between gradients (degrees)=   24.0730
 Pt  1 Step number   2 out of a maximum of  20
 Modified Bulirsch-Stoer Extrapolation Cycles:
    EPS =    0.000010000000000
 Maximum DWI energy   std dev =  0.000000160 at pt  1536
 Maximum DWI gradient std dev =  0.505108111 at pt     3
 WARNING: Bulirsch-Stoer Method is not Converging
 CORRECTOR INTEGRATION CONVERGENCE:
   Recorrection delta-x convergence threshold:    0.010000
   Delta-x Convergence NOT Met
 IRC-IRC-IRC-IRC-IRC-IRC-IRC-IRC-IRC-IRC-IRC-IRC-IRC-IRC-IRC-IRC-IRC-IRC
                          Input orientation:                          
 ---------------------------------------------------------------------
 Center     Atomic      Atomic             Coordinates (Angstroms)
 Number     Number       Type             X           Y           Z
 ---------------------------------------------------------------------
      1          8           0       -1.317205    0.972638   -0.307582
      2          6           0        1.059910    0.253025   -0.300385
      3          6           0       -0.827930   -1.449181   -0.303170
      4          6           0        0.650538   -1.185526    0.051719
      5          6           0       -1.517902   -0.271306   -1.017254
      6          6           0        0.002620    1.274711    0.151567
      7          1           0        0.747535   -1.292730    1.144170
      8          1           0       -0.000273    1.270130    1.254445
      9          1           0        1.193827    0.312696   -1.391635
     10          6           0        0.311575    2.695473   -0.348320
     11          1           0        0.363391    2.691371   -1.440974
     12          1           0       -0.497856    3.374543   -0.053083
     13          1           0       -0.838708   -2.299622   -0.993532
     14          8           0        1.585295    3.179701    0.105495
     15          1           0        1.495460    3.435028    1.037582
     16          8           0       -1.531404   -1.802240    0.901011
     17          1           0       -2.331088   -2.277645    0.621465
     18          8           0        1.422159   -2.141605   -0.640424
     19          1           0        2.347525   -2.113892   -0.300468
     20          8           0        2.296307    0.551432    0.358764
     21          1           0        2.467312    1.504242    0.207806
     22          1           0       -1.107859   -0.181254   -2.032377
     23          8           0       -2.882917   -0.457419   -1.151189
     24          1           0       -3.292451   -0.292869   -0.266879
     25          8           0       -3.432907    0.231166    1.506428
     26          1           0       -2.949540    1.018250    1.201330
     27          1           0       -2.703262   -0.394759    1.689000
     28          8           0        3.946255   -1.654798    0.400003
     29          1           0        3.602888   -0.734990    0.404329
     30          1           0        3.969335   -1.908246    1.335208
 ---------------------------------------------------------------------
                    Distance matrix (angstroms):
                    1          2          3          4          5
     1  O    0.000000
     2  C    2.483661   0.000000
     3  C    2.470753   2.541938   0.000000
     4  C    2.942581   1.536551   1.543155   0.000000
     5  C    1.446136   2.726525   1.540574   2.584692   0.000000
     6  C    1.429687   1.538169   2.883780   2.546082   2.463392
     7  H    3.391553   2.138615   2.145078   1.101975   3.293519
     8  H    2.064641   2.139156   3.241271   2.810756   3.136852
     9  H    2.813535   1.101055   2.894213   2.150141   2.799052
    10  C    2.371233   2.554967   4.298682   3.916259   3.549118
    11  H    2.657636   2.780578   4.456234   4.164243   3.535005
    12  H    2.550540   3.497380   4.841468   4.703618   3.906704
    13  H    3.377450   3.255949   1.095429   2.133451   2.139143
    14  O    3.669642   3.001034   5.236145   4.464513   4.774919
    15  H    3.972898   3.479225   5.572366   4.799515   5.199963
    16  O    3.034225   3.518859   1.438603   2.421261   2.454319
    17  H    3.529224   4.330469   1.949561   3.226054   2.715155
    18  O    4.160939   2.445629   2.378254   1.410159   3.504851
    19  H    4.791343   2.694485   3.244281   1.966130   4.341709
    20  O    3.698500   1.432551   3.768483   2.412437   4.137453
    21  H    3.856268   1.950534   4.454484   3.249597   4.531586
    22  H    2.085715   2.808490   2.162442   2.905852   1.098507
    23  O    2.282145   4.095666   2.434276   3.802950   1.384140
    24  H    2.346222   4.386589   2.722543   4.055306   1.926798
    25  O    2.883853   4.842567   3.589446   4.560452   3.207600
    26  H    2.223379   4.349300   3.585104   4.374791   2.938480
    27  H    2.788775   4.305664   2.932136   3.814967   2.957048
    28  O    5.925210   3.530060   4.830070   3.347129   5.812029
    29  H    5.256437   2.817718   4.543431   3.007272   5.334641
    30  H    6.240653   3.976306   5.090066   3.630989   6.190591
                    6          7          8          9         10
     6  C    0.000000
     7  H    2.851651   0.000000
     8  H    1.102891   2.672009   0.000000
     9  H    2.173918   3.034284   3.056844   0.000000
    10  C    1.537500   4.280579   2.167419   2.746725   0.000000
    11  H    2.161775   4.764829   3.068788   2.519951   1.093890
    12  H    2.168330   4.976731   2.527008   3.745453   1.097032
    13  H    3.846419   2.846009   4.301105   3.333750   5.166277
    14  O    2.477089   4.667261   2.735064   3.257969   1.436241
    15  H    2.771383   4.787740   2.640271   3.967497   1.967041
    16  O    3.518881   2.347827   3.450904   4.141988   5.018647
    17  H    4.276240   3.274324   4.291861   4.815336   5.714548
    18  O    3.783326   2.088177   4.153767   2.576829   4.971524
    19  H    4.145546   2.306785   4.402445   2.900000   5.222775
    20  O    2.413931   2.533079   2.567694   2.082392   3.006001
    21  H    2.475996   3.414303   2.690584   2.366380   2.524977
    22  H    2.850019   3.842957   3.759848   2.439732   3.623037
    23  O    3.608846   4.375683   4.132933   4.155807   4.559617
    24  H    3.672859   4.394573   3.949156   4.664598   4.682502
    25  O    3.837640   4.464257   3.595263   5.460045   4.851190
    26  H    3.143728   4.360305   2.960480   4.938498   3.981126
    27  H    3.531661   3.607103   3.204192   5.017779   4.773830
    28  O    4.918943   3.304041   4.986017   3.828429   5.718020
    29  H    4.130946   3.001912   4.210222   3.182249   4.813242
    30  H    5.221786   3.285627   5.085900   4.480145   6.116183
                   11         12         13         14         15
    11  H    0.000000
    12  H    1.770512   0.000000
    13  H    5.153179   5.761664   0.000000
    14  O    2.030538   2.098244   6.091521   0.000000
    15  H    2.824508   2.272997   6.516132   0.970592   0.000000
    16  O    5.409961   5.364476   2.077621   5.930126   6.050582
    17  H    6.017059   5.980216   2.199067   6.736981   6.888415
    18  O    5.011939   5.870206   2.293725   5.375808   5.824081
    19  H    5.322415   6.187109   3.266025   5.363575   5.771214
    20  O    3.399200   3.993360   4.448093   2.734499   3.068759
[...]
 ICtDFT=  3500011 ScaDFX=  1.000000  1.000000  1.000000  1.000000
 FoFCou: FMM=F IPFlag=           0 FMFlag=      100000 FMFlg1=           0
         NFxFlg=           0 DoJE=T BraDBF=F KetDBF=T FulRan=T
         wScrn=  0.000000 ICntrl=     500 IOpCl=  0 I1Cent=   200000004 NGrid=           0
         NMat0=    1 NMatS0=      1 NMatT0=    0 NMatD0=    1 NMtDS0=    0 NMtDT0=    0
 Symmetry not used in FoFCou.
 Requested convergence on RMS density matrix=1.00D-08 within 128 cycles.
 Requested convergence on MAX density matrix=1.00D-06.
 Requested convergence on             energy=1.00D-06.
 No special actions if energy rises.
 Integral accuracy reduced to 1.0D-05 until final iterations.
 Initial convergence to 1.0D-05 achieved.  Increase integral accuracy.
 SCF Done:  E(RB3LYP) =  -839.997778096     A.U. after    7 cycles
            NFock=  7  Conv=0.73D-08     -V/T= 2.0086
 DoSCS=F DFT=T ScalE2(SS,OS)=  1.000000  1.000000
 Range of M.O.s used for correlation:     1   242
 NBasis=   242 NAE=    58 NBE=    58 NFC=     0 NFV=     0
 NROrb=    242 NOA=    58 NOB=    58 NVA=   184 NVB=   184
 Symmetrizing basis deriv contribution to polar:
 IMax=3 JMax=2 DiffMx= 0.00D+00
 Calling FoFJK, ICntrl=      2147 FMM=F ISym2X=0 I1Cent= 0 IOpClX= 0 NMat=1 NMatS=1 NMatT=0.
 -------------------------------------------------------------------
 Center     Atomic                   Forces (Hartrees/Bohr)
 Number     Number              X              Y              Z
 -------------------------------------------------------------------
      1        8          -0.000003200   -0.000002578    0.000006254
      2        6          -0.000000193    0.000004351    0.000002776
      3        6           0.000004644   -0.000000423   -0.000009639
      4        6           0.000002204    0.000002634   -0.000001831
      5        6           0.000002665    0.000002079   -0.000003729
      6        6          -0.000002934    0.000001006    0.000004339
      7        1          -0.000000233    0.000000068   -0.000000127
      8        1          -0.000000235   -0.000000067    0.000000358
      9        1           0.000000147    0.000000657    0.000000298
     10        6          -0.000006399    0.000002605    0.000006819
     11        1          -0.000000551    0.000000413    0.000000573
     12        1          -0.000000659    0.000000009    0.000000696
     13        1           0.000000912    0.000000394   -0.000001354
     14        8          -0.000009849    0.000005969    0.000010249
     15        1          -0.000000719    0.000000381    0.000000696
     16        8           0.000001770   -0.000016371   -0.000020095
     17        1           0.000000317   -0.000001126   -0.000001867
     18        8           0.000010611    0.000007898    0.000000154
     19        1           0.000000496    0.000000606    0.000000347
     20        8          -0.000002483    0.000007100    0.000007500
     21        1          -0.000000256    0.000000719    0.000000634
     22        1           0.000000382    0.000000830   -0.000000195
     23        8           0.000004746   -0.000001632   -0.000010359
     24        1           0.000000080   -0.000000659   -0.000000624
     25        8          -0.000004875   -0.000025383   -0.000006429
     26        1          -0.000000145   -0.000001543    0.000000121
     27        1          -0.000000425   -0.000001793   -0.000000543
     28        8           0.000002389    0.000019519   -0.000000284
     29        1           0.000001193   -0.000002258    0.000000299
     30        1           0.000000600   -0.000003404    0.000014963
 -------------------------------------------------------------------
 Cartesian Forces:  Max     0.000025383 RMS     0.000005824
 IRC-IRC-IRC-IRC-IRC-IRC-IRC-IRC-IRC-IRC-IRC-IRC-IRC-IRC-IRC-IRC-IRC-IRC
 Error in corrector energy =           0.0000000000
 Magnitude of corrector gradient =     0.0000552531
 Magnitude of analytic gradient =      0.0000552531
 Magnitude of difference =             0.0000000001
 Angle between gradients (degrees)=    0.0001
 Pt  1 Step number  19 out of a maximum of  20
 Modified Bulirsch-Stoer Extrapolation Cycles:
    EPS =    0.000010000000000
 Maximum DWI energy   std dev =  0.000000122 at pt     2
 Maximum DWI gradient std dev =  0.494276174 at pt     3
 WARNING: Bulirsch-Stoer Method is not Converging
 CORRECTOR INTEGRATION CONVERGENCE:
   Recorrection delta-x convergence threshold:    0.010000
   Delta-x Convergence NOT Met
 IRC-IRC-IRC-IRC-IRC-IRC-IRC-IRC-IRC-IRC-IRC-IRC-IRC-IRC-IRC-IRC-IRC-IRC
                          Input orientation:                          
 ---------------------------------------------------------------------
 Center     Atomic      Atomic             Coordinates (Angstroms)
 Number     Number       Type             X           Y           Z
 ---------------------------------------------------------------------
      1          8           0       -1.317164    0.972549   -0.308011
      2          6           0        1.059924    0.252951   -0.300343
      3          6           0       -0.827925   -1.449281   -0.302841
      4          6           0        0.650619   -1.185628    0.051740
      5          6           0       -1.517851   -0.271616   -1.017304
      6          6           0        0.002541    1.274571    0.151518
      7          1           0        0.747849   -1.292911    1.144159
      8          1           0       -0.000598    1.269867    1.254400
      9          1           0        1.193888    0.312628   -1.391588
     10          6           0        0.311558    2.695393   -0.348166
     11          1           0        0.363608    2.691384   -1.440809
     12          1           0       -0.497966    3.374402   -0.053043
     13          1           0       -0.838889   -2.300003   -0.992844
     14          8           0        1.585160    3.179645    0.105952
     15          1           0        1.495160    3.434728    1.038093
     16          8           0       -1.531276   -1.801763    0.901581
     17          1           0       -2.331003   -2.277285    0.622369
     18          8           0        1.422110   -2.141647   -0.640636
     19          1           0        2.347548   -2.113908   -0.300878
     20          8           0        2.296272    0.551401    0.358881
     21          1           0        2.467220    1.504241    0.208033
     22          1           0       -1.107764   -0.181897   -2.032435
     23          8           0       -2.882867   -0.457727   -1.151243
     24          1           0       -3.292427   -0.292962   -0.266992
     25          8           0       -3.432986    0.231657    1.506175
     26          1           0       -2.949896    1.018789    1.200768
     27          1           0       -2.703133   -0.393975    1.688921
     28          8           0        3.946294   -1.654790    0.399565
     29          1           0        3.602881   -0.734998    0.404145
     30          1           0        3.969480   -1.908471    1.334702
 ---------------------------------------------------------------------
                    Distance matrix (angstroms):
                    1          2          3          4          5
     1  O    0.000000
     2  C    2.483632   0.000000
     3  C    2.470757   2.541962   0.000000
     4  C    2.942673   1.536556   1.543157   0.000000
     5  C    1.446139   2.726560   1.540568   2.584673   0.000000
     6  C    1.429687   1.538162   2.883658   2.546083   2.463418
     7  H    3.391959   2.138613   2.145069   1.101973   3.293685
     8  H    2.064673   2.139171   3.240869   2.810682   3.136697
     9  H    2.813364   1.101055   2.894377   2.150141   2.799100
    10  C    2.371189   2.554968   4.298696   3.916275   3.549313
    11  H    2.657558   2.780553   4.456436   4.164289   3.535338
    12  H    2.550489   3.497376   4.841404   4.703627   3.906842
    13  H    3.377475   3.256167   1.095424   2.133453   2.139145
    14  O    3.669621   3.001080   5.236128   4.464517   4.775100
    15  H    3.972844   3.479159   5.572106   4.799358   5.199989
    16  O    3.034101   3.518635   1.438603   2.421264   2.454312
    17  H    3.529150   4.330344   1.949577   3.226051   2.715225
    18  O    4.160827   2.445625   2.378263   1.410161   3.504606
    19  H    4.791282   2.694439   3.244281   1.966115   4.341499
    20  O    3.698517   1.432552   3.768449   2.412422   4.137484
    21  H    3.856237   1.950552   4.454465   3.249594   4.531657
    22  H    2.085721   2.808578   2.162422   2.905714   1.098504
    23  O    2.282138   4.095693   2.434287   3.802964   1.384141
    24  H    2.346245   4.386581   2.722523   4.055374   1.926796
    25  O    2.883903   4.842541   3.589489   4.560692   3.207643
    26  H    2.223593   4.349540   3.585382   4.375321   2.938663
    27  H    2.788555   4.305379   2.932097   3.815067   2.956944
    28  O    5.925164   3.529940   4.829987   3.347024   5.811847
    29  H    5.256399   2.817619   4.543354   3.007175   5.334523
    30  H    6.240784   3.976258   5.089940   3.630885   6.190478
                    6          7          8          9         10
     6  C    0.000000
     7  H    2.851803   0.000000
     8  H    1.102897   2.672107   0.000000
     9  H    2.173894   3.034258   3.056854   0.000000
    10  C    1.537501   4.280648   2.167437   2.746780   0.000000
    11  H    2.161767   4.764904   3.068796   2.519974   1.093890
    12  H    2.168328   4.976862   2.527024   3.745469   1.097033
    13  H    3.846446   2.845831   4.300792   3.334220   5.166538
    14  O    2.477108   4.667195   2.735107   3.258144   1.436240
    15  H    2.771319   4.787514   2.640209   3.967571   1.967040
    16  O    3.518383   2.347804   3.449981   4.141955   5.018198
    17  H    4.275840   3.274231   4.290984   4.815447   5.714244
    18  O    3.783283   2.088175   4.153756   2.576719   4.971501
    19  H    4.145541   2.306774   4.402570   2.899768   5.222726
    20  O    2.413954   2.532936   2.567832   2.082404   3.005945
    21  H    2.476002   3.414180   2.690714   2.366454   2.524892
    22  H    2.850215   3.842968   3.759883   2.439845   3.623539
    23  O    3.608826   4.375900   4.132696   4.155857   4.559764
    24  H    3.672754   4.394892   3.948823   4.664599   4.682474
    25  O    3.837396   4.464834   3.594796   5.459995   4.850792
    26  H    3.143761   4.361247   2.960451   4.938615   3.980864
    27  H    3.531052   3.607510   3.203260   5.017529   4.773078
    28  O    4.918930   3.303851   4.986213   3.828146   5.717910
    29  H    4.130936   3.001682   4.210402   3.182047   4.813145
    30  H    5.221904   3.285442   5.086237   4.479938   6.116208
                   11         12         13         14         15
    11  H    0.000000
    12  H    1.770514   0.000000
    13  H    5.153699   5.761799   0.000000
    14  O    2.030532   2.098243   6.091790   0.000000
    15  H    2.824523   2.273053   6.516105   0.970595   0.000000
    16  O    5.409783   5.363928   2.077616   5.929555   6.049693
    17  H    6.017084   5.979781   2.199053   6.736549   6.887630
    18  O    5.011875   5.870159   2.293740   5.375884   5.824039
    19  H    5.322245   6.187078   3.266011   5.363623   5.771202
    20  O    3.399059   3.993343   4.448247   2.734468   3.068661
    21  H    2.924581   3.515394   5.181191   1.896162   2.315314
    22  H    3.281874   4.115473   2.374746   4.808794   5.411408
    23  O    4.532146   4.645321   2.756251   5.896972   6.253920
    24  H    4.863204   4.615663   3.251911   5.999078   6.206441
    25  O    5.398991   4.574096   4.402696   5.986070   5.896218
    26  H    4.555745   3.623936   4.503627   5.141463   5.061793
    27  H    5.359062   4.700837   3.781562   5.802241   5.719109
    28  O    5.925525   6.726744   5.025244   5.388220   5.684977
    29  H    5.063284   5.823499   4.912243   4.414130   4.714976
    30  H    6.470274   7.056392   5.356414   5.751846   5.895762
                   16         17         18         19         20
    16  O    0.000000
    17  H    0.971414   0.000000
    18  O    3.349096   3.962252   0.000000
    19  H    4.072913   4.771574   0.986225   0.000000
    20  O    4.525708   5.429785   3.002616   2.746231   0.000000
    21  H    5.234371   6.123280   3.886515   3.655724   0.979736
    22  H    3.378132   3.596519   3.489698   4.320896   4.224167
    23  O    2.801307   2.600201   4.650714   5.551874   5.488379
    24  H    2.596863   2.377569   5.077806   5.926746   5.686671
    25  O    2.849006   2.879283   5.814923   6.494743   5.851745
    26  H    3.171358   3.403186   5.700312   6.334954   5.333807
    27  H    1.993746   2.196104   5.049637   5.694458   5.258973
    28  O    5.502490   6.312021   2.773185   1.804827   2.755269
    29  H    5.267352   6.134921   2.797497   1.993567   1.834148
    30  H    5.518812   6.351340   3.231938   2.312572   3.130946
                   21         22         23         24         25
    21  H    0.000000
    22  H    4.543487   0.000000
    23  O    5.858360   2.000893   0.000000
    24  H    6.052200   2.811028   0.988325   0.000000
    25  O    6.173903   4.254344   2.799955   1.854482   0.000000
    26  H    5.528683   3.910076   2.777867   1.998084   0.972742
    27  H    5.703403   4.054463   2.846559   2.045254   0.978517
    28  O    3.493397   5.798926   7.104605   7.395807   7.696560
    29  H    2.518408   5.332262   6.675406   6.941980   7.186954
    30  H    3.895224   6.332225   7.432311   7.609900   7.707532
                   26         27         28         29         30
    26  H    0.000000
    27  H    1.514954   0.000000
    28  O    7.439582   6.889629   0.000000
    29  H    6.830026   6.444592   0.981820   0.000000
    30  H    7.514289   6.851491   0.969213   1.541873   0.000000
 Symmetry turned off by external request.
 Stoichiometry    C6H16O8
 Framework group  C1[X(C6H16O8)]
 Deg. of freedom    84
 Full point group                 C1      NOp   1
 Rotational constants (GHZ):      0.7408622      0.4823027      0.3390923
 Standard basis: 6-31G(d) (6D, 7F)
   242 basis functions,   456 primitive gaussians,   242 cartesian basis functions
    58 alpha electrons       58 beta electrons
       nuclear repulsion energy      1100.3216069227 Hartrees.
 NAtoms=   30 NActive=   30 NUniq=   30 SFac= 1.00D+00 NAtFMM=   60 NAOKFM=F Big=F
 Integral buffers will be    131072 words long.
 Raffenetti 2 integral format.
 Two-electron integral symmetry is turned off.
 One-electron integrals computed using PRISM.
 NBasis=   242 RedAO= T EigKep=  1.26D-03  NBF=   242
 NBsUse=   242 1.00D-06 EigRej= -1.00D+00 NBFU=   242
 Initial guess from the checkpoint file:  "/scratch/10502072.yak.local/Gau-14206.chk"
 B after Tr=     0.000000    0.000000   -0.000000
         Rot=    1.000000   -0.000000    0.000000   -0.000000 Ang=   0.00 deg.
 ExpMin= 1.61D-01 ExpMax= 5.48D+03 ExpMxC= 8.25D+02 IAcc=1 IRadAn=         1 AccDes= 0.00D+00
 Harris functional with IExCor=  402 and IRadAn=       1 diagonalized for initial guess.
 HarFok:  IExCor=  402 AccDes= 0.00D+00 IRadAn=         1 IDoV= 1 UseB2=F ITyADJ=14
 ICtDFT=  3500011 ScaDFX=  1.000000  1.000000  1.000000  1.000000
 FoFCou: FMM=F IPFlag=           0 FMFlag=      100000 FMFlg1=           0
         NFxFlg=           0 DoJE=T BraDBF=F KetDBF=T FulRan=T
         wScrn=  0.000000 ICntrl=     500 IOpCl=  0 I1Cent=   200000004 NGrid=           0
         NMat0=    1 NMatS0=      1 NMatT0=    0 NMatD0=    1 NMtDS0=    0 NMtDT0=    0
 Symmetry not used in FoFCou.
 Requested convergence on RMS density matrix=1.00D-08 within 128 cycles.
 Requested convergence on MAX density matrix=1.00D-06.
 Requested convergence on             energy=1.00D-06.
 No special actions if energy rises.
 Integral accuracy reduced to 1.0D-05 until final iterations.
 Initial convergence to 1.0D-05 achieved.  Increase integral accuracy.
 SCF Done:  E(RB3LYP) =  -839.997778096     A.U. after    7 cycles
            NFock=  7  Conv=0.73D-08     -V/T= 2.0086
 DoSCS=F DFT=T ScalE2(SS,OS)=  1.000000  1.000000
 Range of M.O.s used for correlation:     1   242
 NBasis=   242 NAE=    58 NBE=    58 NFC=     0 NFV=     0
 NROrb=    242 NOA=    58 NOB=    58 NVA=   184 NVB=   184
 Symmetrizing basis deriv contribution to polar:
 IMax=3 JMax=2 DiffMx= 0.00D+00
 Calling FoFJK, ICntrl=      2147 FMM=F ISym2X=0 I1Cent= 0 IOpClX= 0 NMat=1 NMatS=1 NMatT=0.
 -------------------------------------------------------------------
 Center     Atomic                   Forces (Hartrees/Bohr)
 Number     Number              X              Y              Z
 -------------------------------------------------------------------
      1        8          -0.000003200   -0.000002578    0.000006254
      2        6          -0.000000193    0.000004351    0.000002776
      3        6           0.000004644   -0.000000423   -0.000009639
      4        6           0.000002204    0.000002634   -0.000001831
      5        6           0.000002665    0.000002079   -0.000003729
      6        6          -0.000002934    0.000001006    0.000004339
      7        1          -0.000000233    0.000000068   -0.000000127
      8        1          -0.000000235   -0.000000067    0.000000358
      9        1           0.000000147    0.000000657    0.000000298
     10        6          -0.000006399    0.000002605    0.000006819
     11        1          -0.000000551    0.000000413    0.000000573
     12        1          -0.000000659    0.000000009    0.000000696
     13        1           0.000000912    0.000000394   -0.000001354
     14        8          -0.000009849    0.000005969    0.000010249
     15        1          -0.000000718    0.000000381    0.000000696
     16        8           0.000001770   -0.000016371   -0.000020095
     17        1           0.000000317   -0.000001126   -0.000001867
     18        8           0.000010611    0.000007898    0.000000154
     19        1           0.000000496    0.000000606    0.000000347
     20        8          -0.000002483    0.000007100    0.000007500
     21        1          -0.000000256    0.000000719    0.000000634
     22        1           0.000000382    0.000000830   -0.000000195
     23        8           0.000004746   -0.000001632   -0.000010359
     24        1           0.000000080   -0.000000659   -0.000000624
     25        8          -0.000004875   -0.000025383   -0.000006429
     26        1          -0.000000145   -0.000001543    0.000000121
     27        1          -0.000000425   -0.000001793   -0.000000543
     28        8           0.000002389    0.000019519   -0.000000284
     29        1           0.000001193   -0.000002258    0.000000299
     30        1           0.000000600   -0.000003404    0.000014963
 -------------------------------------------------------------------
 Cartesian Forces:  Max     0.000025383 RMS     0.000005824
 IRC-IRC-IRC-IRC-IRC-IRC-IRC-IRC-IRC-IRC-IRC-IRC-IRC-IRC-IRC-IRC-IRC-IRC
 Error in corrector energy =           0.0000000000
 Magnitude of corrector gradient =     0.0000552532
 Magnitude of analytic gradient =      0.0000552532
 Magnitude of difference =             0.0000000001
 Angle between gradients (degrees)=    0.0001
 Pt  1 Step number  20 out of a maximum of  20
 Modified Bulirsch-Stoer Extrapolation Cycles:
    EPS =    0.000010000000000
 Maximum DWI energy   std dev =  0.000000122 at pt     2
 Maximum DWI gradient std dev =  0.494277779 at pt     3
 WARNING: Bulirsch-Stoer Method is not Converging
 CORRECTOR INTEGRATION CONVERGENCE:
   Recorrection delta-x convergence threshold:    0.010000
   Delta-x Convergence NOT Met
 Maximum number of corrector steps exceded.
 Error termination via Lnk1e in /global/software/gaussian/g09.e01/l123.exe at Tue Jan 31 14:07:29 2017.
 Job cpu time:       0 days  4 hours 32 minutes 12.6 seconds.
 File lengths (MBytes):  RWF=    220 Int=      0 D2E=      0 Chk=      8 Scr=      1
