 Entering Gaussian System, Link 0=g09
 Initial command:
 /global/software/gaussian/g09.d01/l1.exe "/home/iawad/Gau-13824.inp" -scrdir="/home/iawad/"
 Entering Link 1 = /global/software/gaussian/g09.d01/l1.exe PID=     13825.
  
 Copyright (c) 1988,1990,1992,1993,1995,1998,2003,2009,2013,
            Gaussian, Inc.  All Rights Reserved.
  
 This is part of the Gaussian(R) 09 program.  It is based on
 the Gaussian(R) 03 system (copyright 2003, Gaussian, Inc.),
 the Gaussian(R) 98 system (copyright 1998, Gaussian, Inc.),
 the Gaussian(R) 94 system (copyright 1995, Gaussian, Inc.),
 the Gaussian 92(TM) system (copyright 1992, Gaussian, Inc.),
 the Gaussian 90(TM) system (copyright 1990, Gaussian, Inc.),
 the Gaussian 88(TM) system (copyright 1988, Gaussian, Inc.),
 the Gaussian 86(TM) system (copyright 1986, Carnegie Mellon
 University), and the Gaussian 82(TM) system (copyright 1983,
 Carnegie Mellon University). Gaussian is a federally registered
 trademark of Gaussian, Inc.
  
 This software contains proprietary and confidential information,
 including trade secrets, belonging to Gaussian, Inc.
  
 This software is provided under written license and may be
 used, copied, transmitted, or stored only in accord with that
 written license.
  
 The following legend is applicable only to US Government
 contracts under FAR:
  
                    RESTRICTED RIGHTS LEGEND
  
 Use, reproduction and disclosure by the US Government is
 subject to restrictions as set forth in subparagraphs (a)
 and (c) of the Commercial Computer Software - Restricted
 Rights clause in FAR 52.227-19.
  
 Gaussian, Inc.
 340 Quinnipiac St., Bldg. 40, Wallingford CT 06492
  
  
 ---------------------------------------------------------------
 Warning -- This program may not be used in any manner that
 competes with the business of Gaussian, Inc. or will provide
 assistance to any competitor of Gaussian, Inc.  The licensee
 of this program is prohibited from giving any competitor of
 Gaussian, Inc. access to this program.  By using this program,
 the user acknowledges that Gaussian, Inc. is engaged in the
 business of creating and licensing software in the field of
 computational chemistry and represents and warrants to the
 licensee that it is not a competitor of Gaussian, Inc. and that
 it will not use this program in any manner prohibited above.
 ---------------------------------------------------------------
  

 Cite this work as:
 Gaussian 09, Revision D.01,
 M. J. Frisch, G. W. Trucks, H. B. Schlegel, G. E. Scuseria, 
 M. A. Robb, J. R. Cheeseman, G. Scalmani, V. Barone, B. Mennucci, 
 G. A. Petersson, H. Nakatsuji, M. Caricato, X. Li, H. P. Hratchian, 
 A. F. Izmaylov, J. Bloino, G. Zheng, J. L. Sonnenberg, M. Hada, 
 M. Ehara, K. Toyota, R. Fukuda, J. Hasegawa, M. Ishida, T. Nakajima, 
 Y. Honda, O. Kitao, H. Nakai, T. Vreven, J. A. Montgomery, Jr., 
 J. E. Peralta, F. Ogliaro, M. Bearpark, J. J. Heyd, E. Brothers, 
 K. N. Kudin, V. N. Staroverov, T. Keith, R. Kobayashi, J. Normand, 
 K. Raghavachari, A. Rendell, J. C. Burant, S. S. Iyengar, J. Tomasi, 
 M. Cossi, N. Rega, J. M. Millam, M. Klene, J. E. Knox, J. B. Cross, 
 V. Bakken, C. Adamo, J. Jaramillo, R. Gomperts, R. E. Stratmann, 
 O. Yazyev, A. J. Austin, R. Cammi, C. Pomelli, J. W. Ochterski, 
 R. L. Martin, K. Morokuma, V. G. Zakrzewski, G. A. Voth, 
 P. Salvador, J. J. Dannenberg, S. Dapprich, A. D. Daniels, 
 O. Farkas, J. B. Foresman, J. V. Ortiz, J. Cioslowski, 
 and D. J. Fox, Gaussian, Inc., Wallingford CT, 2013.
 
 ******************************************
 Gaussian 09:  ES64L-G09RevD.01 24-Apr-2013
                23-Jan-2017 
 ******************************************
 %NPROCS=18
 Will use up to   18 processors via shared memory.
 ------------------------------------------------------
 # opt=(modredundant,MaxCycle=1000) freq B3LYP/6-31G(d)
 ------------------------------------------------------
 1/6=1000,14=-1,18=120,19=15,26=3,38=1/1,3;
 2/9=110,12=2,17=6,18=5,40=1/2;
 3/5=1,6=6,7=1,11=2,16=1,25=1,30=1,71=1,74=-5/1,2,3;
 4//1;
 5/5=2,38=5/2;
 6/7=2,8=2,9=2,10=2,28=1/1;
 7//1,2,3,16;
 1/6=1000,14=-1,18=20,19=15,26=3/3(2);
 2/9=110/2;
 99//99;
 2/9=110/2;
 3/5=1,6=6,7=1,11=2,16=1,25=1,30=1,71=1,74=-5/1,2,3;
 4/5=5,16=3,69=1/1;
 5/5=2,38=5/2;
 7//1,2,3,16;
 1/6=1000,14=-1,18=20,19=15,26=3/3(-5);
 2/9=110/2;
 6/7=2,8=2,9=2,10=2,19=2,28=1/1;
 99/9=1/99;
 ------------------------
 boat5_Beta_B3LYP_6-31G_d
 ------------------------
 Symbolic Z-matrix:
 Charge =  0 Multiplicity = 1
 O                     0.04501   1.5603    0.19339 
 C                     0.86816  -0.67546   1.04036 
 C                    -1.1818   -0.54027  -0.43118 
 C                     0.04635  -1.3753   -0.03498 
 C                    -1.19559   0.85763   0.21734 
 C                     1.27316   0.72527   0.58959 
 H                    -0.28219  -2.35391   0.33459 
 H                     1.72138   1.26819   1.42871 
 H                     1.76519  -1.26814   1.25554 
 H                    -1.16391  -0.42309  -1.52155 
 C                     2.22513   0.76456  -0.59686 
 H                     2.52286   1.79834  -0.80395 
 H                     1.74754   0.39747  -1.51072 
 H                    -1.54605   0.78803   1.25338 
 O                    -2.13488   1.64978  -0.47426 
 H                    -1.65451   2.43852  -0.7289 
 O                     3.3875    0.00645  -0.34719 
 H                     3.79652   0.42259   0.41259 
 O                    -2.36011  -1.24077  -0.10108 
 H                    -2.31249  -2.05601  -0.60195 
 O                     0.83488  -1.63708  -1.1743 
 H                     1.57283  -2.15564  -0.85122 
 O                     0.13774  -0.61997   2.2452 
 H                    -0.64026  -0.10009   2.03971 
 O                    -0.87576   3.68057  -1.72783 
 H                    -0.27997   2.96183  -1.95153 
 H                    -1.06469   4.19691  -2.51479 
 O                     0.73871   1.44242  -2.39546 
 H                     1.09961   2.11452  -2.97824 
 H                     0.71764   1.77626  -1.49562 
 
 Add virtual bond connecting atoms H30        and H26        Dist= 3.05D+00.
 Add virtual bond connecting atoms O25        and H16        Dist= 3.35D+00.
 Add virtual bond connecting atoms O28        and H13        Dist= 3.21D+00.
 Add virtual bond connecting atoms H30        and O1         Dist= 3.46D+00.
 Add virtual bond connecting atoms H30        and H13        Dist= 3.25D+00.
 The following ModRedundant input section has been read:
 D       5       1       6       2 F                                           
 D       5       3       4       2 F                                           
 

 GradGradGradGradGradGradGradGradGradGradGradGradGradGradGradGradGradGrad
 Berny optimization.
 Initialization pass.
                           ----------------------------
                           !    Initial Parameters    !
                           ! (Angstroms and Degrees)  !
 --------------------------                            --------------------------
 ! Name  Definition              Value          Derivative Info.                !
 --------------------------------------------------------------------------------
 ! R1    R(1,5)                  1.426          estimate D2E/DX2                !
 ! R2    R(1,6)                  1.5371         estimate D2E/DX2                !
 ! R3    R(1,30)                 1.8308         estimate D2E/DX2                !
 ! R4    R(2,4)                  1.5237         estimate D2E/DX2                !
 ! R5    R(2,6)                  1.5262         estimate D2E/DX2                !
 ! R6    R(2,9)                  1.0965         estimate D2E/DX2                !
 ! R7    R(2,23)                 1.41           estimate D2E/DX2                !
 ! R8    R(3,4)                  1.5371         estimate D2E/DX2                !
 ! R9    R(3,5)                  1.5411         estimate D2E/DX2                !
 ! R10   R(3,10)                 1.0968         estimate D2E/DX2                !
 ! R11   R(3,19)                 1.41           estimate D2E/DX2                !
 ! R12   R(4,7)                  1.0964         estimate D2E/DX2                !
 ! R13   R(4,21)                 1.4101         estimate D2E/DX2                !
 ! R14   R(5,14)                 1.0959         estimate D2E/DX2                !
 ! R15   R(5,15)                 1.41           estimate D2E/DX2                !
 ! R16   R(6,8)                  1.0953         estimate D2E/DX2                !
 ! R17   R(6,11)                 1.5217         estimate D2E/DX2                !
 ! R18   R(11,12)                1.0956         estimate D2E/DX2                !
 ! R19   R(11,13)                1.0945         estimate D2E/DX2                !
 ! R20   R(11,17)                1.41           estimate D2E/DX2                !
 ! R21   R(13,28)                1.7007         estimate D2E/DX2                !
 ! R22   R(13,30)                1.721          estimate D2E/DX2                !
 ! R23   R(15,16)                0.958          estimate D2E/DX2                !
 ! R24   R(16,25)                1.774          estimate D2E/DX2                !
 ! R25   R(17,18)                0.958          estimate D2E/DX2                !
 ! R26   R(19,20)                0.958          estimate D2E/DX2                !
 ! R27   R(21,22)                0.958          estimate D2E/DX2                !
 ! R28   R(23,24)                0.958          estimate D2E/DX2                !
 ! R29   R(25,26)                0.96           estimate D2E/DX2                !
 ! R30   R(25,27)                0.96           estimate D2E/DX2                !
 ! R31   R(26,30)                1.6151         estimate D2E/DX2                !
 ! R32   R(28,29)                0.96           estimate D2E/DX2                !
 ! R33   R(28,30)                0.96           estimate D2E/DX2                !
 ! A1    A(5,1,6)              115.0312         estimate D2E/DX2                !
 ! A2    A(5,1,30)             113.1573         estimate D2E/DX2                !
 ! A3    A(6,1,30)              90.4774         estimate D2E/DX2                !
 ! A4    A(4,2,6)              110.8693         estimate D2E/DX2                !
 ! A5    A(4,2,9)              109.3591         estimate D2E/DX2                !
 ! A6    A(4,2,23)             109.9823         estimate D2E/DX2                !
 ! A7    A(6,2,9)              109.6923         estimate D2E/DX2                !
 ! A8    A(6,2,23)             110.7146         estimate D2E/DX2                !
 ! A9    A(9,2,23)             106.1039         estimate D2E/DX2                !
 ! A10   A(4,3,5)              113.0456         estimate D2E/DX2                !
 ! A11   A(4,3,10)             107.5338         estimate D2E/DX2                !
 ! A12   A(4,3,19)             109.7234         estimate D2E/DX2                !
 ! A13   A(5,3,10)             108.7594         estimate D2E/DX2                !
 ! A14   A(5,3,19)             110.1607         estimate D2E/DX2                !
 ! A15   A(10,3,19)            107.4246         estimate D2E/DX2                !
 ! A16   A(2,4,3)              111.3067         estimate D2E/DX2                !
 ! A17   A(2,4,7)              109.4925         estimate D2E/DX2                !
 ! A18   A(2,4,21)             110.7256         estimate D2E/DX2                !
 ! A19   A(3,4,7)              109.411          estimate D2E/DX2                !
 ! A20   A(3,4,21)             109.8401         estimate D2E/DX2                !
 ! A21   A(7,4,21)             105.9147         estimate D2E/DX2                !
 ! A22   A(1,5,3)              115.603          estimate D2E/DX2                !
 ! A23   A(1,5,14)             108.989          estimate D2E/DX2                !
 ! A24   A(1,5,15)             107.1267         estimate D2E/DX2                !
 ! A25   A(3,5,14)             110.0653         estimate D2E/DX2                !
 ! A26   A(3,5,15)             108.0091         estimate D2E/DX2                !
 ! A27   A(14,5,15)            106.6387         estimate D2E/DX2                !
 ! A28   A(1,6,2)              111.2664         estimate D2E/DX2                !
 ! A29   A(1,6,8)              104.7831         estimate D2E/DX2                !
 ! A30   A(1,6,11)             106.5504         estimate D2E/DX2                !
 ! A31   A(2,6,8)              109.7087         estimate D2E/DX2                !
 ! A32   A(2,6,11)             114.8348         estimate D2E/DX2                !
 ! A33   A(8,6,11)             109.1786         estimate D2E/DX2                !
 ! A34   A(6,11,12)            109.9845         estimate D2E/DX2                !
 ! A35   A(6,11,13)            111.6769         estimate D2E/DX2                !
 ! A36   A(6,11,17)            111.3326         estimate D2E/DX2                !
 ! A37   A(12,11,13)           106.0953         estimate D2E/DX2                !
 ! A38   A(12,11,17)           108.4684         estimate D2E/DX2                !
 ! A39   A(13,11,17)           109.1002         estimate D2E/DX2                !
 ! A40   A(11,13,28)           119.1509         estimate D2E/DX2                !
 ! A41   A(11,13,30)            89.1461         estimate D2E/DX2                !
 ! A42   A(5,15,16)            105.0045         estimate D2E/DX2                !
 ! A43   A(15,16,25)           161.1333         estimate D2E/DX2                !
 ! A44   A(11,17,18)           105.0017         estimate D2E/DX2                !
 ! A45   A(3,19,20)            105.0012         estimate D2E/DX2                !
 ! A46   A(4,21,22)            104.9959         estimate D2E/DX2                !
 ! A47   A(2,23,24)            104.9965         estimate D2E/DX2                !
 ! A48   A(16,25,26)            83.0769         estimate D2E/DX2                !
 ! A49   A(16,25,27)           138.7456         estimate D2E/DX2                !
 ! A50   A(26,25,27)           109.5            estimate D2E/DX2                !
 ! A51   A(25,26,30)           150.1263         estimate D2E/DX2                !
 ! A52   A(13,28,29)           121.5313         estimate D2E/DX2                !
 ! A53   A(29,28,30)           109.5            estimate D2E/DX2                !
 ! A54   A(1,30,13)             97.6692         estimate D2E/DX2                !
 ! A55   A(1,30,26)             96.8962         estimate D2E/DX2                !
 ! A56   A(1,30,28)            146.282          estimate D2E/DX2                !
 ! A57   A(13,30,26)           162.7866         estimate D2E/DX2                !
 ! A58   A(26,30,28)            90.2427         estimate D2E/DX2                !
 ! D1    D(6,1,5,3)            -45.344          estimate D2E/DX2                !
 ! D2    D(6,1,5,14)            79.2137         estimate D2E/DX2                !
 ! D3    D(6,1,5,15)          -165.7683         estimate D2E/DX2                !
 ! D4    D(30,1,5,3)            56.7627         estimate D2E/DX2                !
 ! D5    D(30,1,5,14)         -178.6796         estimate D2E/DX2                !
 ! D6    D(30,1,5,15)          -63.6616         estimate D2E/DX2                !
 ! D7    D(5,1,6,2)             -4.6893         Frozen                          !
 ! D8    D(5,1,6,8)           -123.1777         estimate D2E/DX2                !
 ! D9    D(5,1,6,11)           121.1727         estimate D2E/DX2                !
 ! D10   D(30,1,6,2)          -120.661          estimate D2E/DX2                !
 ! D11   D(30,1,6,8)           120.8506         estimate D2E/DX2                !
 ! D12   D(30,1,6,11)            5.201          estimate D2E/DX2                !
 ! D13   D(5,1,30,13)          -94.6276         estimate D2E/DX2                !
 ! D14   D(5,1,30,26)           76.1738         estimate D2E/DX2                !
 ! D15   D(5,1,30,28)          -24.7155         estimate D2E/DX2                !
 ! D16   D(6,1,30,13)           23.0029         estimate D2E/DX2                !
 ! D17   D(6,1,30,26)         -166.1956         estimate D2E/DX2                !
 ! D18   D(6,1,30,28)           92.9151         estimate D2E/DX2                !
 ! D19   D(6,2,4,3)            -55.5739         estimate D2E/DX2                !
 ! D20   D(6,2,4,7)           -176.6695         estimate D2E/DX2                !
 ! D21   D(6,2,4,21)            66.9111         estimate D2E/DX2                !
 ! D22   D(9,2,4,3)           -176.6511         estimate D2E/DX2                !
 ! D23   D(9,2,4,7)             62.2532         estimate D2E/DX2                !
 ! D24   D(9,2,4,21)           -54.1662         estimate D2E/DX2                !
 ! D25   D(23,2,4,3)            67.207          estimate D2E/DX2                !
 ! D26   D(23,2,4,7)           -53.8886         estimate D2E/DX2                !
 ! D27   D(23,2,4,21)         -170.308          estimate D2E/DX2                !
 ! D28   D(4,2,6,1)             55.5509         estimate D2E/DX2                !
 ! D29   D(4,2,6,8)            171.0354         estimate D2E/DX2                !
 ! D30   D(4,2,6,11)           -65.5769         estimate D2E/DX2                !
 ! D31   D(9,2,6,1)            176.4314         estimate D2E/DX2                !
 ! D32   D(9,2,6,8)            -68.0841         estimate D2E/DX2                !
 ! D33   D(9,2,6,11)            55.3036         estimate D2E/DX2                !
 ! D34   D(23,2,6,1)           -66.8047         estimate D2E/DX2                !
 ! D35   D(23,2,6,8)            48.6798         estimate D2E/DX2                !
 ! D36   D(23,2,6,11)          172.0675         estimate D2E/DX2                !
 ! D37   D(4,2,23,24)          -61.8291         estimate D2E/DX2                !
 ! D38   D(6,2,23,24)           61.0428         estimate D2E/DX2                !
 ! D39   D(9,2,23,24)          179.9996         estimate D2E/DX2                !
 ! D40   D(5,3,4,2)              6.9117         Frozen                          !
 ! D41   D(5,3,4,7)            128.055          estimate D2E/DX2                !
 ! D42   D(5,3,4,21)          -116.0823         estimate D2E/DX2                !
 ! D43   D(10,3,4,2)           126.9728         estimate D2E/DX2                !
 ! D44   D(10,3,4,7)          -111.8838         estimate D2E/DX2                !
 ! D45   D(10,3,4,21)            3.9789         estimate D2E/DX2                !
 ! D46   D(19,3,4,2)          -116.4832         estimate D2E/DX2                !
 ! D47   D(19,3,4,7)             4.6602         estimate D2E/DX2                !
 ! D48   D(19,3,4,21)          120.5229         estimate D2E/DX2                !
 ! D49   D(4,3,5,1)             44.4613         estimate D2E/DX2                !
 ! D50   D(4,3,5,14)           -79.5363         estimate D2E/DX2                !
 ! D51   D(4,3,5,15)           164.4052         estimate D2E/DX2                !
 ! D52   D(10,3,5,1)           -74.8959         estimate D2E/DX2                !
 ! D53   D(10,3,5,14)          161.1065         estimate D2E/DX2                !
 ! D54   D(10,3,5,15)           45.048          estimate D2E/DX2                !
 ! D55   D(19,3,5,1)           167.6143         estimate D2E/DX2                !
 ! D56   D(19,3,5,14)           43.6167         estimate D2E/DX2                !
 ! D57   D(19,3,5,15)          -72.4417         estimate D2E/DX2                !
 ! D58   D(4,3,19,20)          -60.0016         estimate D2E/DX2                !
 ! D59   D(5,3,19,20)          174.9245         estimate D2E/DX2                !
 ! D60   D(10,3,19,20)          56.6111         estimate D2E/DX2                !
 ! D61   D(2,4,21,22)           56.669          estimate D2E/DX2                !
 ! D62   D(3,4,21,22)         -179.9955         estimate D2E/DX2                !
 ! D63   D(7,4,21,22)          -61.9433         estimate D2E/DX2                !
 ! D64   D(1,5,15,16)           -1.67           estimate D2E/DX2                !
 ! D65   D(3,5,15,16)         -126.8157         estimate D2E/DX2                !
 ! D66   D(14,5,15,16)         114.9105         estimate D2E/DX2                !
 ! D67   D(1,6,11,12)           60.6485         estimate D2E/DX2                !
 ! D68   D(1,6,11,13)          -56.8675         estimate D2E/DX2                !
 ! D69   D(1,6,11,17)         -179.0933         estimate D2E/DX2                !
 ! D70   D(2,6,11,12)         -175.6772         estimate D2E/DX2                !
 ! D71   D(2,6,11,13)           66.8067         estimate D2E/DX2                !
 ! D72   D(2,6,11,17)          -55.419          estimate D2E/DX2                !
 ! D73   D(8,6,11,12)          -52.0071         estimate D2E/DX2                !
 ! D74   D(8,6,11,13)         -169.5232         estimate D2E/DX2                !
 ! D75   D(8,6,11,17)           68.2511         estimate D2E/DX2                !
 ! D76   D(6,11,13,28)          80.8151         estimate D2E/DX2                !
 ! D77   D(6,11,13,30)          67.5369         estimate D2E/DX2                !
 ! D78   D(12,11,13,28)        -39.0177         estimate D2E/DX2                !
 ! D79   D(12,11,13,30)        -52.2958         estimate D2E/DX2                !
 ! D80   D(17,11,13,28)       -155.6865         estimate D2E/DX2                !
 ! D81   D(17,11,13,30)       -168.9647         estimate D2E/DX2                !
 ! D82   D(6,11,17,18)         -61.1439         estimate D2E/DX2                !
 ! D83   D(12,11,17,18)         60.0047         estimate D2E/DX2                !
 ! D84   D(13,11,17,18)        175.1535         estimate D2E/DX2                !
 ! D85   D(11,13,28,29)         78.6327         estimate D2E/DX2                !
 ! D86   D(11,13,30,1)         -54.9977         estimate D2E/DX2                !
 ! D87   D(11,13,30,26)        157.4325         estimate D2E/DX2                !
 ! D88   D(5,15,16,25)         115.026          estimate D2E/DX2                !
 ! D89   D(15,16,25,26)        -66.2654         estimate D2E/DX2                !
 ! D90   D(15,16,25,27)         45.5434         estimate D2E/DX2                !
 ! D91   D(16,25,26,30)        -53.0505         estimate D2E/DX2                !
 ! D92   D(27,25,26,30)        167.4506         estimate D2E/DX2                !
 ! D93   D(25,26,30,1)          21.9036         estimate D2E/DX2                !
 ! D94   D(25,26,30,13)        169.5361         estimate D2E/DX2                !
 ! D95   D(25,26,30,28)        168.871          estimate D2E/DX2                !
 ! D96   D(29,28,30,1)         164.0397         estimate D2E/DX2                !
 ! D97   D(29,28,30,26)         61.1749         estimate D2E/DX2                !
 --------------------------------------------------------------------------------
 Trust Radius=3.00D-01 FncErr=1.00D-07 GrdErr=1.00D-06
 Number of steps in this run=    180 maximum allowed number of steps=    180.
 GradGradGradGradGradGradGradGradGradGradGradGradGradGradGradGradGradGrad

                          Input orientation:                          
 ---------------------------------------------------------------------
 Center     Atomic      Atomic             Coordinates (Angstroms)
 Number     Number       Type             X           Y           Z
 ---------------------------------------------------------------------
      1          8           0        0.045015    1.560303    0.193386
      2          6           0        0.868161   -0.675462    1.040365
      3          6           0       -1.181798   -0.540270   -0.431185
      4          6           0        0.046347   -1.375302   -0.034976
      5          6           0       -1.195588    0.857627    0.217338
      6          6           0        1.273159    0.725271    0.589595
      7          1           0       -0.282191   -2.353905    0.334595
      8          1           0        1.721380    1.268186    1.428706
      9          1           0        1.765189   -1.268144    1.255539
     10          1           0       -1.163912   -0.423092   -1.521546
     11          6           0        2.225128    0.764561   -0.596865
     12          1           0        2.522861    1.798345   -0.803949
     13          1           0        1.747544    0.397474   -1.510725
     14          1           0       -1.546053    0.788032    1.253385
     15          8           0       -2.134884    1.649782   -0.474256
     16          1           0       -1.654510    2.438516   -0.728903
     17          8           0        3.387498    0.006449   -0.347191
     18          1           0        3.796521    0.422594    0.412588
     19          8           0       -2.360110   -1.240770   -0.101083
     20          1           0       -2.312494   -2.056014   -0.601955
     21          8           0        0.834881   -1.637081   -1.174301
     22          1           0        1.572828   -2.155642   -0.851224
     23          8           0        0.137745   -0.619970    2.245197
     24          1           0       -0.640258   -0.100085    2.039714
     25          8           0       -0.875765    3.680572   -1.727831
     26          1           0       -0.279966    2.961835   -1.951530
     27          1           0       -1.064691    4.196914   -2.514786
     28          8           0        0.738712    1.442418   -2.395457
     29          1           0        1.099606    2.114520   -2.978239
     30          1           0        0.717644    1.776260   -1.495620
 ---------------------------------------------------------------------
                    Distance matrix (angstroms):
                    1          2          3          4          5
     1  O    0.000000
     2  C    2.528555   0.000000
     3  C    2.511487   2.527067   0.000000
     4  C    2.944474   1.523650   1.537075   0.000000
     5  C    1.425981   2.699406   1.541067   2.567496   0.000000
     6  C    1.537074   1.526195   2.944554   2.511486   2.500161
     7  H    3.930398   2.153739   2.164482   1.096441   3.340955
     8  H    2.102748   2.157906   3.893346   3.454870   3.185070
     9  H    3.476677   1.096463   3.472689   2.152052   3.789850
    10  H    2.887274   3.279694   1.096785   2.140402   2.159852
    11  C    2.451651   2.568179   3.652010   3.105128   3.517511
    12  H    2.681615   3.501320   4.396882   4.098350   3.969237
    13  H    2.674840   2.903887   3.259726   2.866120   3.443830
    14  H    2.061916   2.831187   2.175969   2.979198   1.095930
    15  O    2.281603   4.088901   2.388840   3.755246   1.409996
    16  H    2.123737   4.380757   3.030719   4.233162   1.898734
    17  O    3.725437   2.955904   4.602654   3.629050   4.695516
    18  H    3.926351   3.189847   5.140303   4.182887   5.014831
    19  O    3.703694   3.470477   1.409995   2.411121   2.420903
    20  H    4.389552   3.836626   1.898714   2.519715   3.226147
    21  O    3.566191   2.414655   2.412926   1.410098   3.504715
    22  H    4.151345   2.503117   3.220842   1.898772   4.229154
    23  O    2.995349   1.410038   2.985056   2.403760   2.841352
    24  H    2.575930   1.898706   2.567560   2.530205   2.132289
    25  O    3.005736   5.447863   4.426111   5.410907   3.443107
    26  H    2.582744   4.847634   3.922944   4.752938   3.157537
    27  H    3.939208   6.333645   5.176488   6.199473   4.316535
    28  O    2.682763   4.038198   3.387887   3.740426   3.303058
    29  H    3.387997   4.897626   4.328996   4.685191   4.130303
    30  H    1.830794   3.530555   3.179185   3.537862   2.727374
                    6          7          8          9         10
     6  C    0.000000
     7  H    3.459113   0.000000
     8  H    1.095338   4.281462   0.000000
     9  H    2.158536   2.493748   2.542612   0.000000
    10  H    3.422713   2.819703   4.459744   4.123826   0.000000
    11  C    1.521668   4.108418   2.147169   2.788338   3.708254
    12  H    2.157592   5.138655   2.430676   3.770797   4.363717
    13  H    2.178034   3.885243   3.065791   3.229056   3.024900
    14  H    2.896983   3.509030   3.307175   3.897716   3.051736
    15  O    3.687988   4.485111   4.317134   5.168854   2.517223
    16  H    3.639352   5.097214   4.173916   5.419564   3.009613
    17  O    2.421714   4.416188   2.742578   2.612511   4.720058
    18  H    2.547607   4.934665   2.460433   2.774071   5.390914
    19  O    4.188436   2.397213   5.029281   4.342725   2.029089
    20  H    4.691721   2.255658   5.607676   4.549562   2.198027
    21  O    2.980624   2.009590   4.000262   2.627871   2.364217
    22  H    3.235030   2.210558   4.116156   2.294145   3.307689
    23  O    2.416579   2.614054   2.596091   2.011996   3.990165
    24  H    2.538744   2.848745   2.796932   2.786659   3.614016
    25  O    4.326908   6.404751   4.746419   6.353339   4.118937
    26  H    3.724477   5.786490   4.277829   5.688644   3.524767
    27  H    5.211049   7.186412   5.647191   7.217370   4.726609
    28  O    3.116162   4.786178   3.952241   4.661606   2.804252
    29  H    3.832697   5.731584   4.530347   5.459880   3.699317
    30  H    2.400270   4.626837   3.133258   4.234929   2.894491
                   11         12         13         14         15
    11  C    0.000000
    12  H    1.095554   0.000000
    13  H    1.094522   1.750168   0.000000
    14  H    4.200688   4.670055   4.317478   0.000000
    15  O    4.450658   4.671762   4.209013   2.018434   0.000000
    16  H    4.227428   4.226804   4.043645   2.581729   0.957970
    17  O    1.410027   2.041352   2.048453   5.245249   5.763106
    18  H    1.898739   2.234918   2.810350   5.420662   6.121605
    19  O    5.029071   5.794277   4.641525   2.571635   2.923230
    20  H    5.342816   6.186885   4.830049   3.481137   3.712247
    21  O    2.834449   3.845593   2.255116   4.176562   4.484756
    22  H    3.002962   4.066794   2.642701   4.777239   5.326395
    23  O    3.788325   4.564462   4.211127   2.408596   4.208567
    24  H    3.988683   4.657872   4.307525   1.492491   3.408223
    25  O    4.404286   3.993368   4.208041   4.207579   2.698322
    26  H    3.597030   3.244455   3.298644   4.074294   2.710082
    27  H    5.126634   4.642265   4.832448   5.104047   3.434670
    28  O    2.429785   2.417182   1.700706   4.354586   3.462884
    29  H    2.959752   2.617854   2.349823   5.163886   4.116776
    30  H    2.025785   1.933315   1.721038   3.695666   3.032507
                   16         17         18         19         20
    16  H    0.000000
    17  O    5.610926   0.000000
    18  H    5.922894   0.957987   0.000000
    19  O    3.798576   5.886520   6.398026   0.000000
    20  H    4.544212   6.067006   6.670297   0.957999   0.000000
    21  O    4.796450   3.146610   3.941039   3.393645   3.226307
    22  H    5.615778   2.867353   3.631712   4.107031   3.894584
    23  O    4.627287   4.204018   4.222800   3.482772   4.021463
    24  H    3.890815   4.683106   4.754549   2.973560   3.687878
    25  O    1.773980   5.794890   6.084904   5.391586   6.019984
    26  H    1.912603   4.975791   5.352993   5.041136   5.579546
    27  H    2.574729   6.486945   6.815159   6.088718   6.656955
    28  O    3.081740   3.643277   4.274968   4.697484   4.976499
    29  H    3.570664   4.074411   4.651200   5.612988   5.889186
    30  H    2.579448   3.402829   3.866930   4.529876   4.966559
                   21         22         23         24         25
    21  O    0.000000
    22  H    0.958045   0.000000
    23  O    3.635034   3.742401   0.000000
    24  H    3.855941   4.180978   0.958015   0.000000
    25  O    5.613389   6.389479   5.941954   5.342586   0.000000
    26  H    4.795518   5.552665   5.533202   5.043331   0.960000
    27  H    6.280189   7.076646   6.877911   6.275971   0.960000
    28  O    3.314180   4.003304   5.113734   4.894038   2.839294
    29  H    4.171185   4.793998   5.973851   5.754255   2.813917
    30  H    3.430436   4.075100   4.480169   4.226483   2.493847
                   26         27         28         29         30
    26  H    0.000000
    27  H    1.567952   0.000000
    28  O    1.882392   3.294503   0.000000
    29  H    1.917105   3.038970   0.960000   0.000000
    30  H    1.615136   3.174111   0.960000   1.567952   0.000000
 Stoichiometry    C6H16O8
 Framework group  C1[X(C6H16O8)]
 Deg. of freedom    84
 Full point group                 C1      NOp   1
 Largest Abelian subgroup         C1      NOp   1
 Largest concise Abelian subgroup C1      NOp   1
                         Standard orientation:                         
 ---------------------------------------------------------------------
 Center     Atomic      Atomic             Coordinates (Angstroms)
 Number     Number       Type             X           Y           Z
 ---------------------------------------------------------------------
      1          8           0        0.737068    0.244109   -0.986930
      2          6           0       -1.726749   -0.222896   -0.662742
      3          6           0        0.002493   -1.483732    0.681162
      4          6           0       -1.415523   -0.890667    0.670948
      5          6           0        0.818242   -1.118429   -0.574224
      6          6           0       -0.680948    0.837172   -0.997144
      7          1           0       -2.144952   -1.687051    0.860396
      8          1           0       -0.828556    1.190931   -2.023220
      9          1           0       -2.719610    0.239858   -0.614586
     10          1           0        0.519195   -1.089468    1.564629
     11          6           0       -0.657942    2.031827   -0.054942
     12          1           0        0.064236    2.775084   -0.410283
     13          1           0       -0.331212    1.747681    0.950288
     14          1           0        0.527906   -1.762664   -1.411917
     15          8           0        2.175514   -1.391107   -0.306743
     16          1           0        2.637051   -0.576972   -0.511378
     17          8           0       -1.925276    2.644365    0.027748
     18          1           0       -2.118186    2.936439   -0.864001
     19          8           0       -0.068666   -2.884687    0.823810
     20          1           0       -0.515358   -3.026489    1.659346
     21          8           0       -1.558745    0.025549    1.733215
     22          1           0       -2.457642    0.349205    1.661928
     23          8           0       -1.796777   -1.193699   -1.682959
     24          1           0       -0.923646   -1.586929   -1.711323
     25          8           0        3.591787    0.905627   -0.318033
     26          1           0        2.830589    1.190741    0.192740
     27          1           0        4.396776    1.193885    0.118429
     28          8           0        1.331682    1.577582    1.263736
     29          1           0        1.895820    2.340637    1.408980
     30          1           0        1.237463    1.423545    0.320871
 ---------------------------------------------------------------------
 Rotational constants (GHZ):      0.7067880      0.6189979      0.4490981
 Standard basis: 6-31G(d) (6D, 7F)
 There are   242 symmetry adapted cartesian basis functions of A   symmetry.
 There are   242 symmetry adapted basis functions of A   symmetry.
   242 basis functions,   456 primitive gaussians,   242 cartesian basis functions
    58 alpha electrons       58 beta electrons
       nuclear repulsion energy      1147.6263410295 Hartrees.
 NAtoms=   30 NActive=   30 NUniq=   30 SFac= 1.00D+00 NAtFMM=   60 NAOKFM=F Big=F
 Integral buffers will be    131072 words long.
 Raffenetti 2 integral format.
 Two-electron integral symmetry is turned on.
 One-electron integrals computed using PRISM.
 NBasis=   242 RedAO= T EigKep=  1.51D-03  NBF=   242
 NBsUse=   242 1.00D-06 EigRej= -1.00D+00 NBFU=   242
 ExpMin= 1.61D-01 ExpMax= 5.48D+03 ExpMxC= 8.25D+02 IAcc=1 IRadAn=         1 AccDes= 0.00D+00
 Harris functional with IExCor=  402 and IRadAn=       1 diagonalized for initial guess.
 HarFok:  IExCor=  402 AccDes= 0.00D+00 IRadAn=         1 IDoV= 1 UseB2=F ITyADJ=14
 ICtDFT=  3500011 ScaDFX=  1.000000  1.000000  1.000000  1.000000
 FoFCou: FMM=F IPFlag=           0 FMFlag=      100000 FMFlg1=           0
         NFxFlg=           0 DoJE=T BraDBF=F KetDBF=T FulRan=T
         wScrn=  0.000000 ICntrl=     500 IOpCl=  0 I1Cent=   200000004 NGrid=           0
         NMat0=    1 NMatS0=      1 NMatT0=    0 NMatD0=    1 NMtDS0=    0 NMtDT0=    0
 Petite list used in FoFCou.
 Requested convergence on RMS density matrix=1.00D-08 within 128 cycles.
 Requested convergence on MAX density matrix=1.00D-06.
 Requested convergence on             energy=1.00D-06.
 No special actions if energy rises.
 Integral accuracy reduced to 1.0D-05 until final iterations.
 Initial convergence to 1.0D-05 achieved.  Increase integral accuracy.
 SCF Done:  E(RB3LYP) =  -839.899989343     A.U. after   14 cycles
            NFock= 14  Conv=0.66D-08     -V/T= 2.0075

 **********************************************************************

            Population analysis using the SCF density.

 **********************************************************************

 Orbital symmetries:
       Occupied  (A) (A) (A) (A) (A) (A) (A) (A) (A) (A) (A) (A)
                 (A) (A) (A) (A) (A) (A) (A) (A) (A) (A) (A) (A)
                 (A) (A) (A) (A) (A) (A) (A) (A) (A) (A) (A) (A)
                 (A) (A) (A) (A) (A) (A) (A) (A) (A) (A) (A) (A)
                 (A) (A) (A) (A) (A) (A) (A) (A) (A) (A)
       Virtual   (A) (A) (A) (A) (A) (A) (A) (A) (A) (A) (A) (A)
                 (A) (A) (A) (A) (A) (A) (A) (A) (A) (A) (A) (A)
                 (A) (A) (A) (A) (A) (A) (A) (A) (A) (A) (A) (A)
                 (A) (A) (A) (A) (A) (A) (A) (A) (A) (A) (A) (A)
                 (A) (A) (A) (A) (A) (A) (A) (A) (A) (A) (A) (A)
                 (A) (A) (A) (A) (A) (A) (A) (A) (A) (A) (A) (A)
                 (A) (A) (A) (A) (A) (A) (A) (A) (A) (A) (A) (A)
                 (A) (A) (A) (A) (A) (A) (A) (A) (A) (A) (A) (A)
                 (A) (A) (A) (A) (A) (A) (A) (A) (A) (A) (A) (A)
                 (A) (A) (A) (A) (A) (A) (A) (A) (A) (A) (A) (A)
                 (A) (A) (A) (A) (A) (A) (A) (A) (A) (A) (A) (A)
                 (A) (A) (A) (A) (A) (A) (A) (A) (A) (A) (A) (A)
                 (A) (A) (A) (A) (A) (A) (A) (A) (A) (A) (A) (A)
                 (A) (A) (A) (A) (A) (A) (A) (A) (A) (A) (A) (A)
                 (A) (A) (A) (A) (A) (A) (A) (A) (A) (A) (A) (A)
                 (A) (A) (A) (A)
 The electronic state is 1-A.
 Alpha  occ. eigenvalues --  -19.18496 -19.16356 -19.15638 -19.15421 -19.15162
 Alpha  occ. eigenvalues --  -19.14913 -19.14552 -19.12519 -10.29440 -10.25590
 Alpha  occ. eigenvalues --  -10.24689 -10.23739 -10.23525 -10.22016  -1.07578
 Alpha  occ. eigenvalues --   -1.04686  -1.04244  -1.03533  -1.03286  -1.02482
 Alpha  occ. eigenvalues --   -1.01901  -0.98600  -0.78706  -0.76555  -0.69863
 Alpha  occ. eigenvalues --   -0.65874  -0.63102  -0.59228  -0.56935  -0.55847
 Alpha  occ. eigenvalues --   -0.54917  -0.54198  -0.50912  -0.50786  -0.49678
 Alpha  occ. eigenvalues --   -0.49240  -0.45570  -0.45133  -0.44458  -0.43652
 Alpha  occ. eigenvalues --   -0.42056  -0.41063  -0.39843  -0.39381  -0.38209
 Alpha  occ. eigenvalues --   -0.36536  -0.36207  -0.34844  -0.34330  -0.32519
 Alpha  occ. eigenvalues --   -0.31527  -0.30692  -0.30251  -0.29325  -0.27513
 Alpha  occ. eigenvalues --   -0.26936  -0.25416  -0.25122
 Alpha virt. eigenvalues --    0.03848   0.04573   0.06091   0.07540   0.08429
 Alpha virt. eigenvalues --    0.09192   0.10323   0.10866   0.13467   0.14332
 Alpha virt. eigenvalues --    0.15087   0.16842   0.18045   0.18532   0.19823
 Alpha virt. eigenvalues --    0.20563   0.21423   0.22331   0.23945   0.25386
 Alpha virt. eigenvalues --    0.26907   0.27600   0.28540   0.30054   0.31745
 Alpha virt. eigenvalues --    0.33644   0.34385   0.36632   0.52750   0.52836
 Alpha virt. eigenvalues --    0.54307   0.55436   0.58531   0.59290   0.60486
 Alpha virt. eigenvalues --    0.62407   0.63365   0.64126   0.66471   0.66975
 Alpha virt. eigenvalues --    0.68493   0.70276   0.71884   0.74809   0.76668
 Alpha virt. eigenvalues --    0.78064   0.79049   0.79753   0.81123   0.81841
 Alpha virt. eigenvalues --    0.82590   0.83853   0.84282   0.85145   0.85758
 Alpha virt. eigenvalues --    0.86194   0.87001   0.88408   0.89950   0.90972
 Alpha virt. eigenvalues --    0.91934   0.92564   0.94018   0.95517   0.97363
 Alpha virt. eigenvalues --    0.98405   0.99373   1.00743   1.02736   1.03750
 Alpha virt. eigenvalues --    1.05332   1.05805   1.06691   1.09157   1.10161
 Alpha virt. eigenvalues --    1.10645   1.12005   1.13743   1.14805   1.18114
 Alpha virt. eigenvalues --    1.18974   1.21258   1.22823   1.24073   1.26055
 Alpha virt. eigenvalues --    1.29519   1.30460   1.33985   1.34949   1.38301
 Alpha virt. eigenvalues --    1.40146   1.40850   1.40913   1.48669   1.49923
 Alpha virt. eigenvalues --    1.51150   1.53781   1.56004   1.58323   1.59943
 Alpha virt. eigenvalues --    1.61474   1.63221   1.65056   1.67063   1.69418
 Alpha virt. eigenvalues --    1.71878   1.72181   1.72638   1.72887   1.76197
 Alpha virt. eigenvalues --    1.76766   1.79298   1.79654   1.81820   1.82749
 Alpha virt. eigenvalues --    1.84817   1.85761   1.87164   1.88515   1.88946
 Alpha virt. eigenvalues --    1.89918   1.92081   1.95879   1.96839   1.97623
 Alpha virt. eigenvalues --    1.99537   2.00881   2.03428   2.04437   2.05945
 Alpha virt. eigenvalues --    2.09015   2.10956   2.12822   2.17266   2.19325
 Alpha virt. eigenvalues --    2.20004   2.23790   2.25790   2.28622   2.30693
 Alpha virt. eigenvalues --    2.32285   2.33197   2.36858   2.37938   2.39264
 Alpha virt. eigenvalues --    2.41163   2.45875   2.48030   2.49223   2.51913
 Alpha virt. eigenvalues --    2.53281   2.54124   2.57267   2.59774   2.62087
 Alpha virt. eigenvalues --    2.63290   2.66308   2.68403   2.69260   2.71388
 Alpha virt. eigenvalues --    2.75974   2.77996   2.81274   2.86188   2.90483
 Alpha virt. eigenvalues --    2.93649   2.96428   3.00883   3.07440   3.11363
 Alpha virt. eigenvalues --    3.76360   3.79849   3.82324   3.83728   3.87931
 Alpha virt. eigenvalues --    4.04132   4.07136   4.14656   4.29637   4.35019
 Alpha virt. eigenvalues --    4.49767   4.57004   4.75670   4.78131
          Condensed to atoms (all electrons):
               1          2          3          4          5          6
     1  O    8.399368  -0.023009  -0.022797  -0.003881   0.187875   0.158379
     2  C   -0.023009   5.021476  -0.014625   0.276034   0.001243   0.304136
     3  C   -0.022797  -0.014625   5.168159   0.228287   0.270112  -0.020495
     4  C   -0.003881   0.276034   0.228287   5.147235  -0.036409  -0.030924
     5  C    0.187875   0.001243   0.270112  -0.036409   4.693942  -0.022693
     6  C    0.158379   0.304136  -0.020495  -0.030924  -0.022693   5.090066
     7  H    0.000052  -0.050182  -0.050105   0.360815   0.001429   0.006662
     8  H   -0.033274  -0.046657  -0.000216   0.006426   0.000075   0.358362
     9  H    0.002589   0.361683   0.005159  -0.041761   0.000544  -0.043862
    10  H    0.000812   0.002719   0.342356  -0.053525  -0.022068   0.001593
    11  C   -0.036770  -0.037907  -0.000038   0.000015   0.003624   0.266864
    12  H    0.001033   0.006957   0.000024  -0.000706  -0.000412  -0.051426
    13  H    0.001991  -0.010258  -0.001363   0.000983   0.000590  -0.025102
    14  H   -0.051833  -0.002839  -0.096997   0.005105   0.360188  -0.001032
    15  O   -0.042621  -0.000114  -0.052943   0.004077   0.266909   0.002775
    16  H    0.004584   0.000125   0.004877  -0.000344  -0.023954  -0.000135
    17  O    0.001245  -0.000494   0.000022  -0.002536  -0.000008  -0.037003
    18  H    0.000009  -0.002183   0.000001   0.000239   0.000002  -0.005053
    19  O    0.000896   0.001757   0.203305  -0.040273  -0.032028   0.000212
    20  H   -0.000088   0.000221  -0.024524  -0.003197   0.005535  -0.000029
    21  O   -0.000136  -0.034009  -0.031211   0.171834   0.001557  -0.001530
    22  H    0.000046  -0.004967   0.006725  -0.024641  -0.000263  -0.001141
    23  O   -0.000987   0.230431   0.007377  -0.048225  -0.005132  -0.037933
    24  H   -0.001075  -0.048475  -0.007189  -0.004797   0.014945  -0.003563
    25  O   -0.000694  -0.000001  -0.000137   0.000001   0.000069   0.000135
    26  H   -0.002540  -0.000010  -0.000400   0.000037   0.001846  -0.000271
    27  H    0.000197   0.000000   0.000002   0.000000   0.000034  -0.000006
    28  O   -0.024597  -0.000152  -0.001299  -0.000302   0.004237   0.002764
    29  H    0.000927  -0.000008   0.000052   0.000004  -0.000111   0.000053
    30  H    0.061241   0.001355  -0.001258   0.000312  -0.007177  -0.006354
               7          8          9         10         11         12
     1  O    0.000052  -0.033274   0.002589   0.000812  -0.036770   0.001033
     2  C   -0.050182  -0.046657   0.361683   0.002719  -0.037907   0.006957
     3  C   -0.050105  -0.000216   0.005159   0.342356  -0.000038   0.000024
     4  C    0.360815   0.006426  -0.041761  -0.053525   0.000015  -0.000706
     5  C    0.001429   0.000075   0.000544  -0.022068   0.003624  -0.000412
     6  C    0.006662   0.358362  -0.043862   0.001593   0.266864  -0.051426
     7  H    0.633033  -0.000192  -0.007651   0.004280   0.000037   0.000015
     8  H   -0.000192   0.615857  -0.001693   0.000028  -0.049137  -0.010356
     9  H   -0.007651  -0.001693   0.596844  -0.000300  -0.005036   0.000244
    10  H    0.004280   0.000028  -0.000300   0.572792  -0.000365  -0.000003
    11  C    0.000037  -0.049137  -0.005036  -0.000365   5.178019   0.341930
    12  H    0.000015  -0.010356   0.000244  -0.000003   0.341930   0.684383
    13  H    0.000260   0.004624  -0.000266   0.001113   0.366455  -0.043596
    14  H   -0.000242   0.001135  -0.000207   0.006011  -0.000363  -0.000020
    15  O   -0.000087  -0.000098   0.000004   0.000218   0.000021   0.000003
    16  H    0.000005  -0.000028  -0.000001   0.000056  -0.000091   0.000016
    17  O   -0.000038   0.000406   0.014090   0.000001   0.213440  -0.037035
    18  H   -0.000001   0.006427   0.000689   0.000000  -0.030330  -0.008085
    19  O    0.002248   0.000004  -0.000116  -0.034186   0.000004   0.000000
    20  H    0.004807  -0.000001  -0.000001  -0.005280   0.000001   0.000000
    21  O   -0.038828  -0.000183  -0.001392   0.003230  -0.010209   0.000933
    22  H   -0.006139  -0.000029   0.007289  -0.000015  -0.000549   0.000048
    23  O    0.006437   0.000615  -0.035781  -0.000033   0.003953  -0.000058
    24  H    0.000054  -0.000106   0.005958   0.000523  -0.000153   0.000003
    25  O    0.000000  -0.000004   0.000000  -0.000023  -0.000270   0.000025
    26  H    0.000000   0.000051   0.000000   0.000317   0.001231  -0.000302
    27  H    0.000000   0.000000   0.000000   0.000005   0.000013   0.000005
    28  O   -0.000005  -0.000226  -0.000001   0.005761  -0.056064  -0.002486
    29  H    0.000000   0.000027   0.000000  -0.000030   0.004295   0.000635
    30  H    0.000015   0.000265  -0.000050  -0.000372  -0.014939   0.013404
              13         14         15         16         17         18
     1  O    0.001991  -0.051833  -0.042621   0.004584   0.001245   0.000009
     2  C   -0.010258  -0.002839  -0.000114   0.000125  -0.000494  -0.002183
     3  C   -0.001363  -0.096997  -0.052943   0.004877   0.000022   0.000001
     4  C    0.000983   0.005105   0.004077  -0.000344  -0.002536   0.000239
     5  C    0.000590   0.360188   0.266909  -0.023954  -0.000008   0.000002
     6  C   -0.025102  -0.001032   0.002775  -0.000135  -0.037003  -0.005053
     7  H    0.000260  -0.000242  -0.000087   0.000005  -0.000038  -0.000001
     8  H    0.004624   0.001135  -0.000098  -0.000028   0.000406   0.006427
     9  H   -0.000266  -0.000207   0.000004  -0.000001   0.014090   0.000689
    10  H    0.001113   0.006011   0.000218   0.000056   0.000001   0.000000
    11  C    0.366455  -0.000363   0.000021  -0.000091   0.213440  -0.030330
    12  H   -0.043596  -0.000020   0.000003   0.000016  -0.037035  -0.008085
    13  H    0.434054   0.000030  -0.000072   0.000000  -0.023386   0.005799
    14  H    0.000030   0.654088  -0.039833   0.001218   0.000002   0.000001
    15  O   -0.000072  -0.039833   8.337480   0.212020   0.000000   0.000000
    16  H    0.000000   0.001218   0.212020   0.306843   0.000000   0.000000
    17  O   -0.023386   0.000002   0.000000   0.000000   8.261320   0.231023
    18  H    0.005799   0.000001   0.000000   0.000000   0.231023   0.414661
    19  O    0.000009   0.004286   0.002223  -0.000004   0.000000   0.000000
    20  H    0.000001  -0.000539  -0.000216   0.000015   0.000000   0.000000
    21  O    0.019434  -0.000088  -0.000013   0.000003  -0.000568  -0.000011
    22  H   -0.002240   0.000015   0.000002   0.000000   0.004156  -0.000090
    23  O   -0.000007  -0.011638   0.000191  -0.000001   0.000053  -0.000054
    24  H    0.000010   0.039942  -0.001033   0.000017   0.000000   0.000003
    25  O    0.000064  -0.000021  -0.023128   0.064655   0.000000   0.000000
    26  H    0.000370   0.000072   0.006259  -0.012491  -0.000005   0.000003
    27  H   -0.000002   0.000004   0.001101  -0.002375   0.000000   0.000000
    28  O    0.008650  -0.000072  -0.000486  -0.000407   0.001080  -0.000118
    29  H    0.001073   0.000003   0.000011  -0.000176  -0.000094   0.000018
    30  H   -0.023004   0.000788  -0.000041   0.001139   0.000157  -0.000112
              19         20         21         22         23         24
     1  O    0.000896  -0.000088  -0.000136   0.000046  -0.000987  -0.001075
     2  C    0.001757   0.000221  -0.034009  -0.004967   0.230431  -0.048475
     3  C    0.203305  -0.024524  -0.031211   0.006725   0.007377  -0.007189
     4  C   -0.040273  -0.003197   0.171834  -0.024641  -0.048225  -0.004797
     5  C   -0.032028   0.005535   0.001557  -0.000263  -0.005132   0.014945
     6  C    0.000212  -0.000029  -0.001530  -0.001141  -0.037933  -0.003563
     7  H    0.002248   0.004807  -0.038828  -0.006139   0.006437   0.000054
     8  H    0.000004  -0.000001  -0.000183  -0.000029   0.000615  -0.000106
     9  H   -0.000116  -0.000001  -0.001392   0.007289  -0.035781   0.005958
    10  H   -0.034186  -0.005280   0.003230  -0.000015  -0.000033   0.000523
    11  C    0.000004   0.000001  -0.010209  -0.000549   0.003953  -0.000153
    12  H    0.000000   0.000000   0.000933   0.000048  -0.000058   0.000003
    13  H    0.000009   0.000001   0.019434  -0.002240  -0.000007   0.000010
    14  H    0.004286  -0.000539  -0.000088   0.000015  -0.011638   0.039942
    15  O    0.002223  -0.000216  -0.000013   0.000002   0.000191  -0.001033
    16  H   -0.000004   0.000015   0.000003   0.000000  -0.000001   0.000017
    17  O    0.000000   0.000000  -0.000568   0.004156   0.000053   0.000000
    18  H    0.000000   0.000000  -0.000011  -0.000090  -0.000054   0.000003
    19  O    8.274532   0.238804   0.001142  -0.000169  -0.000470   0.003021
    20  H    0.238804   0.382380   0.000257  -0.000099   0.000005  -0.000127
    21  O    0.001142   0.000257   8.299680   0.235472   0.002143  -0.000001
    22  H   -0.000169  -0.000099   0.235472   0.383027   0.000016   0.000027
    23  O   -0.000470   0.000005   0.002143   0.000016   8.291696   0.231791
    24  H    0.003021  -0.000127  -0.000001   0.000027   0.231791   0.357678
    25  O    0.000000   0.000000   0.000000   0.000000   0.000000  -0.000001
    26  H    0.000001   0.000000  -0.000006   0.000000   0.000000   0.000003
    27  H    0.000000   0.000000   0.000000   0.000000   0.000000   0.000000
    28  O    0.000009   0.000000  -0.000251   0.000025   0.000000  -0.000002
    29  H    0.000000   0.000000   0.000011  -0.000001   0.000000   0.000000
    30  H   -0.000022   0.000001   0.000485   0.000005  -0.000014   0.000035
              25         26         27         28         29         30
     1  O   -0.000694  -0.002540   0.000197  -0.024597   0.000927   0.061241
     2  C   -0.000001  -0.000010   0.000000  -0.000152  -0.000008   0.001355
     3  C   -0.000137  -0.000400   0.000002  -0.001299   0.000052  -0.001258
     4  C    0.000001   0.000037   0.000000  -0.000302   0.000004   0.000312
     5  C    0.000069   0.001846   0.000034   0.004237  -0.000111  -0.007177
     6  C    0.000135  -0.000271  -0.000006   0.002764   0.000053  -0.006354
     7  H    0.000000   0.000000   0.000000  -0.000005   0.000000   0.000015
     8  H   -0.000004   0.000051   0.000000  -0.000226   0.000027   0.000265
     9  H    0.000000   0.000000   0.000000  -0.000001   0.000000  -0.000050
    10  H   -0.000023   0.000317   0.000005   0.005761  -0.000030  -0.000372
    11  C   -0.000270   0.001231   0.000013  -0.056064   0.004295  -0.014939
    12  H    0.000025  -0.000302   0.000005  -0.002486   0.000635   0.013404
    13  H    0.000064   0.000370  -0.000002   0.008650   0.001073  -0.023004
    14  H   -0.000021   0.000072   0.000004  -0.000072   0.000003   0.000788
    15  O   -0.023128   0.006259   0.001101  -0.000486   0.000011  -0.000041
    16  H    0.064655  -0.012491  -0.002375  -0.000407  -0.000176   0.001139
    17  O    0.000000  -0.000005   0.000000   0.001080  -0.000094   0.000157
    18  H    0.000000   0.000003   0.000000  -0.000118   0.000018  -0.000112
    19  O    0.000000   0.000001   0.000000   0.000009   0.000000  -0.000022
    20  H    0.000000   0.000000   0.000000   0.000000   0.000000   0.000001
    21  O    0.000000  -0.000006   0.000000  -0.000251   0.000011   0.000485
    22  H    0.000000   0.000000   0.000000   0.000025  -0.000001   0.000005
    23  O    0.000000   0.000000   0.000000   0.000000   0.000000  -0.000014
    24  H   -0.000001   0.000003   0.000000  -0.000002   0.000000   0.000035
    25  O    8.372235   0.164484   0.245938  -0.020937   0.001248   0.005706
    26  H    0.164484   0.403092  -0.008742   0.067645   0.004682  -0.004233
    27  H    0.245938  -0.008742   0.360132   0.000316   0.000540  -0.000611
    28  O   -0.020937   0.067645   0.000316   8.418573   0.230022   0.159390
    29  H    0.001248   0.004682   0.000540   0.230022   0.371776  -0.011753
    30  H    0.005706  -0.004233  -0.000611   0.159390  -0.011753   0.362820
 Mulliken charges:
               1
     1  O   -0.576943
     2  C    0.067755
     3  C    0.089137
     4  C    0.090117
     5  C    0.335499
     6  C    0.096550
     7  H    0.133323
     8  H    0.147900
     9  H    0.143027
    10  H    0.174386
    11  C   -0.137685
    12  H    0.104825
    13  H    0.283787
    14  H    0.132836
    15  O   -0.672609
    16  H    0.444432
    17  O   -0.625828
    18  H    0.387161
    19  O   -0.625183
    20  H    0.402072
    21  O   -0.617744
    22  H    0.403492
    23  O   -0.634374
    24  H    0.412509
    25  O   -0.809345
    26  H    0.378907
    27  H    0.403450
    28  O   -0.791073
    29  H    0.396795
    30  H    0.462822
 Sum of Mulliken charges =   0.00000
 Mulliken charges with hydrogens summed into heavy atoms:
               1
     1  O   -0.576943
     2  C    0.210782
     3  C    0.263524
     4  C    0.223440
     5  C    0.468335
     6  C    0.244451
    11  C    0.250927
    15  O   -0.228177
    17  O   -0.238666
    19  O   -0.223111
    21  O   -0.214252
    23  O   -0.221865
    25  O   -0.026988
    28  O    0.068544
 Electronic spatial extent (au):  <R**2>=           2796.0735
 Charge=              0.0000 electrons
 Dipole moment (field-independent basis, Debye):
    X=             -0.2954    Y=              4.0829    Z=              0.8114  Tot=              4.1732
 Quadrupole moment (field-independent basis, Debye-Ang):
   XX=            -75.7048   YY=            -82.1139   ZZ=            -84.6150
   XY=             11.2741   XZ=              3.2115   YZ=             -6.1947
 Traceless Quadrupole moment (field-independent basis, Debye-Ang):
   XX=              5.1064   YY=             -1.3027   ZZ=             -3.8037
   XY=             11.2741   XZ=              3.2115   YZ=             -6.1947
 Octapole moment (field-independent basis, Debye-Ang**2):
  XXX=             47.0250  YYY=             35.6968  ZZZ=              8.6500  XYY=             11.9216
  XXY=             43.0769  XXZ=             33.7297  XZZ=              3.7554  YZZ=             -2.9581
  YYZ=              5.7267  XYZ=             30.5664
 Hexadecapole moment (field-independent basis, Debye-Ang**3):
 XXXX=          -1122.7442 YYYY=          -1250.4973 ZZZZ=           -546.1113 XXXY=            117.8840
 XXXZ=             43.4151 YYYX=             84.1980 YYYZ=            -47.6974 ZZZX=            -11.0308
 ZZZY=            -19.3259 XXYY=           -426.5927 XXZZ=           -336.9623 YYZZ=           -237.2136
 XXYZ=              0.4759 YYXZ=             33.3372 ZZXY=            -10.2966
 N-N= 1.147626341029D+03 E-N=-4.267918645026D+03  KE= 8.336080629923D+02
 Calling FoFJK, ICntrl=      2127 FMM=F ISym2X=0 I1Cent= 0 IOpClX= 0 NMat=1 NMatS=1 NMatT=0.
 ***** Axes restored to original set *****
 -------------------------------------------------------------------
 Center     Atomic                   Forces (Hartrees/Bohr)
 Number     Number              X              Y              Z
 -------------------------------------------------------------------
      1        8           0.026540127   -0.028662033    0.007383139
      2        6           0.000748730   -0.000076371    0.002442154
      3        6           0.011155250   -0.008154160   -0.012691390
      4        6           0.003703877   -0.008416730    0.001733743
      5        6          -0.028951579    0.010104630   -0.018202101
      6        6          -0.015039586    0.016764941   -0.004517996
      7        1          -0.006415952    0.003099523    0.010175218
      8        1          -0.003589857   -0.000583216    0.003547580
      9        1           0.001613331    0.003889773   -0.000924030
     10        1           0.006347082    0.008640312    0.000201184
     11        6           0.013948777   -0.009538382   -0.001242684
     12        1          -0.000108436    0.006594803    0.002902305
     13        1           0.019600828   -0.012638226    0.019744217
     14        1          -0.004923267    0.001707928    0.003682679
     15        8           0.003505355   -0.023600489    0.014950606
     16        1          -0.001881094    0.023149481   -0.008264746
     17        8           0.001598574   -0.010762905   -0.000435484
     18        1           0.011977569    0.001243257    0.010305330
     19        8          -0.010653005    0.013254094    0.015607280
     20        1          -0.003341001   -0.009747792   -0.005017529
     21        8          -0.004781261    0.002785297   -0.015822980
     22        1           0.013169249   -0.005773769   -0.001938456
     23        8           0.010535296   -0.007212193    0.010809197
     24        1          -0.009094049    0.000922101    0.009102331
     25        8          -0.002062744    0.014101748    0.018604140
     26        1          -0.002578465   -0.002545310   -0.016536345
     27        1          -0.001361266   -0.001324954   -0.007928068
     28        8          -0.035070031    0.008905474   -0.043143716
     29        1           0.008357058    0.006428064   -0.003889090
     30        1          -0.002949512    0.007445105    0.009363510
 -------------------------------------------------------------------
 Cartesian Forces:  Max     0.043143716 RMS     0.012099631

 GradGradGradGradGradGradGradGradGradGradGradGradGradGradGradGradGradGrad
 Berny optimization.
 FormGI is forming the generalized inverse of G from B-inverse, IUseBI=4.
 Internal  Forces:  Max     0.036038602 RMS     0.007056273
 Search for a local minimum.
 Step number   1 out of a maximum of  180
 All quantities printed in internal units (Hartrees-Bohrs-Radians)
 Mixed Optimization -- RFO/linear search
 Second derivative matrix not updated -- first step.
 ITU=  0
     Eigenvalues ---    0.00542   0.00705   0.00817   0.00944   0.01000
     Eigenvalues ---    0.01350   0.01558   0.01559   0.01559   0.01560
     Eigenvalues ---    0.01645   0.02046   0.02493   0.02886   0.03473
     Eigenvalues ---    0.04004   0.04389   0.04682   0.04759   0.04887
     Eigenvalues ---    0.05104   0.05187   0.05349   0.05562   0.05699
     Eigenvalues ---    0.05918   0.06290   0.06448   0.06704   0.06869
     Eigenvalues ---    0.06999   0.07248   0.07383   0.07686   0.08116
     Eigenvalues ---    0.08458   0.09052   0.09601   0.10233   0.10767
     Eigenvalues ---    0.12764   0.13272   0.13399   0.14098   0.14996
     Eigenvalues ---    0.15479   0.16000   0.16000   0.16000   0.16000
     Eigenvalues ---    0.16612   0.16901   0.17382   0.19779   0.24860
     Eigenvalues ---    0.25559   0.26245   0.27549   0.28242   0.29255
     Eigenvalues ---    0.31154   0.34040   0.34076   0.34079   0.34136
     Eigenvalues ---    0.34179   0.34203   0.35240   0.41812   0.43987
     Eigenvalues ---    0.43997   0.43998   0.44003   0.51510   0.51983
     Eigenvalues ---    0.53511   0.55473   0.55473   0.55896   0.55903
     Eigenvalues ---    0.55906   0.559091000.000001000.000001000.00000
     Eigenvalues --- 1000.000001000.000001000.000001000.000001000.00000
     Eigenvalues --- 1000.000001000.000001000.000001000.000001000.00000
     Eigenvalues --- 1000.000001000.000001000.000001000.000001000.00000
     Eigenvalues --- 1000.000001000.000001000.000001000.000001000.00000
     Eigenvalues --- 1000.000001000.000001000.000001000.000001000.00000
     Eigenvalues --- 1000.000001000.000001000.000001000.000001000.00000
     Eigenvalues --- 1000.000001000.000001000.000001000.000001000.00000
     Eigenvalues --- 1000.000001000.000001000.000001000.000001000.00000
     Eigenvalues --- 1000.000001000.000001000.000001000.000001000.00000
     Eigenvalues --- 1000.000001000.000001000.000001000.000001000.00000
     Eigenvalues --- 1000.000001000.000001000.000001000.000001000.00000
     Eigenvalues --- 1000.000001000.000001000.000001000.000001000.00000
     Eigenvalues --- 1000.000001000.000001000.000001000.000001000.00000
     Eigenvalues --- 1000.000001000.000001000.000001000.000001000.00000
     Eigenvalues --- 1000.000001000.000001000.000001000.000001000.00000
     Eigenvalues --- 1000.000001000.000001000.000001000.000001000.00000
     Eigenvalues --- 1000.000001000.000001000.000001000.000001000.00000
     Eigenvalues --- 1000.000001000.000001000.000001000.000001000.00000
     Eigenvalues --- 1000.000001000.000001000.000001000.000001000.00000
     Eigenvalues --- 1000.000001000.000001000.000001000.000001000.00000
     Eigenvalues --- 1000.000001000.000001000.00000
 RFO step:  Lambda=-4.99911292D-02 EMin= 5.42217409D-03
 Linear search not attempted -- first point.
 Maximum step size (   0.300) exceeded in Quadratic search.
    -- Step size scaled by   0.638
 Iteration  1 RMS(Cart)=  0.05277395 RMS(Int)=  0.00129688
 Iteration  2 RMS(Cart)=  0.00159136 RMS(Int)=  0.00023785
 Iteration  3 RMS(Cart)=  0.00000142 RMS(Int)=  0.00023785
 Iteration  4 RMS(Cart)=  0.00000000 RMS(Int)=  0.00023785
 Iteration  1 RMS(Cart)=  0.00001901 RMS(Int)=  0.00001543
 Iteration  2 RMS(Cart)=  0.00001403 RMS(Int)=  0.00001685
 Iteration  3 RMS(Cart)=  0.00001035 RMS(Int)=  0.00001941
 Iteration  4 RMS(Cart)=  0.00000764 RMS(Int)=  0.00002185
 Iteration  5 RMS(Cart)=  0.00000564 RMS(Int)=  0.00002387
 Iteration  6 RMS(Cart)=  0.00000417 RMS(Int)=  0.00002546
 Iteration  7 RMS(Cart)=  0.00000308 RMS(Int)=  0.00002667
 Iteration  8 RMS(Cart)=  0.00000227 RMS(Int)=  0.00002759
 Iteration  9 RMS(Cart)=  0.00000168 RMS(Int)=  0.00002828
 Iteration 10 RMS(Cart)=  0.00000124 RMS(Int)=  0.00002879
 Iteration 11 RMS(Cart)=  0.00000092 RMS(Int)=  0.00002918
 Variable       Old X    -DE/DX   Delta X   Delta X   Delta X     New X
                                 (Linear)    (Quad)   (Total)
    R1        2.69471   0.01251   0.00000   0.01268   0.01295   2.70767
    R2        2.90465  -0.00532   0.00000  -0.01511  -0.01523   2.88942
    R3        3.45970   0.01483   0.00000   0.06662   0.06729   3.52699
    R4        2.87928   0.01163   0.00000   0.02454   0.02455   2.90383
    R5        2.88409   0.00679   0.00000   0.01138   0.01140   2.89549
    R6        2.07201  -0.00096   0.00000  -0.00157  -0.00157   2.07044
    R7        2.66459   0.01602   0.00000   0.02086   0.02086   2.68544
    R8        2.90465   0.01060   0.00000   0.02490   0.02475   2.92940
    R9        2.91219  -0.00105   0.00000  -0.00173  -0.00185   2.91035
   R10        2.07262   0.00082   0.00000   0.00135   0.00135   2.07397
   R11        2.66450   0.01243   0.00000   0.01618   0.01618   2.68069
   R12        2.07197   0.00259   0.00000   0.00422   0.00422   2.07619
   R13        2.66470   0.01960   0.00000   0.02552   0.02552   2.69022
   R14        2.07101   0.00495   0.00000   0.00806   0.00806   2.07907
   R15        2.66451  -0.00729   0.00000  -0.00890  -0.00897   2.65553
   R16        2.06989   0.00096   0.00000   0.00156   0.00156   2.07145
   R17        2.87554   0.00570   0.00000   0.01445   0.01393   2.88946
   R18        2.07030   0.00565   0.00000   0.00920   0.00920   2.07950
   R19        2.06835   0.00988   0.00000   0.01959   0.01922   2.08757
   R20        2.66456   0.01805   0.00000   0.02349   0.02349   2.68806
   R21        3.21387   0.03604   0.00000   0.18300   0.18317   3.39704
   R22        3.25229   0.01095   0.00000   0.07167   0.07181   3.32410
   R23        1.81030   0.02004   0.00000   0.02311   0.02289   1.83319
   R24        3.35234  -0.00053   0.00000   0.00772   0.00749   3.35982
   R25        1.81033   0.01383   0.00000   0.01449   0.01449   1.82482
   R26        1.81036   0.01076   0.00000   0.01127   0.01127   1.82162
   R27        1.81044   0.01262   0.00000   0.01322   0.01322   1.82366
   R28        1.81039   0.00593   0.00000   0.00621   0.00621   1.81660
   R29        1.81414   0.01629   0.00000   0.01674   0.01673   1.83086
   R30        1.81414   0.00606   0.00000   0.00639   0.00639   1.82053
   R31        3.05217   0.01547   0.00000   0.09595   0.09601   3.14818
   R32        1.81414   0.01000   0.00000   0.01055   0.01055   1.82469
   R33        1.81414   0.02495   0.00000   0.02740   0.02758   1.84172
    A1        2.00767   0.00476   0.00000   0.02347   0.02355   2.03123
    A2        1.97497  -0.00387   0.00000  -0.00907  -0.00996   1.96501
    A3        1.57913   0.00715   0.00000   0.02934   0.02929   1.60842
    A4        1.93503  -0.00431   0.00000  -0.00629  -0.00656   1.92848
    A5        1.90868   0.00410   0.00000   0.00987   0.00984   1.91852
    A6        1.91955   0.00345   0.00000   0.02316   0.02287   1.94243
    A7        1.91449  -0.00245   0.00000  -0.01679  -0.01666   1.89783
    A8        1.93234   0.00654   0.00000   0.02695   0.02666   1.95900
    A9        1.85186  -0.00742   0.00000  -0.03830  -0.03808   1.81378
   A10        1.97302   0.00393   0.00000   0.01229   0.01244   1.98546
   A11        1.87682  -0.00247   0.00000  -0.00388  -0.00410   1.87272
   A12        1.91503   0.00890   0.00000   0.02733   0.02727   1.94230
   A13        1.89821  -0.00233   0.00000  -0.01902  -0.01887   1.87935
   A14        1.92267  -0.01390   0.00000  -0.04745  -0.04742   1.87525
   A15        1.87491   0.00624   0.00000   0.03275   0.03203   1.90694
   A16        1.94267  -0.00097   0.00000   0.00455   0.00458   1.94725
   A17        1.91100  -0.00529   0.00000  -0.01896  -0.01908   1.89193
   A18        1.93253   0.00880   0.00000   0.01892   0.01890   1.95143
   A19        1.90958   0.00314   0.00000   0.00403   0.00415   1.91373
   A20        1.91707  -0.00954   0.00000  -0.03332  -0.03325   1.88382
   A21        1.84856   0.00408   0.00000   0.02558   0.02565   1.87421
   A22        2.01765  -0.00561   0.00000  -0.01154  -0.01190   2.00575
   A23        1.90222   0.00194   0.00000   0.00067   0.00064   1.90285
   A24        1.86971   0.00282   0.00000   0.01446   0.01470   1.88441
   A25        1.92100  -0.00022   0.00000  -0.00925  -0.00922   1.91178
   A26        1.88511   0.00517   0.00000   0.02146   0.02142   1.90654
   A27        1.86120  -0.00400   0.00000  -0.01555  -0.01557   1.84562
   A28        1.94197   0.00326   0.00000   0.00964   0.00969   1.95165
   A29        1.82881   0.00131   0.00000   0.00448   0.00468   1.83349
   A30        1.85966   0.00086   0.00000   0.01224   0.01181   1.87147
   A31        1.91478  -0.00290   0.00000  -0.01993  -0.02017   1.89461
   A32        2.00425  -0.00162   0.00000   0.00245   0.00256   2.00681
   A33        1.90553  -0.00057   0.00000  -0.00800  -0.00813   1.89739
   A34        1.91959  -0.00158   0.00000  -0.01463  -0.01454   1.90505
   A35        1.94913  -0.00235   0.00000  -0.00651  -0.00672   1.94241
   A36        1.94312  -0.00215   0.00000  -0.00526  -0.00522   1.93790
   A37        1.85171  -0.00005   0.00000   0.00358   0.00331   1.85503
   A38        1.89313   0.00205   0.00000   0.01201   0.01189   1.90502
   A39        1.90416   0.00434   0.00000   0.01191   0.01212   1.91628
   A40        2.07957   0.01060   0.00000   0.02742   0.02700   2.10657
   A41        1.55589   0.00616   0.00000   0.03692   0.03711   1.59300
   A42        1.83267   0.00707   0.00000   0.03296   0.03313   1.86581
   A43        2.81231  -0.00016   0.00000   0.00292   0.00301   2.81531
   A44        1.83263   0.01395   0.00000   0.04237   0.04237   1.87500
   A45        1.83262   0.00689   0.00000   0.02092   0.02092   1.85353
   A46        1.83252   0.01263   0.00000   0.03836   0.03836   1.87088
   A47        1.83253   0.02060   0.00000   0.06256   0.06256   1.89510
   A48        1.44997  -0.00281   0.00000  -0.00483  -0.00493   1.44504
   A49        2.42157  -0.00103   0.00000  -0.01099  -0.01124   2.41033
   A50        1.91114  -0.00363   0.00000  -0.02175  -0.02197   1.88916
   A51        2.62020  -0.00371   0.00000  -0.01171  -0.01143   2.60877
   A52        2.12112  -0.00145   0.00000  -0.01491  -0.01548   2.10564
   A53        1.91114   0.00168   0.00000  -0.00285  -0.00361   1.90752
   A54        1.70465  -0.00846   0.00000  -0.04159  -0.04148   1.66317
   A55        1.69116   0.00338   0.00000   0.01310   0.01309   1.70425
   A56        2.55310  -0.00105   0.00000   0.00920   0.00951   2.56261
   A57        2.84116   0.00647   0.00000   0.03611   0.03565   2.87681
   A58        1.57503  -0.00511   0.00000  -0.02980  -0.02971   1.54532
    D1       -0.79140   0.00022   0.00000   0.01809   0.01814  -0.77326
    D2        1.38254  -0.00267   0.00000  -0.00236  -0.00232   1.38022
    D3       -2.89320  -0.00490   0.00000  -0.01265  -0.01255  -2.90575
    D4        0.99070   0.00935   0.00000   0.06156   0.06138   1.05207
    D5       -3.11855   0.00646   0.00000   0.04111   0.04092  -3.07762
    D6       -1.11110   0.00423   0.00000   0.03082   0.03070  -1.08041
    D7       -0.08184   0.00121   0.00000   0.00000   0.00001  -0.08183
    D8       -2.14986   0.00222   0.00000   0.01614   0.01631  -2.13354
    D9        2.11486   0.00189   0.00000   0.01782   0.01816   2.13302
   D10       -2.10593   0.00071   0.00000  -0.01067  -0.01090  -2.11683
   D11        2.10924   0.00172   0.00000   0.00547   0.00541   2.11465
   D12        0.09077   0.00139   0.00000   0.00715   0.00725   0.09803
   D13       -1.65156  -0.01002   0.00000  -0.05975  -0.05912  -1.71068
   D14        1.32948  -0.00591   0.00000  -0.03704  -0.03714   1.29234
   D15       -0.43137  -0.00126   0.00000  -0.00606  -0.00615  -0.43752
   D16        0.40148  -0.00214   0.00000  -0.02148  -0.02094   0.38054
   D17       -2.90066   0.00197   0.00000   0.00123   0.00104  -2.89963
   D18        1.62167   0.00661   0.00000   0.03222   0.03202   1.65370
   D19       -0.96995   0.00146   0.00000   0.02094   0.02098  -0.94897
   D20       -3.08346   0.00169   0.00000   0.02563   0.02555  -3.05791
   D21        1.16782  -0.00524   0.00000  -0.00522  -0.00519   1.16263
   D22       -3.08314   0.00458   0.00000   0.03942   0.03950  -3.04364
   D23        1.08652   0.00482   0.00000   0.04411   0.04408   1.13060
   D24       -0.94538  -0.00212   0.00000   0.01326   0.01334  -0.93204
   D25        1.17298   0.00920   0.00000   0.06675   0.06680   1.23978
   D26       -0.94053   0.00944   0.00000   0.07143   0.07138  -0.86916
   D27       -2.97244   0.00250   0.00000   0.04059   0.04064  -2.93180
   D28        0.96955  -0.00235   0.00000  -0.02022  -0.02023   0.94932
   D29        2.98513  -0.00059   0.00000  -0.02115  -0.02113   2.96400
   D30       -1.14453  -0.00483   0.00000  -0.04570  -0.04560  -1.19013
   D31        3.07931  -0.00161   0.00000  -0.02300  -0.02293   3.05638
   D32       -1.18829   0.00014   0.00000  -0.02392  -0.02384  -1.21213
   D33        0.96523  -0.00410   0.00000  -0.04847  -0.04831   0.91692
   D34       -1.16596  -0.00829   0.00000  -0.06399  -0.06407  -1.23003
   D35        0.84962  -0.00654   0.00000  -0.06491  -0.06498   0.78465
   D36        3.00314  -0.01078   0.00000  -0.08947  -0.08944   2.91370
   D37       -1.07912   0.00115   0.00000  -0.00050  -0.00103  -1.08015
   D38        1.06540   0.00249   0.00000   0.02566   0.02610   1.09149
   D39        3.14159  -0.00131   0.00000  -0.00258  -0.00250   3.13909
   D40        0.12063   0.00115   0.00000   0.00000   0.00000   0.12063
   D41        2.23498  -0.00402   0.00000  -0.01813  -0.01818   2.21680
   D42       -2.02602  -0.00271   0.00000  -0.00389  -0.00391  -2.02993
   D43        2.21609  -0.00101   0.00000  -0.01881  -0.01875   2.19735
   D44       -1.95274  -0.00618   0.00000  -0.03695  -0.03693  -1.98967
   D45        0.06945  -0.00487   0.00000  -0.02271  -0.02266   0.04678
   D46       -2.03302   0.00976   0.00000   0.03248   0.03248  -2.00053
   D47        0.08134   0.00459   0.00000   0.01434   0.01430   0.09563
   D48        2.10352   0.00590   0.00000   0.02858   0.02857   2.13209
   D49        0.77600  -0.00391   0.00000  -0.02526  -0.02519   0.75081
   D50       -1.38817  -0.00206   0.00000  -0.00973  -0.00974  -1.39791
   D51        2.86941  -0.00010   0.00000   0.00170   0.00188   2.87130
   D52       -1.30718  -0.00170   0.00000  -0.01521  -0.01494  -1.32212
   D53        2.81184   0.00014   0.00000   0.00033   0.00051   2.81235
   D54        0.78624   0.00211   0.00000   0.01176   0.01213   0.79837
   D55        2.92542   0.00010   0.00000  -0.01637  -0.01657   2.90885
   D56        0.76126   0.00195   0.00000  -0.00084  -0.00113   0.76013
   D57       -1.26435   0.00391   0.00000   0.01060   0.01050  -1.25385
   D58       -1.04723  -0.00188   0.00000  -0.01508  -0.01572  -1.06294
   D59        3.05301  -0.00345   0.00000  -0.01685  -0.01695   3.03606
   D60        0.98805   0.00339   0.00000   0.01309   0.01383   1.00188
   D61        0.98906  -0.00010   0.00000  -0.00714  -0.00686   0.98220
   D62       -3.14151  -0.00194   0.00000  -0.01148  -0.01145   3.13022
   D63       -1.08112  -0.00086   0.00000  -0.00955  -0.00987  -1.09098
   D64       -0.02915  -0.00123   0.00000  -0.00871  -0.00869  -0.03784
   D65       -2.21335   0.00071   0.00000  -0.01659  -0.01689  -2.23024
   D66        2.00557   0.00042   0.00000  -0.00856  -0.00863   1.99694
   D67        1.05852   0.00099   0.00000   0.00869   0.00868   1.06720
   D68       -0.99253   0.00351   0.00000   0.01759   0.01775  -0.97477
   D69       -3.12577   0.00112   0.00000   0.01063   0.01063  -3.11513
   D70       -3.06615   0.00476   0.00000   0.03195   0.03211  -3.03404
   D71        1.16600   0.00728   0.00000   0.04085   0.04117   1.20717
   D72       -0.96724   0.00489   0.00000   0.03389   0.03406  -0.93319
   D73       -0.90769  -0.00069   0.00000   0.00112   0.00120  -0.90649
   D74       -2.95874   0.00183   0.00000   0.01002   0.01027  -2.94847
   D75        1.19121  -0.00056   0.00000   0.00306   0.00315   1.19436
   D76        1.41049  -0.00067   0.00000  -0.02331  -0.02313   1.38736
   D77        1.17874  -0.00089   0.00000  -0.01250  -0.01261   1.16613
   D78       -0.68099   0.00259   0.00000  -0.00414  -0.00387  -0.68485
   D79       -0.91273   0.00237   0.00000   0.00666   0.00666  -0.90608
   D80       -2.71724  -0.00193   0.00000  -0.02601  -0.02583  -2.74308
   D81       -2.94899  -0.00215   0.00000  -0.01520  -0.01531  -2.96430
   D82       -1.06716  -0.00023   0.00000  -0.00074  -0.00078  -1.06795
   D83        1.04728  -0.00219   0.00000  -0.01431  -0.01435   1.03293
   D84        3.05701   0.00116   0.00000   0.00274   0.00284   3.05984
   D85        1.37240  -0.00418   0.00000  -0.01973  -0.01898   1.35342
   D86       -0.95989   0.00375   0.00000   0.02576   0.02493  -0.93496
   D87        2.74771   0.00064   0.00000   0.00971   0.00942   2.75713
   D88        2.00758  -0.00108   0.00000  -0.01153  -0.01151   1.99607
   D89       -1.15655   0.00637   0.00000   0.03208   0.03190  -1.12465
   D90        0.79488  -0.00291   0.00000  -0.01093  -0.01080   0.78408
   D91       -0.92591   0.00096   0.00000   0.00318   0.00336  -0.92255
   D92        2.92256   0.00404   0.00000   0.02200   0.02180   2.94436
   D93        0.38229   0.00152   0.00000   0.00922   0.00912   0.39141
   D94        2.95896   0.00364   0.00000   0.02067   0.02068   2.97964
   D95        2.94735  -0.00007   0.00000   0.01438   0.01469   2.96205
   D96        2.86303   0.00263   0.00000   0.00894   0.00850   2.87153
   D97        1.06770   0.00466   0.00000   0.02754   0.02731   1.09501
         Item               Value     Threshold  Converged?
 Maximum Force            0.035982     0.000450     NO 
 RMS     Force            0.007090     0.000300     NO 
 Maximum Displacement     0.310055     0.001800     NO 
 RMS     Displacement     0.053115     0.001200     NO 
 Predicted change in Energy=-2.574468D-02
 GradGradGradGradGradGradGradGradGradGradGradGradGradGradGradGradGradGrad

                          Input orientation:                          
 ---------------------------------------------------------------------
 Center     Atomic      Atomic             Coordinates (Angstroms)
 Number     Number       Type             X           Y           Z
 ---------------------------------------------------------------------
      1          8           0        0.052443    1.538713    0.178631
      2          6           0        0.883456   -0.691377    1.052381
      3          6           0       -1.184045   -0.552961   -0.438258
      4          6           0        0.048119   -1.398559   -0.026219
      5          6           0       -1.206799    0.855131    0.185147
      6          6           0        1.273898    0.716628    0.591082
      7          1           0       -0.284824   -2.366736    0.372363
      8          1           0        1.705387    1.255492    1.442565
      9          1           0        1.797022   -1.262566    1.251246
     10          1           0       -1.148413   -0.434131   -1.528722
     11          6           0        2.265048    0.763360   -0.572273
     12          1           0        2.562402    1.807581   -0.751474
     13          1           0        1.800482    0.408353   -1.509555
     14          1           0       -1.576114    0.793558    1.219676
     15          8           0       -2.136207    1.651953   -0.504779
     16          1           0       -1.673315    2.463682   -0.765337
     17          8           0        3.424532   -0.009500   -0.286485
     18          1           0        3.843339    0.375072    0.494022
     19          8           0       -2.395013   -1.197515   -0.077133
     20          1           0       -2.405997   -2.035559   -0.553352
     21          8           0        0.811539   -1.661140   -1.198774
     22          1           0        1.580169   -2.178481   -0.928831
     23          8           0        0.208399   -0.679868    2.302827
     24          1           0       -0.611504   -0.187880    2.203788
[...]
 0.00004532,-0.00001548,-0.00028665,0.00018470,0.00015884,-0.00051569,0
 .00003940,-0.00009678,0.00016104,0.00010522,-0.00016308,-0.00003884,-0
 .00004651,-0.00001515,-0.00002405,0.00001844,0.00029273,-0.00053365,-0
 .00012255,-0.00006056,0.00014496,0.00015651,-0.00170217,0.00082826,0.0
 0139372,0.00036971,0.00018868,0.00012790,-0.15676586,-0.15497839,0.151
 85658,0.13031782,0.14737458,-0.00146725,-0.00044119,0.00078364,0.01543
 571,0.01299218,-0.01812182,-0.00004073,-0.00033086,-0.00168645,-0.0005
 5195,0.00017011,-0.00019535,0.00145434,0.00043582,-0.00128865,0.004191
 12,-0.00551342,-0.00256830,-0.00070825,-0.00125627,0.00019925,-0.00019
 578,-0.00019943,0.00031038,-0.00095484,0.00075523,0.00099866,0.0000814
 6,0.00007692,0.00020683,-0.00008489,0.00186947,-0.00101555,0.00031829,
 -0.00036770,-0.00032222,0.00009872,-0.00002352,-0.00019953,-0.00043504
 ,0.00057657,-0.00037738,-0.00007596,-0.00039916,0.00074502,-0.00006790
 ,0.00042711,-0.00010306,-0.00027599,-0.00015023,0.00044271,0.00001469,
 -0.00005550,0.00002800,0.00056538,0.00029529,0.00097873,-0.00019100,0.
 00016198,0.00009768,-0.00072280,0.00173561,0.00170634,0.00047214,-0.00
 001871,-0.00002087,0.18691426,0.11336468,-0.18751703,-0.20385221,-0.12
 406234,0.20685986,0.00045819,0.00285840,-0.00037181,-0.00008126,-0.000
 11577,0.00005704,-0.00044738,-0.00022901,0.00023714,-0.00001102,-0.000
 21384,-0.00002847,-0.00180121,-0.00155247,0.00042299,0.00086483,-0.000
 60734,0.00055085,0.00002528,0.00007971,-0.00007028,0.00023003,-0.00008
 531,0.00011220,0.00000038,0.00010766,-0.00009977,0.00004646,0.00003286
 ,-0.00006329,0.00034471,-0.00021711,0.00002814,0.00002304,-0.00000501,
 -0.00002267,-0.00004082,0.00001293,0.00001376,-0.00020500,-0.00022826,
 0.00006164,0.00523772,0.00309399,0.00101589,-0.01028871,0.00129544,-0.
 00239863,-0.00038987,0.00036029,-0.00011376,0.00011910,-0.00006971,-0.
 00000055,0.00075750,0.00027832,-0.00030292,-0.00038673,0.00004643,0.00
 007448,0.00007592,0.00029135,-0.00002572,-0.00001707,-0.00018180,0.000
 03705,0.00011712,0.00029307,-0.00019342,-0.00010657,0.00010903,0.00003
 497,0.35110064,0.00453303,0.00118890,0.00128925,0.00000208,-0.00027059
 ,-0.00032383,0.00151994,0.00014832,0.00102899,-0.00100707,0.00000771,0
 .00008209,-0.00906884,-0.00080894,-0.01015595,-0.00097762,0.00031064,-
 0.00094932,0.00021233,-0.00013514,0.00035553,0.00052739,-0.00000247,0.
 00032500,0.00010284,-0.00000722,0.00020194,-0.00002192,0.00040253,0.00
 007881,-0.00037413,0.00016585,0.00023631,0.00006186,0.00002602,-0.0000
 6272,-0.00007186,0.00006827,0.00006820,0.00029206,0.00044308,0.0009071
 4,0.00769540,-0.02643780,0.00693689,0.00300846,0.00506713,-0.00267433,
 0.00061242,-0.00031376,0.00001964,-0.00015771,0.00003249,0.00002271,-0
 .00042690,-0.00061230,0.00072281,0.00076662,0.00060267,-0.00060735,0.0
 0055180,-0.00039350,0.00002571,-0.00011579,0.00001781,0.00003597,0.000
 40764,0.00030271,0.00073369,-0.00007551,-0.00013968,-0.00032295,0.1377
 7591,0.17880325,0.00058355,0.00172967,0.00082549,0.00022582,-0.0002850
 2,-0.00021374,0.00046833,0.00004430,0.00087606,-0.00018214,-0.00027716
 ,-0.00000651,-0.00150743,-0.00188038,-0.00330592,0.00015960,-0.0003865
 8,0.00008711,0.00005741,-0.00000522,0.00008471,0.00026445,-0.00005131,
 0.00013595,-0.00003027,0.00007648,0.00000792,0.00002729,0.00033832,-0.
 00010393,0.00016454,-0.00001948,-0.00006840,-0.00004618,-0.00002290,0.
 00000207,-0.00002968,0.00005536,0.00000467,0.00014468,-0.00003778,0.00
 129299,0.00102387,-0.00031894,0.00767268,-0.00188681,0.00287999,-0.014
 09546,-0.00013135,0.00009754,0.00007701,0.00006230,-0.00003493,-0.0000
 2985,0.00007717,0.00023705,0.00015221,0.00000502,-0.00009857,-0.000283
 79,0.00002342,0.00016346,0.00008832,0.00001364,-0.00008673,-0.00001084
 ,-0.00016485,0.00045842,0.00014165,0.00001969,-0.00006669,0.00000650,0
 .11245277,-0.14454852,0.55999982,-0.00220454,-0.00442230,-0.00014430,0
 .00003332,0.00025546,0.00001718,-0.00006365,0.00027062,-0.00033550,0.0
 0031378,0.00025530,0.00001790,0.00552153,0.00082243,0.00249302,-0.0005
 5712,0.00081911,-0.00029443,-0.00009945,-0.00004503,-0.00004211,-0.000
 58076,0.00017789,-0.00029958,-0.00002355,-0.00012309,0.00004257,-0.000
 04119,-0.00012145,0.00000938,-0.00033010,0.00015413,-0.00004790,-0.000
 01549,0.00001035,0.00003844,0.00007572,-0.00005727,-0.00003557,0.00022
 164,0.00011917,-0.00007725,-0.00327925,0.00467653,-0.00263896,0.002864
 34,-0.00828233,0.00118079,0.00027554,-0.00030292,0.00007990,-0.0001005
 3,0.00007403,0.00000520,-0.00062874,-0.00009587,0.00008347,0.00007172,
 -0.00021206,0.00008678,-0.00022202,-0.00022207,0.00000061,0.00004103,0
 .00019663,-0.00004471,-0.00027671,-0.00049314,-0.00000088,0.00015945,-
 0.00012384,0.00005716,-0.28271959,-0.08199646,-0.18032188,0.27546496,-
 0.00120599,0.00024460,-0.00043796,-0.00004046,0.00000592,0.00001617,-0
 .00033046,-0.00004745,0.00056265,0.00016996,-0.00016606,0.00006625,0.0
 0108325,-0.00215898,-0.00004286,0.00078625,-0.00011403,0.00057703,-0.0
 0001647,0.00003194,-0.00006552,-0.00014379,-0.00003606,-0.00010542,-0.
 00002990,0.00005048,-0.00009021,0.00004563,0.00016042,-0.00007115,0.00
 015897,-0.00009383,-0.00011765,-0.00001703,-0.00000707,0.00002476,0.00
 001838,-0.00002486,-0.00002469,-0.00020191,0.00002755,0.00075783,0.001
 64432,0.00023084,0.00066453,-0.00622536,-0.00149027,-0.00440332,-0.000
 28681,0.00017549,-0.00001935,0.00007227,-0.00001544,-0.00000900,0.0002
 6412,0.00024550,-0.00018991,-0.00021926,-0.00016005,0.00004312,-0.0001
 3400,0.00017182,-0.00001271,0.00003043,-0.00005033,-0.00000490,-0.0001
 7393,0.00002614,-0.00026642,0.00001797,0.00003918,0.00011859,-0.100397
 56,-0.05748656,-0.04987722,0.08324046,0.06502984,-0.00134016,-0.002769
 53,-0.00094287,-0.00021895,0.00031490,0.00019808,-0.00009869,0.0000671
 8,-0.00048245,0.00019884,0.00020403,0.00002411,0.00316511,0.00046979,0
 .00413524,-0.00011517,0.00056848,-0.00002764,-0.00006008,-0.00000539,-
 0.00006899,-0.00042721,0.00010946,-0.00022057,0.00002415,-0.00009244,-
 0.00001814,-0.00003051,-0.00022444,0.00000948,-0.00021738,0.00002251,0
 .00003035,0.00004091,0.00002010,0.00000555,0.00004961,-0.00006318,-0.0
 0002066,0.00017445,0.00012442,-0.00067162,-0.00182188,0.00435249,-0.00
 285655,0.00070550,-0.00780116,0.00083677,0.00014288,-0.00012163,-0.000
 05356,-0.00006997,0.00004429,0.00002861,-0.00025844,-0.00010569,-0.000
 11462,-0.00001565,-0.00009379,0.00020683,-0.00008463,-0.00017104,-0.00
 007671,-0.00000108,0.00011040,-0.00000064,0.00005715,-0.00054525,-0.00
 018457,0.00004015,0.00002992,0.00002848,-0.13224376,-0.02037983,-0.146
 74572,0.16162302,0.03658842,0.17614955,0.00011756,-0.00031443,0.000233
 79,0.00003938,0.00000153,-0.00003014,0.00010673,0.00007370,0.00000947,
 -0.00002910,0.00004019,-0.00000771,0.00006440,0.00017353,-0.00032462,-
 0.00022263,0.00007508,-0.00015091,-0.00000155,-0.00001742,0.00002647,0
 .00001794,0.00000030,0.00000603,0.00000176,-0.00002167,0.00002932,0.00
 000010,0.00000685,-0.00000629,-0.00005924,0.00008959,-0.00004066,-0.00
 002519,-0.00000606,0.00000970,0.00000210,0.00001128,0.00000017,-0.0000
 6991,0.00008658,-0.00001715,-0.00021439,-0.00024365,0.00032756,0.00011
 990,0.00105805,-0.00031551,0.00009860,-0.00010298,0.00006063,-0.000025
 82,0.00001654,-0.00000897,-0.00015372,-0.00013380,0.00007052,0.0001071
 7,0.00007823,-0.00000224,-0.00000005,-0.00007967,0.00001916,0.00000557
 ,0.00004318,-0.00001298,-0.00000253,-0.00002330,0.00006688,0.00000379,
 -0.00000963,-0.00002463,-0.04777726,-0.05995865,0.08375916,0.00766172,
 0.01747914,-0.03653593,0.04275467,-0.00022937,0.00007772,-0.00033820,-
 0.00005095,0.00004243,0.00005798,-0.00019448,-0.00008964,-0.00011181,0
 .00006342,0.00000419,0.00002014,0.00002341,0.00027085,0.00049701,0.000
 20571,-0.00002607,0.00014286,-0.00000707,0.00001506,-0.00003504,-0.000
 03752,-0.00001537,-0.00002408,-0.00000305,0.00001058,-0.00003124,0.000
 00457,-0.00006365,0.00004037,0.00006711,-0.00004579,0.00002449,0.00001
 437,0.00000658,0.00000284,0.00000069,-0.00002183,0.00000187,-0.0001155
 1,0.00008996,-0.00029422,0.00100983,-0.00194094,-0.00245250,-0.0018069
 2,-0.00006511,0.00713246,-0.00009682,0.00006833,-0.00005154,0.00002289
 ,-0.00000570,0.00000379,0.00009589,0.00002397,-0.00009357,-0.00005456,
 -0.00000496,0.00008743,-0.00002783,0.00004336,-0.00003217,0.00000431,-
 0.00001811,0.00000883,0.00000678,-0.00004186,-0.00009319,-0.00000260,0
 .00002741,0.00002996,-0.04090742,-0.10523149,0.19299208,0.00082699,0.0
 0504079,-0.01163677,0.04199083,0.10209438,0.00016096,-0.00021827,0.000
 05199,-0.00001748,0.00001874,0.00000324,0.00007313,0.00006971,0.000011
 43,-0.00004861,0.00003033,0.00001742,-0.00028169,0.00010513,-0.0003700
 8,-0.00012010,0.00007920,-0.00008834,0.00000781,-0.00001075,0.00001289
 ,0.00000018,0.00000769,0.00000332,0.00000706,-0.00001260,0.00001603,-0
 .00000210,-0.00001612,0.00000726,-0.00004615,0.00002267,0.00003656,0.0
 0001141,0.00000850,-0.00000188,-0.00000197,-0.00000722,0.00000694,-0.0
 0002059,0.00010243,-0.00006837,0.00056816,-0.00244457,-0.00025588,-0.0
 0019651,0.00330108,0.00149903,0.00006281,-0.00004157,-0.00001721,-0.00
 002115,0.00000957,0.00000763,-0.00004649,-0.00008228,0.00002674,0.0000
 5047,0.00005972,-0.00000609,0.00003406,-0.00005742,-0.00001750,-0.0000
 0876,0.00001647,0.00000565,0.00003123,-0.00004649,0.00001443,-0.000001
 51,-0.00000086,-0.00001339,0.03531178,0.17005207,-0.40178795,0.0124363
 4,0.01525269,-0.02363471,-0.04733527,-0.18586729,0.42376328,0.00659145
 ,0.00524450,0.00046145,-0.00025402,0.00017311,0.00076427,0.00061824,-0
 .00029219,-0.00080281,-0.00048072,-0.00010269,-0.00029438,-0.00694295,
 0.00176768,0.00069439,-0.00137631,-0.00193511,-0.00094238,0.00019763,0
 .00009809,0.00009022,0.00150272,-0.00026010,0.00120081,0.00011314,-0.0
 0000062,0.00002249,-0.00006505,-0.00024598,0.00012440,0.00054140,-0.00
 009941,0.00041965,0.00007867,-0.00002953,-0.00016957,-0.00020197,0.000
 17471,0.00014051,0.00116381,-0.00019136,-0.00155129,0.00232523,-0.0035
 5595,0.00123383,-0.00081385,0.00540113,0.00070489,-0.00006147,0.000320
 15,-0.00020404,0.00009398,-0.00015552,0.00003071,0.00058715,-0.0000395
 2,-0.00004869,0.00006709,0.00032861,-0.00004523,0.00046853,0.00007540,
 -0.00009433,-0.00012924,-0.00024524,0.00011077,0.00112142,-0.00008057,
 -0.00000159,-0.00024269,0.00026734,-0.00017727,-0.01291678,-0.00150572
 ,-0.01597372,-0.00204580,-0.00317829,0.01099633,-0.00301214,-0.0010759
 5,-0.00069508,0.06889717,0.00022132,-0.02448611,-0.00307271,0.00060022
 ,0.00001725,-0.00037695,-0.00006087,0.00083594,-0.00059522,-0.00017034
 ,0.00078256,-0.00030648,0.00877293,0.00073109,0.00216941,-0.00601717,0
 .00159903,-0.00465662,-0.00006074,-0.00014036,0.00013824,0.00025427,0.
 00045255,0.00043288,-0.00001869,-0.00028926,0.00043407,-0.00004896,-0.
 00020806,0.00006155,-0.00074084,0.00022956,0.00061868,0.00015621,0.000
 05176,-0.00013359,0.00002332,0.00013392,0.00016095,-0.00006975,-0.0001
 8069,-0.00046787,-0.00242828,0.00157863,-0.00246413,0.00117369,-0.0026
 9147,0.00080128,0.00139279,-0.00081529,0.00010595,-0.00029410,0.000033
 02,0.00005043,-0.00128885,-0.00095632,0.00066393,0.00044674,0.00019642
 ,-0.00002175,0.00016861,-0.00060246,0.00010929,-0.00005553,0.00029280,
 -0.00003872,-0.00013429,-0.00012787,0.00118264,0.00013690,-0.00042442,
 -0.00026897,0.00168337,0.00695211,0.00176198,-0.00132752,-0.00901773,-
 0.00397506,-0.00048504,-0.00025858,-0.00054597,-0.08303245,0.45237290,
 0.00068224,-0.00648421,0.00375220,0.00101368,-0.00079736,-0.00040336,-
 0.00036666,0.00032764,0.00019942,-0.00022095,0.00001872,-0.00024388,0.
 00121187,-0.00022457,-0.00266419,-0.00261335,-0.00118915,-0.00189207,0
 .00002840,-0.00001058,0.00010382,0.00128865,0.00013119,0.00029467,-0.0
 0010347,0.00002067,0.00022875,0.00006329,0.00013673,-0.00000914,0.0004
 3579,0.00032873,0.00025892,-0.00012716,-0.00001081,0.00001830,-0.00017
 849,0.00018231,0.00013014,-0.00076372,-0.00000320,0.00046049,0.0001026
 9,-0.00174297,0.00156919,0.00027747,0.00264045,-0.00042500,0.00022823,
 -0.00020555,0.00021468,0.00004208,-0.00005782,-0.00007739,-0.00017565,
 -0.00026732,0.00033522,0.00010936,0.00010036,-0.00012869,0.00006514,0.
 00011219,0.00020239,0.00003480,-0.00004684,-0.00003373,-0.00007771,0.0
 0114664,0.00029693,-0.00011305,0.00004208,-0.00007284,-0.01462385,-0.0
 0128106,-0.00361245,0.00598760,-0.00285104,-0.00672808,0.00067501,-0.0
 0057070,0.00076006,-0.09668290,0.04885017,0.57796570,-0.00139125,0.000
 12859,-0.00027864,0.00002894,-0.00001166,-0.00032153,-0.00001571,0.000
 01320,0.00040796,0.00020609,-0.00002332,0.00016930,0.00171046,-0.00058
 492,-0.00164393,0.00142884,0.00077350,0.00096113,-0.00006811,-0.000042
 78,-0.00002479,-0.00084435,-0.00008440,-0.00017994,-0.00005648,0.00005
 210,-0.00001815,0.00001045,0.00015695,-0.00003440,-0.00033043,-0.00014
 488,-0.00014108,0.00001419,0.00000254,0.00004001,0.00010494,-0.0000965
 2,-0.00009545,-0.00058891,-0.00027922,0.00053131,-0.00035172,0.0001994
 7,0.00037669,0.00011105,-0.00005030,-0.00042097,-0.00001179,-0.0000624
 3,0.00001678,-0.00004189,0.00006546,0.00001829,-0.00014796,0.00016122,
 0.00002916,-0.00003941,-0.00012584,-0.00005457,-0.00019001,-0.00001883
 ,0.00001368,0.00004506,0.00008733,-0.00003721,-0.00097864,0.00010182,0
 .00015312,0.00021783,-0.00038584,0.00008139,-0.00394112,-0.00063167,0.
 00044859,0.00479929,0.00043261,-0.00423178,0.00049567,0.00002161,0.000
 27756,-0.02118051,0.00518249,0.06867374,0.02206550,-0.00029474,-0.0008
 7243,0.00124883,0.00085786,-0.00072551,-0.00072510,-0.00038433,-0.0000
 7127,0.00032164,-0.00011453,-0.00022973,-0.00003493,-0.00018154,-0.000
 86718,-0.00183676,0.00022230,-0.00095180,-0.00012451,-0.00000839,0.000
 01682,-0.00000889,0.00048759,0.00012098,-0.00009076,-0.00016910,0.0002
 3433,0.00005327,0.00007089,0.00015685,-0.00002259,0.00049751,-0.000027
 56,0.00003714,-0.00009494,0.00000423,0.00006430,-0.00007967,0.00005651
 ,0.00003564,-0.00093513,-0.00020323,0.00021117,0.00035788,-0.00021108,
 0.00101234,-0.00009862,0.00050073,-0.00026674,-0.00033771,0.00016440,0
 .00005981,0.00013669,-0.00003258,-0.00003826,0.00029411,0.00016864,-0.
 00004394,-0.00013195,-0.00007403,0.00000480,-0.00007548,0.00039664,0.0
 0016604,0.00008309,-0.00013240,-0.00002156,-0.00021388,0.00092043,-0.0
 0028341,-0.00026745,0.00055637,0.00018253,0.00058229,-0.00030602,-0.00
 010591,-0.00151446,-0.00002434,0.00065710,-0.00013051,0.00001736,-0.00
 007714,-0.00500830,-0.05672144,0.09767859,-0.00099179,0.05132133,-0.00
 026214,0.00155765,0.00028720,-0.00040534,0.00022964,0.00068890,-0.0001
 2665,-0.00008848,0.00039780,0.00022341,-0.00008558,0.00002541,-0.00033
 263,-0.00050539,-0.00064805,0.00061944,-0.00053438,0.00056589,0.000022
 93,0.00005110,-0.00005975,0.00009438,-0.00003719,0.00014572,0.00004418
 ,-0.00003722,-0.00011992,0.00002398,0.00010830,-0.00005187,0.00019552,
 -0.00002126,-0.00001038,0.00001424,-0.00001145,-0.00001188,-0.00002456
 ,-0.00000421,-0.00000381,-0.00032131,-0.00007567,0.00054490,0.00008222
 ,0.00022744,0.00020752,-0.00009539,-0.00022843,-0.00026115,-0.00018630
 ,0.00014433,-0.00010595,0.00002499,-0.00000878,0.00002339,0.00015173,0
 .00014381,-0.00017019,-0.00009454,-0.00008103,0.00002538,-0.00007038,-
 0.00003888,-0.00013214,-0.00002161,-0.00000452,0.00002445,0.00022279,-
 0.00051567,-0.00093486,0.00002936,0.00011914,0.00005969,0.00039850,-0.
 00009781,0.00132080,-0.00108534,0.00065654,-0.00342677,0.00020695,0.00
 007358,0.00011098,0.07548645,0.04031910,-0.47478075,-0.07702225,-0.050
 94581,0.49520415,-0.00961000,-0.00031393,-0.00039572,0.00011278,-0.000
 44389,-0.00082159,-0.00092956,0.00032686,0.00069542,0.00018139,0.00003
 075,0.00027174,0.00281319,-0.00673055,-0.00020098,0.00118013,0.0042160
 6,0.00081302,-0.00014245,-0.00007469,-0.00006997,-0.00142961,0.0004863
 2,-0.00158182,-0.00007434,0.00005048,-0.00004007,0.00009587,0.00020949
 ,-0.00012427,-0.00036850,0.00025351,-0.00073114,-0.00018827,0.00002753
 ,0.00020473,0.00016299,-0.00017006,-0.00011797,-0.00137421,-0.00027363
 ,0.00126363,-0.00035982,0.00174840,-0.00038650,-0.00125378,-0.00162777
 ,-0.00096679,-0.00015201,-0.00017220,0.00026005,-0.00004983,0.00010143
 ,-0.00005699,-0.00035453,-0.00008715,0.00008250,-0.00008517,-0.0001855
 6,0.00004726,-0.00028088,0.00003752,0.00010512,0.00009379,0.00011967,-
 0.00008398,-0.00065341,0.00038349,-0.00009281,0.00005911,-0.00005233,0
 .00010686,0.00172948,-0.00167994,0.00029301,-0.00431555,0.00715745,0.0
 0055316,-0.00000351,0.00025165,-0.00018950,-0.03464414,0.07602054,0.03
 512692,-0.00105999,0.00744231,0.00220740,0.05090084,0.00325459,0.00863
 755,-0.00093189,-0.00184061,0.00059587,0.00076232,0.00110699,-0.001344
 63,0.00004474,0.00018715,-0.00095900,0.00049512,-0.01652291,-0.0025103
 5,-0.00093847,0.01020438,-0.00400754,0.00689459,0.00009303,0.00016742,
 -0.00017148,-0.00155638,-0.00025658,-0.00107332,0.00019528,0.00032731,
 -0.00075319,-0.00008399,0.00004689,0.00004715,0.00063221,-0.00039380,-
 0.00105509,-0.00013750,-0.00004149,0.00018965,0.00016628,-0.00026651,-
 0.00025665,0.00183221,0.00004657,-0.00084547,0.00355214,-0.00240155,0.
 00267274,-0.00105430,0.00420302,-0.00016035,-0.00181007,0.00106580,-0.
 00016007,0.00031755,0.00000961,-0.00005507,0.00173076,0.00141367,-0.00
 095430,-0.00048635,-0.00014868,0.00001154,-0.00013350,0.00056988,-0.00
 024687,0.00002063,-0.00031557,0.00006442,0.00042944,-0.00094541,-0.001
 04893,-0.00003705,0.00018507,0.00021822,-0.00409044,-0.00239402,-0.002
 73131,0.00744072,-0.00058747,0.00430170,0.00030222,-0.00000389,0.00029
 255,0.08718380,-0.36933947,-0.13597330,-0.00384450,0.00681495,0.009691
 08,-0.08705178,0.36183237,0.00005381,-0.00055508,-0.00693065,-0.001536
 36,0.00106846,0.00009945,0.00072457,-0.00043683,-0.00018436,0.00012512
 ,-0.00012637,0.00030992,-0.00249248,0.00153093,0.00232780,0.00243842,0
 .00367403,0.00169544,-0.00001733,-0.00000699,-0.00008997,-0.00181774,0
 .00012607,-0.00056742,0.00017201,0.00000792,-0.00031327,-0.00008218,-0
 .00011434,0.00003118,-0.00056816,-0.00046466,-0.00036884,0.00020840,0.
 00000968,-0.00006177,0.00022565,-0.00020021,-0.00011299,0.00123992,0.0
 0013743,-0.00061850,0.00097849,0.00029603,-0.00117601,-0.00137817,0.00
 003130,0.00038674,-0.00020335,0.00026434,-0.00021710,-0.00003190,0.000
 04503,0.00007948,0.00034509,0.00035612,-0.00036045,-0.00011332,-0.0000
 3691,0.00008187,-0.00000836,-0.00009452,-0.00019292,-0.00005310,0.0000
 1832,0.00002867,0.00003934,-0.00098226,-0.00000850,0.00014329,-0.00023
 231,0.00005067,-0.00025032,-0.00171907,-0.00251140,0.00120907,0.003260
 74,0.00462184,-0.00068779,0.00051661,-0.00009348,0.02520212,-0.0809365
 1,-0.09571931,0.01230598,-0.04710688,-0.01891471,-0.03617072,0.1216699
 4,0.11872861\\-0.00020718,0.00164172,0.00104321,-0.00195902,0.00148052
 ,0.00293171,-0.00320091,0.00160302,0.00441224,0.00331818,-0.00124352,-
 0.00431510,0.00190292,-0.00188024,-0.00306921,0.00012075,-0.00159476,-
 0.00095829,0.00000708,0.00000432,0.00000652,0.00000131,0.00000287,-0.0
 0000607,0.00000949,0.00001138,-0.00000295,-0.00000234,-0.00000063,0.00
 000812,0.00001187,-0.00001087,0.00000246,-0.00000344,-0.00000228,-0.00
 000811,0.00000062,-0.00002176,-0.00001356,0.00000168,0.00000016,0.0000
 0437,-0.00000256,-0.00001824,-0.00001298,-0.00001703,0.00002131,0.0000
 0657,0.00000069,0.00000660,-0.00000363,0.00000546,0.00000174,-0.000010
 56,-0.00000144,0.00001455,0.00001216,-0.00000203,-0.00000804,0.0000089
 0,0.00000331,-0.00000976,0.00000316,0.00000414,0.00000361,0.00000549,0
 .00001693,-0.00001068,0.00000115,0.00000352,0.00001241,-0.00000104,0.0
 0000355,-0.00000987,0.00000396,-0.00000922,-0.00001159,-0.00001127,-0.
 00000769,-0.00001194,-0.00000984,-0.00001544,0.00001512,-0.00001355,0.
 00000471,-0.00000513,-0.00001259,0.00001208,0.00002000,-0.00000129\\\@


 WAR ES EIN GOTT DER DIESE ZEICHEN SCHRIEB?
          - LUDWIG BOLTZMANN, QUOTING GOETHE, ABOUT MAXWELL'S EQUATIONS.
 Job cpu time:       0 days  1 hours  7 minutes 48.0 seconds.
 File lengths (MBytes):  RWF=    334 Int=      0 D2E=      0 Chk=      7 Scr=      2
 Normal termination of Gaussian 09 at Mon Jan 23 23:17:08 2017.
