 Entering Gaussian System, Link 0=g09
 Initial command:
 /global/software/gaussian/g09.e01/l1.exe "/scratch/10451469.yak.local/Gau-10288.inp" -scrdir="/scratch/10451469.yak.local/"
 Entering Link 1 = /global/software/gaussian/g09.e01/l1.exe PID=     10289.
  
 Copyright (c) 1988,1990,1992,1993,1995,1998,2003,2009,2015,
            Gaussian, Inc.  All Rights Reserved.
  
 This is part of the Gaussian(R) 09 program.  It is based on
 the Gaussian(R) 03 system (copyright 2003, Gaussian, Inc.),
 the Gaussian(R) 98 system (copyright 1998, Gaussian, Inc.),
 the Gaussian(R) 94 system (copyright 1995, Gaussian, Inc.),
 the Gaussian 92(TM) system (copyright 1992, Gaussian, Inc.),
 the Gaussian 90(TM) system (copyright 1990, Gaussian, Inc.),
 the Gaussian 88(TM) system (copyright 1988, Gaussian, Inc.),
 the Gaussian 86(TM) system (copyright 1986, Carnegie Mellon
 University), and the Gaussian 82(TM) system (copyright 1983,
 Carnegie Mellon University). Gaussian is a federally registered
 trademark of Gaussian, Inc.
  
 This software contains proprietary and confidential information,
 including trade secrets, belonging to Gaussian, Inc.
  
 This software is provided under written license and may be
 used, copied, transmitted, or stored only in accord with that
 written license.
  
 The following legend is applicable only to US Government
 contracts under FAR:
  
                    RESTRICTED RIGHTS LEGEND
  
 Use, reproduction and disclosure by the US Government is
 subject to restrictions as set forth in subparagraphs (a)
 and (c) of the Commercial Computer Software - Restricted
 Rights clause in FAR 52.227-19.
  
 Gaussian, Inc.
 340 Quinnipiac St., Bldg. 40, Wallingford CT 06492
  
  
 ---------------------------------------------------------------
 Warning -- This program may not be used in any manner that
 competes with the business of Gaussian, Inc. or will provide
 assistance to any competitor of Gaussian, Inc.  The licensee
 of this program is prohibited from giving any competitor of
 Gaussian, Inc. access to this program.  By using this program,
 the user acknowledges that Gaussian, Inc. is engaged in the
 business of creating and licensing software in the field of
 computational chemistry and represents and warrants to the
 licensee that it is not a competitor of Gaussian, Inc. and that
 it will not use this program in any manner prohibited above.
 ---------------------------------------------------------------
  

 Cite this work as:
 Gaussian 09, Revision E.01,
 M. J. Frisch, G. W. Trucks, H. B. Schlegel, G. E. Scuseria, 
 M. A. Robb, J. R. Cheeseman, G. Scalmani, V. Barone, B. Mennucci, 
 G. A. Petersson, H. Nakatsuji, M. Caricato, X. Li, H. P. Hratchian, 
 A. F. Izmaylov, J. Bloino, G. Zheng, J. L. Sonnenberg, M. Hada, 
 M. Ehara, K. Toyota, R. Fukuda, J. Hasegawa, M. Ishida, T. Nakajima, 
 Y. Honda, O. Kitao, H. Nakai, T. Vreven, J. A. Montgomery, Jr., 
 J. E. Peralta, F. Ogliaro, M. Bearpark, J. J. Heyd, E. Brothers, 
 K. N. Kudin, V. N. Staroverov, T. Keith, R. Kobayashi, J. Normand, 
 K. Raghavachari, A. Rendell, J. C. Burant, S. S. Iyengar, J. Tomasi, 
 M. Cossi, N. Rega, J. M. Millam, M. Klene, J. E. Knox, J. B. Cross, 
 V. Bakken, C. Adamo, J. Jaramillo, R. Gomperts, R. E. Stratmann, 
 O. Yazyev, A. J. Austin, R. Cammi, C. Pomelli, J. W. Ochterski, 
 R. L. Martin, K. Morokuma, V. G. Zakrzewski, G. A. Voth, 
 P. Salvador, J. J. Dannenberg, S. Dapprich, A. D. Daniels, 
 O. Farkas, J. B. Foresman, J. V. Ortiz, J. Cioslowski, 
 and D. J. Fox, Gaussian, Inc., Wallingford CT, 2013.
 
 ******************************************
 Gaussian 09:  ES64L-G09RevE.01 30-Nov-2015
                11-Jan-2017 
 ******************************************
 %NPROCS=4
 Will use up to    4 processors via shared memory.
 ----------------------------------------------------------------------
 # opt=(calcfc,ts,noeigentest,maxcycle=1000,cartesian) b3lyp 6-31g(d) f
 req
 ----------------------------------------------------------------------
 1/5=1,6=1000,10=4,11=1,14=-1,18=10,26=3,38=1/1,3;
 2/12=2,17=6,18=5,29=2,40=1/2;
 3/5=1,6=6,7=1,11=2,16=1,25=1,30=1,71=2,74=-5,140=1/1,2,3;
 4//1;
 5/5=2,38=5/2;
 8/6=4,10=90,11=11/1;
 11/6=1,8=1,9=11,15=111,16=1/1,2,10;
 10/6=1,13=1/2;
 6/7=2,8=2,9=2,10=2,28=1/1;
 7/7=1,10=1,18=20,25=1/1,2,3,16;
 1/5=1,6=1000,10=4,11=1,14=-1,18=10,26=3/3(2);
 2/29=1/2;
 99/12=1/99;
 2/29=1/2;
 3/5=1,6=6,7=1,11=2,16=1,25=1,30=1,71=1,74=-5/1,2,3;
 4/5=5,16=3,69=1/1;
 5/5=2,38=5/2;
 7/7=1/1,2,3,16;
 1/5=1,6=1000,11=1,14=-1,18=10,26=3/3(-5);
 2/29=1/2;
 6/7=2,8=2,9=2,10=2,19=2,28=1/1;
 99/9=1,12=1/99;
 ------------------------
 boat5_Beta_B3LYP_6-31G_d
 ------------------------
 Symbolic Z-matrix:
 Charge =  0 Multiplicity = 1
 O                     0.02346   1.70713   0.11233 
 C                     0.69261  -0.61586   0.96229 
 C                    -1.35735  -0.48067  -0.50926 
 C                    -0.12921  -1.3157   -0.11305 
 C                    -1.52514   0.83      0.14223 
 C                     1.09761   0.78487   0.51152 
 H                    -0.45775  -2.2943    0.25652 
 H                     1.54583   1.32779   1.35063 
 H                     1.58964  -1.20854   1.17746 
 H                    -1.33947  -0.36349  -1.59962 
 C                     2.04957   0.82416  -0.67494 
 H                     2.34731   1.85795  -0.88203 
 H                     1.57199   0.45708  -1.5888 
 H                    -1.8756    0.76041   1.17828 
 O                    -2.37784   1.54913  -0.4856 
 O                     3.21194   0.06605  -0.42527 
 H                     3.62097   0.4822    0.33451 
 O                    -2.53566  -1.18117  -0.17916 
 H                    -2.48805  -1.99641  -0.68003 
 O                     0.65933  -1.57748  -1.25238 
 H                     1.39727  -2.09604  -0.9293 
 O                    -0.03781  -0.56037   2.16712 
 H                    -0.81581  -0.04048   1.96164 
 O                    -1.71228   2.52699   1.51542 
 H                    -0.94713   2.11637   0.68721 
 H                    -1.80174   3.43795   1.80483 
 H                    -2.24304   2.146     0.54667 
 O                    -1.50971  -2.53781  -1.9637 
 H                    -0.54971  -2.53781  -1.9637 
 H                    -1.83017  -3.04662  -2.71205 
 

 GradGradGradGradGradGradGradGradGradGradGradGradGradGradGradGradGradGrad
 Berny optimization.
 Initialization pass.
 No Z-matrix variables, so optimization will use Cartesian coordinates.
 Trust Radius=3.00D-01 FncErr=1.00D-07 GrdErr=1.00D-06
 Number of steps in this run=    180 maximum allowed number of steps=    180.
 Search for a saddle point of order  1.
 GradGradGradGradGradGradGradGradGradGradGradGradGradGradGradGradGradGrad

 ---------------------------------------------------------------------------------------------------
                            Z-MATRIX (ANGSTROMS AND DEGREES)
   CD    Cent   Atom    N1       Length/X        N2       Alpha/Y        N3        Beta/Z          J
 ---------------------------------------------------------------------------------------------------
      1      1  O        0   0.023459          1.707129          0.112335
      2      2  C        0   0.692607         -0.615860          0.962287
      3      3  C        0  -1.357352         -0.480668         -0.509262
      4      4  C        0  -0.129207         -1.315700         -0.113053
      5      5  C        0  -1.525140          0.830005          0.142233
      6      6  C        0   1.097605          0.784873          0.511517
      7      7  H        0  -0.457745         -2.294303          0.256517
      8      8  H        0   1.545826          1.327788          1.350628
      9      9  H        0   1.589635         -1.208542          1.177461
     10     10  H        0  -1.339466         -0.363490         -1.599623
     11     11  C        0   2.049574          0.824163         -0.674942
     12     12  H        0   2.347307          1.857947         -0.882026
     13     13  H        0   1.571990          0.457076         -1.588802
     14     14  H        0  -1.875605          0.760410          1.178280
     15     15  O        0  -2.377837          1.549126         -0.485598
     16     16  O        0   3.211944          0.066051         -0.425268
     17     17  H        0   3.620967          0.482196          0.334510
     18     18  O        0  -2.535664         -1.181168         -0.179160
     19     19  H        0  -2.488048         -1.996412         -0.680032
     20     20  O        0   0.659327         -1.577479         -1.252378
     21     21  H        0   1.397274         -2.096040         -0.929301
     22     22  O        0  -0.037809         -0.560368          2.167119
     23     23  H        0  -0.815812         -0.040483          1.961636
     24     24  O        0  -1.712282          2.526994          1.515420
     25     25  H        0  -0.947125          2.116372          0.687215
     26     26  H        0  -1.801740          3.437949          1.804832
     27     27  H        0  -2.243039          2.145997          0.546669
     28     28  O        0  -1.509713         -2.537812         -1.963703
     29     29  H        0  -0.549713         -2.537812         -1.963703
     30     30  H        0  -1.830168         -3.046623         -2.712047
 ---------------------------------------------------------------------------------------------------
                         Z-Matrix orientation:                         
 ---------------------------------------------------------------------
 Center     Atomic      Atomic             Coordinates (Angstroms)
 Number     Number       Type             X           Y           Z
 ---------------------------------------------------------------------
      1          8           0        0.023459    1.707129    0.112335
      2          6           0        0.692607   -0.615860    0.962287
      3          6           0       -1.357352   -0.480668   -0.509262
      4          6           0       -0.129207   -1.315700   -0.113053
      5          6           0       -1.525140    0.830005    0.142233
      6          6           0        1.097605    0.784873    0.511517
      7          1           0       -0.457745   -2.294303    0.256517
      8          1           0        1.545826    1.327788    1.350628
      9          1           0        1.589635   -1.208542    1.177461
     10          1           0       -1.339466   -0.363490   -1.599623
     11          6           0        2.049574    0.824163   -0.674942
     12          1           0        2.347307    1.857947   -0.882026
     13          1           0        1.571990    0.457076   -1.588802
     14          1           0       -1.875605    0.760410    1.178280
     15          8           0       -2.377837    1.549126   -0.485598
     16          8           0        3.211944    0.066051   -0.425268
     17          1           0        3.620967    0.482196    0.334510
     18          8           0       -2.535664   -1.181168   -0.179160
     19          1           0       -2.488048   -1.996412   -0.680032
     20          8           0        0.659327   -1.577479   -1.252378
     21          1           0        1.397274   -2.096040   -0.929301
     22          8           0       -0.037809   -0.560368    2.167119
     23          1           0       -0.815812   -0.040483    1.961636
     24          8           0       -1.712282    2.526994    1.515420
     25          1           0       -0.947125    2.116372    0.687215
     26          1           0       -1.801740    3.437949    1.804832
     27          1           0       -2.243039    2.145997    0.546669
     28          8           0       -1.509713   -2.537812   -1.963703
     29          1           0       -0.549713   -2.537812   -1.963703
     30          1           0       -1.830168   -3.046623   -2.712047
 ---------------------------------------------------------------------
                    Distance matrix (angstroms):
                    1          2          3          4          5
     1  O    0.000000
     2  C    2.562510   0.000000
     3  C    2.660729   2.527067   0.000000
     4  C    3.035062   1.523650   1.537075   0.000000
     5  C    1.780000   2.771537   1.473249   2.572518   0.000000
     6  C    1.470950   1.526195   2.944554   2.511486   2.649000
     7  H    4.032841   2.153739   2.164482   1.096441   3.303588
     8  H    1.998717   2.157906   3.893346   3.454870   3.337490
     9  H    3.476858   1.096463   3.472689   2.152052   3.863831
    10  H    3.012612   3.279694   1.096785   2.140402   2.119662
    11  C    2.346183   2.568179   3.652010   3.105128   3.666932
    12  H    2.532147   3.501320   4.396882   4.098350   4.135410
    13  H    2.618100   2.903887   3.259726   2.866120   3.567600
    14  H    2.374650   2.921726   2.157929   3.004610   1.095930
    15  O    2.479659   4.026309   2.272007   3.660923   1.280000
    16  O    3.626099   2.955904   4.602654   3.629050   4.831733
    17  H    3.806821   3.189847   5.140303   4.182887   5.161430
    18  O    3.869928   3.470477   1.409995   2.411121   2.273602
    19  H    4.544417   3.836626   1.898714   2.519715   3.097086
    20  O    3.613229   2.414655   2.412926   1.410098   3.537346
    21  H    4.175700   2.503117   3.220842   1.898772   4.272052
    22  O    3.060627   1.410038   2.985056   2.403760   2.871490
    23  H    2.679261   1.898706   2.567560   2.530205   2.138018
    24  O    2.377735   3.995871   3.642986   4.463670   2.190990
    25  H    1.200000   3.198355   2.888677   3.617808   1.511901
    26  H    3.031771   4.833737   4.572534   5.391922   3.105175
    27  H    2.349098   4.051988   2.966277   4.109363   1.552670
    28  O    4.967904   4.135883   2.523975   2.612328   3.972077
    29  H    4.760040   3.714657   2.645660   2.257274   4.090062
    30  H    5.831915   5.076784   3.414666   3.555859   4.823713
                    6          7          8          9         10
     6  C    0.000000
     7  H    3.459113   0.000000
     8  H    1.095338   4.281462   0.000000
     9  H    2.158536   2.493748   2.542612   0.000000
    10  H    3.422713   2.819703   4.459744   4.123826   0.000000
    11  C    1.521668   4.108418   2.147169   2.788338   3.708254
    12  H    2.157592   5.138655   2.430676   3.770797   4.363717
    13  H    2.178034   3.885243   3.065791   3.229056   3.024900
    14  H    3.047154   3.491596   3.472436   3.985556   3.044231
    15  O    3.695540   4.359981   4.337724   5.109925   2.444866
    16  O    2.421714   4.416188   2.742578   2.612511   4.720058
    17  H    2.547607   4.934665   2.460433   2.774071   5.390914
    18  O    4.188436   2.397213   5.029281   4.342725   2.029089
    19  H    4.691721   2.255658   5.607676   4.549562   2.198027
    20  O    2.980624   2.009590   4.000262   2.627871   2.364217
    21  H    3.235030   2.210558   4.116156   2.294145   3.307689
    22  O    2.416579   2.614054   2.596091   2.011996   3.990165
    23  H    2.538744   2.848745   2.796932   2.786659   3.614016
    24  O    3.455181   5.138444   3.475704   4.997110   4.265839
    25  H    2.446361   4.458592   2.697552   4.210765   3.396067
    26  H    4.137352   6.087883   3.983124   5.786614   5.123958
    27  H    3.607464   4.794552   3.958701   5.132273   3.423527
    28  O    4.895412   2.468868   5.938347   4.608669   2.211157
    29  H    4.458767   2.235426   5.506263   4.026249   2.341781
    30  H    5.800309   3.355876   6.858436   5.495623   2.945756
                   11         12         13         14         15
    11  C    0.000000
    12  H    1.095554   0.000000
    13  H    1.094522   1.750168   0.000000
    14  H    4.341144   4.825188   4.431102   0.000000
    15  O    4.490366   4.751790   4.243909   1.908612   0.000000
    16  O    1.410027   2.041352   2.048453   5.379280   5.783494
    17  H    1.898739   2.234918   2.810350   5.567913   6.147891
    18  O    5.029071   5.794277   4.641525   2.459278   2.751967
    19  H    5.342816   6.186885   4.830049   3.380603   3.552576
    20  O    2.834449   3.845593   2.255116   4.218969   4.425831
    21  H    3.002962   4.066794   2.642701   4.828348   5.266457
    22  O    3.788325   4.564462   4.211127   2.469767   4.118568
    23  H    3.988683   4.657872   4.307525   1.542153   3.309945
    24  O    4.674279   4.761894   4.970634   1.805868   2.324492
    25  H    3.536309   3.658221   3.778817   1.715183   1.934991
    26  H    5.273877   5.189432   5.637766   2.750861   3.024170
    27  H    4.654686   4.816162   4.686911   1.566459   1.200000
    28  O    5.062836   5.947211   4.313560   4.569923   4.431873
    29  H    4.440729   5.374518   3.689380   4.744292   4.714859
    30  H    5.846809   6.697394   5.011214   5.443364   5.135945
                   16         17         18         19         20
    16  O    0.000000
    17  H    0.957987   0.000000
    18  O    5.886520   6.398026   0.000000
    19  H    6.067006   6.670297   0.957999   0.000000
    20  O    3.146610   3.941039   3.393645   3.226307   0.000000
    21  H    2.867353   3.631712   4.107031   3.894584   0.958045
    22  O    4.204018   4.222800   3.482772   4.021463   3.635034
    23  H    4.683106   4.754549   2.973560   3.687878   3.855941
    24  O    5.836995   5.832606   4.159330   5.087536   5.489257
    25  H    4.768573   4.864401   3.761360   4.599869   4.470709
    26  H    6.440502   6.348549   5.080463   6.014802   6.368508
    27  H    5.918418   6.099165   3.417965   4.327168   5.052185
    28  O    5.607221   6.381701   2.465289   1.702370   2.476481
    29  H    4.826691   5.638865   2.994841   2.387062   1.700000
    30  H    6.351456   7.172792   3.223843   2.380092   3.238303
                   21         22         23         24         25
    21  H    0.000000
    22  O    3.742401   0.000000
    23  H    4.180978   0.958015   0.000000
    24  O    6.084279   3.572167   2.755850   0.000000
    25  H    5.084658   3.190910   2.508668   1.200000   0.000000
    26  H    6.952281   4.385116   3.618858   0.960000   1.930285
    27  H    5.781457   3.848806   2.969816   1.168478   1.303849
    28  O    3.117006   4.810455   4.703874   6.147974   5.385656
    29  H    2.248535   4.608255   4.660015   6.253649   5.370914
    30  H    3.807647   5.761968   5.648815   6.996470   6.244298
                   26         27         28         29         30
    26  H    0.000000
    27  H    1.856571   0.000000
    28  O    7.070845   5.364494   0.000000
    29  H    7.174896   5.577399   0.960000   0.000000
    30  H    7.902701   6.144347   0.960000   1.567952   0.000000
 Stoichiometry    C6H16O8
 Framework group  C1[X(C6H16O8)]
 Deg. of freedom    84
 Full point group                 C1      NOp   1
 Largest Abelian subgroup         C1      NOp   1
 Largest concise Abelian subgroup C1      NOp   1
                         Standard orientation:                         
 ---------------------------------------------------------------------
 Center     Atomic      Atomic             Coordinates (Angstroms)
 Number     Number       Type             X           Y           Z
 ---------------------------------------------------------------------
      1          8           0        0.049921   -1.589903   -0.719271
      2          6           0       -0.953028   -0.165128    1.159709
      3          6           0        0.920370    0.867198   -0.185932
      4          6           0       -0.395032    1.122851    0.567036
      5          6           0        1.399650   -0.523902   -0.260715
      6          6           0       -1.131258   -1.228243    0.079298
      7          1           0       -0.220284    1.849233    1.369542
      8          1           0       -1.378763   -2.188924    0.543626
      9          1           0       -1.918294    0.042510    1.636551
     10          1           0        0.811055    1.286112   -1.193652
     11          6           0       -2.177404   -0.898519   -0.975375
     12          1           0       -2.294676   -1.743062   -1.663294
     13          1           0       -1.875858   -0.045282   -1.591033
     14          1           0        1.837015   -0.885529    0.676835
     15          8           0        2.302360   -0.650946   -1.159255
     16          8           0       -3.429379   -0.623906   -0.387734
     17          1           0       -3.670824   -1.430260    0.069689
     18          8           0        1.973240    1.559199    0.447065
     19          1           0        1.720542    2.482539    0.410318
     20          8           0       -1.333482    1.721396   -0.298660
     21          1           0       -2.118148    1.848586    0.236104
     22          8           0       -0.103410   -0.632091    2.183576
     23          1           0        0.732909   -0.808113    1.750703
     24          8           0        2.046164   -2.585318    0.104006
     25          1           0        1.134969   -2.004173   -0.417523
     26          1           0        2.335680   -3.479737   -0.090407
     27          1           0        2.391269   -1.682473   -0.552586
     28          8           0        0.528904    3.347206   -0.444322
     29          1           0       -0.408492    3.140111   -0.445766
     30          1           0        0.667574    4.207817   -0.846467
 ---------------------------------------------------------------------
 Rotational constants (GHZ):      0.6954120      0.6534680      0.4326181
 Standard basis: 6-31G(d) (6D, 7F)
 There are   242 symmetry adapted cartesian basis functions of A   symmetry.
 There are   242 symmetry adapted basis functions of A   symmetry.
   242 basis functions,   456 primitive gaussians,   242 cartesian basis functions
    58 alpha electrons       58 beta electrons
       nuclear repulsion energy      1157.3881496651 Hartrees.
 NAtoms=   30 NActive=   30 NUniq=   30 SFac= 1.00D+00 NAtFMM=   60 NAOKFM=F Big=F
 Integral buffers will be    131072 words long.
 Raffenetti 2 integral format.
 Two-electron integral symmetry is turned on.
 One-electron integrals computed using PRISM.
 NBasis=   242 RedAO= T EigKep=  1.32D-03  NBF=   242
 NBsUse=   242 1.00D-06 EigRej= -1.00D+00 NBFU=   242
 ExpMin= 1.61D-01 ExpMax= 5.48D+03 ExpMxC= 8.25D+02 IAcc=1 IRadAn=         1 AccDes= 0.00D+00
 Harris functional with IExCor=  402 and IRadAn=       1 diagonalized for initial guess.
 HarFok:  IExCor=  402 AccDes= 0.00D+00 IRadAn=         1 IDoV= 1 UseB2=F ITyADJ=14
 ICtDFT=  3500011 ScaDFX=  1.000000  1.000000  1.000000  1.000000
 FoFCou: FMM=F IPFlag=           0 FMFlag=      100000 FMFlg1=           0
         NFxFlg=           0 DoJE=T BraDBF=F KetDBF=T FulRan=T
         wScrn=  0.000000 ICntrl=     500 IOpCl=  0 I1Cent=   200000004 NGrid=           0
         NMat0=    1 NMatS0=      1 NMatT0=    0 NMatD0=    1 NMtDS0=    0 NMtDT0=    0
 Petite list used in FoFCou.
 Requested convergence on RMS density matrix=1.00D-08 within 128 cycles.
 Requested convergence on MAX density matrix=1.00D-06.
 Requested convergence on             energy=1.00D-06.
 No special actions if energy rises.
 Integral accuracy reduced to 1.0D-05 until final iterations.
 Initial convergence to 1.0D-05 achieved.  Increase integral accuracy.
 SCF Done:  E(RB3LYP) =  -839.785014954     A.U. after   15 cycles
            NFock= 15  Conv=0.28D-08     -V/T= 2.0069
 DoSCS=F DFT=T ScalE2(SS,OS)=  1.000000  1.000000
 Range of M.O.s used for correlation:     1   242
 NBasis=   242 NAE=    58 NBE=    58 NFC=     0 NFV=     0
 NROrb=    242 NOA=    58 NOB=    58 NVA=   184 NVB=   184
 Symmetrizing basis deriv contribution to polar:
 IMax=3 JMax=2 DiffMx= 0.00D+00
 G2DrvN: will do    31 centers at a time, making    1 passes.
 Calling FoFCou, ICntrl=  3107 FMM=F I1Cent=   0 AccDes= 0.00D+00.
 End of G2Drv F.D. properties file   721 does not exist.
 End of G2Drv F.D. properties file   722 does not exist.
 End of G2Drv F.D. properties file   788 does not exist.
          IDoAtm=111111111111111111111111111111
          Differentiating once with respect to nuclear coordinates.
          There are    93 degrees of freedom in the 1st order CPHF.  IDoFFX=6 NUNeed=     0.
     87 vectors produced by pass  0 Test12= 1.15D-14 1.08D-09 XBig12= 1.31D-01 7.09D-02.
 AX will form    87 AO Fock derivatives at one time.
     87 vectors produced by pass  1 Test12= 1.15D-14 1.08D-09 XBig12= 1.57D-02 2.75D-02.
     87 vectors produced by pass  2 Test12= 1.15D-14 1.08D-09 XBig12= 9.63D-05 1.69D-03.
     87 vectors produced by pass  3 Test12= 1.15D-14 1.08D-09 XBig12= 2.61D-07 5.35D-05.
     87 vectors produced by pass  4 Test12= 1.15D-14 1.08D-09 XBig12= 3.15D-10 1.64D-06.
     71 vectors produced by pass  5 Test12= 1.15D-14 1.08D-09 XBig12= 2.55D-13 4.80D-08.
      3 vectors produced by pass  6 Test12= 1.15D-14 1.08D-09 XBig12= 2.02D-16 1.22D-09.
 InvSVY:  IOpt=1 It=  1 EMax= 5.55D-16
 Solved reduced A of dimension   509 with    93 vectors.
 End of Minotr F.D. properties file   721 does not exist.
 End of Minotr F.D. properties file   722 does not exist.
 End of Minotr F.D. properties file   788 does not exist.

 **********************************************************************

            Population analysis using the SCF density.

 **********************************************************************

 Orbital symmetries:
       Occupied  (A) (A) (A) (A) (A) (A) (A) (A) (A) (A) (A) (A)
                 (A) (A) (A) (A) (A) (A) (A) (A) (A) (A) (A) (A)
                 (A) (A) (A) (A) (A) (A) (A) (A) (A) (A) (A) (A)
                 (A) (A) (A) (A) (A) (A) (A) (A) (A) (A) (A) (A)
                 (A) (A) (A) (A) (A) (A) (A) (A) (A) (A)
       Virtual   (A) (A) (A) (A) (A) (A) (A) (A) (A) (A) (A) (A)
                 (A) (A) (A) (A) (A) (A) (A) (A) (A) (A) (A) (A)
                 (A) (A) (A) (A) (A) (A) (A) (A) (A) (A) (A) (A)
                 (A) (A) (A) (A) (A) (A) (A) (A) (A) (A) (A) (A)
                 (A) (A) (A) (A) (A) (A) (A) (A) (A) (A) (A) (A)
                 (A) (A) (A) (A) (A) (A) (A) (A) (A) (A) (A) (A)
                 (A) (A) (A) (A) (A) (A) (A) (A) (A) (A) (A) (A)
                 (A) (A) (A) (A) (A) (A) (A) (A) (A) (A) (A) (A)
                 (A) (A) (A) (A) (A) (A) (A) (A) (A) (A) (A) (A)
                 (A) (A) (A) (A) (A) (A) (A) (A) (A) (A) (A) (A)
                 (A) (A) (A) (A) (A) (A) (A) (A) (A) (A) (A) (A)
                 (A) (A) (A) (A) (A) (A) (A) (A) (A) (A) (A) (A)
                 (A) (A) (A) (A) (A) (A) (A) (A) (A) (A) (A) (A)
                 (A) (A) (A) (A) (A) (A) (A) (A) (A) (A) (A) (A)
                 (A) (A) (A) (A) (A) (A) (A) (A) (A) (A) (A) (A)
                 (A) (A) (A) (A)
 The electronic state is 1-A.
 Alpha  occ. eigenvalues --  -19.18010 -19.17165 -19.15690 -19.14939 -19.14892
 Alpha  occ. eigenvalues --  -19.14744 -19.12712 -19.11075 -10.28111 -10.24948
 Alpha  occ. eigenvalues --  -10.24794 -10.24019 -10.22992 -10.22281  -1.10061
 Alpha  occ. eigenvalues --   -1.07172  -1.04105  -1.03590  -1.02239  -1.00817
 Alpha  occ. eigenvalues --   -0.99752  -0.98839  -0.78571  -0.75685  -0.69798
 Alpha  occ. eigenvalues --   -0.66270  -0.65318  -0.61120  -0.57570  -0.55231
 Alpha  occ. eigenvalues --   -0.54415  -0.52460  -0.51360  -0.50667  -0.49503
 Alpha  occ. eigenvalues --   -0.47958  -0.45337  -0.44285  -0.43570  -0.42949
 Alpha  occ. eigenvalues --   -0.41940  -0.40958  -0.40311  -0.38645  -0.38021
 Alpha  occ. eigenvalues --   -0.37321  -0.35916  -0.35204  -0.34030  -0.32036
 Alpha  occ. eigenvalues --   -0.30917  -0.30566  -0.29939  -0.28582  -0.27210
 Alpha  occ. eigenvalues --   -0.26347  -0.26178  -0.24093
 Alpha virt. eigenvalues --    0.01001   0.04398   0.06328   0.07218   0.08276
 Alpha virt. eigenvalues --    0.09262   0.10991   0.11463   0.14169   0.14782
 Alpha virt. eigenvalues --    0.16878   0.17523   0.17694   0.19204   0.20483
 Alpha virt. eigenvalues --    0.21029   0.21495   0.23849   0.23933   0.25097
 Alpha virt. eigenvalues --    0.26629   0.27665   0.28737   0.31184   0.32869
 Alpha virt. eigenvalues --    0.34196   0.35427   0.40730   0.52707   0.53569
 Alpha virt. eigenvalues --    0.54166   0.56064   0.57186   0.59069   0.60553
 Alpha virt. eigenvalues --    0.61128   0.62241   0.62912   0.64374   0.64863
 Alpha virt. eigenvalues --    0.68128   0.70332   0.70934   0.72530   0.75937
 Alpha virt. eigenvalues --    0.77899   0.78388   0.79135   0.80166   0.80980
 Alpha virt. eigenvalues --    0.82412   0.83497   0.84800   0.85379   0.85870
 Alpha virt. eigenvalues --    0.86678   0.87541   0.89375   0.90583   0.91560
 Alpha virt. eigenvalues --    0.91858   0.94225   0.94762   0.96113   0.97353
 Alpha virt. eigenvalues --    0.98866   1.00888   1.02089   1.03386   1.03946
 Alpha virt. eigenvalues --    1.06012   1.08320   1.09129   1.10105   1.11562
 Alpha virt. eigenvalues --    1.12285   1.13694   1.15772   1.16984   1.19356
 Alpha virt. eigenvalues --    1.20310   1.24345   1.24852   1.29055   1.30096
 Alpha virt. eigenvalues --    1.33449   1.36218   1.36673   1.38440   1.40801
 Alpha virt. eigenvalues --    1.41393   1.43641   1.46498   1.48539   1.49833
 Alpha virt. eigenvalues --    1.53903   1.55480   1.56835   1.59170   1.59741
 Alpha virt. eigenvalues --    1.61857   1.64392   1.66436   1.67412   1.71337
 Alpha virt. eigenvalues --    1.72261   1.73240   1.74615   1.76151   1.76510
 Alpha virt. eigenvalues --    1.77565   1.79587   1.80204   1.81881   1.82312
 Alpha virt. eigenvalues --    1.83706   1.84687   1.86647   1.87963   1.90281
 Alpha virt. eigenvalues --    1.91991   1.92818   1.94454   1.96125   1.99312
 Alpha virt. eigenvalues --    2.00683   2.02452   2.04691   2.05347   2.08055
 Alpha virt. eigenvalues --    2.12179   2.13189   2.16739   2.19135   2.20686
 Alpha virt. eigenvalues --    2.22299   2.25128   2.26742   2.30121   2.33289
 Alpha virt. eigenvalues --    2.35076   2.37286   2.38487   2.39647   2.42476
 Alpha virt. eigenvalues --    2.45120   2.47344   2.49967   2.50572   2.53480
 Alpha virt. eigenvalues --    2.55338   2.56614   2.60302   2.63011   2.65242
 Alpha virt. eigenvalues --    2.66808   2.68559   2.70887   2.74102   2.78629
 Alpha virt. eigenvalues --    2.79822   2.82659   2.88265   2.90471   2.94151
 Alpha virt. eigenvalues --    3.00961   3.02701   3.05626   3.07681   3.11317
 Alpha virt. eigenvalues --    3.74848   3.75885   3.83588   3.90342   3.93172
 Alpha virt. eigenvalues --    4.04565   4.16578   4.22625   4.29874   4.49614
 Alpha virt. eigenvalues --    4.54160   4.64944   4.73395   4.79294
          Condensed to atoms (all electrons):
               1          2          3          4          5          6
     1  O    8.609863  -0.027530  -0.008349   0.000175   0.052547   0.146589
     2  C   -0.027530   4.974989  -0.017965   0.300871  -0.006375   0.297015
     3  C   -0.008349  -0.017965   4.977665   0.259292   0.291259  -0.020742
     4  C    0.000175   0.300871   0.259292   5.190986  -0.041616  -0.031247
     5  C    0.052547  -0.006375   0.291259  -0.041616   5.310065  -0.004267
     6  C    0.146589   0.297015  -0.020742  -0.031247  -0.004267   5.057747
     7  H   -0.000014  -0.044655  -0.044792   0.362699   0.001818   0.006321
     8  H   -0.040493  -0.052591   0.000469   0.006537   0.001075   0.361462
     9  H    0.002425   0.359228   0.004343  -0.043764   0.000801  -0.041835
    10  H   -0.000071   0.001815   0.348535  -0.064024  -0.026118   0.001557
    11  C   -0.040866  -0.037211  -0.000184  -0.001509   0.000170   0.300883
    12  H    0.004991   0.006519  -0.000043  -0.000677  -0.000165  -0.044319
    13  H    0.004116  -0.010847  -0.000332   0.001966   0.000373  -0.030445
    14  H   -0.026208   0.001269  -0.059219   0.001117   0.352943  -0.001881
    15  O   -0.049307   0.000204  -0.046555   0.004313   0.186905   0.001613
    16  O    0.001755   0.000852   0.000035  -0.002516   0.000004  -0.044849
    17  H   -0.000018  -0.002357   0.000004   0.000215  -0.000001  -0.001750
    18  O    0.000595   0.000847   0.256822  -0.045006  -0.052606   0.000155
    19  H   -0.000032   0.000225  -0.040463  -0.001431   0.006654  -0.000029
    20  O   -0.000203  -0.024429  -0.030326   0.119014   0.003010  -0.001884
    21  H    0.000041  -0.004115   0.006384  -0.022161  -0.000281  -0.001112
    22  O    0.000008   0.247539   0.002686  -0.049418  -0.005560  -0.040252
    23  H   -0.001342  -0.045273  -0.002750  -0.007304   0.018523  -0.003061
    24  O   -0.096995  -0.000711   0.002305   0.000089  -0.025513   0.003243
    25  H    0.048209   0.003572   0.002911  -0.000412  -0.032958  -0.001729
    26  H    0.002339  -0.000004  -0.000211   0.000000   0.002367   0.000038
    27  H    0.016040   0.000440   0.010620  -0.000759  -0.084619  -0.000791
    28  O    0.000001   0.000370  -0.019210   0.003232   0.001143  -0.000011
    29  H   -0.000006   0.001222  -0.002188  -0.011167  -0.000077  -0.000033
    30  H   -0.000000  -0.000021   0.001435  -0.000156  -0.000031   0.000001
               7          8          9         10         11         12
     1  O   -0.000014  -0.040493   0.002425  -0.000071  -0.040866   0.004991
     2  C   -0.044655  -0.052591   0.359228   0.001815  -0.037211   0.006519
     3  C   -0.044792   0.000469   0.004343   0.348535  -0.000184  -0.000043
     4  C    0.362699   0.006537  -0.043764  -0.064024  -0.001509  -0.000677
     5  C    0.001818   0.001075   0.000801  -0.026118   0.000170  -0.000165
     6  C    0.006321   0.361462  -0.041835   0.001557   0.300883  -0.044319
     7  H    0.604298  -0.000189  -0.007105   0.004769   0.000030   0.000013
     8  H   -0.000189   0.635893  -0.001900   0.000019  -0.048318  -0.009675
     9  H   -0.007105  -0.001900   0.603085  -0.000328  -0.003971   0.000214
    10  H    0.004769   0.000019  -0.000328   0.589341  -0.000329   0.000000
    11  C    0.000030  -0.048318  -0.003971  -0.000329   4.968795   0.357324
    12  H    0.000013  -0.009675   0.000214   0.000000   0.357324   0.632464
    13  H    0.000169   0.005619  -0.000177   0.001261   0.367121  -0.039254
    14  H    0.000115   0.000051  -0.000196   0.005784  -0.000135   0.000004
    15  O   -0.000110  -0.000142   0.000004  -0.003088  -0.000038   0.000012
    16  O   -0.000034   0.001242   0.013589   0.000003   0.229599  -0.036740
    17  H   -0.000002   0.006174   0.000614   0.000000  -0.036332  -0.007484
    18  O    0.002782   0.000005  -0.000135  -0.037008   0.000006  -0.000000
    19  H    0.004137  -0.000000   0.000003  -0.004186   0.000000   0.000000
    20  O   -0.041179  -0.000170  -0.001243   0.002067  -0.008886   0.000753
    21  H   -0.005127  -0.000029   0.007749   0.000016  -0.000577   0.000059
    22  O    0.005967   0.001041  -0.035958   0.000018   0.003831  -0.000054
    23  H    0.000136  -0.000354   0.005957   0.000513  -0.000053   0.000002
    24  O   -0.000001   0.000870   0.000003  -0.000031  -0.000030  -0.000003
    25  H    0.000015  -0.003325  -0.000071   0.000129   0.000497   0.000139
    26  H   -0.000000  -0.000048  -0.000000   0.000007   0.000000  -0.000000
    27  H    0.000017  -0.000039   0.000003  -0.000405  -0.000014   0.000004
    28  O    0.003963   0.000000   0.000001   0.013873   0.000003   0.000000
    29  H   -0.003920   0.000001  -0.000066  -0.002617   0.000029  -0.000002
    30  H    0.000072  -0.000000   0.000000   0.000004  -0.000000  -0.000000
              13         14         15         16         17         18
     1  O    0.004116  -0.026208  -0.049307   0.001755  -0.000018   0.000595
     2  C   -0.010847   0.001269   0.000204   0.000852  -0.002357   0.000847
     3  C   -0.000332  -0.059219  -0.046555   0.000035   0.000004   0.256822
     4  C    0.001966   0.001117   0.004313  -0.002516   0.000215  -0.045006
     5  C    0.000373   0.352943   0.186905   0.000004  -0.000001  -0.052606
     6  C   -0.030445  -0.001881   0.001613  -0.044849  -0.001750   0.000155
     7  H    0.000169   0.000115  -0.000110  -0.000034  -0.000002   0.002782
     8  H    0.005619   0.000051  -0.000142   0.001242   0.006174   0.000005
     9  H   -0.000177  -0.000196   0.000004   0.013589   0.000614  -0.000135
    10  H    0.001261   0.005784  -0.003088   0.000003   0.000000  -0.037008
    11  C    0.367121  -0.000135  -0.000038   0.229599  -0.036332   0.000006
    12  H   -0.039254   0.000004   0.000012  -0.036740  -0.007484  -0.000000
    13  H    0.524698   0.000027  -0.000063  -0.030404   0.007202   0.000005
    14  H    0.000027   0.565087  -0.048812   0.000002   0.000000   0.005733
    15  O   -0.000063  -0.048812   8.447779   0.000000  -0.000000  -0.001417
    16  O   -0.030404   0.000002   0.000000   8.244554   0.239663   0.000000
    17  H    0.007202   0.000000  -0.000000   0.239663   0.400081  -0.000000
    18  O    0.000005   0.005733  -0.001417   0.000000  -0.000000   8.325112
    19  H    0.000001  -0.000302   0.000137   0.000000  -0.000000   0.246310
    20  O    0.011755  -0.000031  -0.000011  -0.000246  -0.000014   0.001372
    21  H   -0.002037   0.000008   0.000002   0.004426  -0.000096  -0.000182
    22  O   -0.000036  -0.006004   0.000283   0.000046  -0.000050  -0.000331
    23  H    0.000018   0.032246  -0.001296   0.000001   0.000002   0.002511
    24  O    0.000005  -0.003045  -0.122676   0.000000  -0.000000  -0.000030
    25  H   -0.000131  -0.017440   0.030898  -0.000003  -0.000003  -0.000139
    26  H   -0.000000   0.002358   0.002926  -0.000000  -0.000000   0.000000
    27  H    0.000001  -0.036583   0.167079  -0.000000   0.000000  -0.000526
    28  O   -0.000026  -0.000009  -0.000006  -0.000000   0.000000  -0.041839
    29  H    0.000133  -0.000009  -0.000004   0.000002  -0.000000   0.003654
    30  H    0.000000   0.000001   0.000001   0.000000  -0.000000   0.001826
              19         20         21         22         23         24
     1  O   -0.000032  -0.000203   0.000041   0.000008  -0.001342  -0.096995
     2  C    0.000225  -0.024429  -0.004115   0.247539  -0.045273  -0.000711
     3  C   -0.040463  -0.030326   0.006384   0.002686  -0.002750   0.002305
     4  C   -0.001431   0.119014  -0.022161  -0.049418  -0.007304   0.000089
     5  C    0.006654   0.003010  -0.000281  -0.005560   0.018523  -0.025513
     6  C   -0.000029  -0.001884  -0.001112  -0.040252  -0.003061   0.003243
     7  H    0.004137  -0.041179  -0.005127   0.005967   0.000136  -0.000001
     8  H   -0.000000  -0.000170  -0.000029   0.001041  -0.000354   0.000870
     9  H    0.000003  -0.001243   0.007749  -0.035958   0.005957   0.000003
    10  H   -0.004186   0.002067   0.000016   0.000018   0.000513  -0.000031
    11  C    0.000000  -0.008886  -0.000577   0.003831  -0.000053  -0.000030
    12  H    0.000000   0.000753   0.000059  -0.000054   0.000002  -0.000003
    13  H    0.000001   0.011755  -0.002037  -0.000036   0.000018   0.000005
    14  H   -0.000302  -0.000031   0.000008  -0.006004   0.032246  -0.003045
    15  O    0.000137  -0.000011   0.000002   0.000283  -0.001296  -0.122676
    16  O    0.000000  -0.000246   0.004426   0.000046   0.000001   0.000000
    17  H   -0.000000  -0.000014  -0.000096  -0.000050   0.000002  -0.000000
    18  O    0.246310   0.001372  -0.000182  -0.000331   0.002511  -0.000030
    19  H    0.315521   0.000037  -0.000052  -0.000031  -0.000067   0.000001
    20  O    0.000037   8.354564   0.233012   0.001924  -0.000024   0.000000
    21  H   -0.000052   0.233012   0.370635  -0.000003   0.000019  -0.000000
    22  O   -0.000031   0.001924  -0.000003   8.275996   0.232676  -0.000182
    23  H   -0.000067  -0.000024   0.000019   0.232676   0.348660   0.002181
    24  O    0.000001   0.000000  -0.000000  -0.000182   0.002181   8.596338
    25  H    0.000007  -0.000002  -0.000002   0.001242   0.001371   0.132155
    26  H   -0.000000  -0.000000   0.000000  -0.000016   0.000021   0.236519
    27  H    0.000053   0.000003  -0.000000   0.000180  -0.001345   0.105444
    28  O    0.046789  -0.043795   0.001337   0.000001  -0.000005   0.000000
    29  H   -0.002256   0.059687  -0.002325  -0.000038  -0.000001  -0.000000
    30  H   -0.002123   0.001346  -0.000063   0.000000   0.000000  -0.000000
              25         26         27         28         29         30
     1  O    0.048209   0.002339   0.016040   0.000001  -0.000006  -0.000000
     2  C    0.003572  -0.000004   0.000440   0.000370   0.001222  -0.000021
     3  C    0.002911  -0.000211   0.010620  -0.019210  -0.002188   0.001435
     4  C   -0.000412   0.000000  -0.000759   0.003232  -0.011167  -0.000156
     5  C   -0.032958   0.002367  -0.084619   0.001143  -0.000077  -0.000031
     6  C   -0.001729   0.000038  -0.000791  -0.000011  -0.000033   0.000001
     7  H    0.000015  -0.000000   0.000017   0.003963  -0.003920   0.000072
     8  H   -0.003325  -0.000048  -0.000039   0.000000   0.000001  -0.000000
     9  H   -0.000071  -0.000000   0.000003   0.000001  -0.000066   0.000000
    10  H    0.000129   0.000007  -0.000405   0.013873  -0.002617   0.000004
    11  C    0.000497   0.000000  -0.000014   0.000003   0.000029  -0.000000
    12  H    0.000139  -0.000000   0.000004   0.000000  -0.000002  -0.000000
    13  H   -0.000131  -0.000000   0.000001  -0.000026   0.000133   0.000000
    14  H   -0.017440   0.002358  -0.036583  -0.000009  -0.000009   0.000001
    15  O    0.030898   0.002926   0.167079  -0.000006  -0.000004   0.000001
    16  O   -0.000003  -0.000000  -0.000000  -0.000000   0.000002   0.000000
    17  H   -0.000003  -0.000000   0.000000   0.000000  -0.000000  -0.000000
    18  O   -0.000139   0.000000  -0.000526  -0.041839   0.003654   0.001826
    19  H    0.000007  -0.000000   0.000053   0.046789  -0.002256  -0.002123
    20  O   -0.000002  -0.000000   0.000003  -0.043795   0.059687   0.001346
    21  H   -0.000002   0.000000  -0.000000   0.001337  -0.002325  -0.000063
    22  O    0.001242  -0.000016   0.000180   0.000001  -0.000038   0.000000
    23  H    0.001371   0.000021  -0.001345  -0.000005  -0.000001   0.000000
    24  O    0.132155   0.236519   0.105444   0.000000  -0.000000  -0.000000
    25  H    0.379190   0.000617  -0.033293   0.000000   0.000000  -0.000000
    26  H    0.000617   0.347636  -0.002741  -0.000000   0.000000   0.000000
    27  H   -0.033293  -0.002741   0.393011   0.000000   0.000000  -0.000000
    28  O    0.000000  -0.000000   0.000000   8.410158   0.198169   0.238544
    29  H    0.000000   0.000000   0.000000   0.198169   0.342807  -0.005548
    30  H   -0.000000   0.000000  -0.000000   0.238544  -0.005548   0.366206
 Mulliken charges:
               1
     1  O   -0.598260
     2  C    0.077105
     3  C    0.128564
     4  C    0.072662
     5  C    0.050533
     6  C    0.093610
     7  H    0.149807
     8  H    0.136815
     9  H    0.138730
    10  H    0.168492
    11  C   -0.049836
    12  H    0.135917
    13  H    0.189283
    14  H    0.233130
    15  O   -0.568628
    16  O   -0.620978
    17  H    0.394153
    18  O   -0.668514
    19  H    0.431096
    20  O   -0.636101
    21  H    0.414477
    22  O   -0.635506
    23  H    0.418040
    24  O   -0.829935
    25  H    0.488554
    26  H    0.408191
    27  H    0.468220
    28  O   -0.812684
    29  H    0.424555
    30  H    0.398508
 Sum of Mulliken charges =  -0.00000
 Mulliken charges with hydrogens summed into heavy atoms:
               1
     1  O   -0.598260
     2  C    0.215835
     3  C    0.297057
     4  C    0.222469
     5  C    0.283663
     6  C    0.230425
    11  C    0.275364
    15  O   -0.568628
    16  O   -0.226826
    18  O   -0.237417
    20  O   -0.221624
    22  O   -0.217466
    24  O    0.535030
    28  O    0.010379
 APT charges:
               1
     1  O   -0.295580
     2  C   -0.337671
     3  C   -0.207659
     4  C   -0.245105
     5  C   -0.080597
     6  C   -0.413480
     7  H    0.455569
     8  H    0.475986
     9  H    0.485724
    10  H    0.387510
    11  C   -0.601392
    12  H    0.523332
    13  H    0.262305
    14  H    0.488610
    15  O   -0.330743
    16  O   -0.806536
    17  H    0.708468
    18  O   -0.785260
    19  H    0.664137
    20  O   -0.842568
    21  H    0.709703
    22  O   -0.511450
    23  H    0.363765
    24  O   -1.501160
    25  H    0.267541
    26  H    1.060504
    27  H    0.192811
    28  O   -1.428935
    29  H    0.318413
    30  H    1.023757
 Sum of APT charges =  -0.00000
 APT charges with hydrogens summed into heavy atoms:
               1
     1  O   -0.295580
     2  C    0.148052
     3  C    0.179852
     4  C    0.210464
     5  C    0.408014
     6  C    0.062507
    11  C    0.184245
    15  O   -0.330743
    16  O   -0.098068
    18  O   -0.121123
    20  O   -0.132865
    22  O   -0.147685
    24  O    0.019696
    28  O   -0.086765
 Electronic spatial extent (au):  <R**2>=           2810.7688
 Charge=             -0.0000 electrons
 Dipole moment (field-independent basis, Debye):
    X=             -3.2646    Y=              0.3698    Z=              0.2928  Tot=              3.2985
 Quadrupole moment (field-independent basis, Debye-Ang):
   XX=            -87.1440   YY=            -57.7522   ZZ=            -91.9423
   XY=             -3.8944   XZ=             -2.2280   YZ=             -0.7338
 Traceless Quadrupole moment (field-independent basis, Debye-Ang):
   XX=             -8.1978   YY=             21.1940   ZZ=            -12.9961
   XY=             -3.8944   XZ=             -2.2280   YZ=             -0.7338
 Octapole moment (field-independent basis, Debye-Ang**2):
  XXX=             -9.1365  YYY=             37.7328  ZZZ=            -16.1393  XYY=             12.3048
  XXY=            -26.8457  XXZ=             18.8366  XZZ=             -3.8652  YZZ=             12.5511
  YYZ=            -18.7744  XYZ=             -2.9916
 Hexadecapole moment (field-independent basis, Debye-Ang**3):
 XXXX=          -1517.5906 YYYY=           -826.3019 ZZZZ=           -511.4895 XXXY=             -7.6339
 XXXZ=            -43.6248 YYYX=            -62.1703 YYYZ=            -61.5603 ZZZX=             11.8942
 ZZZY=             -0.2032 XXYY=           -327.7605 XXZZ=           -326.3086 YYZZ=           -289.6629
 XXYZ=             -1.0177 YYXZ=            -28.9046 ZZXY=             -2.4985
 N-N= 1.157388149665D+03 E-N=-4.287843105512D+03  KE= 8.340401718711D+02
  Exact polarizability:   0.000   0.000   0.000   0.000   0.000   0.000
 Approx polarizability: 151.806   2.457 136.433  -5.434  -5.331 120.631
 Calling FoFJK, ICntrl=    100147 FMM=F ISym2X=0 I1Cent= 0 IOpClX= 0 NMat=1 NMatS=1 NMatT=0.
 ***** Axes restored to original set *****
 -------------------------------------------------------------------
 Center     Atomic                   Forces (Hartrees/Bohr)
 Number     Number              X              Y              Z
 -------------------------------------------------------------------
      1        8          -0.023122373   -0.043825112   -0.015103143
      2        6          -0.003816217    0.003130032   -0.000705812
      3        6           0.006504122   -0.034237551   -0.020495775
      4        6          -0.002375274   -0.001582108    0.018263682
      5        6          -0.024853018   -0.089349022   -0.054382991
      6        6           0.003650280    0.033242019    0.003479894
      7        1          -0.005344060    0.005020370    0.008778270
      8        1           0.007083561   -0.008325191    0.005894202
      9        1           0.002488324    0.004880696   -0.000706962
     10        1           0.006046768    0.009885279    0.002825512
     11        6           0.003183518    0.011486114   -0.010858276
     12        1          -0.004690047    0.005465483    0.002196866
     13        1           0.002550205   -0.002422230    0.005581939
     14        1           0.021691429   -0.015567169    0.003758035
     15        8          -0.004352174    0.031238107    0.003709561
     16        8           0.001275966   -0.015645830   -0.006999681
     17        1           0.009838339    0.002236216    0.008927716
     18        8          -0.013909963    0.020832723    0.028320073
     19        1           0.002198203   -0.009635465   -0.009906317
     20        8           0.010234912    0.000633852   -0.017771219
     21        1           0.015689018   -0.004706633   -0.001278555
     22        8           0.009097117   -0.008036298    0.008676698
     23        1          -0.007555126    0.001864127    0.009195832
     24        8          -0.005408724    0.011583126    0.028788897
     25        1           0.066728243    0.058429087    0.054447895
     26        1           0.002482905    0.011378575   -0.011300519
     27        1          -0.066026222    0.048911198   -0.015147071
     28        8          -0.025821437   -0.023783606   -0.016757754
     29        1           0.016282565    0.001768628   -0.005066059
     30        1           0.000249156   -0.004869420   -0.006364937
 -------------------------------------------------------------------
 Cartesian Forces:  Max     0.089349022 RMS     0.022117672

 GradGradGradGradGradGradGradGradGradGradGradGradGradGradGradGradGradGrad
 Berny optimization.
 Search for a saddle point.
 Step number   1 out of a maximum of  180
 All quantities printed in internal units (Hartrees-Bohrs-Radians)
 Swapping is turned off.
 Second derivative matrix not updated -- analytic derivatives used.
 ITU=  0
     Eigenvalues ---   -0.15268  -0.02111  -0.01767  -0.00984  -0.00748
     Eigenvalues ---   -0.00348  -0.00214  -0.00178  -0.00126   0.00021
     Eigenvalues ---    0.00128   0.00369   0.00533   0.00681   0.00815
     Eigenvalues ---    0.00946   0.01258   0.01310   0.01592   0.01832
     Eigenvalues ---    0.02406   0.02514   0.02743   0.03267   0.03455
     Eigenvalues ---    0.03924   0.04130   0.04243   0.04769   0.05045
     Eigenvalues ---    0.05279   0.05805   0.05998   0.06596   0.06918
     Eigenvalues ---    0.07802   0.08089   0.08429   0.08972   0.09501
     Eigenvalues ---    0.10028   0.10489   0.11441   0.12285   0.12843
     Eigenvalues ---    0.13944   0.15523   0.16354   0.17119   0.17284
     Eigenvalues ---    0.17958   0.19341   0.19688   0.20797   0.21615
     Eigenvalues ---    0.24797   0.27507   0.28655   0.32142   0.34363
     Eigenvalues ---    0.40490   0.48137   0.49592   0.55704   0.59463
     Eigenvalues ---    0.65920   0.67794   0.70171   0.71575   0.76291
     Eigenvalues ---    0.78401   0.82819   0.86688   0.88069   0.89055
     Eigenvalues ---    0.92675   1.00813   1.09413   1.10591   1.12737
     Eigenvalues ---    1.14462   1.18241   1.24453   1.26501
 Eigenvectors required to have negative eigenvalues:
                          Z27       X25       Y25       X5        Z25
   1                    0.48814   0.42887  -0.36499  -0.34640  -0.31934
                          X27       Y27       Y1        X1        Z15
   1                    0.24146   0.22729   0.20734   0.15004  -0.11634
 RFO step:  Lambda0=2.803714751D-03 Lambda=-1.22503058D-01.
 Linear search not attempted -- option 19 set.
 Maximum step size (   0.300) exceeded in Quadratic search.
    -- Step size scaled by   0.256
 B after Tr=    -0.003447   -0.002519    0.000748
         Rot=    0.999999    0.001000   -0.000124   -0.000667 Ang=   0.14 deg.
 Variable       Old X    -DE/DX   Delta X   Delta X   Delta X     New X
                                 (Linear)    (Quad)   (Total)
    X1        0.04433  -0.02312   0.00000  -0.01088  -0.01855   0.02578
    Y1        3.22601  -0.04383   0.00000  -0.01999  -0.02200   3.20400
    Z1        0.21228  -0.01510   0.00000   0.02290   0.01723   0.22952
    X2        1.30884  -0.00382   0.00000   0.00507   0.00361   1.31244
    Y2       -1.16381   0.00313   0.00000   0.01094   0.01381  -1.15000
    Z2        1.81846  -0.00071   0.00000  -0.00227   0.00045   1.81891
    X3       -2.56502   0.00650   0.00000  -0.01062  -0.01307  -2.57809
    Y3       -0.90833  -0.03424   0.00000  -0.01832  -0.02624  -0.93457
    Z3       -0.96237  -0.02050   0.00000  -0.01973  -0.01648  -0.97885
    X4       -0.24417  -0.00238   0.00000   0.00417   0.00398  -0.24019
    Y4       -2.48631  -0.00158   0.00000   0.00809   0.00483  -2.48148
    Z4       -0.21364   0.01826   0.00000   0.00008   0.00584  -0.20780
    X5       -2.88210  -0.02485   0.00000  -0.05694  -0.06239  -2.94449
    Y5        1.56848  -0.08935   0.00000  -0.02301  -0.02899   1.53949
    Z5        0.26878  -0.05438   0.00000  -0.03869  -0.04030   0.22848
    X6        2.07417   0.00365   0.00000   0.00785   0.00263   2.07680
    Y6        1.48320   0.03324   0.00000   0.02086   0.02306   1.50625
    Z6        0.96663   0.00348   0.00000   0.00770   0.00493   0.97155
    X7       -0.86501  -0.00534   0.00000   0.00246   0.00490  -0.86011
    Y7       -4.33560   0.00502   0.00000   0.00984   0.00715  -4.32846
    Z7        0.48475   0.00878   0.00000   0.00104   0.01065   0.49540
    X8        2.92119   0.00708   0.00000   0.02975   0.02360   2.94479
    Y8        2.50916  -0.00833   0.00000  -0.01193  -0.00539   2.50377
    Z8        2.55232   0.00589   0.00000   0.01550   0.01052   2.56284
    X9        3.00397   0.00249   0.00000   0.00391   0.00405   3.00802
    Y9       -2.28381   0.00488   0.00000   0.00723   0.01317  -2.27065
    Z9        2.22508  -0.00071   0.00000  -0.00502  -0.00047   2.22460
   X10       -2.53122   0.00605   0.00000  -0.00104  -0.00432  -2.53554
   Y10       -0.68690   0.00989   0.00000  -0.00187  -0.01384  -0.70074
   Z10       -3.02285   0.00283   0.00000  -0.01326  -0.01050  -3.03335
   X11        3.87313   0.00318   0.00000   0.00712   0.00125   3.87439
   Y11        1.55744   0.01149   0.00000   0.01628   0.01638   1.57382
   Z11       -1.27546  -0.01086   0.00000  -0.00154  -0.00490  -1.28036
   X12        4.43577  -0.00469   0.00000   0.00024  -0.00833   4.42744
   Y12        3.51101   0.00547   0.00000   0.01733   0.01739   3.52840
   Z12       -1.66679   0.00220   0.00000   0.00215  -0.00526  -1.67204
   X13        2.97063   0.00255   0.00000   0.00299  -0.00236   2.96827
   Y13        0.86375  -0.00242   0.00000   0.00766   0.00312   0.86687
   Z13       -3.00240   0.00558   0.00000   0.00601   0.00429  -2.99812
   X14       -3.54438   0.02169   0.00000  -0.01586  -0.02067  -3.56504
   Y14        1.43697  -0.01557   0.00000  -0.00730  -0.01017   1.42680
   Z14        2.22663   0.00376   0.00000  -0.02215  -0.02337   2.20325
   X15       -4.49346  -0.00435   0.00000   0.02253   0.01488  -4.47858
   Y15        2.92742   0.03124   0.00000   0.05222   0.04182   2.96925
   Z15       -0.91765   0.00371   0.00000  -0.03330  -0.03739  -0.95504
   X16        6.06969   0.00128   0.00000   0.00472   0.00090   6.07059
   Y16        0.12482  -0.01565   0.00000  -0.00013   0.00384   0.12866
   Z16       -0.80364  -0.00700   0.00000  -0.00745  -0.00846  -0.81210
   X17        6.84264   0.00984   0.00000   0.01104   0.00653   6.84917
   Y17        0.91122   0.00224   0.00000  -0.00793  -0.00005   0.91117
   Z17        0.63213   0.00893   0.00000  -0.00032  -0.00308   0.62905
   X18       -4.79171  -0.01391   0.00000  -0.00870  -0.00924  -4.80095
   Y18       -2.23208   0.02083   0.00000  -0.00226  -0.01183  -2.24391
   Z18       -0.33856   0.02832   0.00000   0.01317   0.01958  -0.31898
   X19       -4.70173   0.00220   0.00000  -0.01503  -0.01375  -4.71548
   Y19       -3.77267  -0.00964   0.00000  -0.00010  -0.01148  -3.78415
   Z19       -1.28507  -0.00991   0.00000  -0.00491   0.00456  -1.28051
   X20        1.24595   0.01023   0.00000   0.00609   0.00601   1.25195
   Y20       -2.98100   0.00063   0.00000   0.01711   0.01150  -2.96950
   Z20       -2.36665  -0.01777   0.00000  -0.01691  -0.01055  -2.37720
   X21        2.64047   0.01569   0.00000   0.00052   0.00193   2.64239
   Y21       -3.96094  -0.00471   0.00000  -0.00725  -0.00981  -3.97075
   Z21       -1.75612  -0.00128   0.00000  -0.02971  -0.02169  -1.77781
   X22       -0.07145   0.00910   0.00000   0.00762   0.00660  -0.06485
   Y22       -1.05894  -0.00804   0.00000  -0.00007   0.00552  -1.05342
   Z22        4.09526   0.00868   0.00000   0.00293   0.00580   4.10106
   X23       -1.54166  -0.00756   0.00000  -0.02496  -0.02734  -1.56900
   Y23       -0.07650   0.00186   0.00000  -0.04177  -0.03896  -0.11546
   Z23        3.70695   0.00920   0.00000   0.00126   0.00263   3.70958
   X24       -3.23574  -0.00541   0.00000  -0.03465  -0.04375  -3.27950
   Y24        4.77533   0.01158   0.00000  -0.00000  -0.00113   4.77420
   Z24        2.86373   0.02879   0.00000   0.02366   0.01567   2.87940
   X25       -1.78981   0.06673   0.00000   0.11172   0.10333  -1.68648
   Y25        3.99936   0.05843   0.00000  -0.02565  -0.02757   3.97180
   Z25        1.29865   0.05445   0.00000   0.13100   0.12422   1.42287
   X26       -3.40480   0.00248   0.00000   0.04746   0.03617  -3.36863
   Y26        6.49678   0.01138   0.00000   0.01226   0.01208   6.50886
   Z26        3.41064  -0.01130   0.00000   0.00905  -0.00239   3.40825
   X27       -4.23873  -0.06603   0.00000   0.00717  -0.00157  -4.24030
   Y27        4.05535   0.04891   0.00000   0.10120   0.09500   4.15035
   Z27        1.03305  -0.01515   0.00000  -0.04589  -0.05240   0.98066
   X28       -2.85294  -0.02582   0.00000  -0.00794  -0.00574  -2.85869
   Y28       -4.79577  -0.02378   0.00000  -0.11040  -0.12403  -4.91980
   Z28       -3.71086  -0.01676   0.00000   0.05382   0.06510  -3.64576
   X29       -1.03881   0.01628   0.00000   0.00109   0.00305  -1.03576
   Y29       -4.79577   0.00177   0.00000   0.05981   0.04844  -4.74733
   Z29       -3.71086  -0.00507   0.00000  -0.03316  -0.02268  -3.73354
   X30       -3.45852   0.00025   0.00000   0.00475   0.00768  -3.45084
   Y30       -5.75728  -0.00487   0.00000   0.03183   0.01439  -5.74290
   Z30       -5.12503  -0.00636   0.00000  -0.04460  -0.03154  -5.15657
         Item               Value     Threshold  Converged?
 Maximum Force            0.089349     0.000450     NO 
 RMS     Force            0.022118     0.000300     NO 
 Maximum Displacement     0.124219     0.001800     NO 
 RMS     Displacement     0.030982     0.001200     NO 
 Predicted change in Energy=-3.138246D-02
 GradGradGradGradGradGradGradGradGradGradGradGradGradGradGradGradGradGrad

                          Input orientation:                          
 ---------------------------------------------------------------------
 Center     Atomic      Atomic             Coordinates (Angstroms)
 Number     Number       Type             X           Y           Z
 ---------------------------------------------------------------------
      1          8           0        0.013642    1.695485    0.121455
      2          6           0        0.694516   -0.608554    0.962525
      3          6           0       -1.364269   -0.494554   -0.517985
      4          6           0       -0.127101   -1.313144   -0.109962
      5          6           0       -1.558156    0.814663    0.120905
      6          6           0        1.098996    0.797075    0.514123
      7          1           0       -0.455150   -2.290520    0.262154
      8          1           0        1.558315    1.324937    1.356195
      9          1           0        1.591778   -1.201575    1.177210
     10          1           0       -1.341751   -0.370814   -1.605178
     11          6           0        2.050236    0.832831   -0.677535
     12          1           0        2.342899    1.867150   -0.884807
     13          1           0        1.570742    0.458727   -1.586534
     14          1           0       -1.886541    0.755028    1.165912
     15          8           0       -2.369965    1.571258   -0.505386
     16          8           0        3.212419    0.068082   -0.429744
     17          1           0        3.624425    0.482172    0.332878
     18          8           0       -2.540553   -1.187428   -0.168796
     19          1           0       -2.495325   -2.002488   -0.677618
     20          8           0        0.662506   -1.571394   -1.257959
     21          1           0        1.398295   -2.101230   -0.940777
     22          8           0       -0.034317   -0.557448    2.170188
     23          1           0       -0.830278   -0.061100    1.963026
     24          8           0       -1.735436    2.526398    1.523711
     25          1           0       -0.892446    2.101785    0.752948
     26          1           0       -1.782601    3.444342    1.803568
     27          1           0       -2.243871    2.196270    0.518941
     28          8           0       -1.512751   -2.603447   -1.929253
     29          1           0       -0.548101   -2.512180   -1.975706
     30          1           0       -1.826106   -3.039010   -2.728737
 ---------------------------------------------------------------------
                    Distance matrix (angstroms):
                    1          2          3          4          5
     1  O    0.000000
     2  C    2.545503   0.000000
     3  C    2.665294   2.538405   0.000000
     4  C    3.020797   1.523722   1.538557   0.000000
     5  C    1.801776   2.794352   1.469633   2.574642   0.000000
     6  C    1.462642   1.529856   2.966686   2.519091   2.686147
     7  H    4.015943   2.154359   2.158844   1.096061   3.298293
     8  H    2.011940   2.153953   3.919769   3.456836   3.390975
     9  H    3.463826   1.096742   3.480198   2.150303   3.886268
    10  H    3.014622   3.285727   1.094443   2.144535   2.105124
    11  C    2.351653   2.570091   3.666913   3.109364   3.695718
    12  H    2.543121   3.501273   4.410815   4.100677   4.163822
    13  H    2.621327   2.899062   3.265705   2.863994   3.582184
    14  H    2.363482   2.926188   2.160956   3.000136   1.097010
    15  O    2.467782   4.037002   2.297643   3.675129   1.274249
    16  O    3.631037   2.955687   4.611986   3.628007   4.859936
    17  H    3.815046   3.189123   5.154127   4.182489   5.197560
    18  O    3.862557   3.475723   1.409132   2.417440   2.248866
    19  H    4.539653   3.848144   1.891729   2.530991   3.074454
    20  O    3.605039   2.420462   2.411423   1.417064   3.539190
    21  H    4.178593   2.519115   3.223649   1.907397   4.286047
    22  O    3.045541   1.411474   2.999834   2.403907   2.899023
    23  H    2.681264   1.904128   2.574577   2.521775   2.165682
    24  O    2.390819   4.005936   3.665029   4.471880   2.220210
    25  H    1.176801   3.147746   2.928969   3.604456   1.580927
    26  H    3.019022   4.823840   4.591243   5.388502   3.130007
    27  H    2.346305   4.086309   3.014871   4.146350   1.592946
    28  O    5.001609   4.148976   2.541880   2.625782   3.986061
    29  H    4.734774   3.714981   2.619521   2.257416   4.060033
    30  H    5.824407   5.087835   3.402202   3.566962   4.800318
                    6          7          8          9         10
     6  C    0.000000
     7  H    3.465848   0.000000
     8  H    1.094851   4.280479   0.000000
     9  H    2.162664   2.492598   2.533065   0.000000
    10  H    3.436953   2.821039   4.478357   4.127643   0.000000
    11  C    1.525184   4.112821   2.149469   2.790891   3.716835
    12  H    2.156237   5.141091   2.435499   3.772687   4.370819
    13  H    2.179400   3.883329   3.067594   3.224178   3.028382
    14  H    3.056146   3.484396   3.496860   3.990879   3.040272
    15  O    3.697628   4.378238   4.354026   5.120072   2.457318
    16  O    2.426700   4.415064   2.739585   2.611668   4.723848
    17  H    2.551432   4.933128   2.454841   2.771201   5.398754
    18  O    4.201303   2.398215   5.043639   4.346043   2.041366
    19  H    4.709241   2.264608   5.624958   4.559196   2.203057
    20  O    2.990057   2.019168   4.003125   2.632558   2.361990
    21  H    3.256759   2.217686   4.127991   2.309260   3.308114
    22  O    2.421091   2.611749   2.596620   2.011241   3.999700
    23  H    2.560836   2.829134   2.827493   2.790079   3.617956
    24  O    3.470423   5.141339   3.510038   5.008812   4.282379
    25  H    2.392728   4.441222   2.640763   4.154943   3.446212
    26  H    4.119987   6.084959   3.981675   5.776097   5.135106
    27  H    3.623883   4.837018   3.989590   5.166320   3.451901
    28  O    4.935064   2.453306   5.971417   4.610148   2.262502
    29  H    4.456831   2.250730   5.501092   4.029596   2.313573
    30  H    5.812737   3.374194   6.869135   5.505862   2.935346
                   11         12         13         14         15
    11  C    0.000000
    12  H    1.094728   0.000000
    13  H    1.093685   1.752799   0.000000
    14  H    4.347708   4.830157   4.429058   0.000000
    15  O    4.484762   4.737362   4.235065   1.921761   0.000000
    16  O    1.413120   2.049340   2.045940   5.386780   5.781718
    17  H    1.903146   2.245713   2.811104   5.580245   6.149919
    18  O    5.041389   5.804413   4.650005   2.445876   2.784374
    19  H    5.357347   6.198826   4.839071   3.372405   3.580090
    20  O    2.836015   3.845328   2.248164   4.217229   4.431535
    21  H    3.017123   4.079638   2.645773   4.835957   5.279821
    22  O    3.793121   4.567584   4.209726   2.482317   4.140693
    23  H    4.008621   4.679461   4.316769   1.554717   3.335909
    24  O    4.695207   4.782089   4.987956   1.813452   2.330698
    25  H    3.509403   3.633834   3.773608   1.724099   2.011946
    26  H    5.259897   5.170556   5.625976   2.765831   3.030628
    27  H    4.661532   4.808043   4.690773   1.619702   1.206559
    28  O    5.105848   5.995260   4.359162   4.582479   4.493370
    29  H    4.430090   5.359708   3.669773   4.726079   4.706962
    30  H    5.850180   6.697095   5.007730   5.437524   5.147198
                   16         17         18         19         20
    16  O    0.000000
    17  H    0.960631   0.000000
    18  O    5.894156   6.406730   0.000000
    19  H    6.076763   6.681765   0.961909   0.000000
    20  O    3.142591   3.939652   3.404892   3.239527   0.000000
    21  H    2.873693   3.640304   4.116492   3.903752   0.960581
    22  O    4.206213   4.224087   3.485533   4.031712   3.642230
    23  H    4.699514   4.774611   2.956065   3.676190   3.857996
    24  O    5.860083   5.858759   4.159964   5.092553   5.502700
    25  H    4.731239   4.816817   3.792728   4.632580   4.466975
    26  H    6.429389   6.338242   5.090973   6.027621   6.364676
    27  H    5.932983   6.116342   3.465604   4.373163   5.079339
    28  O    5.631414   6.405377   2.482074   1.700939   2.499502
    29  H    4.815522   5.630779   2.998292   2.395099   1.692870
    30  H    6.350285   7.174991   3.239149   2.393600   3.241955
                   21         22         23         24         25
    21  H    0.000000
    22  O    3.756826   0.000000
    23  H    4.190553   0.960641   0.000000
    24  O    6.108102   3.580761   2.776231   0.000000
    25  H    5.077551   3.133125   2.479158   1.218607   0.000000
    26  H    6.957219   4.382377   3.635997   0.960815   1.923184
    27  H    5.819334   3.897654   3.029744   1.173479   1.374786
    28  O    3.115043   4.814281   4.698844   6.187718   5.451439
    29  H    2.242412   4.612308   4.647690   6.248436   5.371480
    30  H    3.804339   5.776515   5.645552   7.004663   6.278664
                   26         27         28         29         30
    26  H    0.000000
    27  H    1.849519   0.000000
    28  O    7.112139   5.437414   0.000000
    29  H    7.161498   5.591815   0.970071   0.000000
    30  H    7.910596   6.174957   0.962851   1.574136   0.000000
 Stoichiometry    C6H16O8
 Framework group  C1[X(C6H16O8)]
 Deg. of freedom    84
 Full point group                 C1      NOp   1
 Largest Abelian subgroup         C1      NOp   1
 Largest concise Abelian subgroup C1      NOp   1
                         Standard orientation:                         
 ---------------------------------------------------------------------
 Center     Atomic      Atomic             Coordinates (Angstroms)
 Number     Number       Type             X           Y           Z
 ---------------------------------------------------------------------
      1          8           0        0.061553   -1.588792   -0.698878
      2          6           0       -0.953939   -0.171924    1.156073
      3          6           0        0.917225    0.884649   -0.195184
      4          6           0       -0.402756    1.117579    0.560164
      5          6           0        1.426015   -0.491913   -0.272852
      6          6           0       -1.127277   -1.247152    0.081690
      7          1           0       -0.230086    1.846925    1.359908
      8          1           0       -1.383665   -2.197165    0.561728
      9          1           0       -1.919866    0.034924    1.632562
     10          1           0        0.802118    1.289186   -1.205583
     11          6           0       -2.176496   -0.922201   -0.976485
     12          1           0       -2.286010   -1.770420   -1.659830
     13          1           0       -1.878145   -0.067177   -1.589730
     14          1           0        1.847265   -0.863915    0.669270
     15          8           0        2.295692   -0.662059   -1.188507
     16          8           0       -3.430227   -0.642805   -0.387414
     17          1           0       -3.670809   -1.447757    0.078402
     18          8           0        1.969464    1.568645    0.445592
     19          1           0        1.714408    2.494838    0.396787
     20          8           0       -1.345959    1.708103   -0.317173
     21          1           0       -2.131231    1.847999    0.218077
     22          8           0       -0.103319   -0.627413    2.186236
     23          1           0        0.746061   -0.777643    1.763369
     24          8           0        2.077876   -2.577274    0.121707
     25          1           0        1.091252   -2.035303   -0.345032
     26          1           0        2.329934   -3.482319   -0.079603
     27          1           0        2.402595   -1.708026   -0.596637
     28          8           0        0.506121    3.384316   -0.404501
     29          1           0       -0.422443    3.116483   -0.488607
     30          1           0        0.642384    4.203362   -0.892022
 ---------------------------------------------------------------------
 Rotational constants (GHZ):      0.6904073      0.6509789      0.4300182
 Standard basis: 6-31G(d) (6D, 7F)
 There are   242 symmetry adapted cartesian basis functions of A   symmetry.
 There are   242 symmetry adapted basis functions of A   symmetry.
   242 basis functions,   456 primitive gaussians,   242 cartesian basis functions
    58 alpha electrons       58 beta electrons
       nuclear repulsion energy      1154.5828349898 Hartrees.
 NAtoms=   30 NActive=   30 NUniq=   30 SFac= 1.00D+00 NAtFMM=   60 NAOKFM=F Big=F
 Integral buffers will be    131072 words long.
 Raffenetti 2 integral format.
 Two-electron integral symmetry is turned on.
 One-electron integrals computed using PRISM.
 NBasis=   242 RedAO= T EigKep=  1.35D-03  NBF=   242
 NBsUse=   242 1.00D-06 EigRej= -1.00D+00 NBFU=   242
 Initial guess from the checkpoint file:  "/scratch/10451469.yak.local/Gau-10289.chk"
 B after Tr=     0.000000   -0.000000    0.000000
         Rot=    0.999995    0.000854   -0.000224   -0.002979 Ang=   0.36 deg.
 ExpMin= 1.61D-01 ExpMax= 5.48D+03 ExpMxC= 8.25D+02 IAcc=1 IRadAn=         1 AccDes= 0.00D+00
 Harris functional with IExCor=  402 and IRadAn=       1 diagonalized for initial guess.
 HarFok:  IExCor=  402 AccDes= 0.00D+00 IRadAn=         1 IDoV= 1 UseB2=F ITyADJ=14
 ICtDFT=  3500011 ScaDFX=  1.000000  1.000000  1.000000  1.000000
 FoFCou: FMM=F IPFlag=           0 FMFlag=      100000 FMFlg1=           0
         NFxFlg=           0 DoJE=T BraDBF=F KetDBF=T FulRan=T
         wScrn=  0.000000 ICntrl=     500 IOpCl=  0 I1Cent=   200000004 NGrid=           0
         NMat0=    1 NMatS0=      1 NMatT0=    0 NMatD0=    1 NMtDS0=    0 NMtDT0=    0
 Petite list used in FoFCou.
 Requested convergence on RMS density matrix=1.00D-08 within 128 cycles.
 Requested convergence on MAX density matrix=1.00D-06.
 Requested convergence on             energy=1.00D-06.
 No special actions if energy rises.
 Integral accuracy reduced to 1.0D-05 until final iterations.
 Initial convergence to 1.0D-05 achieved.  Increase integral accuracy.
 SCF Done:  E(RB3LYP) =  -839.816141403     A.U. after   12 cycles
            NFock= 12  Conv=0.91D-08     -V/T= 2.0071
 Calling FoFJK, ICntrl=      2127 FMM=F ISym2X=0 I1Cent= 0 IOpClX= 0 NMat=1 NMatS=1 NMatT=0.
 ***** Axes restored to original set *****
 -------------------------------------------------------------------
 Center     Atomic                   Forces (Hartrees/Bohr)
 Number     Number              X              Y              Z
 -------------------------------------------------------------------
      1        8          -0.021167218   -0.037961478   -0.011633949
      2        6          -0.002880744    0.003360047   -0.000436162
      3        6           0.003704152   -0.028459414   -0.017464017
      4        6          -0.001765647   -0.001172886    0.014240890
      5        6          -0.022762466   -0.070033006   -0.043772351
      6        6           0.002515260    0.026907329    0.002467602
      7        1          -0.004394911    0.004592065    0.007973796
      8        1           0.006119234   -0.006333758    0.005545464
      9        1           0.002194623    0.004865244   -0.000848688
     10        1           0.004841466    0.007283478    0.000718436
     11        6           0.002628617    0.009669880   -0.008302734
     12        1          -0.003605204    0.005466553    0.001699724
     13        1           0.002255774   -0.001821928    0.005028392
     14        1           0.018194996   -0.013849973    0.001291913
     15        8          -0.003490701    0.026525856    0.002578009
     16        8           0.000754077   -0.012384904   -0.005191971
     17        1           0.008657933    0.001139100    0.006847934
     18        8          -0.011803483    0.014355413    0.022347398
     19        1           0.000511244   -0.007944463   -0.008015210
     20        8           0.008513842   -0.000083713   -0.013955630
     21        1           0.013370070   -0.003563790   -0.001969576
     22        8           0.006990840   -0.006135996    0.007294121
     23        1          -0.005770648    0.000411510    0.009177639
     24        8          -0.004537199    0.011124836    0.023001370
     25        1           0.058654168    0.047989070    0.048208359
     26        1           0.002828013    0.009686683   -0.009265171
     27        1          -0.052361513    0.042401578   -0.012345590
     28        8          -0.016218713   -0.025774856   -0.016799447
     29        1           0.007284129    0.002357000   -0.004262385
     30        1           0.000740009   -0.002615476   -0.004158167
 -------------------------------------------------------------------
 Cartesian Forces:  Max     0.070033006 RMS     0.018317484

 GradGradGradGradGradGradGradGradGradGradGradGradGradGradGradGradGradGrad
 Berny optimization.
 Search for a saddle point.
 Step number   2 out of a maximum of  180
 All quantities printed in internal units (Hartrees-Bohrs-Radians)
 Swapping is turned off.
 Update second derivatives using D2CorN and points    1    2
 ITU=  0  0
     Eigenvalues ---   -0.15274  -0.01936  -0.01468  -0.00952  -0.00733
     Eigenvalues ---   -0.00341  -0.00209  -0.00178  -0.00125   0.00045
     Eigenvalues ---    0.00129   0.00371   0.00530   0.00683   0.00819
     Eigenvalues ---    0.00949   0.01259   0.01337   0.01593   0.01875
     Eigenvalues ---    0.02411   0.02514   0.02744   0.03266   0.03487
     Eigenvalues ---    0.03928   0.04134   0.04244   0.04769   0.05042
     Eigenvalues ---    0.05279   0.05806   0.05997   0.06596   0.06938
     Eigenvalues ---    0.07797   0.08084   0.08424   0.08989   0.09503
     Eigenvalues ---    0.10026   0.10492   0.11446   0.12286   0.12849
     Eigenvalues ---    0.13951   0.15600   0.16347   0.17118   0.17285
     Eigenvalues ---    0.17988   0.19324   0.19689   0.20800   0.21614
     Eigenvalues ---    0.24804   0.27516   0.28671   0.32142   0.34359
     Eigenvalues ---    0.40496   0.48138   0.49597   0.55703   0.59463
     Eigenvalues ---    0.65919   0.67793   0.70190   0.71579   0.76292
     Eigenvalues ---    0.78376   0.82815   0.86683   0.88095   0.89061
     Eigenvalues ---    0.92672   1.00819   1.09370   1.10600   1.12728
     Eigenvalues ---    1.14464   1.18225   1.24415   1.26411
 Eigenvectors required to have negative eigenvalues:
                          Z27       X25       Y25       X5        Z25
   1                    0.48843   0.42767  -0.36429  -0.34640  -0.32133
                          X27       Y27       Y1        X1        Z15
   1                    0.24081   0.22678   0.20744   0.15000  -0.11728
 RFO step:  Lambda0=1.656535226D-03 Lambda=-9.85840857D-02.
 Linear search not attempted -- option 19 set.
 Maximum step size (   0.300) exceeded in Quadratic search.
    -- Step size scaled by   0.257
 B after Tr=    -0.002715   -0.003885    0.001216
         Rot=    0.999999    0.001309   -0.000149   -0.000570 Ang=   0.16 deg.
 Variable       Old X    -DE/DX   Delta X   Delta X   Delta X     New X
                                 (Linear)    (Quad)   (Total)
    X1        0.02578  -0.02117   0.00000  -0.01876  -0.02503   0.00075
    Y1        3.20400  -0.03796   0.00000  -0.02433  -0.02759   3.17641
    Z1        0.22952  -0.01163   0.00000   0.01022   0.00311   0.23263
    X2        1.31244  -0.00288   0.00000  -0.00013  -0.00100   1.31144
    Y2       -1.15000   0.00336   0.00000   0.00884   0.01121  -1.13879
    Z2        1.81891  -0.00044   0.00000  -0.00551  -0.00170   1.81720
    X3       -2.57809   0.00370   0.00000  -0.01052  -0.01246  -2.59056
    Y3       -0.93457  -0.02846   0.00000  -0.00766  -0.01714  -0.95171
    Z3       -0.97885  -0.01746   0.00000  -0.03151  -0.02704  -1.00589
    X4       -0.24019  -0.00177   0.00000   0.00000   0.00004  -0.24015
    Y4       -2.48148  -0.00117   0.00000   0.01103   0.00632  -2.47516
    Z4       -0.20780   0.01424   0.00000  -0.00904  -0.00128  -0.20908
    X5       -2.94449  -0.02276   0.00000  -0.03648  -0.04088  -2.98537
    Y5        1.53949  -0.07003   0.00000  -0.00979  -0.01659   1.52290
    Z5        0.22848  -0.04377   0.00000  -0.04022  -0.04212   0.18636
    X6        2.07680   0.00252   0.00000   0.00310  -0.00107   2.07574
    Y6        1.50625   0.02691   0.00000   0.01762   0.01867   1.52492
    Z6        0.97155   0.00247   0.00000   0.00747   0.00407   0.97562
    X7       -0.86011  -0.00439   0.00000  -0.00125   0.00110  -0.85900
    Y7       -4.32846   0.00459   0.00000   0.01181   0.00823  -4.32022
    Z7        0.49540   0.00797   0.00000  -0.01012   0.00266   0.49806
    X8        2.94479   0.00612   0.00000   0.01597   0.01117   2.95596
    Y8        2.50377  -0.00633   0.00000  -0.00797  -0.00173   2.50204
    Z8        2.56284   0.00555   0.00000   0.01647   0.01026   2.57310
    X9        3.00802   0.00219   0.00000  -0.00036   0.00016   3.00818
    Y9       -2.27065   0.00487   0.00000   0.00599   0.01134  -2.25931
    Z9        2.22460  -0.00085   0.00000  -0.01050  -0.00426   2.22034
   X10       -2.53554   0.00484   0.00000   0.00432   0.00149  -2.53405
   Y10       -0.70074   0.00728   0.00000   0.00427  -0.01051  -0.71125
   Z10       -3.03335   0.00072   0.00000  -0.02746  -0.02365  -3.05700
   X11        3.87439   0.00263   0.00000   0.00836   0.00345   3.87784
   Y11        1.57382   0.00967   0.00000   0.01610   0.01329   1.58711
   Z11       -1.28036  -0.00830   0.00000   0.00414   0.00003  -1.28033
   X12        4.42744  -0.00361   0.00000   0.00474  -0.00251   4.42493
   Y12        3.52840   0.00547   0.00000   0.01724   0.01404   3.54244
[...]
    Z5        0.95017  -0.00481   0.00000  -0.00705  -0.00894   0.94123
    X6        1.82650  -0.00271   0.00000  -0.00740  -0.00335   1.82315
    Y6        1.40549   0.00107   0.00000   0.00053   0.00179   1.40728
    Z6        1.27683   0.00052   0.00000   0.00520   0.00339   1.28022
    X7       -0.44503   0.00040   0.00000   0.02797   0.03237  -0.41266
    Y7       -4.61872   0.00050   0.00000  -0.00758  -0.00811  -4.62684
    Z7       -0.12505  -0.00025   0.00000  -0.00169   0.00367  -0.12138
    X8        1.83249   0.00104   0.00000  -0.01085  -0.00702   1.82547
    Y8        2.06443  -0.00074   0.00000   0.00308   0.00675   2.07118
    Z8        3.25663  -0.00178   0.00000  -0.00094  -0.00355   3.25308
    X9        3.52401   0.00027   0.00000   0.01033   0.01453   3.53854
    Y9       -2.27122  -0.00060   0.00000   0.01081   0.01180  -2.25942
    Z9        0.99834   0.00018   0.00000   0.01617   0.01901   1.01736
   X10       -3.53750  -0.00012   0.00000  -0.00937  -0.00488  -3.54237
   Y10       -1.02641  -0.00036   0.00000  -0.04816  -0.05155  -1.07797
   Z10       -2.39410   0.00231   0.00000   0.02573   0.02644  -2.36766
   X11        4.21974  -0.00292   0.00000  -0.00377   0.00038   4.22012
   Y11        2.33439  -0.00016   0.00000   0.00113   0.00083   2.33522
   Z11       -0.07683   0.00011   0.00000   0.01209   0.00938  -0.06745
   X12        4.19776  -0.00005   0.00000  -0.00113   0.00295   4.20071
   Y12        4.40791   0.00171   0.00000   0.00697   0.00657   4.41449
   Z12       -0.16810   0.00005   0.00000   0.02731   0.02206  -0.14603
   X13        4.21349   0.00001   0.00000  -0.00368   0.00068   4.21416
   Y13        1.62973  -0.00074   0.00000   0.01004   0.00736   1.63710
   Z13       -2.01778  -0.00065   0.00000   0.01435   0.01250  -2.00529
   X14       -2.65496  -0.00083   0.00000   0.03054   0.03444  -2.62052
   Y14        0.94544   0.00055   0.00000  -0.00800  -0.00483   0.94062
   Z14        2.98010   0.00224   0.00000  -0.00543  -0.00709   2.97301
   X15       -4.89342  -0.00077   0.00000   0.00447   0.00858  -4.88484
   Y15        2.59390   0.00168   0.00000  -0.00733  -0.00754   2.58635
   Z15        0.27298  -0.00197   0.00000   0.00033  -0.00356   0.26942
   X16        6.45287   0.00231   0.00000   0.00843   0.01250   6.46538
   Y16        1.40826  -0.00374   0.00000  -0.00045   0.00071   1.40896
   Z16        1.06771  -0.00593   0.00000  -0.00665  -0.00800   1.05971
   X17        6.62670  -0.00046   0.00000  -0.04621  -0.04232   6.58437
   Y17        2.16365   0.00268   0.00000  -0.04156  -0.03831   2.12534
   Z17        2.71566   0.00551   0.00000   0.05817   0.05595   2.77162
   X18       -4.62831   0.00212   0.00000   0.02848   0.03273  -4.59558
   Y18       -3.12254  -0.00246   0.00000  -0.01161  -0.01112  -3.13365
   Z18        0.78463  -0.00570   0.00000   0.04975   0.05287   0.83750
   X19       -4.87871  -0.00037   0.00000   0.01027   0.01469  -4.86402
   Y19       -4.47576   0.00241   0.00000  -0.01835  -0.01936  -4.49512
   Z19       -0.46626   0.00386   0.00000   0.07345   0.07821  -0.38806
   X20        0.59198   0.00397   0.00000   0.00286   0.00748   0.59946
   Y20       -2.35253  -0.00176   0.00000   0.01249   0.00828  -2.34425
   Z20       -3.16902   0.00147   0.00000   0.00858   0.01124  -3.15779
   X21        2.21780  -0.00374   0.00000  -0.00891  -0.00425   2.21355
   Y21       -3.21176   0.00184   0.00000   0.00670   0.00236  -3.20939
   Z21       -3.31542   0.00039   0.00000   0.00382   0.00769  -3.30772
   X22        0.95213  -0.00105   0.00000  -0.00493  -0.00099   0.95114
   Y22       -2.42834   0.00114   0.00000  -0.00820  -0.00388  -2.43221
   Z22        3.80223   0.00020   0.00000   0.00925   0.01206   3.81429
   X23       -0.87514   0.00007   0.00000  -0.00121   0.00273  -0.87240
   Y23       -2.60404  -0.00141   0.00000  -0.02939  -0.02507  -2.62911
   Z23        3.86379   0.00116   0.00000  -0.00396  -0.00108   3.86271
   X24       -2.41123  -0.00011   0.00000   0.00007   0.00401  -2.40723
   Y24        6.37423   0.00674   0.00000  -0.00780  -0.00745   6.36678
   Z24        0.73442  -0.01139   0.00000  -0.07220  -0.08047   0.65395
   X25       -0.93634   0.00270   0.00000  -0.01753  -0.01350  -0.94984
   Y25        4.57578  -0.00059   0.00000   0.04532   0.04533   4.62110
   Z25        0.39905  -0.00280   0.00000  -0.06180  -0.06780   0.33125
   X26       -2.40432  -0.00012   0.00000  -0.03255  -0.02851  -2.43283
   Y26        7.45842  -0.00838   0.00000  -0.04378  -0.04525   7.41317
   Z26       -0.78063   0.01019   0.00000  -0.04867  -0.05822  -0.83885
   X27       -3.98288   0.00040   0.00000  -0.03268  -0.02868  -4.01155
   Y27        4.95186  -0.00143   0.00000  -0.05594  -0.05580   4.89605
   Z27        0.51110   0.00590   0.00000   0.02044   0.01380   0.52491
   X28       -3.73830   0.00983   0.00000  -0.00742  -0.00260  -3.74090
   Y28       -5.76941  -0.00723   0.00000   0.03564   0.03022  -5.73918
   Z28       -4.00467   0.01958   0.00000  -0.02201  -0.01563  -4.02030
   X29       -2.28383   0.00525   0.00000  -0.00968  -0.00486  -2.28870
   Y29       -4.70347   0.00364   0.00000   0.07374   0.06791  -4.63556
   Z29       -4.33637  -0.00108   0.00000  -0.07232  -0.06714  -4.40351
   X30       -4.81976  -0.01441   0.00000  -0.11045  -0.10550  -4.92526
   Y30       -5.54553   0.00337   0.00000   0.12250   0.11530  -5.43023
   Z30       -5.41152  -0.01779   0.00000  -0.04384  -0.03795  -5.44946
         Item               Value     Threshold  Converged?
 Maximum Force            0.019580     0.000450     NO 
 RMS     Force            0.004491     0.000300     NO 
 Maximum Displacement     0.115299     0.001800     NO 
 RMS     Displacement     0.031385     0.001200     NO 
 Predicted change in Energy=-3.820400D-03
 GradGradGradGradGradGradGradGradGradGradGradGradGradGradGradGradGradGrad

                          Input orientation:                          
 ---------------------------------------------------------------------
 Center     Atomic      Atomic             Coordinates (Angstroms)
 Number     Number       Type             X           Y           Z
 ---------------------------------------------------------------------
      1          8           0       -0.163251    1.287725   -0.019751
      2          6           0        0.866409   -0.802861    0.722008
      3          6           0       -1.545885   -0.768515   -0.225629
      4          6           0       -0.120247   -1.381613   -0.306956
      5          6           0       -1.634132    0.575078    0.498080
      6          6           0        0.964768    0.744703    0.677464
      7          1           0       -0.218369   -2.448416   -0.064233
      8          1           0        0.965997    1.096024    1.721457
      9          1           0        1.872516   -1.195635    0.538362
     10          1           0       -1.874543   -0.570435   -1.252911
     11          6           0        2.233192    1.235745   -0.035695
     12          1           0        2.222918    2.336046   -0.077278
     13          1           0        2.230039    0.866315   -1.061152
     14          1           0       -1.386720    0.497753    1.573251
     15          8           0       -2.584945    1.368639    0.142573
     16          8           0        3.421331    0.745590    0.560776
     17          1           0        3.484299    1.124680    1.466677
     18          8           0       -2.431875   -1.658257    0.443186
     19          1           0       -2.573929   -2.378717   -0.205351
     20          8           0        0.317220   -1.240524   -1.671028
     21          1           0        1.171361   -1.698339   -1.750372
     22          8           0        0.503321   -1.287070    2.018437
     23          1           0       -0.461657   -1.391263    2.044056
     24          8           0       -1.273850    3.369156    0.346053
     25          1           0       -0.502634    2.445383    0.175291
     26          1           0       -1.287398    3.922878   -0.443901
     27          1           0       -2.122822    2.590880    0.277769
     28          8           0       -1.979600   -3.037044   -2.127451
     29          1           0       -1.211125   -2.453033   -2.330239
     30          1           0       -2.606337   -2.873555   -2.883731
 ---------------------------------------------------------------------
                    Distance matrix (angstroms):
                    1          2          3          4          5
     1  O    0.000000
     2  C    2.445599   0.000000
     3  C    2.486400   2.591980   0.000000
     4  C    2.685088   1.538574   1.554010   0.000000
     5  C    1.714498   2.863837   1.528655   2.601647   0.000000
     6  C    1.432972   1.551326   3.067374   2.582161   2.610599
     7  H    3.736812   2.121973   2.147188   1.098459   3.385572
     8  H    2.084169   2.148158   3.684726   3.381282   2.920395
     9  H    3.259281   1.095558   3.528679   2.172614   3.928565
    10  H    2.811043   3.386317   1.096613   2.151835   2.106174
    11  C    2.397060   2.568681   4.281887   3.530272   3.959493
    12  H    2.606931   3.511654   4.885098   4.400473   4.278887
    13  H    2.643850   2.797373   4.198616   3.338538   4.177061
    14  H    2.158376   2.737298   2.205615   2.944681   1.105977
    15  O    2.428476   4.118617   2.404714   3.720309   1.288476
    16  O    3.671532   2.991876   5.252064   4.221460   5.058726
    17  H    3.942166   3.335160   5.634788   4.734979   5.238184
    18  O    3.746969   3.418790   1.422650   2.445991   2.372171
    19  H    4.391880   3.896055   1.910507   2.650490   3.178512
    20  O    3.057713   2.493948   2.404814   1.439436   3.436454
    21  H    3.700380   2.647175   3.251590   1.962655   4.253792
    22  O    3.350835   1.430741   3.082852   2.409404   3.216797
    23  H    3.394896   1.964125   2.591300   2.375692   2.762469
    24  O    2.387383   4.704017   4.185827   4.932243   2.821310
    25  H    1.222045   3.567109   3.402683   3.876168   2.209642
    26  H    2.896143   5.322672   4.703576   5.433104   3.495042
    27  H    2.372056   4.544263   3.445548   4.486971   2.085860
    28  O    5.142484   4.605513   2.991865   3.084128   4.478860
    29  H    4.519919   4.044184   2.716440   2.536066   4.165067
    30  H    5.611355   5.417480   3.552641   3.878957   4.926957
                    6          7          8          9         10
     6  C    0.000000
     7  H    3.485102   0.000000
     8  H    1.101522   4.141795   0.000000
     9  H    2.146687   2.510853   2.733713   0.000000
    10  H    3.676632   2.771765   4.437637   4.199998   0.000000
    11  C    1.535779   4.425383   2.170919   2.524130   4.649450
    12  H    2.164475   5.371325   2.520506   3.602022   5.159354
    13  H    2.153715   4.239811   3.064879   2.633990   4.353001
    14  H    2.528421   3.567395   2.432113   3.815910   3.060423
    15  O    3.643606   4.495927   3.895689   5.157626   2.492400
    16  O    2.459333   4.882594   2.738366   2.483482   5.750449
    17  H    2.667448   5.368468   2.531319   2.973798   6.243938
    18  O    4.167288   2.404461   4.556927   4.330226   2.090627
    19  H    4.801821   2.360812   5.321418   4.660865   2.203726
    20  O    3.142588   2.080301   4.170051   2.702289   2.329735
    21  H    3.450438   2.310202   4.461416   2.445942   3.285904
    22  O    2.477750   2.491400   2.445691   2.018335   4.107252
    23  H    2.909400   2.371000   2.885976   2.784555   3.679674
    24  O    3.465400   5.926763   3.475023   5.547424   4.293937
    25  H    2.301686   4.907896   2.523545   4.362358   3.607915
    26  H    4.053456   6.471504   4.213985   6.095003   4.603162
    27  H    3.619577   5.398000   3.722853   5.510746   3.521155
    28  O    5.553238   2.775839   6.369685   5.033501   2.619163
    29  H    4.899623   2.473938   5.809640   4.395311   2.268245
    30  H    6.206987   3.719234   7.051730   5.881008   2.915383
                   11         12         13         14         15
    11  C    0.000000
    12  H    1.101134   0.000000
    13  H    1.089978   1.768663   0.000000
    14  H    4.029529   4.374135   4.489640   0.000000
    15  O    4.823265   4.909151   4.988523   2.059375   0.000000
    16  O    1.416934   2.091137   2.016036   4.919744   6.052969
    17  H    1.958245   2.332870   2.833697   4.912354   6.216791
    18  O    5.510665   6.155684   5.510893   2.649108   3.045636
    19  H    6.016771   6.727194   5.860097   3.584267   3.763489
    20  O    3.532304   4.354719   2.910257   4.055905   4.303422
    21  H    3.560400   4.492357   2.858894   4.734244   5.205711
    22  O    3.684631   4.525042   4.135516   2.637430   4.484311
    23  H    4.299853   5.059627   4.688731   2.155407   3.967499
    24  O    4.122683   3.670683   4.530086   3.124694   2.400509
    25  H    2.998747   2.739412   3.389653   2.555223   2.344454
    26  H    4.447682   3.869725   4.700632   3.976211   2.924332
    27  H    4.572692   4.367660   4.869726   2.569300   1.313662
    28  O    6.354509   7.122812   5.839029   5.151843   4.992945
    29  H    5.543946   6.309023   4.946743   4.896448   4.754720
    30  H    6.958355   7.637921   6.379574   5.719954   5.211064
                   16         17         18         19         20
    16  O    0.000000
    17  H    0.984038   0.000000
    18  O    6.328691   6.617657   0.000000
    19  H    6.803777   7.195248   0.979715   0.000000
    20  O    4.308260   5.046758   3.493126   3.435467   0.000000
    21  H    4.046796   4.865030   4.218603   4.108187   0.972341
    22  O    3.843341   3.873914   3.351801   3.950492   3.694449
    23  H    4.673740   4.715283   2.552613   3.239844   3.798845
    24  O    5.382743   5.378982   5.159975   5.918809   5.277241
    25  H    4.293646   4.394038   4.542422   5.263752   4.203209
    26  H    5.768593   5.852291   5.765919   6.436006   5.544489
    27  H    5.850027   5.916338   4.263571   5.013362   4.942800
    28  O    7.120739   7.751895   2.951911   2.116858   2.951472
    29  H    6.328412   7.018804   3.132696   2.525452   2.059266
    30  H    7.829152   8.485740   3.546232   2.723901   3.561548
                   21         22         23         24         25
    21  H    0.000000
    22  O    3.849590   0.000000
    23  H    4.142309   0.970924   0.000000
    24  O    6.004461   5.256962   5.119029   0.000000
    25  H    4.866299   4.282562   4.267764   1.215438   0.000000
    26  H    6.272993   6.034347   5.925527   0.964789   1.783885
    27  H    5.776018   4.996504   4.662263   1.153747   1.629933
    28  O    3.444252   5.139619   4.734365   6.903311   6.127075
    29  H    2.565550   4.817652   4.563279   6.408148   5.547443
    30  H    4.115415   6.018152   5.574937   7.153913   6.486469
                   26         27         28         29         30
    26  H    0.000000
    27  H    1.730017   0.000000
    28  O    7.194025   6.122019   0.000000
    29  H    6.649536   5.750996   0.986278   0.000000
    30  H    7.340564   6.331581   0.995735   1.558784   0.000000
 Stoichiometry    C6H16O8
 Framework group  C1[X(C6H16O8)]
 Deg. of freedom    84
 Full point group                 C1      NOp   1
 Largest Abelian subgroup         C1      NOp   1
 Largest concise Abelian subgroup C1      NOp   1
                         Standard orientation:                         
 ---------------------------------------------------------------------
 Center     Atomic      Atomic             Coordinates (Angstroms)
 Number     Number       Type             X           Y           Z
 ---------------------------------------------------------------------
      1          8           0       -0.957373   -0.845906   -0.422507
      2          6           0       -0.474529    1.275965    0.693504
      3          6           0        1.423031   -0.401209    0.141501
      4          6           0        0.889368    1.052998    0.017279
      5          6           0        0.367136   -1.453143    0.481065
      6          6           0       -1.566453    0.281213    0.219391
      7          1           0        1.599859    1.699267    0.550337
      8          1           0       -2.112367   -0.047679    1.117811
      9          1           0       -0.840507    2.285196    0.474963
     10          1           0        1.817971   -0.688411   -0.840384
     11          6           0       -2.546782    0.912431   -0.780177
     12          1           0       -3.265669    0.148397   -1.114766
     13          1           0       -1.992904    1.250906   -1.655795
     14          1           0       -0.067782   -1.311707    1.488054
     15          8           0        0.586410   -2.654575    0.070392
     16          8           0       -3.202343    2.054607   -0.257323
     17          1           0       -3.767932    1.762389    0.493042
     18          8           0        2.424026   -0.478635    1.149444
     19          1           0        3.196133   -0.028850    0.747715
     20          8           0        0.901566    1.383479   -1.383653
     21          1           0        0.651617    2.319803   -1.462820
     22          8           0       -0.287042    1.241582    2.111491
     23          1           0        0.431222    0.618390    2.307504
     24          8           0       -1.707270   -3.111954   -0.470237
     25          1           0       -1.561147   -1.905661   -0.498461
     26          1           0       -1.835459   -3.438330   -1.369050
     27          1           0       -0.587790   -3.178322   -0.199145
     28          8           0        3.803397    1.013091   -0.992020
     29          1           0        2.949299    1.178459   -1.456686
     30          1           0        4.343859    0.513107   -1.662398
 ---------------------------------------------------------------------
 Rotational constants (GHZ):      0.6940444      0.5113147      0.3765003
 Standard basis: 6-31G(d) (6D, 7F)
 There are   242 symmetry adapted cartesian basis functions of A   symmetry.
 There are   242 symmetry adapted basis functions of A   symmetry.
   242 basis functions,   456 primitive gaussians,   242 cartesian basis functions
    58 alpha electrons       58 beta electrons
       nuclear repulsion energy      1107.6631770144 Hartrees.
 NAtoms=   30 NActive=   30 NUniq=   30 SFac= 1.00D+00 NAtFMM=   60 NAOKFM=F Big=F
 Integral buffers will be    131072 words long.
 Raffenetti 2 integral format.
 Two-electron integral symmetry is turned on.
 One-electron integrals computed using PRISM.
 NBasis=   242 RedAO= T EigKep=  1.64D-03  NBF=   242
 NBsUse=   242 1.00D-06 EigRej= -1.00D+00 NBFU=   242
 Initial guess from the checkpoint file:  "/scratch/10451469.yak.local/Gau-10289.chk"
 B after Tr=     0.000000   -0.000000    0.000000
         Rot=    0.999986    0.003229   -0.000059   -0.004072 Ang=   0.60 deg.
 ExpMin= 1.61D-01 ExpMax= 5.48D+03 ExpMxC= 8.25D+02 IAcc=1 IRadAn=         1 AccDes= 0.00D+00
 Harris functional with IExCor=  402 and IRadAn=       1 diagonalized for initial guess.
 HarFok:  IExCor=  402 AccDes= 0.00D+00 IRadAn=         1 IDoV= 1 UseB2=F ITyADJ=14
 ICtDFT=  3500011 ScaDFX=  1.000000  1.000000  1.000000  1.000000
 FoFCou: FMM=F IPFlag=           0 FMFlag=      100000 FMFlg1=           0
         NFxFlg=           0 DoJE=T BraDBF=F KetDBF=T FulRan=T
         wScrn=  0.000000 ICntrl=     500 IOpCl=  0 I1Cent=   200000004 NGrid=           0
         NMat0=    1 NMatS0=      1 NMatT0=    0 NMatD0=    1 NMtDS0=    0 NMtDT0=    0
 Petite list used in FoFCou.
 Requested convergence on RMS density matrix=1.00D-08 within 128 cycles.
 Requested convergence on MAX density matrix=1.00D-06.
 Requested convergence on             energy=1.00D-06.
 No special actions if energy rises.
 Integral accuracy reduced to 1.0D-05 until final iterations.
 Initial convergence to 1.0D-05 achieved.  Increase integral accuracy.
