 Entering Gaussian System, Link 0=g09
 Initial command:
 /global/software/gaussian/g09.e01/l1.exe "/scratch/10451470.yak.local/Gau-27894.inp" -scrdir="/scratch/10451470.yak.local/"
 Entering Link 1 = /global/software/gaussian/g09.e01/l1.exe PID=     27895.
  
 Copyright (c) 1988,1990,1992,1993,1995,1998,2003,2009,2015,
            Gaussian, Inc.  All Rights Reserved.
  
 This is part of the Gaussian(R) 09 program.  It is based on
 the Gaussian(R) 03 system (copyright 2003, Gaussian, Inc.),
 the Gaussian(R) 98 system (copyright 1998, Gaussian, Inc.),
 the Gaussian(R) 94 system (copyright 1995, Gaussian, Inc.),
 the Gaussian 92(TM) system (copyright 1992, Gaussian, Inc.),
 the Gaussian 90(TM) system (copyright 1990, Gaussian, Inc.),
 the Gaussian 88(TM) system (copyright 1988, Gaussian, Inc.),
 the Gaussian 86(TM) system (copyright 1986, Carnegie Mellon
 University), and the Gaussian 82(TM) system (copyright 1983,
 Carnegie Mellon University). Gaussian is a federally registered
 trademark of Gaussian, Inc.
  
 This software contains proprietary and confidential information,
 including trade secrets, belonging to Gaussian, Inc.
  
 This software is provided under written license and may be
 used, copied, transmitted, or stored only in accord with that
 written license.
  
 The following legend is applicable only to US Government
 contracts under FAR:
  
                    RESTRICTED RIGHTS LEGEND
  
 Use, reproduction and disclosure by the US Government is
 subject to restrictions as set forth in subparagraphs (a)
 and (c) of the Commercial Computer Software - Restricted
 Rights clause in FAR 52.227-19.
  
 Gaussian, Inc.
 340 Quinnipiac St., Bldg. 40, Wallingford CT 06492
  
  
 ---------------------------------------------------------------
 Warning -- This program may not be used in any manner that
 competes with the business of Gaussian, Inc. or will provide
 assistance to any competitor of Gaussian, Inc.  The licensee
 of this program is prohibited from giving any competitor of
 Gaussian, Inc. access to this program.  By using this program,
 the user acknowledges that Gaussian, Inc. is engaged in the
 business of creating and licensing software in the field of
 computational chemistry and represents and warrants to the
 licensee that it is not a competitor of Gaussian, Inc. and that
 it will not use this program in any manner prohibited above.
 ---------------------------------------------------------------
  

 Cite this work as:
 Gaussian 09, Revision E.01,
 M. J. Frisch, G. W. Trucks, H. B. Schlegel, G. E. Scuseria, 
 M. A. Robb, J. R. Cheeseman, G. Scalmani, V. Barone, B. Mennucci, 
 G. A. Petersson, H. Nakatsuji, M. Caricato, X. Li, H. P. Hratchian, 
 A. F. Izmaylov, J. Bloino, G. Zheng, J. L. Sonnenberg, M. Hada, 
 M. Ehara, K. Toyota, R. Fukuda, J. Hasegawa, M. Ishida, T. Nakajima, 
 Y. Honda, O. Kitao, H. Nakai, T. Vreven, J. A. Montgomery, Jr., 
 J. E. Peralta, F. Ogliaro, M. Bearpark, J. J. Heyd, E. Brothers, 
 K. N. Kudin, V. N. Staroverov, T. Keith, R. Kobayashi, J. Normand, 
 K. Raghavachari, A. Rendell, J. C. Burant, S. S. Iyengar, J. Tomasi, 
 M. Cossi, N. Rega, J. M. Millam, M. Klene, J. E. Knox, J. B. Cross, 
 V. Bakken, C. Adamo, J. Jaramillo, R. Gomperts, R. E. Stratmann, 
 O. Yazyev, A. J. Austin, R. Cammi, C. Pomelli, J. W. Ochterski, 
 R. L. Martin, K. Morokuma, V. G. Zakrzewski, G. A. Voth, 
 P. Salvador, J. J. Dannenberg, S. Dapprich, A. D. Daniels, 
 O. Farkas, J. B. Foresman, J. V. Ortiz, J. Cioslowski, 
 and D. J. Fox, Gaussian, Inc., Wallingford CT, 2013.
 
 ******************************************
 Gaussian 09:  ES64L-G09RevE.01 30-Nov-2015
                11-Jan-2017 
 ******************************************
 %NPROCS=4
 Will use up to    4 processors via shared memory.
 ----------------------------------------------------------------------
 # opt=(calcfc,ts,noeigentest,maxcycle=1000,cartesian) b3lyp 6-31g(d) f
 req
 ----------------------------------------------------------------------
 1/5=1,6=1000,10=4,11=1,14=-1,18=10,26=3,38=1/1,3;
 2/12=2,17=6,18=5,29=2,40=1/2;
 3/5=1,6=6,7=1,11=2,16=1,25=1,30=1,71=2,74=-5,140=1/1,2,3;
 4//1;
 5/5=2,38=5/2;
 8/6=4,10=90,11=11/1;
 11/6=1,8=1,9=11,15=111,16=1/1,2,10;
 10/6=1,13=1/2;
 6/7=2,8=2,9=2,10=2,28=1/1;
 7/7=1,10=1,18=20,25=1/1,2,3,16;
 1/5=1,6=1000,10=4,11=1,14=-1,18=10,26=3/3(2);
 2/29=1/2;
 99/12=1/99;
 2/29=1/2;
 3/5=1,6=6,7=1,11=2,16=1,25=1,30=1,71=1,74=-5/1,2,3;
 4/5=5,16=3,69=1/1;
 5/5=2,38=5/2;
 7/7=1/1,2,3,16;
 1/5=1,6=1000,11=1,14=-1,18=10,26=3/3(-5);
 2/29=1/2;
 6/7=2,8=2,9=2,10=2,19=2,28=1/1;
 99/9=1,12=1/99;
 ------------------------
 boat5_Beta_B3LYP_6-31G_d
 ------------------------
 Symbolic Z-matrix:
 Charge =  0 Multiplicity = 1
 O                     0.02346   1.70713   0.11233 
 C                     0.69261  -0.61586   0.96229 
 C                    -1.35735  -0.48067  -0.50926 
 C                    -0.12921  -1.3157   -0.11305 
 C                    -1.52514   0.83      0.14223 
 C                     1.09761   0.78487   0.51152 
 H                    -0.45775  -2.2943    0.25652 
 H                     1.54583   1.32779   1.35063 
 H                     1.58964  -1.20854   1.17746 
 H                    -1.33947  -0.36349  -1.59962 
 C                     2.04957   0.82416  -0.67494 
 H                     2.34731   1.85795  -0.88203 
 H                     1.57199   0.45708  -1.5888 
 H                    -1.8756    0.76041   1.17828 
 O                    -2.37784   1.54913  -0.4856 
 O                     3.21194   0.06605  -0.42527 
 H                     3.62097   0.4822    0.33451 
 O                    -2.53566  -1.18117  -0.17916 
 H                    -2.48805  -1.99641  -0.68003 
 O                     0.65933  -1.57748  -1.25238 
 H                     1.39727  -2.09604  -0.9293 
 O                    -0.03781  -0.56037   2.16712 
 H                    -0.81581  -0.04048   1.96164 
 O                    -3.34923   3.64883  -0.04328 
 H                    -2.30175   4.08117   0.33056 
 H                    -3.65271   4.11637  -0.82488 
 H                    -3.05521   2.53619  -0.34612 
 O                    -1.14054   3.7803    0.29794 
 H                    -0.62108   2.69526   0.17589 
 H                    -0.51496   4.45245   0.01785 
 

 GradGradGradGradGradGradGradGradGradGradGradGradGradGradGradGradGradGrad
 Berny optimization.
 Initialization pass.
 No Z-matrix variables, so optimization will use Cartesian coordinates.
 Trust Radius=3.00D-01 FncErr=1.00D-07 GrdErr=1.00D-06
 Number of steps in this run=    180 maximum allowed number of steps=    180.
 Search for a saddle point of order  1.
 GradGradGradGradGradGradGradGradGradGradGradGradGradGradGradGradGradGrad

 ---------------------------------------------------------------------------------------------------
                            Z-MATRIX (ANGSTROMS AND DEGREES)
   CD    Cent   Atom    N1       Length/X        N2       Alpha/Y        N3        Beta/Z          J
 ---------------------------------------------------------------------------------------------------
      1      1  O        0   0.023459          1.707129          0.112335
      2      2  C        0   0.692607         -0.615860          0.962287
      3      3  C        0  -1.357352         -0.480668         -0.509262
      4      4  C        0  -0.129207         -1.315700         -0.113053
      5      5  C        0  -1.525140          0.830005          0.142233
      6      6  C        0   1.097605          0.784873          0.511517
      7      7  H        0  -0.457745         -2.294303          0.256517
      8      8  H        0   1.545826          1.327788          1.350628
      9      9  H        0   1.589635         -1.208542          1.177461
     10     10  H        0  -1.339466         -0.363490         -1.599623
     11     11  C        0   2.049574          0.824163         -0.674942
     12     12  H        0   2.347307          1.857947         -0.882026
     13     13  H        0   1.571990          0.457076         -1.588802
     14     14  H        0  -1.875605          0.760410          1.178280
     15     15  O        0  -2.377837          1.549126         -0.485598
     16     16  O        0   3.211944          0.066051         -0.425268
     17     17  H        0   3.620967          0.482196          0.334510
     18     18  O        0  -2.535664         -1.181168         -0.179160
     19     19  H        0  -2.488048         -1.996412         -0.680032
     20     20  O        0   0.659327         -1.577479         -1.252378
     21     21  H        0   1.397274         -2.096040         -0.929301
     22     22  O        0  -0.037809         -0.560368          2.167119
     23     23  H        0  -0.815812         -0.040483          1.961636
     24     24  O        0  -3.349228          3.648831         -0.043277
     25     25  H        0  -2.301755          4.081172          0.330558
     26     26  H        0  -3.652705          4.116370         -0.824883
     27     27  H        0  -3.055207          2.536186         -0.346118
     28     28  O        0  -1.140544          3.780296          0.297941
     29     29  H        0  -0.621080          2.695260          0.175894
     30     30  H        0  -0.514957          4.452448          0.017847
 ---------------------------------------------------------------------------------------------------
                         Z-Matrix orientation:                         
 ---------------------------------------------------------------------
 Center     Atomic      Atomic             Coordinates (Angstroms)
 Number     Number       Type             X           Y           Z
 ---------------------------------------------------------------------
      1          8           0        0.023459    1.707129    0.112335
      2          6           0        0.692607   -0.615860    0.962287
      3          6           0       -1.357352   -0.480668   -0.509262
      4          6           0       -0.129207   -1.315700   -0.113053
      5          6           0       -1.525140    0.830005    0.142233
      6          6           0        1.097605    0.784873    0.511517
      7          1           0       -0.457745   -2.294303    0.256517
      8          1           0        1.545826    1.327788    1.350628
      9          1           0        1.589635   -1.208542    1.177461
     10          1           0       -1.339466   -0.363490   -1.599623
     11          6           0        2.049574    0.824163   -0.674942
     12          1           0        2.347307    1.857947   -0.882026
     13          1           0        1.571990    0.457076   -1.588802
     14          1           0       -1.875605    0.760410    1.178280
     15          8           0       -2.377837    1.549126   -0.485598
     16          8           0        3.211944    0.066051   -0.425268
     17          1           0        3.620967    0.482196    0.334510
     18          8           0       -2.535664   -1.181168   -0.179160
     19          1           0       -2.488048   -1.996412   -0.680032
     20          8           0        0.659327   -1.577479   -1.252378
     21          1           0        1.397274   -2.096040   -0.929301
     22          8           0       -0.037809   -0.560368    2.167119
     23          1           0       -0.815812   -0.040483    1.961636
     24          8           0       -3.349228    3.648831   -0.043277
     25          1           0       -2.301755    4.081172    0.330558
     26          1           0       -3.652705    4.116370   -0.824883
     27          1           0       -3.055207    2.536186   -0.346118
     28          8           0       -1.140544    3.780296    0.297941
     29          1           0       -0.621080    2.695260    0.175894
     30          1           0       -0.514957    4.452448    0.017847
 ---------------------------------------------------------------------
                    Distance matrix (angstroms):
                    1          2          3          4          5
     1  O    0.000000
     2  C    2.562510   0.000000
     3  C    2.660729   2.527067   0.000000
     4  C    3.035062   1.523650   1.537075   0.000000
     5  C    1.780000   2.771537   1.473249   2.572518   0.000000
     6  C    1.470950   1.526195   2.944554   2.511486   2.649000
     7  H    4.032841   2.153739   2.164482   1.096441   3.303588
     8  H    1.998717   2.157906   3.893346   3.454870   3.337490
     9  H    3.476858   1.096463   3.472689   2.152052   3.863831
    10  H    3.012612   3.279694   1.096785   2.140402   2.119662
    11  C    2.346183   2.568179   3.652010   3.105128   3.666932
    12  H    2.532147   3.501320   4.396882   4.098350   4.135410
    13  H    2.618100   2.903887   3.259726   2.866120   3.567600
    14  H    2.374650   2.921726   2.157929   3.004610   1.095930
    15  O    2.479659   4.026309   2.272007   3.660923   1.280000
    16  O    3.626099   2.955904   4.602654   3.629050   4.831733
    17  H    3.806821   3.189847   5.140303   4.182887   5.161430
    18  O    3.869928   3.470477   1.409995   2.411121   2.273602
    19  H    4.544417   3.836626   1.898714   2.519715   3.097086
    20  O    3.613229   2.414655   2.412926   1.410098   3.537346
    21  H    4.175700   2.503117   3.220842   1.898772   4.272052
    22  O    3.060627   1.410038   2.985056   2.403760   2.871490
    23  H    2.679261   1.898706   2.567560   2.530205   2.138018
    24  O    3.894796   5.961139   4.608413   5.917767   3.362661
    25  H    3.330213   5.606014   4.733664   5.834636   3.347937
    26  H    4.494108   6.668562   5.147914   6.513764   4.032623
    27  H    3.221133   5.068869   3.465651   4.842812   2.343213
    28  O    2.384822   4.809157   4.342165   5.211612   2.979325
    29  H    1.181471   3.647973   3.331375   4.051325   2.073074
    30  H    2.799213   5.295084   5.032207   5.782514   3.762716
                    6          7          8          9         10
     6  C    0.000000
     7  H    3.459113   0.000000
     8  H    1.095338   4.281462   0.000000
     9  H    2.158536   2.493748   2.542612   0.000000
    10  H    3.422713   2.819703   4.459744   4.123826   0.000000
    11  C    1.521668   4.108418   2.147169   2.788338   3.708254
    12  H    2.157592   5.138655   2.430676   3.770797   4.363717
    13  H    2.178034   3.885243   3.065791   3.229056   3.024900
    14  H    3.047154   3.491596   3.472436   3.985556   3.044231
    15  O    3.695540   4.359981   4.337724   5.109925   2.444866
    16  O    2.421714   4.416188   2.742578   2.612511   4.720058
    17  H    2.547607   4.934665   2.460433   2.774071   5.390914
    18  O    4.188436   2.397213   5.029281   4.342725   2.029089
    19  H    4.691721   2.255658   5.607676   4.549562   2.198027
    20  O    2.980624   2.009590   4.000262   2.627871   2.364217
    21  H    3.235030   2.210558   4.116156   2.294145   3.307689
    22  O    2.416579   2.614054   2.596091   2.011996   3.990165
    23  H    2.538744   2.848745   2.796932   2.786659   3.614016
    24  O    5.318306   6.615995   5.593904   7.033963   4.749745
    25  H    4.738563   6.637208   4.839994   6.621271   4.940306
    26  H    5.954014   7.243889   6.287588   7.736033   5.101024
    27  H    4.587863   5.517572   5.050612   6.157828   3.594880
    28  O    3.745329   6.112993   3.786757   5.754645   4.561939
    29  H    2.591544   4.992887   2.818769   4.596746   3.608946
    30  H    4.036728   6.751213   3.973239   6.149863   5.146774
                   11         12         13         14         15
    11  C    0.000000
    12  H    1.095554   0.000000
    13  H    1.094522   1.750168   0.000000
    14  H    4.341144   4.825188   4.431102   0.000000
    15  O    4.490366   4.751790   4.243909   1.908612   0.000000
    16  O    1.410027   2.041352   2.048453   5.379280   5.783494
    17  H    1.898739   2.234918   2.810350   5.567913   6.147891
    18  O    5.029071   5.794277   4.641525   2.459278   2.751967
    19  H    5.342816   6.186885   4.830049   3.380603   3.552576
    20  O    2.834449   3.845593   2.255116   4.218969   4.425831
    21  H    3.002962   4.066794   2.642701   4.828348   5.266457
    22  O    3.788325   4.564462   4.211127   2.469767   4.118568
    23  H    3.988683   4.657872   4.307525   1.542153   3.309945
    24  O    6.125750   6.030031   6.065833   3.465075   2.355421
    25  H    5.527495   5.294040   5.641269   3.453650   2.661419
    26  H    6.586129   6.411231   6.424286   4.293392   2.886372
    27  H    5.394251   5.471231   5.222827   2.620808   1.205227
    28  O    4.456689   4.153656   4.686303   3.230329   2.668885
    29  H    3.370062   3.260615   3.596273   2.514410   2.199407
    30  H    4.496801   3.966580   4.785359   4.102330   3.486123
                   16         17         18         19         20
    16  O    0.000000
    17  H    0.957987   0.000000
    18  O    5.886520   6.398026   0.000000
    19  H    6.067006   6.670297   0.957999   0.000000
    20  O    3.146610   3.941039   3.393645   3.226307   0.000000
    21  H    2.867353   3.631712   4.107031   3.894584   0.958045
    22  O    4.204018   4.222800   3.482772   4.021463   3.635034
    23  H    4.683106   4.754549   2.973560   3.687878   3.855941
    24  O    7.485400   7.665110   4.899922   5.745942   6.696622
    25  H    6.862459   6.930460   5.292140   6.163848   6.579819
    26  H    7.980488   8.213265   5.452398   6.224429   7.155158
    27  H    6.736840   7.018079   3.757196   4.580132   5.616165
    28  O    5.767391   5.792305   5.175917   6.011868   5.860784
    29  H    4.686812   4.787251   4.338017   5.121520   4.683557
    30  H    5.772921   5.741867   5.988297   6.779964   6.273151
                   21         22         23         24         25
    21  H    0.000000
    22  O    3.742401   0.000000
    23  H    4.180978   0.958015   0.000000
    24  O    7.504523   5.793850   4.903969   0.000000
    25  H    7.309446   5.481086   4.675092   1.193261   0.000000
    26  H    8.006699   6.625061   5.752572   0.960000   1.778019
    27  H    6.451528   5.000970   4.120661   1.190016   1.847312
    28  O    6.517513   4.852960   4.179915   2.238749   1.200000
    29  H    5.315239   3.860608   3.272780   2.898297   2.183882
    30  H    6.887409   5.474976   4.904616   2.946631   1.851562
                   26         27         28         29         30
    26  H    0.000000
    27  H    1.755905   0.000000
    28  O    2.772117   2.372458   0.000000
    29  H    3.494547   2.494550   1.209149   0.000000
    30  H    3.266284   3.202718   0.960000   1.767469   0.000000
 Stoichiometry    C6H16O8
 Framework group  C1[X(C6H16O8)]
 Deg. of freedom    84
 Full point group                 C1      NOp   1
 Largest Abelian subgroup         C1      NOp   1
 Largest concise Abelian subgroup C1      NOp   1
                         Standard orientation:                         
 ---------------------------------------------------------------------
 Center     Atomic      Atomic             Coordinates (Angstroms)
 Number     Number       Type             X           Y           Z
 ---------------------------------------------------------------------
      1          8           0        0.405178   -1.068581    0.048072
      2          6           0       -1.626933    0.198165    0.960395
      3          6           0       -0.024255    1.500201   -0.496379
      4          6           0       -1.491657    1.296902   -0.086499
      5          6           0        0.980299    0.614515    0.117538
      6          6           0       -1.005031   -1.104506    0.464860
      7          1           0       -1.891353    2.235757    0.314721
      8          1           0       -0.968419   -1.831238    1.283570
      9          1           0       -2.688243    0.038891    1.185080
     10          1           0        0.025980    1.431274   -1.589843
     11          6           0       -1.705898   -1.733126   -0.730588
     12          1           0       -1.244403   -2.697272   -0.970760
     13          1           0       -1.604743   -1.116124   -1.628951
     14          1           0        1.209523    0.870368    1.158238
     15          8           0        2.087080    0.661434   -0.523737
     16          8           0       -3.074959   -1.946083   -0.468867
     17          1           0       -3.094298   -2.549872    0.274641
     18          8           0        0.395369    2.796986   -0.135339
     19          1           0       -0.188304    3.388260   -0.612291
     20          8           0       -2.269755    1.000411   -1.224494
     21          1           0       -3.161527    0.888445   -0.892746
     22          8           0       -1.028447    0.608291    2.169452
     23          1           0       -0.104324    0.742593    1.955556
     24          8           0        4.213629   -0.273865   -0.135137
     25          1           0        3.722850   -1.303115    0.216505
     26          1           0        4.740811   -0.399612   -0.927518
     27          1           0        3.250830    0.370305   -0.407533
     28          8           0        2.654701   -1.848923    0.182562
     29          1           0        1.544111   -1.380199    0.088071
     30          1           0        2.629990   -2.758733   -0.122785
 ---------------------------------------------------------------------
 Rotational constants (GHZ):      0.8552843      0.4672624      0.3674249
 Standard basis: 6-31G(d) (6D, 7F)
 There are   242 symmetry adapted cartesian basis functions of A   symmetry.
 There are   242 symmetry adapted basis functions of A   symmetry.
   242 basis functions,   456 primitive gaussians,   242 cartesian basis functions
    58 alpha electrons       58 beta electrons
       nuclear repulsion energy      1120.6199256943 Hartrees.
 NAtoms=   30 NActive=   30 NUniq=   30 SFac= 1.00D+00 NAtFMM=   60 NAOKFM=F Big=F
 Integral buffers will be    131072 words long.
 Raffenetti 2 integral format.
 Two-electron integral symmetry is turned on.
 One-electron integrals computed using PRISM.
 NBasis=   242 RedAO= T EigKep=  1.51D-03  NBF=   242
 NBsUse=   242 1.00D-06 EigRej= -1.00D+00 NBFU=   242
 ExpMin= 1.61D-01 ExpMax= 5.48D+03 ExpMxC= 8.25D+02 IAcc=1 IRadAn=         1 AccDes= 0.00D+00
 Harris functional with IExCor=  402 and IRadAn=       1 diagonalized for initial guess.
 HarFok:  IExCor=  402 AccDes= 0.00D+00 IRadAn=         1 IDoV= 1 UseB2=F ITyADJ=14
 ICtDFT=  3500011 ScaDFX=  1.000000  1.000000  1.000000  1.000000
 FoFCou: FMM=F IPFlag=           0 FMFlag=      100000 FMFlg1=           0
         NFxFlg=           0 DoJE=T BraDBF=F KetDBF=T FulRan=T
         wScrn=  0.000000 ICntrl=     500 IOpCl=  0 I1Cent=   200000004 NGrid=           0
         NMat0=    1 NMatS0=      1 NMatT0=    0 NMatD0=    1 NMtDS0=    0 NMtDT0=    0
 Petite list used in FoFCou.
 Requested convergence on RMS density matrix=1.00D-08 within 128 cycles.
 Requested convergence on MAX density matrix=1.00D-06.
 Requested convergence on             energy=1.00D-06.
 No special actions if energy rises.
 Integral accuracy reduced to 1.0D-05 until final iterations.
 Initial convergence to 1.0D-05 achieved.  Increase integral accuracy.
 SCF Done:  E(RB3LYP) =  -839.860220980     A.U. after   15 cycles
            NFock= 15  Conv=0.24D-08     -V/T= 2.0078
 DoSCS=F DFT=T ScalE2(SS,OS)=  1.000000  1.000000
 Range of M.O.s used for correlation:     1   242
 NBasis=   242 NAE=    58 NBE=    58 NFC=     0 NFV=     0
 NROrb=    242 NOA=    58 NOB=    58 NVA=   184 NVB=   184
 Symmetrizing basis deriv contribution to polar:
 IMax=3 JMax=2 DiffMx= 0.00D+00
 G2DrvN: will do    31 centers at a time, making    1 passes.
 Calling FoFCou, ICntrl=  3107 FMM=F I1Cent=   0 AccDes= 0.00D+00.
 End of G2Drv F.D. properties file   721 does not exist.
 End of G2Drv F.D. properties file   722 does not exist.
 End of G2Drv F.D. properties file   788 does not exist.
          IDoAtm=111111111111111111111111111111
          Differentiating once with respect to nuclear coordinates.
          There are    93 degrees of freedom in the 1st order CPHF.  IDoFFX=6 NUNeed=     0.
     87 vectors produced by pass  0 Test12= 1.15D-14 1.08D-09 XBig12= 1.26D-01 7.42D-02.
 AX will form    87 AO Fock derivatives at one time.
     87 vectors produced by pass  1 Test12= 1.15D-14 1.08D-09 XBig12= 1.04D-02 1.55D-02.
     87 vectors produced by pass  2 Test12= 1.15D-14 1.08D-09 XBig12= 8.96D-05 1.33D-03.
     87 vectors produced by pass  3 Test12= 1.15D-14 1.08D-09 XBig12= 2.32D-07 4.91D-05.
     87 vectors produced by pass  4 Test12= 1.15D-14 1.08D-09 XBig12= 2.95D-10 2.10D-06.
     68 vectors produced by pass  5 Test12= 1.15D-14 1.08D-09 XBig12= 2.74D-13 6.73D-08.
      5 vectors produced by pass  6 Test12= 1.15D-14 1.08D-09 XBig12= 3.14D-16 1.54D-09.
 InvSVY:  IOpt=1 It=  1 EMax= 5.27D-16
 Solved reduced A of dimension   508 with    93 vectors.
 End of Minotr F.D. properties file   721 does not exist.
 End of Minotr F.D. properties file   722 does not exist.
 End of Minotr F.D. properties file   788 does not exist.

 **********************************************************************

            Population analysis using the SCF density.

 **********************************************************************

 Orbital symmetries:
       Occupied  (A) (A) (A) (A) (A) (A) (A) (A) (A) (A) (A) (A)
                 (A) (A) (A) (A) (A) (A) (A) (A) (A) (A) (A) (A)
                 (A) (A) (A) (A) (A) (A) (A) (A) (A) (A) (A) (A)
                 (A) (A) (A) (A) (A) (A) (A) (A) (A) (A) (A) (A)
                 (A) (A) (A) (A) (A) (A) (A) (A) (A) (A)
       Virtual   (A) (A) (A) (A) (A) (A) (A) (A) (A) (A) (A) (A)
                 (A) (A) (A) (A) (A) (A) (A) (A) (A) (A) (A) (A)
                 (A) (A) (A) (A) (A) (A) (A) (A) (A) (A) (A) (A)
                 (A) (A) (A) (A) (A) (A) (A) (A) (A) (A) (A) (A)
                 (A) (A) (A) (A) (A) (A) (A) (A) (A) (A) (A) (A)
                 (A) (A) (A) (A) (A) (A) (A) (A) (A) (A) (A) (A)
                 (A) (A) (A) (A) (A) (A) (A) (A) (A) (A) (A) (A)
                 (A) (A) (A) (A) (A) (A) (A) (A) (A) (A) (A) (A)
                 (A) (A) (A) (A) (A) (A) (A) (A) (A) (A) (A) (A)
                 (A) (A) (A) (A) (A) (A) (A) (A) (A) (A) (A) (A)
                 (A) (A) (A) (A) (A) (A) (A) (A) (A) (A) (A) (A)
                 (A) (A) (A) (A) (A) (A) (A) (A) (A) (A) (A) (A)
                 (A) (A) (A) (A) (A) (A) (A) (A) (A) (A) (A) (A)
                 (A) (A) (A) (A) (A) (A) (A) (A) (A) (A) (A) (A)
                 (A) (A) (A) (A) (A) (A) (A) (A) (A) (A) (A) (A)
                 (A) (A) (A) (A)
 The electronic state is 1-A.
 Alpha  occ. eigenvalues --  -19.16258 -19.15427 -19.15286 -19.14861 -19.14654
 Alpha  occ. eigenvalues --  -19.13324 -19.13195 -19.10723 -10.29057 -10.25034
 Alpha  occ. eigenvalues --  -10.24580 -10.23883 -10.23742 -10.22638  -1.05875
 Alpha  occ. eigenvalues --   -1.03997  -1.03587  -1.03203  -1.02602  -0.99972
 Alpha  occ. eigenvalues --   -0.99378  -0.95891  -0.78334  -0.75720  -0.69910
 Alpha  occ. eigenvalues --   -0.65521  -0.62276  -0.58908  -0.55974  -0.54978
 Alpha  occ. eigenvalues --   -0.54495  -0.54045  -0.50776  -0.50387  -0.49921
 Alpha  occ. eigenvalues --   -0.47167  -0.45692  -0.44580  -0.44138  -0.42700
 Alpha  occ. eigenvalues --   -0.42403  -0.41164  -0.39093  -0.38333  -0.37561
 Alpha  occ. eigenvalues --   -0.35499  -0.35221  -0.33675  -0.33605  -0.32042
 Alpha  occ. eigenvalues --   -0.29847  -0.29476  -0.28058  -0.27776  -0.26579
 Alpha  occ. eigenvalues --   -0.26236  -0.24866  -0.24446
 Alpha virt. eigenvalues --    0.02200   0.05308   0.06071   0.07399   0.08429
 Alpha virt. eigenvalues --    0.09128   0.10478   0.10867   0.12129   0.14261
 Alpha virt. eigenvalues --    0.14774   0.16924   0.17674   0.18198   0.19756
 Alpha virt. eigenvalues --    0.20857   0.21893   0.23276   0.24484   0.24926
 Alpha virt. eigenvalues --    0.26487   0.27537   0.28705   0.31375   0.33159
 Alpha virt. eigenvalues --    0.35145   0.36178   0.42073   0.53189   0.53289
 Alpha virt. eigenvalues --    0.54976   0.55683   0.57031   0.57173   0.60155
 Alpha virt. eigenvalues --    0.60586   0.62208   0.63355   0.64806   0.65528
 Alpha virt. eigenvalues --    0.66755   0.67658   0.70164   0.70908   0.72659
 Alpha virt. eigenvalues --    0.74508   0.77660   0.78519   0.79409   0.80866
 Alpha virt. eigenvalues --    0.81925   0.82922   0.83342   0.84665   0.84980
 Alpha virt. eigenvalues --    0.85730   0.86499   0.87269   0.88501   0.90040
 Alpha virt. eigenvalues --    0.91255   0.91407   0.93474   0.94124   0.95943
 Alpha virt. eigenvalues --    0.96263   0.98052   0.99654   1.01011   1.02850
 Alpha virt. eigenvalues --    1.03483   1.04058   1.05477   1.08769   1.10430
 Alpha virt. eigenvalues --    1.12820   1.14191   1.14522   1.15714   1.17502
 Alpha virt. eigenvalues --    1.18585   1.22863   1.24806   1.26514   1.27335
 Alpha virt. eigenvalues --    1.32561   1.33308   1.35494   1.36110   1.39034
 Alpha virt. eigenvalues --    1.40822   1.43876   1.46325   1.48007   1.48737
 Alpha virt. eigenvalues --    1.52141   1.53051   1.55656   1.59902   1.62699
 Alpha virt. eigenvalues --    1.64392   1.65353   1.66905   1.67073   1.70061
 Alpha virt. eigenvalues --    1.71273   1.73220   1.74459   1.75322   1.77133
 Alpha virt. eigenvalues --    1.77977   1.78685   1.79591   1.80858   1.81195
 Alpha virt. eigenvalues --    1.82687   1.84971   1.86070   1.88460   1.90577
 Alpha virt. eigenvalues --    1.91823   1.92543   1.94182   1.97403   1.99689
 Alpha virt. eigenvalues --    2.00466   2.03298   2.03845   2.06154   2.06386
 Alpha virt. eigenvalues --    2.08386   2.10287   2.15143   2.17632   2.18863
 Alpha virt. eigenvalues --    2.21539   2.22882   2.25304   2.26032   2.29798
 Alpha virt. eigenvalues --    2.33058   2.34282   2.37671   2.38074   2.41090
 Alpha virt. eigenvalues --    2.44042   2.45934   2.46856   2.48827   2.50735
 Alpha virt. eigenvalues --    2.51810   2.54202   2.56496   2.58570   2.61927
 Alpha virt. eigenvalues --    2.64845   2.67443   2.67884   2.69235   2.72552
 Alpha virt. eigenvalues --    2.79269   2.80971   2.84727   2.87524   2.91461
 Alpha virt. eigenvalues --    2.94522   2.96951   3.02951   3.12276   3.14903
 Alpha virt. eigenvalues --    3.73411   3.77207   3.82558   3.85202   3.86729
 Alpha virt. eigenvalues --    4.02672   4.08317   4.22133   4.30929   4.36814
 Alpha virt. eigenvalues --    4.48525   4.55541   4.73751   4.78143
          Condensed to atoms (all electrons):
               1          2          3          4          5          6
     1  O    8.598865  -0.023798  -0.018859  -0.000222   0.107178   0.149172
     2  C   -0.023798   5.014397  -0.015059   0.279844   0.001421   0.305526
     3  C   -0.018859  -0.015059   5.108723   0.229477   0.295896  -0.019179
     4  C   -0.000222   0.279844   0.229477   5.133606  -0.036798  -0.028403
     5  C    0.107178   0.001421   0.295896  -0.036798   4.728143  -0.013221
     6  C    0.149172   0.305526  -0.019179  -0.028403  -0.013221   5.027343
     7  H   -0.000015  -0.050786  -0.050739   0.360779   0.001983   0.006616
     8  H   -0.040459  -0.051605   0.000067   0.006492   0.000163   0.361743
     9  H    0.002428   0.362207   0.005225  -0.042595   0.000451  -0.042190
    10  H    0.000420   0.002593   0.342099  -0.054803  -0.023240   0.001327
    11  C   -0.042918  -0.038132  -0.000396  -0.001675   0.000940   0.305722
    12  H    0.004989   0.006594  -0.000024  -0.000656  -0.000155  -0.046757
    13  H    0.004300  -0.010806  -0.000932   0.001878   0.000417  -0.029769
    14  H   -0.031119  -0.001797  -0.089777   0.004411   0.347662  -0.000411
    15  O   -0.045366   0.000260  -0.051073   0.004915   0.322899   0.001247
    16  O    0.002000   0.001010   0.000032  -0.002392   0.000003  -0.044592
    17  H   -0.000015  -0.002365   0.000004   0.000220  -0.000002  -0.001834
    18  O    0.000556   0.001499   0.217969  -0.040544  -0.044845   0.000089
    19  H   -0.000047   0.000207  -0.026803  -0.002378   0.007435  -0.000010
    20  O   -0.000242  -0.033556  -0.029989   0.170696   0.001932  -0.002622
    21  H    0.000037  -0.004707   0.006519  -0.025083  -0.000260  -0.001115
    22  O   -0.000203   0.231838   0.005616  -0.046543  -0.005493  -0.038185
    23  H   -0.000757  -0.048707  -0.009240  -0.003159   0.019597  -0.003590
    24  O   -0.000287  -0.000000  -0.000110   0.000001   0.004866   0.000004
    25  H    0.001754   0.000003   0.000073  -0.000001  -0.000594  -0.000032
    26  H    0.000003   0.000000   0.000007  -0.000000  -0.000022  -0.000000
    27  H    0.001949   0.000007   0.001109  -0.000025  -0.016214  -0.000075
    28  O   -0.087971  -0.000067  -0.000049   0.000001   0.004408   0.001392
    29  H    0.085462   0.001374   0.000193  -0.000033  -0.007211  -0.001792
    30  H    0.005405   0.000007   0.000004  -0.000001  -0.000137  -0.000015
               7          8          9         10         11         12
     1  O   -0.000015  -0.040459   0.002428   0.000420  -0.042918   0.004989
     2  C   -0.050786  -0.051605   0.362207   0.002593  -0.038132   0.006594
     3  C   -0.050739   0.000067   0.005225   0.342099  -0.000396  -0.000024
     4  C    0.360779   0.006492  -0.042595  -0.054803  -0.001675  -0.000656
     5  C    0.001983   0.000163   0.000451  -0.023240   0.000940  -0.000155
     6  C    0.006616   0.361743  -0.042190   0.001327   0.305722  -0.046757
     7  H    0.634183  -0.000205  -0.007447   0.004593   0.000065   0.000014
     8  H   -0.000205   0.636600  -0.001820   0.000029  -0.048770  -0.009965
     9  H   -0.007447  -0.001820   0.595001  -0.000322  -0.004399   0.000241
    10  H    0.004593   0.000029  -0.000322   0.588985  -0.000264  -0.000007
    11  C    0.000065  -0.048770  -0.004399  -0.000264   4.978350   0.351979
    12  H    0.000014  -0.009965   0.000241  -0.000007   0.351979   0.655287
    13  H    0.000204   0.005562  -0.000200   0.001326   0.366135  -0.040079
    14  H   -0.000078   0.000298  -0.000200   0.006658  -0.000127   0.000001
    15  O   -0.000122  -0.000128   0.000003   0.000645   0.000011   0.000011
    16  O   -0.000035   0.001209   0.013759   0.000004   0.224114  -0.037132
    17  H   -0.000002   0.006170   0.000586   0.000000  -0.036508  -0.007794
    18  O    0.002079   0.000004  -0.000123  -0.034973   0.000006   0.000000
    19  H    0.004679  -0.000001   0.000001  -0.005751   0.000001   0.000000
    20  O   -0.039331  -0.000189  -0.001387   0.004012  -0.008117   0.000883
    21  H   -0.005850  -0.000029   0.007252  -0.000111  -0.000328   0.000053
    22  O    0.006718   0.001085  -0.035985  -0.000058   0.003942  -0.000054
    23  H   -0.000191  -0.000494   0.005844   0.000592   0.000008   0.000001
    24  O   -0.000000   0.000000   0.000000  -0.000009  -0.000000   0.000000
    25  H    0.000000  -0.000002  -0.000000   0.000000   0.000000   0.000000
    26  H    0.000000  -0.000000  -0.000000  -0.000000  -0.000000   0.000000
    27  H    0.000000   0.000002   0.000000   0.000058   0.000002  -0.000000
    28  O    0.000000   0.000324   0.000001  -0.000001  -0.000053  -0.000044
    29  H    0.000002  -0.000745  -0.000014   0.000110  -0.000123   0.000582
    30  H    0.000000  -0.000042  -0.000000  -0.000000  -0.000009   0.000068
              13         14         15         16         17         18
     1  O    0.004300  -0.031119  -0.045366   0.002000  -0.000015   0.000556
     2  C   -0.010806  -0.001797   0.000260   0.001010  -0.002365   0.001499
     3  C   -0.000932  -0.089777  -0.051073   0.000032   0.000004   0.217969
     4  C    0.001878   0.004411   0.004915  -0.002392   0.000220  -0.040544
     5  C    0.000417   0.347662   0.322899   0.000003  -0.000002  -0.044845
     6  C   -0.029769  -0.000411   0.001247  -0.044592  -0.001834   0.000089
     7  H    0.000204  -0.000078  -0.000122  -0.000035  -0.000002   0.002079
     8  H    0.005562   0.000298  -0.000128   0.001209   0.006170   0.000004
     9  H   -0.000200  -0.000200   0.000003   0.013759   0.000586  -0.000123
    10  H    0.001326   0.006658   0.000645   0.000004   0.000000  -0.034973
    11  C    0.366135  -0.000127   0.000011   0.224114  -0.036508   0.000006
    12  H   -0.040079   0.000001   0.000011  -0.037132  -0.007794   0.000000
    13  H    0.521406   0.000029  -0.000058  -0.029717   0.007208   0.000006
    14  H    0.000029   0.637728  -0.050134   0.000002   0.000000   0.003339
    15  O   -0.000058  -0.050134   8.438073   0.000000  -0.000000  -0.001575
    16  O   -0.029717   0.000002   0.000000   8.248011   0.239082   0.000000
    17  H    0.007208   0.000000  -0.000000   0.239082   0.403339   0.000000
    18  O    0.000006   0.003339  -0.001575   0.000000   0.000000   8.280402
    19  H   -0.000000  -0.000472   0.000160   0.000000  -0.000000   0.238813
    20  O    0.015116  -0.000061  -0.000017  -0.000541  -0.000010   0.001120
    21  H   -0.002201   0.000010   0.000002   0.004170  -0.000088  -0.000170
    22  O   -0.000033  -0.010882   0.000291   0.000040  -0.000048  -0.000335
    23  H    0.000015   0.040370  -0.001700  -0.000002   0.000003   0.002604
    24  O   -0.000000   0.000436  -0.103697   0.000000  -0.000000   0.000000
    25  H   -0.000000  -0.000119   0.007579  -0.000000  -0.000000  -0.000001
    26  H    0.000000  -0.000057   0.005076   0.000000  -0.000000  -0.000000
    27  H    0.000000   0.000563   0.114877  -0.000000   0.000000  -0.000092
    28  O    0.000005   0.000166  -0.009064   0.000000  -0.000000  -0.000000
    29  H   -0.000049   0.002806   0.010893   0.000005   0.000000  -0.000013
    30  H   -0.000002  -0.000036   0.000988  -0.000000  -0.000000   0.000000
              19         20         21         22         23         24
     1  O   -0.000047  -0.000242   0.000037  -0.000203  -0.000757  -0.000287
     2  C    0.000207  -0.033556  -0.004707   0.231838  -0.048707  -0.000000
     3  C   -0.026803  -0.029989   0.006519   0.005616  -0.009240  -0.000110
     4  C   -0.002378   0.170696  -0.025083  -0.046543  -0.003159   0.000001
     5  C    0.007435   0.001932  -0.000260  -0.005493   0.019597   0.004866
     6  C   -0.000010  -0.002622  -0.001115  -0.038185  -0.003590   0.000004
     7  H    0.004679  -0.039331  -0.005850   0.006718  -0.000191  -0.000000
     8  H   -0.000001  -0.000189  -0.000029   0.001085  -0.000494   0.000000
     9  H    0.000001  -0.001387   0.007252  -0.035985   0.005844   0.000000
    10  H   -0.005751   0.004012  -0.000111  -0.000058   0.000592  -0.000009
    11  C    0.000001  -0.008117  -0.000328   0.003942   0.000008  -0.000000
    12  H    0.000000   0.000883   0.000053  -0.000054   0.000001   0.000000
    13  H   -0.000000   0.015116  -0.002201  -0.000033   0.000015  -0.000000
    14  H   -0.000472  -0.000061   0.000010  -0.010882   0.040370   0.000436
    15  O    0.000160  -0.000017   0.000002   0.000291  -0.001700  -0.103697
    16  O    0.000000  -0.000541   0.004170   0.000040  -0.000002   0.000000
    17  H   -0.000000  -0.000010  -0.000088  -0.000048   0.000003  -0.000000
    18  O    0.238813   0.001120  -0.000170  -0.000335   0.002604   0.000000
    19  H    0.383305   0.000236  -0.000089   0.000002  -0.000154  -0.000000
    20  O    0.000236   8.307745   0.237039   0.002132  -0.000029  -0.000000
    21  H   -0.000089   0.237039   0.379066   0.000019   0.000027   0.000000
    22  O    0.000002   0.002132   0.000019   8.296399   0.227525  -0.000000
    23  H   -0.000154  -0.000029   0.000027   0.227525   0.364109   0.000003
    24  O   -0.000000  -0.000000   0.000000  -0.000000   0.000003   8.520092
    25  H    0.000000   0.000000  -0.000000   0.000000  -0.000009   0.147261
    26  H    0.000000   0.000000  -0.000000   0.000000  -0.000000   0.226892
    27  H    0.000016   0.000000  -0.000000   0.000001   0.000009   0.159343
    28  O   -0.000000   0.000000   0.000000   0.000001  -0.000030  -0.143012
    29  H    0.000001  -0.000003  -0.000000  -0.000127   0.000302   0.002990
    30  H   -0.000000   0.000000  -0.000000  -0.000000  -0.000001   0.006877
              25         26         27         28         29         30
     1  O    0.001754   0.000003   0.001949  -0.087971   0.085462   0.005405
     2  C    0.000003   0.000000   0.000007  -0.000067   0.001374   0.000007
     3  C    0.000073   0.000007   0.001109  -0.000049   0.000193   0.000004
     4  C   -0.000001  -0.000000  -0.000025   0.000001  -0.000033  -0.000001
     5  C   -0.000594  -0.000022  -0.016214   0.004408  -0.007211  -0.000137
     6  C   -0.000032  -0.000000  -0.000075   0.001392  -0.001792  -0.000015
     7  H    0.000000   0.000000   0.000000   0.000000   0.000002   0.000000
     8  H   -0.000002  -0.000000   0.000002   0.000324  -0.000745  -0.000042
     9  H   -0.000000  -0.000000   0.000000   0.000001  -0.000014  -0.000000
    10  H    0.000000  -0.000000   0.000058  -0.000001   0.000110  -0.000000
    11  C    0.000000  -0.000000   0.000002  -0.000053  -0.000123  -0.000009
    12  H    0.000000   0.000000  -0.000000  -0.000044   0.000582   0.000068
    13  H   -0.000000   0.000000   0.000000   0.000005  -0.000049  -0.000002
    14  H   -0.000119  -0.000057   0.000563   0.000166   0.002806  -0.000036
    15  O    0.007579   0.005076   0.114877  -0.009064   0.010893   0.000988
    16  O   -0.000000   0.000000  -0.000000   0.000000   0.000005  -0.000000
    17  H   -0.000000  -0.000000   0.000000  -0.000000   0.000000  -0.000000
    18  O   -0.000001  -0.000000  -0.000092  -0.000000  -0.000013   0.000000
    19  H    0.000000   0.000000   0.000016  -0.000000   0.000001  -0.000000
    20  O    0.000000   0.000000   0.000000   0.000000  -0.000003   0.000000
    21  H   -0.000000  -0.000000  -0.000000   0.000000  -0.000000  -0.000000
    22  O    0.000000   0.000000   0.000001   0.000001  -0.000127  -0.000000
    23  H   -0.000009  -0.000000   0.000009  -0.000030   0.000302  -0.000001
    24  O    0.147261   0.226892   0.159343  -0.143012   0.002990   0.006877
    25  H    0.293242  -0.007353  -0.015053   0.114184  -0.003918  -0.002672
    26  H   -0.007353   0.384337  -0.008470   0.008201   0.000013  -0.000569
    27  H   -0.015053  -0.008470   0.280787   0.006859  -0.001965  -0.000295
    28  O    0.114184   0.008201   0.006859   8.587997   0.155228   0.225559
    29  H   -0.003918   0.000013  -0.001965   0.155228   0.245183  -0.008985
    30  H   -0.002672  -0.000569  -0.000295   0.225559  -0.008985   0.385541
 Mulliken charges:
               1
     1  O   -0.672244
     2  C    0.072600
     3  C    0.099216
     4  C    0.092991
     5  C    0.302797
     6  C    0.113613
     7  H    0.132884
     8  H    0.134703
     9  H    0.143684
    10  H    0.166085
    11  C   -0.049456
    12  H    0.121961
    13  H    0.190241
    14  H    0.140791
    15  O   -0.644996
    16  O   -0.619032
    17  H    0.392053
    18  O   -0.625815
    19  H    0.400848
    20  O   -0.624818
    21  H    0.405836
    22  O   -0.637664
    23  H    0.407054
    24  O   -0.821651
    25  H    0.465656
    26  H    0.391941
    27  H    0.476606
    28  O   -0.864035
    29  H    0.519835
    30  H    0.388317
 Sum of Mulliken charges =  -0.00000
 Mulliken charges with hydrogens summed into heavy atoms:
               1
     1  O   -0.152409
     2  C    0.216284
     3  C    0.265301
     4  C    0.225875
     5  C    0.443588
     6  C    0.248316
    11  C    0.262746
    15  O   -0.644996
    16  O   -0.226979
    18  O   -0.224967
    20  O   -0.218983
    22  O   -0.230610
    24  O    0.512552
    28  O   -0.475718
 APT charges:
               1
     1  O   -0.408784
     2  C   -0.371303
     3  C   -0.124570
     4  C   -0.398650
     5  C   -0.384492
     6  C   -0.380531
     7  H    0.516616
     8  H    0.421579
     9  H    0.559150
    10  H    0.398645
    11  C   -0.537505
    12  H    0.444482
    13  H    0.288144
    14  H    0.387772
    15  O   -0.287392
    16  O   -0.782104
    17  H    0.668443
    18  O   -0.927603
    19  H    0.766044
    20  O   -0.856819
    21  H    0.762162
    22  O   -0.455797
    23  H    0.309223
    24  O   -1.372169
    25  H    0.471881
    26  H    0.880926
    27  H    0.395378
    28  O   -1.100440
    29  H    0.362884
    30  H    0.754830
 Sum of APT charges =  -0.00000
 APT charges with hydrogens summed into heavy atoms:
               1
     1  O   -0.045900
     2  C    0.187847
     3  C    0.274075
     4  C    0.117966
     5  C    0.003281
     6  C    0.041048
    11  C    0.195121
    15  O   -0.287392
    16  O   -0.113662
    18  O   -0.161559
    20  O   -0.094657
    22  O   -0.146574
    24  O    0.376016
    28  O   -0.345611
 Electronic spatial extent (au):  <R**2>=           3184.3880
 Charge=              0.0000 electrons
 Dipole moment (field-independent basis, Debye):
    X=             -0.8470    Y=             -2.3259    Z=             -0.9308  Tot=              2.6445
 Quadrupole moment (field-independent basis, Debye-Ang):
   XX=            -78.6296   YY=            -71.8424   ZZ=            -89.2776
   XY=             -9.3862   XZ=             -8.5078   YZ=             -3.5761
 Traceless Quadrupole moment (field-independent basis, Debye-Ang):
   XX=              1.2869   YY=              8.0741   ZZ=             -9.3610
   XY=             -9.3862   XZ=             -8.5078   YZ=             -3.5761
 Octapole moment (field-independent basis, Debye-Ang**2):
  XXX=             34.6030  YYY=            -23.1059  ZZZ=            -16.2659  XYY=             -0.2253
  XXY=            -19.8888  XXZ=            -18.8719  XZZ=             24.6331  YZZ=             -4.1091
  YYZ=             -7.5791  XYZ=             18.9588
 Hexadecapole moment (field-independent basis, Debye-Ang**3):
 XXXX=          -1962.3725 YYYY=           -905.4861 ZZZZ=           -460.2119 XXXY=           -153.3229
 XXXZ=           -211.6690 YYYX=            -71.7374 YYYZ=            -49.4798 ZZZX=             11.9645
 ZZZY=             -6.6584 XXYY=           -476.8740 XXZZ=           -420.1393 YYZZ=           -253.0524
 XXYZ=            -12.8808 YYXZ=            -31.3745 ZZXY=              9.9417
 N-N= 1.120619925694D+03 E-N=-4.214568053265D+03  KE= 8.334007595349D+02
  Exact polarizability:   0.000   0.000   0.000   0.000   0.000   0.000
 Approx polarizability: 156.362   7.212 134.258  -8.395  -1.842 119.071
 Calling FoFJK, ICntrl=    100147 FMM=F ISym2X=0 I1Cent= 0 IOpClX= 0 NMat=1 NMatS=1 NMatT=0.
 ***** Axes restored to original set *****
 -------------------------------------------------------------------
 Center     Atomic                   Forces (Hartrees/Bohr)
 Number     Number              X              Y              Z
 -------------------------------------------------------------------
      1        8          -0.031964394   -0.075621589   -0.003905932
      2        6          -0.008897409    0.004290897    0.001491225
      3        6           0.017438448   -0.034561802   -0.021993456
      4        6           0.004106415   -0.007913156    0.003652516
      5        6          -0.036875799    0.040119599   -0.004098069
      6        6           0.011390724    0.043352133   -0.003230453
      7        1          -0.006487397    0.002832984    0.009782904
      8        1           0.007368960   -0.009004003    0.006234910
      9        1           0.002300604    0.005473828   -0.001484090
     10        1           0.006128667    0.009736630    0.000185507
     11        6           0.004631489    0.008809691   -0.009993421
     12        1          -0.004241985    0.006058169    0.002514677
     13        1           0.002288595   -0.003063643    0.006224673
     14        1           0.017633714    0.000863800    0.014034529
     15        8          -0.004343372   -0.007215204   -0.036640793
     16        8           0.002198098   -0.015225543   -0.007639683
     17        1           0.009714415    0.002206135    0.008925987
     18        8          -0.013063591    0.002628258    0.011751615
     19        1          -0.003793911   -0.011112243   -0.004392037
     20        8          -0.005392389    0.003167238   -0.016736914
     21        1           0.013058702   -0.005670790   -0.002062574
     22        8           0.009486668   -0.008237455    0.010966478
     23        1          -0.007743971    0.002642910    0.008098327
     24        8          -0.033519823    0.003128645    0.008223390
     25        1          -0.002983321   -0.029398269   -0.021209093
     26        1          -0.002732611    0.005789135   -0.007062753
     27        1           0.014384708    0.015879249    0.022196376
     28        8           0.034143275   -0.000578546    0.013323805
     29        1           0.000043518    0.045246034    0.013616154
     30        1           0.005722972    0.005376907   -0.000773804
 -------------------------------------------------------------------
 Cartesian Forces:  Max     0.075621589 RMS     0.016914944

 GradGradGradGradGradGradGradGradGradGradGradGradGradGradGradGradGradGrad
 Berny optimization.
 Search for a saddle point.
 Step number   1 out of a maximum of  180
 All quantities printed in internal units (Hartrees-Bohrs-Radians)
 Swapping is turned off.
 Second derivative matrix not updated -- analytic derivatives used.
 ITU=  0
     Eigenvalues ---   -0.11630  -0.02007  -0.01131  -0.00732  -0.00591
     Eigenvalues ---   -0.00482  -0.00391  -0.00264  -0.00197  -0.00185
     Eigenvalues ---   -0.00042  -0.00021   0.00160   0.00642   0.00788
     Eigenvalues ---    0.01014   0.01227   0.01364   0.01492   0.01771
     Eigenvalues ---    0.02140   0.02292   0.02584   0.02708   0.03131
     Eigenvalues ---    0.03553   0.03960   0.04209   0.04716   0.04785
     Eigenvalues ---    0.05052   0.05303   0.05689   0.05950   0.06041
     Eigenvalues ---    0.07101   0.07537   0.07861   0.08435   0.08479
     Eigenvalues ---    0.08665   0.09199   0.09998   0.10187   0.12027
     Eigenvalues ---    0.13361   0.14150   0.15314   0.15448   0.16732
     Eigenvalues ---    0.17156   0.18572   0.19394   0.20367   0.21530
     Eigenvalues ---    0.22444   0.24406   0.27374   0.29177   0.32175
     Eigenvalues ---    0.37288   0.40809   0.47924   0.52272   0.57571
     Eigenvalues ---    0.61097   0.66041   0.68563   0.70099   0.71161
     Eigenvalues ---    0.75917   0.78072   0.82516   0.86559   0.88688
     Eigenvalues ---    0.92154   0.98246   1.06003   1.08801   1.10986
     Eigenvalues ---    1.13057   1.14515   1.15245   1.21499
 Eigenvectors required to have negative eigenvalues:
                          X25       Y27       Y29       X27       X29
   1                    0.50469   0.43246  -0.39846  -0.27132   0.23293
                          Y1        X5        X1        Y24       Y28
   1                    0.18203  -0.17918   0.15833  -0.15752   0.14607
 RFO step:  Lambda0=8.916544617D-03 Lambda=-8.66310212D-02.
 Linear search not attempted -- option 19 set.
 Maximum step size (   0.300) exceeded in Quadratic search.
    -- Step size scaled by   0.258
 B after Tr=    -0.002318   -0.000621   -0.002587
         Rot=    1.000000    0.000094   -0.000002   -0.000179 Ang=   0.02 deg.
 Variable       Old X    -DE/DX   Delta X   Delta X   Delta X     New X
                                 (Linear)    (Quad)   (Total)
    X1        0.04433  -0.03196   0.00000  -0.04814  -0.05159  -0.00726
    Y1        3.22601  -0.07562   0.00000  -0.05744  -0.05804   3.16797
    Z1        0.21228  -0.00391   0.00000  -0.10738  -0.11056   0.10172
    X2        1.30884  -0.00890   0.00000  -0.00113  -0.00304   1.30580
    Y2       -1.16381   0.00429   0.00000   0.02846   0.02864  -1.13516
    Z2        1.81846   0.00149   0.00000   0.00199  -0.00039   1.81807
    X3       -2.56502   0.01744   0.00000  -0.00503  -0.00701  -2.57204
    Y3       -0.90833  -0.03456   0.00000  -0.02102  -0.02274  -0.93107
    Z3       -0.96237  -0.02199   0.00000  -0.00591  -0.00832  -0.97068
    X4       -0.24417   0.00411   0.00000   0.00594   0.00451  -0.23966
    Y4       -2.48631  -0.00791   0.00000   0.00305   0.00231  -2.48401
    Z4       -0.21364   0.00365   0.00000   0.00767   0.00555  -0.20809
    X5       -2.88210  -0.03688   0.00000  -0.03626  -0.03914  -2.92124
    Y5        1.56848   0.04012   0.00000   0.01427   0.01265   1.58113
    Z5        0.26878  -0.00410   0.00000  -0.04595  -0.04882   0.21996
    X6        2.07417   0.01139   0.00000  -0.00802  -0.01088   2.06329
    Y6        1.48320   0.04335   0.00000   0.03912   0.03941   1.52261
    Z6        0.96663  -0.00323   0.00000  -0.01063  -0.01351   0.95312
    X7       -0.86501  -0.00649   0.00000   0.00021  -0.00056  -0.86557
    Y7       -4.33560   0.00283   0.00000   0.01188   0.01105  -4.32456
    Z7        0.48475   0.00978   0.00000   0.02705   0.02528   0.51003
    X8        2.92119   0.00737   0.00000  -0.03120  -0.03442   2.88677
    Y8        2.50916  -0.00900   0.00000   0.03593   0.03682   2.54598
    Z8        2.55232   0.00623   0.00000   0.00397   0.00090   2.55321
    X9        3.00397   0.00230   0.00000   0.00554   0.00404   3.00801
    Y9       -2.28381   0.00547   0.00000   0.03662   0.03749  -2.24633
    Z9        2.22508  -0.00148   0.00000  -0.00141  -0.00358   2.22150
   X10       -2.53122   0.00613   0.00000  -0.00417  -0.00624  -2.53747
   Y10       -0.68690   0.00974   0.00000  -0.01279  -0.01488  -0.70178
   Z10       -3.02285   0.00019   0.00000  -0.00412  -0.00657  -3.02942
   X11        3.87313   0.00463   0.00000   0.02200   0.01912   3.89225
   Y11        1.55744   0.00881   0.00000   0.01022   0.01075   1.56820
   Z11       -1.27546  -0.00999   0.00000   0.00463   0.00174  -1.27372
   X12        4.43577  -0.00424   0.00000   0.02523   0.02165   4.45742
   Y12        3.51101   0.00606   0.00000   0.00763   0.00829   3.51930
   Z12       -1.66679   0.00251   0.00000   0.00011  -0.00315  -1.66994
   X13        2.97063   0.00229   0.00000   0.01995   0.01732   2.98795
   Y13        0.86375  -0.00306   0.00000  -0.00554  -0.00565   0.85810
   Z13       -3.00240   0.00622   0.00000   0.01480   0.01204  -2.99036
   X14       -3.54438   0.01763   0.00000   0.04247   0.03962  -3.50476
   Y14        1.43697   0.00086   0.00000   0.05836   0.05690   1.49387
   Z14        2.22663   0.01403   0.00000  -0.01143  -0.01429   2.21234
   X15       -4.49346  -0.00434   0.00000  -0.02574  -0.02911  -4.52257
   Y15        2.92742  -0.00722   0.00000  -0.01177  -0.01419   2.91323
   Z15       -0.91765  -0.03664   0.00000  -0.07786  -0.08098  -0.99862
   X16        6.06969   0.00220   0.00000   0.00596   0.00360   6.07329
   Y16        0.12482  -0.01523   0.00000  -0.01656  -0.01515   0.10967
   Z16       -0.80364  -0.00764   0.00000   0.02156   0.01893  -0.78471
   X17        6.84264   0.00971   0.00000   0.03325   0.03061   6.87325
   Y17        0.91122   0.00221   0.00000  -0.00155   0.00040   0.91162
   Z17        0.63213   0.00893   0.00000   0.00464   0.00186   0.63399
   X18       -4.79171  -0.01306   0.00000  -0.00286  -0.00437  -4.79608
   Y18       -2.23208   0.00263   0.00000  -0.01637  -0.01876  -2.25085
   Z18       -0.33856   0.01175   0.00000   0.02911   0.02696  -0.31160
   X19       -4.70173  -0.00379   0.00000  -0.03588  -0.03685  -4.73858
   Y19       -3.77267  -0.01111   0.00000  -0.00449  -0.00704  -3.77972
   Z19       -1.28507  -0.00439   0.00000  -0.00049  -0.00235  -1.28743
   X20        1.24595  -0.00539   0.00000   0.00059  -0.00067   1.24528
   Y20       -2.98100   0.00317   0.00000  -0.00105  -0.00167  -2.98267
   Z20       -2.36665  -0.01674   0.00000  -0.00155  -0.00359  -2.37024
   X21        2.64047   0.01306   0.00000   0.00221   0.00131   2.64177
   Y21       -3.96094  -0.00567   0.00000  -0.01379  -0.01380  -3.97474
   Z21       -1.75612  -0.00206   0.00000  -0.01051  -0.01236  -1.76848
   X22       -0.07145   0.00949   0.00000   0.01404   0.01211  -0.05934
   Y22       -1.05894  -0.00824   0.00000   0.02050   0.02063  -1.03831
   Z22        4.09526   0.01097   0.00000   0.01485   0.01246   4.10772
   X23       -1.54166  -0.00774   0.00000  -0.04787  -0.05012  -1.59179
   Y23       -0.07650   0.00264   0.00000  -0.06693  -0.06742  -0.14392
   Z23        3.70695   0.00810   0.00000   0.00805   0.00550   3.71245
   X24       -6.32912  -0.03352   0.00000  -0.01186  -0.01664  -6.34576
   Y24        6.89529   0.00313   0.00000  -0.00462  -0.00752   6.88777
   Z24       -0.08178   0.00822   0.00000   0.02582   0.02196  -0.05982
   X25       -4.34969  -0.00298   0.00000   0.04484   0.03978  -4.30990
   Y25        7.71230  -0.02940   0.00000  -0.04107  -0.04312   7.66918
   Z25        0.62466  -0.02121   0.00000  -0.00629  -0.01030   0.61436
   X26       -6.90261  -0.00273   0.00000  -0.01032  -0.01543  -6.91804
   Y26        7.77881   0.00579   0.00000  -0.00606  -0.00945   7.76937
   Z26       -1.55880  -0.00706   0.00000   0.01986   0.01583  -1.54297
   X27       -5.77351   0.01438   0.00000   0.01224   0.00820  -5.76530
   Y27        4.79270   0.01588   0.00000   0.02209   0.01929   4.81199
   Z27       -0.65407   0.02220   0.00000   0.02484   0.02136  -0.63270
   X28       -2.15532   0.03414   0.00000   0.03959   0.03472  -2.12060
   Y28        7.14372  -0.00058   0.00000   0.01486   0.01361   7.15733
   Z28        0.56303   0.01332   0.00000   0.08693   0.08301   0.64603
   X29       -1.17367   0.00004   0.00000   0.09364   0.08951  -1.08416
   Y29        5.09330   0.04525   0.00000  -0.01837  -0.01929   5.07401
   Z29        0.33239   0.01362   0.00000   0.09459   0.09106   0.42345
   X30       -0.97313   0.00572   0.00000  -0.01468  -0.02001  -0.99314
   Y30        8.41391   0.00538   0.00000   0.02145   0.02048   8.43439
   Z30        0.03373  -0.00077   0.00000  -0.02150  -0.02567   0.00806
         Item               Value     Threshold  Converged?
 Maximum Force            0.075622     0.000450     NO 
 RMS     Force            0.016915     0.000300     NO 
 Maximum Displacement     0.110561     0.001800     NO 
 RMS     Displacement     0.031513     0.001200     NO 
 Predicted change in Energy=-2.121217D-02
 GradGradGradGradGradGradGradGradGradGradGradGradGradGradGradGradGradGrad

                          Input orientation:                          
 ---------------------------------------------------------------------
 Center     Atomic      Atomic             Coordinates (Angstroms)
 Number     Number       Type             X           Y           Z
 ---------------------------------------------------------------------
      1          8           0       -0.003843    1.676416    0.053828
      2          6           0        0.690998   -0.600702    0.962080
      3          6           0       -1.361064   -0.492702   -0.513663
      4          6           0       -0.126820   -1.314479   -0.110118
      5          6           0       -1.545854    0.836697    0.116397
      6          6           0        1.091848    0.805730    0.504368
      7          1           0       -0.458040   -2.288456    0.269894
      8          1           0        1.527611    1.347275    1.351102
      9          1           0        1.591771   -1.188704    1.175565
     10          1           0       -1.342769   -0.371365   -1.603101
     11          6           0        2.059691    0.829853   -0.674022
     12          1           0        2.358764    1.862336   -0.883692
     13          1           0        1.581155    0.454085   -1.582429
     14          1           0       -1.854639    0.790522    1.170719
     15          8           0       -2.393240    1.541617   -0.528449
     16          8           0        3.213849    0.058034   -0.415249
     17          1           0        3.637165    0.482409    0.335493
     18          8           0       -2.537977   -1.191098   -0.164892
     19          1           0       -2.507547   -2.000140   -0.681276
     20          8           0        0.658973   -1.578362   -1.254276
     21          1           0        1.397966   -2.103342   -0.935840
     22          8           0       -0.031401   -0.549451    2.173712
     23          1           0       -0.842337   -0.076161    1.964544
     24          8           0       -3.358034    3.644849   -0.031654
     25          1           0       -2.280702    4.058355    0.325106
     26          1           0       -3.660869    4.111371   -0.816504
     27          1           0       -3.050868    2.546396   -0.334812
     28          8           0       -1.122174    3.787497    0.341866
     29          1           0       -0.573713    2.685051    0.224081
     30          1           0       -0.525547    4.463285    0.004263
 ---------------------------------------------------------------------
                    Distance matrix (angstroms):
                    1          2          3          4          5
     1  O    0.000000
     2  C    2.548136   0.000000
     3  C    2.620910   2.529909   0.000000
     4  C    2.997909   1.525750   1.536725   0.000000
     5  C    1.756941   2.790126   1.482708   2.586991   0.000000
     6  C    1.470245   1.532394   2.956195   2.521514   2.666262
     7  H    3.996648   2.155904   2.157348   1.096698   3.312625
     8  H    2.033864   2.155429   3.899654   3.457924   3.351324
     9  H    3.466005   1.096683   3.472339   2.149966   3.881852
    10  H    2.954919   3.281609   1.096326   2.144060   2.111238
    11  C    2.346190   2.568392   3.671026   3.113998   3.691173
    12  H    2.548612   3.500696   4.418172   4.107152   4.159105
    13  H    2.585276   2.894733   3.270370   2.865781   3.579188
    14  H    2.336172   2.908488   2.174263   3.009473   1.099580
    15  O    2.463014   4.040264   2.281240   3.670006   1.277028
    16  O    3.632181   2.948855   4.608994   3.624496   4.852189
    17  H    3.842125   3.200881   5.162770   4.194635   5.199731
    18  O    3.833056   3.470579   1.412276   2.414933   2.274947
    19  H    4.508434   3.858723   1.901286   2.542482   3.099803
    20  O    3.569880   2.422618   2.409920   1.412871   3.545774
    21  H    4.151034   2.521871   3.222521   1.905019   4.291516
    22  O    3.073947   1.411573   2.998868   2.410446   2.906462
    23  H    2.724965   1.905569   2.565949   2.519844   2.178048
    24  O    3.890068   5.950367   4.619475   5.919614   3.345390
    25  H    3.306253   5.562693   4.718197   5.804823   3.310988
    26  H    4.478875   6.656256   5.155415   6.513703   4.008377
    27  H    3.192533   5.058430   3.481887   4.848391   2.322009
    28  O    2.406302   4.788377   4.371396   5.217775   2.989576
    29  H    1.170932   3.597265   3.355935   4.038272   2.091188
    30  H    2.835713   5.295409   5.052538   5.792635   3.769050
                    6          7          8          9         10
     6  C    0.000000
     7  H    3.468590   0.000000
     8  H    1.095499   4.281397   0.000000
     9  H    2.162913   2.496281   2.542856   0.000000
    10  H    3.428460   2.822427   4.463196   4.123172   0.000000
    11  C    1.525092   4.117499   2.156841   2.777498   3.725969
    12  H    2.155969   5.147254   2.439346   3.760008   4.382729
    13  H    2.172049   3.887281   3.066962   3.210202   3.038278
    14  H    3.020934   3.498869   3.432510   3.974305   3.050584
    15  O    3.708650   4.364838   4.352419   5.122365   2.432666
    16  O    2.430562   4.411145   2.761438   2.591560   4.728440
    17  H    2.571321   4.944967   2.495931   2.771638   5.411730
    18  O    4.196530   2.391522   5.026985   4.341849   2.041795
    19  H    4.715327   2.277791   5.623010   4.572821   2.204399
    20  O    2.994011   2.018675   4.012714   2.631743   2.363364
    21  H    3.260461   2.220996   4.141699   2.309146   3.310078
    22  O    2.425884   2.613557   2.589358   2.009882   4.001964
    23  H    2.578937   2.813143   2.831807   2.790182   3.614646
    24  O    5.305598   6.610976   5.573184   7.022904   4.760326
    25  H    4.688902   6.603571   4.786007   6.576546   4.921393
    26  H    5.938037   7.238520   6.265705   7.723300   5.107567
    27  H    4.571240   5.519440   5.024208   6.147056   3.611022
    28  O    3.717424   6.112566   3.740936   5.729147   4.596487
    29  H    2.526758   4.975063   2.734115   4.538791   3.643037
    30  H    4.030358   6.757302   3.967235   6.148167   5.159971
                   11         12         13         14         15
    11  C    0.000000
    12  H    1.095183   0.000000
    13  H    1.093344   1.753875   0.000000
    14  H    4.327424   4.808550   4.415619   0.000000
    15  O    4.511806   4.776045   4.253166   1.934271   0.000000
    16  O    1.412356   2.050882   2.045692   5.361101   5.801145
    17  H    1.904800   2.241633   2.811832   5.563492   6.183373
    18  O    5.047971   5.815342   4.656532   2.485483   2.760589
    19  H    5.372949   6.216162   4.853121   3.412326   3.546894
    20  O    2.845734   3.855518   2.255869   4.220243   4.424601
    21  H    3.018288   4.080741   2.644252   4.836474   5.274935
    22  O    3.792721   4.569171   4.209040   2.475020   4.153616
    23  H    4.025501   4.702900   4.328451   1.551146   3.352241
    24  O    6.139103   6.048562   6.081239   3.442830   2.366689
    25  H    5.500954   5.273361   5.616350   3.402252   2.659923
    26  H    6.596474   6.426403   6.437484   4.270779   2.879843
    27  H    5.401795   5.480267   5.233541   2.603973   1.216368
    28  O    4.461384   4.162351   4.703460   3.194583   2.723424
    29  H    3.344124   3.240902   3.589449   2.475103   2.276933
    30  H    4.510582   3.984049   4.798903   4.076308   3.508305
                   16         17         18         19         20
    16  O    0.000000
    17  H    0.960679   0.000000
    18  O    5.891224   6.417429   0.000000
    19  H    6.086150   6.704801   0.960274   0.000000
    20  O    3.147880   3.955220   3.399591   3.245470   0.000000
    21  H    2.870538   3.649165   4.113174   3.915162   0.960790
    22  O    4.195641   4.231094   3.487650   4.048056   3.645048
    23  H    4.704686   4.799139   2.941561   3.670829   3.856338
    24  O    7.496802   7.685612   4.906794   5.745540   6.701722
    25  H    6.836723   6.914379   5.278546   6.145699   6.550474
    26  H    7.990763   8.231510   5.459090   6.220852   7.157216
    27  H    6.741298   7.031296   3.776346   4.591973   5.623340
    28  O    5.769161   5.794390   5.200742   6.038445   5.874742
    29  H    4.653557   4.753476   4.362816   5.148825   4.677792
    30  H    5.793558   5.769337   6.004210   6.795156   6.283987
                   21         22         23         24         25
    21  H    0.000000
    22  O    3.758588   0.000000
    23  H    4.188156   0.961962   0.000000
    24  O    7.515237   5.789843   4.915227   0.000000
    25  H    7.286226   5.450557   4.674492   1.207853   0.000000
    26  H    8.014282   6.621004   5.763139   0.961947   1.791911
    27  H    6.463236   4.999414   4.128250   1.180193   1.820623
    28  O    6.533424   4.832656   4.199910   2.271330   1.189888
    29  H    5.306754   3.815386   3.275006   2.956189   2.193167
    30  H    6.906829   5.484361   4.954758   2.948578   1.829611
                   26         27         28         29         30
    26  H    0.000000
    27  H    1.747363   0.000000
    28  O    2.809215   2.391252   0.000000
    29  H    3.556365   2.543203   1.236960   0.000000
    30  H    3.260022   3.188523   0.962615   1.792416   0.000000
 Stoichiometry    C6H16O8
 Framework group  C1[X(C6H16O8)]
 Deg. of freedom    84
 Full point group                 C1      NOp   1
 Largest Abelian subgroup         C1      NOp   1
 Largest concise Abelian subgroup C1      NOp   1
                         Standard orientation:                         
 ---------------------------------------------------------------------
 Center     Atomic      Atomic             Coordinates (Angstroms)
 Number     Number       Type             X           Y           Z
 ---------------------------------------------------------------------
      1          8           0        0.399697   -1.029650   -0.011882
      2          6           0       -1.615347    0.186628    0.964470
      3          6           0       -0.025984    1.511677   -0.491075
      4          6           0       -1.489408    1.297341   -0.073975
      5          6           0        1.000912    0.617692    0.096037
      6          6           0       -0.991573   -1.117195    0.455370
      7          1           0       -1.880309    2.233693    0.342183
      8          1           0       -0.948186   -1.838744    1.278537
      9          1           0       -2.676730    0.024041    1.187504
     10          1           0        0.025500    1.444139   -1.584107
     11          6           0       -1.717480   -1.737371   -0.733893
     12          1           0       -1.261410   -2.701816   -0.981421
     13          1           0       -1.619964   -1.109682   -1.623780
     14          1           0        1.216444    0.822301    1.154695
     15          8           0        2.093663    0.671414   -0.562607
     16          8           0       -3.089817   -1.931420   -0.462258
     17          1           0       -3.115959   -2.553845    0.269048
     18          8           0        0.399010    2.802252   -0.105950
     19          1           0       -0.166283    3.404918   -0.595198
     20          8           0       -2.268936    1.012246   -1.217331
     21          1           0       -3.165887    0.906093   -0.889722
     22          8           0       -1.023103    0.586845    2.181685
     23          1           0       -0.104909    0.775766    1.965814
     24          8           0        4.215480   -0.281704   -0.125943
     25          1           0        3.686403   -1.315951    0.204694
     26          1           0        4.740321   -0.405207   -0.922580
     27          1           0        3.254184    0.347676   -0.395474
     28          8           0        2.638916   -1.880253    0.217605
     29          1           0        1.496658   -1.413587    0.130772
     30          1           0        2.634133   -2.770261   -0.149125
 ---------------------------------------------------------------------
 Rotational constants (GHZ):      0.8512839      0.4666144      0.3668624
 Standard basis: 6-31G(d) (6D, 7F)
 There are   242 symmetry adapted cartesian basis functions of A   symmetry.
 There are   242 symmetry adapted basis functions of A   symmetry.
   242 basis functions,   456 primitive gaussians,   242 cartesian basis functions
    58 alpha electrons       58 beta electrons
       nuclear repulsion energy      1118.9754561358 Hartrees.
 NAtoms=   30 NActive=   30 NUniq=   30 SFac= 1.00D+00 NAtFMM=   60 NAOKFM=F Big=F
 Integral buffers will be    131072 words long.
 Raffenetti 2 integral format.
 Two-electron integral symmetry is turned on.
 One-electron integrals computed using PRISM.
 NBasis=   242 RedAO= T EigKep=  1.55D-03  NBF=   242
 NBsUse=   242 1.00D-06 EigRej= -1.00D+00 NBFU=   242
 Initial guess from the checkpoint file:  "/scratch/10451470.yak.local/Gau-27895.chk"
 B after Tr=     0.000000    0.000000    0.000000
         Rot=    0.999996   -0.002444   -0.000529    0.001401 Ang=  -0.33 deg.
 ExpMin= 1.61D-01 ExpMax= 5.48D+03 ExpMxC= 8.25D+02 IAcc=1 IRadAn=         1 AccDes= 0.00D+00
 Harris functional with IExCor=  402 and IRadAn=       1 diagonalized for initial guess.
 HarFok:  IExCor=  402 AccDes= 0.00D+00 IRadAn=         1 IDoV= 1 UseB2=F ITyADJ=14
 ICtDFT=  3500011 ScaDFX=  1.000000  1.000000  1.000000  1.000000
 FoFCou: FMM=F IPFlag=           0 FMFlag=      100000 FMFlg1=           0
         NFxFlg=           0 DoJE=T BraDBF=F KetDBF=T FulRan=T
         wScrn=  0.000000 ICntrl=     500 IOpCl=  0 I1Cent=   200000004 NGrid=           0
         NMat0=    1 NMatS0=      1 NMatT0=    0 NMatD0=    1 NMtDS0=    0 NMtDT0=    0
 Petite list used in FoFCou.
 Requested convergence on RMS density matrix=1.00D-08 within 128 cycles.
 Requested convergence on MAX density matrix=1.00D-06.
 Requested convergence on             energy=1.00D-06.
 No special actions if energy rises.
 Integral accuracy reduced to 1.0D-05 until final iterations.
 Initial convergence to 1.0D-05 achieved.  Increase integral accuracy.
 SCF Done:  E(RB3LYP) =  -839.881124388     A.U. after   12 cycles
            NFock= 12  Conv=0.79D-08     -V/T= 2.0079
 Calling FoFJK, ICntrl=      2127 FMM=F ISym2X=0 I1Cent= 0 IOpClX= 0 NMat=1 NMatS=1 NMatT=0.
 ***** Axes restored to original set *****
 -------------------------------------------------------------------
 Center     Atomic                   Forces (Hartrees/Bohr)
 Number     Number              X              Y              Z
 -------------------------------------------------------------------
      1        8          -0.028440219   -0.059922273   -0.002548037
      2        6          -0.006466834    0.004121138    0.000963139
      3        6           0.012519582   -0.027208158   -0.017094853
      4        6           0.003293317   -0.006181197    0.002788734
      5        6          -0.029550306    0.030520404   -0.004286366
      6        6           0.007180328    0.033400981   -0.003786179
      7        1          -0.005088157    0.002645693    0.009055618
      8        1           0.004550420   -0.005660064    0.004882405
      9        1           0.002194719    0.005681140   -0.001405662
     10        1           0.005076021    0.007399516   -0.000205967
     11        6           0.003783237    0.007610673   -0.007532755
     12        1          -0.002890193    0.005682043    0.001660134
     13        1           0.002178719   -0.002527301    0.005310850
     14        1           0.014836885    0.002097518    0.009615714
     15        8          -0.004861073   -0.004923239   -0.031712495
     16        8           0.001676428   -0.011558093   -0.005333036
     17        1           0.008426223    0.001127411    0.006762759
     18        8          -0.010396782    0.000323687    0.008667143
     19        1          -0.004341498   -0.009269495   -0.003194461
     20        8          -0.004188981    0.001829444   -0.013335782
     21        1           0.010775584   -0.004151209   -0.002561554
     22        8           0.006267710   -0.005307988    0.008489188
     23        1          -0.005123284    0.000007705    0.008181613
     24        8          -0.026087311    0.003037246    0.007184478
     25        1          -0.000841270   -0.026044233   -0.017805670
     26        1          -0.002113388    0.004142407   -0.005787570
     27        1           0.011416009    0.013323909    0.018130937
     28        8           0.030415266    0.001141138    0.014141813
     29        1           0.002937493    0.034820980    0.011713213
     30        1           0.002861356    0.003840218   -0.000957350
 -------------------------------------------------------------------
 Cartesian Forces:  Max     0.059922273 RMS     0.013621882

 GradGradGradGradGradGradGradGradGradGradGradGradGradGradGradGradGradGrad
 Berny optimization.
 Search for a saddle point.
 Step number   2 out of a maximum of  180
 All quantities printed in internal units (Hartrees-Bohrs-Radians)
 Swapping is turned off.
 Update second derivatives using D2CorN and points    1    2
 ITU=  0  0
     Eigenvalues ---   -0.11647  -0.01662  -0.00960  -0.00700  -0.00581
     Eigenvalues ---   -0.00482  -0.00386  -0.00260  -0.00196  -0.00182
     Eigenvalues ---   -0.00040  -0.00021   0.00185   0.00652   0.00802
     Eigenvalues ---    0.01016   0.01222   0.01363   0.01489   0.01769
     Eigenvalues ---    0.02141   0.02301   0.02591   0.02706   0.03147
     Eigenvalues ---    0.03553   0.03957   0.04214   0.04712   0.04799
     Eigenvalues ---    0.05060   0.05331   0.05689   0.05952   0.06057
     Eigenvalues ---    0.07099   0.07553   0.07860   0.08440   0.08478
     Eigenvalues ---    0.08672   0.09277   0.09985   0.10197   0.12028
     Eigenvalues ---    0.13410   0.14152   0.15311   0.15444   0.16739
     Eigenvalues ---    0.17166   0.18572   0.19421   0.20430   0.21529
     Eigenvalues ---    0.22502   0.24419   0.27367   0.29181   0.32176
     Eigenvalues ---    0.37300   0.40816   0.47933   0.52280   0.57578
     Eigenvalues ---    0.61084   0.66044   0.68563   0.70122   0.71160
     Eigenvalues ---    0.75917   0.78073   0.82509   0.86558   0.88688
     Eigenvalues ---    0.92162   0.98247   1.05981   1.08772   1.10976
     Eigenvalues ---    1.13061   1.14539   1.15255   1.21489
 Eigenvectors required to have negative eigenvalues:
                          X25       Y27       Y29       X27       X29
   1                    0.50477   0.43256  -0.39964  -0.27168   0.23146
                          Y1        X5        X1        Y24       Y28
   1                    0.18546  -0.18009   0.16065  -0.15773   0.14580
 RFO step:  Lambda0=5.341554671D-03 Lambda=-6.76070425D-02.
 Linear search not attempted -- option 19 set.
 Maximum step size (   0.300) exceeded in Quadratic search.
    -- Step size scaled by   0.264
 B after Tr=    -0.002046   -0.000214   -0.002564
         Rot=    1.000000   -0.000288    0.000112   -0.000022 Ang=  -0.04 deg.
 Variable       Old X    -DE/DX   Delta X   Delta X   Delta X     New X
                                 (Linear)    (Quad)   (Total)
    X1       -0.00726  -0.02844   0.00000  -0.03307  -0.03526  -0.04252
    Y1        3.16797  -0.05992   0.00000  -0.03619  -0.03641   3.13156
    Z1        0.10172  -0.00255   0.00000  -0.09830  -0.09907   0.00265
    X2        1.30580  -0.00647   0.00000  -0.00116  -0.00357   1.30223
    Y2       -1.13516   0.00412   0.00000   0.02955   0.02835  -1.10682
    Z2        1.81807   0.00096   0.00000  -0.00060  -0.00351   1.81456
    X3       -2.57204   0.01252   0.00000  -0.00689  -0.00868  -2.58071
    Y3       -0.93107  -0.02721   0.00000  -0.01905  -0.01882  -0.94989
    Z3       -0.97068  -0.01709   0.00000  -0.00640  -0.01009  -0.98078
    X4       -0.23966   0.00329   0.00000   0.00360   0.00170  -0.23795
    Y4       -2.48401  -0.00618   0.00000   0.00350   0.00339  -2.48061
    Z4       -0.20809   0.00279   0.00000   0.00849   0.00445  -0.20364
    X5       -2.92124  -0.02955   0.00000  -0.03212  -0.03428  -2.95552
    Y5        1.58113   0.03052   0.00000   0.01451   0.01407   1.59520
    Z5        0.21996  -0.00429   0.00000  -0.04927  -0.05157   0.16838
    X6        2.06329   0.00718   0.00000  -0.00783  -0.01015   2.05314
    Y6        1.52261   0.03340   0.00000   0.03587   0.03520   1.55781
    Z6        0.95312  -0.00379   0.00000  -0.01480  -0.01600   0.93712
    X7       -0.86557  -0.00509   0.00000  -0.00095  -0.00293  -0.86850
    Y7       -4.32456   0.00265   0.00000   0.01382   0.01326  -4.31129
    Z7        0.51003   0.00906   0.00000   0.03257   0.02733   0.53735
    X8        2.88677   0.00455   0.00000  -0.02706  -0.02979   2.85698
    Y8        2.54598  -0.00566   0.00000   0.03421   0.03265   2.57863
    Z8        2.55321   0.00488   0.00000  -0.00248  -0.00292   2.55030
    X9        3.00801   0.00219   0.00000   0.00555   0.00311   3.01112
    Y9       -2.24633   0.00568   0.00000   0.03855   0.03719  -2.20914
    Z9        2.22150  -0.00141   0.00000  -0.00291  -0.00607   2.21543
   X10       -2.53747   0.00508   0.00000  -0.00452  -0.00586  -2.54332
   Y10       -0.70178   0.00740   0.00000  -0.01727  -0.01585  -0.71762
   Z10       -3.02942  -0.00021   0.00000  -0.00575  -0.00930  -3.03872
   X11        3.89225   0.00378   0.00000   0.02178   0.01995   3.91220
   Y11        1.56820   0.00761   0.00000   0.00683   0.00751   1.57571
   Z11       -1.27372  -0.00753   0.00000   0.00088   0.00010  -1.27362
   X12        4.45742  -0.00289   0.00000   0.02913   0.02731   4.48472
   Y12        3.51930   0.00568   0.00000   0.00335   0.00429   3.52360
[...]
    Y6        1.45192   0.00016   0.00000  -0.01092  -0.01282   1.43910
    Z6        1.05810   0.00021   0.00000   0.01709   0.01610   1.07420
    X7       -0.75020   0.00020   0.00000  -0.01478  -0.01772  -0.76792
    Y7       -4.45922   0.00052   0.00000   0.01075   0.00989  -4.44933
    Z7       -0.87015   0.00014   0.00000  -0.02021  -0.02041  -0.89056
    X8        1.12786  -0.00063   0.00000  -0.03228  -0.03089   1.09697
    Y8        1.93399  -0.00022   0.00000  -0.03842  -0.04012   1.89387
    Z8        3.06491  -0.00088   0.00000   0.02454   0.02365   3.08856
    X9        3.24367  -0.00115   0.00000   0.00052  -0.00096   3.24271
    Y9       -2.14338   0.00077   0.00000   0.00519   0.00239  -2.14099
    Z9        0.25292   0.00058   0.00000  -0.06082  -0.06232   0.19060
   X10       -4.55535   0.00437   0.00000   0.00091  -0.00098  -4.55633
   Y10       -1.60704   0.00047   0.00000   0.00495   0.00591  -1.60113
   Z10       -1.99401   0.00476   0.00000   0.04118   0.04212  -1.95189
   X11        3.96677  -0.00204   0.00000  -0.01150  -0.01066   3.95611
   Y11        2.57922  -0.00031   0.00000   0.02358   0.02044   2.59966
   Z11        0.20513   0.00152   0.00000   0.05097   0.04917   0.25430
   X12        3.86890  -0.00057   0.00000  -0.01890  -0.01701   3.85189
   Y12        4.65506   0.00037   0.00000   0.02702   0.02393   4.67899
   Z12        0.24968   0.00001   0.00000   0.09612   0.09431   0.34399
   X13        4.34144   0.00068   0.00000   0.00068   0.00065   4.34209
   Y13        2.00153  -0.00038   0.00000   0.06761   0.06425   2.06577
   Z13       -1.74230  -0.00106   0.00000   0.03825   0.03634  -1.70596
   X14       -3.24402  -0.00040   0.00000  -0.03078  -0.02968  -3.27370
   Y14        1.74089   0.00004   0.00000  -0.00434  -0.00393   1.73697
   Z14        2.39825  -0.00091   0.00000   0.01434   0.01482   2.41307
   X15       -5.06641   0.00052   0.00000  -0.00449  -0.00390  -5.07031
   Y15        2.78526  -0.00024   0.00000   0.00712   0.00835   2.79362
   Z15       -0.88246  -0.00047   0.00000   0.01326   0.01429  -0.86817
   X16        5.99879   0.00218   0.00000  -0.01476  -0.01391   5.98488
   Y16        1.64981  -0.00008   0.00000   0.00256  -0.00154   1.64827
   Z16        1.67931   0.00148   0.00000   0.03859   0.03617   1.71548
   X17        5.74403  -0.00053   0.00000  -0.01984  -0.01821   5.72582
   Y17        2.18407  -0.00090   0.00000  -0.02910  -0.03305   2.15102
   Z17        3.42036  -0.00288   0.00000   0.03754   0.03519   3.45555
   X18       -4.21417  -0.00148   0.00000   0.01645   0.01524  -4.19893
   Y18       -2.64916  -0.00470   0.00000  -0.01778  -0.01693  -2.66609
   Z18        1.85224  -0.00529   0.00000   0.00505   0.00590   1.85814
   X19       -4.94438   0.00348   0.00000   0.07639   0.07424  -4.87015
   Y19       -4.25730   0.00679   0.00000  -0.01431  -0.01314  -4.27044
   Z19        1.30753   0.00187   0.00000   0.03028   0.03136   1.33889
   X20       -0.07587   0.00423   0.00000  -0.03806  -0.04049  -0.11636
   Y20       -1.67825  -0.00294   0.00000   0.02095   0.01972  -1.65852
   Z20       -3.57087   0.00003   0.00000  -0.00599  -0.00644  -3.57731
   X21        1.40350  -0.00381   0.00000  -0.04976  -0.05282   1.35067
   Y21       -2.63971   0.00249   0.00000   0.03058   0.02863  -2.61108
   Z21       -4.10355   0.00217   0.00000  -0.01931  -0.02020  -4.12375
   X22        0.96932   0.00280   0.00000   0.05351   0.05274   1.02206
   Y22       -2.60581  -0.00171   0.00000  -0.04063  -0.04229  -2.64810
   Z22        3.29672  -0.00226   0.00000  -0.04101  -0.04181   3.25491
   X23       -0.82705  -0.00204   0.00000   0.05448   0.05361  -0.77344
   Y23       -2.97631   0.00314   0.00000   0.00389   0.00311  -2.97320
   Z23        3.45994  -0.00070   0.00000  -0.01523  -0.01545   3.44449
   X24       -5.03776   0.00207   0.00000   0.02797   0.03101  -5.00675
   Y24        7.33518  -0.00078   0.00000   0.02166   0.02288   7.35806
   Z24       -0.09991   0.00380   0.00000  -0.00942  -0.00849  -0.10840
   X25       -2.65674  -0.00066   0.00000   0.04224   0.04511  -2.61164
   Y25        7.42534   0.00067   0.00000   0.02113   0.02117   7.44651
   Z25       -0.75424   0.00006   0.00000  -0.06636  -0.06618  -0.82042
   X26       -6.09253  -0.00281   0.00000  -0.02618  -0.02320  -6.11573
   Y26        8.07207   0.00120   0.00000  -0.01540  -0.01366   8.05841
   Z26       -1.39475  -0.00264   0.00000  -0.00698  -0.00571  -1.40046
   X27       -5.24868  -0.00065   0.00000   0.00415   0.00613  -5.24255
   Y27        5.25864  -0.00059   0.00000   0.02526   0.02659   5.28522
   Z27       -0.28876  -0.00029   0.00000   0.01316   0.01420  -0.27456
   X28       -0.60178   0.00346   0.00000   0.02420   0.02671  -0.57507
   Y28        7.01946   0.00242   0.00000  -0.00335  -0.00431   7.01515
   Z28       -1.19846  -0.00470   0.00000  -0.08861  -0.08907  -1.28753
   X29       -0.47918  -0.00085   0.00000   0.00277   0.00432  -0.47486
   Y29        4.78629   0.00012   0.00000  -0.00729  -0.00829   4.77800
   Z29       -0.85682   0.00080   0.00000  -0.01891  -0.01936  -0.87618
   X30       -0.31120  -0.00147   0.00000   0.01373   0.01581  -0.29539
   Y30        7.33934  -0.00166   0.00000  -0.04668  -0.04781   7.29153
   Z30       -2.99180   0.00488   0.00000  -0.08643  -0.08698  -3.07878
         Item               Value     Threshold  Converged?
 Maximum Force            0.006789     0.000450     NO 
 RMS     Force            0.002171     0.000300     NO 
 Maximum Displacement     0.094313     0.001800     NO 
 RMS     Displacement     0.031580     0.001200     NO 
 Predicted change in Energy=-7.781217D-04
 GradGradGradGradGradGradGradGradGradGradGradGradGradGradGradGradGradGrad

                          Input orientation:                          
 ---------------------------------------------------------------------
 Center     Atomic      Atomic             Coordinates (Angstroms)
 Number     Number       Type             X           Y           Z
 ---------------------------------------------------------------------
      1          8           0       -0.287744    1.323721   -0.228496
      2          6           0        0.731973   -0.792550    0.449940
      3          6           0       -1.740002   -0.710143   -0.183361
      4          6           0       -0.346020   -1.256966   -0.552114
      5          6           0       -1.802136    0.791050    0.180127
      6          6           0        0.754503    0.761538    0.568445
      7          1           0       -0.406365   -2.354485   -0.471266
      8          1           0        0.580492    1.002193    1.634396
      9          1           0        1.715968   -1.132961    0.100862
     10          1           0       -2.411104   -0.847280   -1.032894
     11          6           0        2.093483    1.375682    0.134572
     12          1           0        2.038334    2.476014    0.182032
     13          1           0        2.297738    1.093161   -0.902757
     14          1           0       -1.732366    0.919163    1.276940
     15          8           0       -2.683090    1.478318   -0.459416
     16          8           0        3.167062    0.872227    0.907793
     17          1           0        3.029973    1.138270    1.828596
     18          8           0       -2.221978   -1.410833    0.983287
     19          1           0       -2.577171   -2.259820    0.708512
     20          8           0       -0.061577   -0.877654   -1.893029
     21          1           0        0.714745   -1.381724   -2.182196
     22          8           0        0.540853   -1.401312    1.722426
     23          1           0       -0.409285   -1.573349    1.822743
     24          8           0       -2.649458    3.893715   -0.057363
     25          1           0       -1.382019    3.940524   -0.434149
     26          1           0       -3.236306    4.264325   -0.741090
     27          1           0       -2.774236    2.796819   -0.145292
     28          8           0       -0.304313    3.712255   -0.681330
     29          1           0       -0.251286    2.528407   -0.463656
     30          1           0       -0.156312    3.858509   -1.629219
 ---------------------------------------------------------------------
                    Distance matrix (angstroms):
                    1          2          3          4          5
     1  O    0.000000
     2  C    2.445138   0.000000
     3  C    2.499539   2.553140   0.000000
     4  C    2.601552   1.543329   1.542135   0.000000
     5  C    1.656531   3.000382   1.545821   2.617407   0.000000
     6  C    1.427391   1.558762   2.992259   2.557570   2.586129
     7  H    3.688117   2.141045   2.136665   1.102145   3.502410
     8  H    2.080284   2.155687   3.408963   3.277660   2.799356
     9  H    3.187260   1.098171   3.493320   2.166460   4.010630
    10  H    3.141490   3.475734   1.091279   2.159528   2.127531
    11  C    2.409307   2.579612   4.375769   3.654251   3.939507
    12  H    2.628108   3.530136   4.955899   4.489906   4.193842
    13  H    2.681884   2.799520   4.480265   3.554645   4.251220
    14  H    2.125309   3.112372   2.187961   3.162741   1.106472
    15  O    2.411412   4.200766   2.398955   3.598927   1.287414
    16  O    3.664790   2.985091   5.270084   4.359649   5.022849
    17  H    3.908103   3.302962   5.497023   4.775172   5.117351
    18  O    3.561947   3.064729   1.443722   2.429063   2.381096
    19  H    4.354449   3.629074   1.974281   2.751895   3.191814
    20  O    2.769092   2.475170   2.401694   1.422265   3.179951
    21  H    3.484446   2.697325   3.236070   1.948834   4.078751
    22  O    3.452314   1.423495   3.051563   2.445590   3.560159
    23  H    3.551812   1.948514   2.557418   2.396675   3.198219
    24  O    3.494546   5.801079   4.694518   5.663932   3.225041
    25  H    2.843833   5.258570   4.671161   5.301048   3.236205
    26  H    4.195702   6.537413   5.224492   6.234911   3.868995
    27  H    2.891295   5.052859   3.656484   4.742880   2.252552
    28  O    2.431137   4.758879   4.676193   4.971076   3.393968
    29  H    1.227965   3.581928   3.575339   3.787592   2.416196
    30  H    2.899043   5.171490   5.046896   5.231083   3.923236
                    6          7          8          9         10
     6  C    0.000000
     7  H    3.483994   0.000000
     8  H    1.106547   4.083502   0.000000
     9  H    2.175357   2.514706   2.863550   0.000000
    10  H    3.895337   2.570227   4.414140   4.289491   0.000000
    11  C    1.535671   4.531051   2.162893   2.537114   5.157116
    12  H    2.176457   5.453171   2.531167   3.624254   5.684877
    13  H    2.157772   4.402796   3.065020   2.510244   5.094647
    14  H    2.590623   3.940973   2.341790   4.181552   2.986024
    15  O    3.658869   4.458026   3.906625   5.146300   2.410656
    16  O    2.438821   5.008279   2.689830   2.603381   6.151333
    17  H    2.628245   5.412682   2.460932   3.141682   6.460329
    18  O    3.708198   2.510509   3.755061   4.045158   2.101986
    19  H    4.499809   2.472496   4.633447   4.479966   2.248409
    20  O    3.067864   2.078778   4.048308   2.683365   2.502205
    21  H    3.487288   2.265046   4.501940   2.505331   3.373049
    22  O    2.460740   2.572556   2.405443   2.020489   4.075879
    23  H    2.894714   2.423358   2.765602   2.770472   3.562179
    24  O    4.667882   6.651525   4.653550   6.659539   4.846185
    25  H    3.959276   6.370275   4.094400   5.968585   4.933617
    26  H    5.469090   7.203472   5.554492   7.373235   5.186001
    27  H    4.135673   5.678821   4.200259   5.972077   3.768178
    28  O    3.374872   6.071233   3.672860   5.307493   5.035030
    29  H    2.280059   4.885359   2.724519   4.194566   4.047729
    30  H    3.905194   6.324925   4.399159   5.604765   5.252061
                   11         12         13         14         15
    11  C    0.000000
    12  H    1.102735   0.000000
    13  H    1.094344   1.776610   0.000000
    14  H    4.018773   4.223835   4.585094   0.000000
    15  O    4.814459   4.868131   5.015331   2.057053   0.000000
    16  O    1.415594   2.091145   2.020551   4.913539   6.038285
    17  H    1.950153   2.341812   2.828161   4.799188   6.163581
    18  O    5.206553   5.822358   5.500452   2.398923   3.262087
    19  H    5.946536   6.633867   6.132161   3.338074   3.917774
    20  O    3.719270   4.467952   3.229724   4.008589   3.805020
    21  H    3.856374   4.714192   3.204354   4.821624   4.763728
    22  O    3.555789   4.432710   4.025000   3.278808   4.842161
    23  H    4.220256   5.008005   4.676174   2.874206   4.437468
    24  O    5.373344   4.903323   5.747394   3.386649   2.448861
    25  H    4.356715   3.771376   4.676288   3.489870   2.784938
    26  H    6.125169   5.645532   6.380286   4.186214   2.854333
    27  H    5.078646   4.834345   5.403807   2.575623   1.358464
    28  O    3.445968   2.785979   3.698561   3.698043   3.270825
    29  H    2.680409   2.379499   2.958084   2.795164   2.648845
    30  H    3.786419   3.163605   3.767925   4.423739   3.663107
                   16         17         18         19         20
    16  O    0.000000
    17  H    0.968221   0.000000
    18  O    5.853189   5.898768   0.000000
    19  H    6.545659   6.651441   0.960439   0.000000
    20  O    4.618527   5.241386   3.636592   3.873836   0.000000
    21  H    4.543367   5.272296   4.318041   4.468105   0.969733
    22  O    3.567854   3.557593   2.860010   3.389268   3.702520
    23  H    4.428119   4.379658   2.004235   2.532289   3.796295
    24  O    6.625166   6.588267   5.422539   6.201434   5.729987
    25  H    5.648839   5.695464   5.599257   6.417034   5.204491
    26  H    7.431571   7.459340   6.017454   6.715673   6.151894
    27  H    6.333409   6.351053   4.391243   5.131999   4.890281
    28  O    4.758310   4.903325   5.717903   6.539360   4.753356
    29  H    4.038428   4.237164   4.636257   5.450765   3.698695
    30  H    5.138007   5.432182   6.233629   6.982800   4.744450
                   21         22         23         24         25
    21  H    0.000000
    22  O    3.908541   0.000000
    23  H    4.164097   0.970785   0.000000
    24  O    6.607802   6.432966   6.200159   0.000000
    25  H    5.981505   6.073175   6.036768   1.323088   0.000000
    26  H    7.040274   7.241221   6.974505   0.974281   1.907208
    27  H    5.812245   5.665906   5.344580   1.107467   1.824765
    28  O    5.407375   5.713223   5.849702   2.433509   1.129006
    29  H    4.379009   4.566084   4.698615   2.789332   1.809282
    30  H    5.340840   6.275769   6.440895   2.947499   1.713848
                   26         27         28         29         30
    26  H    0.000000
    27  H    1.649865   0.000000
    28  O    2.984114   2.688100   0.000000
    29  H    3.464206   2.557085   1.204861   0.000000
    30  H    3.231071   3.191043   0.970458   1.771082   0.000000
 Stoichiometry    C6H16O8
 Framework group  C1[X(C6H16O8)]
 Deg. of freedom    84
 Full point group                 C1      NOp   1
 Largest Abelian subgroup         C1      NOp   1
 Largest concise Abelian subgroup C1      NOp   1
                         Standard orientation:                         
 ---------------------------------------------------------------------
 Center     Atomic      Atomic             Coordinates (Angstroms)
 Number     Number       Type             X           Y           Z
 ---------------------------------------------------------------------
      1          8           0        0.525676   -0.460807   -0.196530
      2          6           0       -1.863051   -0.009152    0.065565
      3          6           0       -0.220776    1.924542   -0.221292
      4          6           0       -1.408237    1.157136   -0.837088
      5          6           0        0.929224    1.054917    0.336218
      6          6           0       -0.677162   -0.971372    0.377880
      7          1           0       -2.249280    1.867463   -0.890060
      8          1           0       -0.578512   -1.008149    1.479407
      9          1           0       -2.649356   -0.576003   -0.450560
     10          1           0        0.222687    2.564818   -0.985672
     11          6           0       -0.908344   -2.396219   -0.146195
     12          1           0       -0.020025   -3.019937    0.048459
     13          1           0       -1.062966   -2.358936   -1.228918
     14          1           0        0.789630    0.891543    1.421622
     15          8           0        2.106329    1.357107   -0.088683
     16          8           0       -2.079288   -2.966608    0.408289
     17          1           0       -1.956216   -3.044113    1.365524
     18          8           0       -0.697579    2.699924    0.899322
     19          1           0       -1.104438    3.504096    0.567337
     20          8           0       -1.035381    0.738277   -2.144136
     21          1           0       -1.838224    0.434041   -2.594985
     22          8           0       -2.458944    0.476309    1.263722
     23          1           0       -2.050072    1.333403    1.465308
     24          8           0        3.910764   -0.143316    0.611078
     25          1           0        3.265925   -1.169309    0.079962
     26          1           0        4.673127    0.117918    0.063554
     27          1           0        3.138948    0.622545    0.400749
     28          8           0        2.493775   -1.881414   -0.333977
     29          1           0        1.493020   -1.212764   -0.278400
     30          1           0        2.693012   -2.061492   -1.266535
 ---------------------------------------------------------------------
 Rotational constants (GHZ):      0.6942995      0.5387869      0.3734556
 Standard basis: 6-31G(d) (6D, 7F)
 There are   242 symmetry adapted cartesian basis functions of A   symmetry.
 There are   242 symmetry adapted basis functions of A   symmetry.
   242 basis functions,   456 primitive gaussians,   242 cartesian basis functions
    58 alpha electrons       58 beta electrons
       nuclear repulsion energy      1111.2222695341 Hartrees.
 NAtoms=   30 NActive=   30 NUniq=   30 SFac= 1.00D+00 NAtFMM=   60 NAOKFM=F Big=F
 Integral buffers will be    131072 words long.
 Raffenetti 2 integral format.
 Two-electron integral symmetry is turned on.
 One-electron integrals computed using PRISM.
 NBasis=   242 RedAO= T EigKep=  1.72D-03  NBF=   242
 NBsUse=   242 1.00D-06 EigRej= -1.00D+00 NBFU=   242
 Initial guess from the checkpoint file:  "/scratch/10451470.yak.local/Gau-27895.chk"
 B after Tr=    -0.000000   -0.000000    0.000000
         Rot=    0.999986   -0.001237    0.002791   -0.004274 Ang=  -0.60 deg.
 ExpMin= 1.61D-01 ExpMax= 5.48D+03 ExpMxC= 8.25D+02 IAcc=1 IRadAn=         1 AccDes= 0.00D+00
 Harris functional with IExCor=  402 and IRadAn=       1 diagonalized for initial guess.
 HarFok:  IExCor=  402 AccDes= 0.00D+00 IRadAn=         1 IDoV= 1 UseB2=F ITyADJ=14
 ICtDFT=  3500011 ScaDFX=  1.000000  1.000000  1.000000  1.000000
 FoFCou: FMM=F IPFlag=           0 FMFlag=      100000 FMFlg1=           0
         NFxFlg=           0 DoJE=T BraDBF=F KetDBF=T FulRan=T
         wScrn=  0.000000 ICntrl=     500 IOpCl=  0 I1Cent=   200000004 NGrid=           0
         NMat0=    1 NMatS0=      1 NMatT0=    0 NMatD0=    1 NMtDS0=    0 NMtDT0=    0
 Petite list used in FoFCou.
 Requested convergence on RMS density matrix=1.00D-08 within 128 cycles.
 Requested convergence on MAX density matrix=1.00D-06.
 Requested convergence on             energy=1.00D-06.
 No special actions if energy rises.
 Integral accuracy reduced to 1.0D-05 until final iterations.
 Initial convergence to 1.0D-05 achieved.  Increase integral accuracy.
 SCF Done:  E(RB3LYP) =  -839.945762529     A.U. after   11 cycles
            NFock= 11  Conv=0.53D-08     -V/T= 2.0086
