 Entering Gaussian System, Link 0=g09
 Initial command:
 /global/software/gaussian/g09.e01/l1.exe "/scratch/10460707.yak.local/Gau-7402.inp" -scrdir="/scratch/10460707.yak.local/"
 Entering Link 1 = /global/software/gaussian/g09.e01/l1.exe PID=      7403.
  
 Copyright (c) 1988,1990,1992,1993,1995,1998,2003,2009,2015,
            Gaussian, Inc.  All Rights Reserved.
  
 This is part of the Gaussian(R) 09 program.  It is based on
 the Gaussian(R) 03 system (copyright 2003, Gaussian, Inc.),
 the Gaussian(R) 98 system (copyright 1998, Gaussian, Inc.),
 the Gaussian(R) 94 system (copyright 1995, Gaussian, Inc.),
 the Gaussian 92(TM) system (copyright 1992, Gaussian, Inc.),
 the Gaussian 90(TM) system (copyright 1990, Gaussian, Inc.),
 the Gaussian 88(TM) system (copyright 1988, Gaussian, Inc.),
 the Gaussian 86(TM) system (copyright 1986, Carnegie Mellon
 University), and the Gaussian 82(TM) system (copyright 1983,
 Carnegie Mellon University). Gaussian is a federally registered
 trademark of Gaussian, Inc.
  
 This software contains proprietary and confidential information,
 including trade secrets, belonging to Gaussian, Inc.
  
 This software is provided under written license and may be
 used, copied, transmitted, or stored only in accord with that
 written license.
  
 The following legend is applicable only to US Government
 contracts under FAR:
  
                    RESTRICTED RIGHTS LEGEND
  
 Use, reproduction and disclosure by the US Government is
 subject to restrictions as set forth in subparagraphs (a)
 and (c) of the Commercial Computer Software - Restricted
 Rights clause in FAR 52.227-19.
  
 Gaussian, Inc.
 340 Quinnipiac St., Bldg. 40, Wallingford CT 06492
  
  
 ---------------------------------------------------------------
 Warning -- This program may not be used in any manner that
 competes with the business of Gaussian, Inc. or will provide
 assistance to any competitor of Gaussian, Inc.  The licensee
 of this program is prohibited from giving any competitor of
 Gaussian, Inc. access to this program.  By using this program,
 the user acknowledges that Gaussian, Inc. is engaged in the
 business of creating and licensing software in the field of
 computational chemistry and represents and warrants to the
 licensee that it is not a competitor of Gaussian, Inc. and that
 it will not use this program in any manner prohibited above.
 ---------------------------------------------------------------
  

 Cite this work as:
 Gaussian 09, Revision E.01,
 M. J. Frisch, G. W. Trucks, H. B. Schlegel, G. E. Scuseria, 
 M. A. Robb, J. R. Cheeseman, G. Scalmani, V. Barone, B. Mennucci, 
 G. A. Petersson, H. Nakatsuji, M. Caricato, X. Li, H. P. Hratchian, 
 A. F. Izmaylov, J. Bloino, G. Zheng, J. L. Sonnenberg, M. Hada, 
 M. Ehara, K. Toyota, R. Fukuda, J. Hasegawa, M. Ishida, T. Nakajima, 
 Y. Honda, O. Kitao, H. Nakai, T. Vreven, J. A. Montgomery, Jr., 
 J. E. Peralta, F. Ogliaro, M. Bearpark, J. J. Heyd, E. Brothers, 
 K. N. Kudin, V. N. Staroverov, T. Keith, R. Kobayashi, J. Normand, 
 K. Raghavachari, A. Rendell, J. C. Burant, S. S. Iyengar, J. Tomasi, 
 M. Cossi, N. Rega, J. M. Millam, M. Klene, J. E. Knox, J. B. Cross, 
 V. Bakken, C. Adamo, J. Jaramillo, R. Gomperts, R. E. Stratmann, 
 O. Yazyev, A. J. Austin, R. Cammi, C. Pomelli, J. W. Ochterski, 
 R. L. Martin, K. Morokuma, V. G. Zakrzewski, G. A. Voth, 
 P. Salvador, J. J. Dannenberg, S. Dapprich, A. D. Daniels, 
 O. Farkas, J. B. Foresman, J. V. Ortiz, J. Cioslowski, 
 and D. J. Fox, Gaussian, Inc., Wallingford CT, 2013.
 
 ******************************************
 Gaussian 09:  ES64L-G09RevE.01 30-Nov-2015
                13-Jan-2017 
 ******************************************
 %NPROCS=4
 Will use up to    4 processors via shared memory.
 ----------------------------------------------------------------------
 # opt=(calcfc,ts,noeigentest,maxcycle=1000,cartesian) b3lyp 6-31g(d) f
 req
 ----------------------------------------------------------------------
 1/5=1,6=1000,10=4,11=1,14=-1,18=10,26=3,38=1/1,3;
 2/12=2,17=6,18=5,29=2,40=1/2;
 3/5=1,6=6,7=1,11=2,16=1,25=1,30=1,71=2,74=-5,140=1/1,2,3;
 4//1;
 5/5=2,38=5/2;
 8/6=4,10=90,11=11/1;
 11/6=1,8=1,9=11,15=111,16=1/1,2,10;
 10/6=1,13=1/2;
 6/7=2,8=2,9=2,10=2,28=1/1;
 7/7=1,10=1,18=20,25=1/1,2,3,16;
 1/5=1,6=1000,10=4,11=1,14=-1,18=10,26=3/3(2);
 2/29=1/2;
 99/12=1/99;
 2/29=1/2;
 3/5=1,6=6,7=1,11=2,16=1,25=1,30=1,71=1,74=-5/1,2,3;
 4/5=5,16=3,69=1/1;
 5/5=2,38=5/2;
 7/7=1/1,2,3,16;
 1/5=1,6=1000,11=1,14=-1,18=10,26=3/3(-5);
 2/29=1/2;
 6/7=2,8=2,9=2,10=2,19=2,28=1/1;
 99/9=1,12=1/99;
 -------------------------
 boat5_Alpha_B3LYP_6-31G_d
 -------------------------
 Symbolic Z-matrix:
 Charge =  0 Multiplicity = 1
 O                    -0.13418  -1.41676  -1.07458 
 C                    -0.46059  -0.0233    1.05039 
 C                     1.29061   0.77391  -0.58771 
 C                     0.21908   1.19207   0.43193 
 C                     1.47022  -0.6867   -0.82699 
 C                    -1.04763  -0.92667  -0.03055 
 H                     0.70935   1.75001   1.2394 
 H                    -1.35822  -1.87147   0.43142 
 H                    -1.29891   0.34143   1.65583 
 H                     1.03472   1.24278  -1.54735 
 C                    -2.22374  -0.35729  -0.8275 
 H                    -2.66652  -1.13766  -1.45745 
 H                    -1.8977    0.42542  -1.51882 
 O                    -3.23207   0.1728    0.02419 
 H                    -3.71199  -0.58253   0.40955 
 O                     2.58905   1.2717   -0.24602 
 H                     3.06477   0.54043   0.1872 
 O                    -0.6871    2.11615  -0.17616 
 H                    -1.468     2.20543   0.40313 
 O                     0.35593  -0.71679   1.99192 
 H                    -0.15597  -1.48059   2.33917 
 H                     2.05612  -0.86235  -1.737 
 O                     2.1257   -1.39898   0.21999 
 H                     1.6509   -2.41474   0.64754 
 O                     0.70766  -3.10254   0.36962 
 H                     0.14327  -3.06527   1.1453 
 H                     0.06791  -2.5855   -0.5041 
 O                     1.04781   3.07484  -0.61712 
 H                     0.43817   3.18609   0.11606 
 H                     1.56623   2.27778  -0.4847 
 

 GradGradGradGradGradGradGradGradGradGradGradGradGradGradGradGradGradGrad
 Berny optimization.
 Initialization pass.
 No Z-matrix variables, so optimization will use Cartesian coordinates.
 Trust Radius=3.00D-01 FncErr=1.00D-07 GrdErr=1.00D-06
 Number of steps in this run=    180 maximum allowed number of steps=    180.
 Search for a saddle point of order  1.
 GradGradGradGradGradGradGradGradGradGradGradGradGradGradGradGradGradGrad

 ---------------------------------------------------------------------------------------------------
                            Z-MATRIX (ANGSTROMS AND DEGREES)
   CD    Cent   Atom    N1       Length/X        N2       Alpha/Y        N3        Beta/Z          J
 ---------------------------------------------------------------------------------------------------
      1      1  O        0  -0.134179         -1.416760         -1.074580
      2      2  C        0  -0.460586         -0.023297          1.050390
      3      3  C        0   1.290608          0.773912         -0.587710
      4      4  C        0   0.219084          1.192073          0.431930
      5      5  C        0   1.470224         -0.686701         -0.826985
      6      6  C        0  -1.047625         -0.926668         -0.030545
      7      7  H        0   0.709349          1.750014          1.239399
      8      8  H        0  -1.358221         -1.871468          0.431419
      9      9  H        0  -1.298905          0.341429          1.655826
     10     10  H        0   1.034723          1.242779         -1.547347
     11     11  C        0  -2.223738         -0.357293         -0.827497
     12     12  H        0  -2.666520         -1.137662         -1.457447
     13     13  H        0  -1.897696          0.425422         -1.518824
     14     14  O        0  -3.232070          0.172799          0.024187
     15     15  H        0  -3.711993         -0.582534          0.409546
     16     16  O        0   2.589051          1.271700         -0.246018
     17     17  H        0   3.064768          0.540426          0.187198
     18     18  O        0  -0.687100          2.116154         -0.176156
     19     19  H        0  -1.468002          2.205432          0.403131
     20     20  O        0   0.355928         -0.716785          1.991920
     21     21  H        0  -0.155970         -1.480588          2.339167
     22     22  H        0   2.056121         -0.862353         -1.737002
     23     23  O        0   2.125696         -1.398983          0.219990
     24     24  H        0   1.650899         -2.414745          0.647537
     25     25  O        0   0.707659         -3.102540          0.369624
     26     26  H        0   0.143267         -3.065269          1.145300
     27     27  H        0   0.067908         -2.585499         -0.504096
     28     28  O        0   1.047810          3.074839         -0.617124
     29     29  H        0   0.438172          3.186094          0.116063
     30     30  H        0   1.566232          2.277780         -0.484703
 ---------------------------------------------------------------------------------------------------
                         Z-Matrix orientation:                         
 ---------------------------------------------------------------------
 Center     Atomic      Atomic             Coordinates (Angstroms)
 Number     Number       Type             X           Y           Z
 ---------------------------------------------------------------------
      1          8           0       -0.134179   -1.416760   -1.074580
      2          6           0       -0.460586   -0.023297    1.050390
      3          6           0        1.290608    0.773912   -0.587710
      4          6           0        0.219084    1.192073    0.431930
      5          6           0        1.470224   -0.686701   -0.826985
      6          6           0       -1.047625   -0.926668   -0.030545
      7          1           0        0.709349    1.750014    1.239399
      8          1           0       -1.358221   -1.871468    0.431419
      9          1           0       -1.298905    0.341429    1.655826
     10          1           0        1.034723    1.242779   -1.547347
     11          6           0       -2.223738   -0.357293   -0.827497
     12          1           0       -2.666520   -1.137662   -1.457447
     13          1           0       -1.897696    0.425422   -1.518824
     14          8           0       -3.232070    0.172799    0.024187
     15          1           0       -3.711993   -0.582534    0.409546
     16          8           0        2.589051    1.271700   -0.246018
     17          1           0        3.064768    0.540426    0.187198
     18          8           0       -0.687100    2.116154   -0.176156
     19          1           0       -1.468002    2.205432    0.403131
     20          8           0        0.355928   -0.716785    1.991920
     21          1           0       -0.155970   -1.480588    2.339167
     22          1           0        2.056121   -0.862353   -1.737002
     23          8           0        2.125696   -1.398983    0.219990
     24          1           0        1.650899   -2.414745    0.647537
     25          8           0        0.707659   -3.102540    0.369624
     26          1           0        0.143267   -3.065269    1.145300
     27          1           0        0.067908   -2.585499   -0.504096
     28          8           0        1.047810    3.074839   -0.617124
     29          1           0        0.438172    3.186094    0.116063
     30          1           0        1.566232    2.277780   -0.484703
 ---------------------------------------------------------------------
                    Distance matrix (angstroms):
                    1          2          3          4          5
     1  O    0.000000
     2  C    2.561987   0.000000
     3  C    2.658215   2.526973   0.000000
     4  C    3.033212   1.523669   1.537104   0.000000
     5  C    1.780000   2.773566   1.490941   2.584572   0.000000
     6  C    1.471252   1.526144   2.944442   2.511473   2.651691
     7  H    4.011795   2.132863   2.151503   1.097116   3.284274
     8  H    1.993256   2.145835   3.879814   3.445747   3.314718
     9  H    3.450063   1.096520   3.453415   2.127394   3.858689
    10  H    2.943296   3.253788   1.098279   2.141349   2.105107
    11  C    2.355796   2.597444   3.699696   3.155007   3.708621
    12  H    2.576283   3.520966   4.479891   4.162225   4.208741
    13  H    2.588625   2.977834   3.339716   2.978918   3.613633
    14  O    3.651152   2.961869   4.603300   3.621552   4.855389
    15  H    3.962236   3.360815   5.278303   4.313131   5.328718
    16  O    3.915395   3.557805   1.431957   2.466313   2.329084
    17  H    3.956757   3.673010   1.950036   2.929583   2.253215
    18  O    3.687054   2.476484   2.425349   1.429987   3.596335
    19  H    4.133157   2.530032   3.262046   1.968244   4.302417
    20  O    3.183330   1.426219   3.122546   2.469015   3.031301
    21  H    3.414413   1.969120   3.967614   3.304744   3.646818
    22  H    2.354482   3.848036   2.141085   3.507084   1.096476
    23  O    2.604470   3.044820   2.463985   3.223920   1.425884
    24  H    2.673605   3.215538   3.438484   3.886607   2.278814
    25  O    2.374083   3.363030   4.035244   4.322764   2.801724
    26  H    2.778925   3.102780   4.365665   4.317361   3.362783
    27  H    1.316146   3.043125   3.575979   3.894746   2.382474
    28  O    4.666994   3.828095   2.313889   2.309136   3.790997
    29  H    4.788683   3.461347   2.653406   2.030736   4.117403
    30  H    4.109620   3.429206   1.532383   1.958005   2.985720
                    6          7          8          9         10
     6  C    0.000000
     7  H    3.444465   0.000000
     8  H    1.096598   4.247683   0.000000
     9  H    2.124867   2.488093   2.529744   0.000000
    10  H    3.367991   2.851159   4.397753   4.064304   0.000000
    11  C    1.530543   4.161226   2.150980   2.740515   3.700808
    12  H    2.168269   5.196936   2.412039   3.708173   4.401566
    13  H    2.183058   4.019829   3.061076   3.231719   3.044334
    14  O    2.446145   4.415782   2.802887   2.535312   4.671199
    15  H    2.722309   5.067317   2.683668   2.868783   5.449083
    16  O    4.254957   2.443057   5.091108   4.427032   2.027370
    17  H    4.371676   2.849250   5.043779   4.608482   2.760984
    18  O    3.067564   2.021862   4.089093   2.622997   2.368042
    19  H    3.189803   2.376469   4.078476   2.252187   3.315825
    20  O    2.470704   2.603131   2.589742   1.992799   4.102081
    21  H    2.591797   3.520661   2.288602   2.256768   4.892797
    22  H    3.542509   4.182968   4.168704   4.921034   2.347510
    23  O    3.218045   3.600197   3.522162   4.101043   3.360448
    24  H    3.155345   4.310688   3.065397   4.161068   4.309834
    25  O    2.824106   4.929887   2.405663   4.188261   4.760624
    26  H    2.715594   4.849356   2.046767   3.734446   5.157938
    27  H    2.054357   4.716767   1.849019   3.885916   4.083971
    28  O    4.554886   2.305731   5.599499   4.259684   2.054734
    29  H    4.375374   1.843297   5.376375   3.671570   2.626648
    30  H    4.160168   1.996325   5.158291   4.066980   1.575735
                   11         12         13         14         15
    11  C    0.000000
    12  H    1.096298   0.000000
    13  H    1.094020   1.743011   0.000000
    14  O    1.422356   2.057278   2.055543   0.000000
    15  H    1.948310   2.210621   2.833065   0.974349   0.000000
    16  O    5.114164   5.907082   4.739949   5.930096   6.600841
    17  H    5.459286   6.194231   5.248789   6.309666   6.872770
    18  O    2.983864   4.018349   2.475252   3.208370   4.095844
    19  H    2.941622   4.009298   2.654616   2.717928   3.578867
    20  O    3.838362   4.605482   4.325365   4.187728   4.366911
    21  H    3.945278   4.564508   4.642260   4.189894   4.144302
    22  H    4.404484   4.738912   4.163969   5.669065   6.160934
    23  O    4.593465   5.084036   4.747590   5.586993   5.897553
    24  H    4.628352   4.970111   5.035096   5.561235   5.672235
    25  O    4.190772   4.310918   4.775000   5.135040   5.087764
    26  H    4.102167   4.287758   4.842315   4.809873   4.644173
    27  H    3.212651   3.237623   3.736163   4.333260   4.374272
    28  O    4.746242   5.678693   4.063063   5.210613   6.089840
    29  H    4.531187   5.550668   3.968683   4.749638   5.613605
    30  H    4.628713   5.525184   4.061949   5.264372   6.069657
                   16         17         18         19         20
    16  O    0.000000
    17  H    0.974035   0.000000
    18  O    3.383955   4.085518   0.000000
    19  H    4.213422   4.833723   0.976397   0.000000
    20  O    3.734873   3.489328   3.716720   3.793458   0.000000
    21  H    4.668341   4.369052   4.421029   4.365364   0.982860
    22  H    2.657297   2.586059   4.339701   5.139155   4.100818
    23  O    2.750347   2.155049   4.519396   5.093134   2.595614
    24  H    3.907485   3.308167   5.164664   5.579723   2.523368
    25  O    4.801315   4.342861   5.429364   5.736653   2.906438
    26  H    5.169809   4.738582   5.411368   5.561231   2.505468
    27  H    4.615274   4.385255   4.773167   5.112250   3.131316
    28  O    2.400928   3.337410   2.030626   2.850631   4.654270
    29  H    2.902118   3.728757   1.580000   2.162777   4.331058
    30  H    1.454416   2.390703   2.280094   3.162287   4.070125
                   21         22         23         24         25
    21  H    0.000000
    22  H    4.678751   0.000000
    23  O    3.115055   2.030426   0.000000
    24  H    2.645569   2.874048   1.200000   0.000000
    25  O    2.693637   3.357776   2.221559   1.200000   0.000000
    26  H    2.006508   4.101160   2.750043   1.715781   0.960000
    27  H    3.058609   2.905561   2.483267   1.965013   1.200000
    28  O    5.562433   4.215721   4.677359   5.665564   6.264933
    29  H    5.203183   4.737249   4.886867   5.755220   6.299510
    30  H    5.006551   3.415945   3.785258   4.827932   5.514967
                   26         27         28         29         30
    26  H    0.000000
    27  H    1.719408   0.000000
    28  O    6.451765   5.745643   0.000000
    29  H    6.342384   5.816612   0.960000   0.000000
    30  H    5.764540   5.088893   0.960000   1.567952   0.000000
 Stoichiometry    C6H16O8
 Framework group  C1[X(C6H16O8)]
 Deg. of freedom    84
 Full point group                 C1      NOp   1
 Largest Abelian subgroup         C1      NOp   1
 Largest concise Abelian subgroup C1      NOp   1
                         Standard orientation:                         
 ---------------------------------------------------------------------
 Center     Atomic      Atomic             Coordinates (Angstroms)
 Number     Number       Type             X           Y           Z
 ---------------------------------------------------------------------
      1          8           0       -1.223565   -0.350525   -1.253639
      2          6           0       -0.407692    0.460372    1.035592
      3          6           0        1.306845   -0.609342   -0.481534
      4          6           0        1.047167    0.468679    0.582950
      5          6           0        0.143591   -1.437481   -0.910406
      6          6           0       -1.348540    0.620401   -0.155337
      7          1           0        1.672331    0.248763    1.457290
      8          1           0       -2.374417    0.423178    0.178142
      9          1           0       -0.555663    1.333123    1.682715
     10          1           0        1.707144   -0.105521   -1.371557
     11          6           0       -1.314233    1.972377   -0.871957
     12          1           0       -2.131917    2.035376   -1.599482
     13          1           0       -0.395971    2.094038   -1.454085
     14          8           0       -1.426729    3.057415    0.040805
     15          1           0       -2.358198    3.102883    0.323035
     16          8           0        2.315560   -1.541247   -0.075891
     17          1           0        1.851146   -2.329627    0.258058
     18          8           0        1.496930    1.737455    0.100472
     19          1           0        1.138508    2.432124    0.685554
     20          8           0       -0.737175   -0.641681    1.878812
     21          1           0       -1.686720   -0.569676    2.122110
     22          1           0        0.372877   -1.980575   -1.834927
     23          8           0       -0.290679   -2.412854    0.034688
     24          1           0       -1.452139   -2.496519    0.324533
     25          8           0       -2.466404   -1.970585   -0.042429
     26          1           0       -2.790788   -1.503088    0.730760
     27          1           0       -2.215417   -1.111137   -0.841400
     28          8           0        3.205580    0.684664   -0.208704
     29          1           0        2.929387    1.229300    0.532032
     30          1           0        2.738868   -0.153812   -0.181534
 ---------------------------------------------------------------------
 Rotational constants (GHZ):      0.7391775      0.6896083      0.4474870
 Standard basis: 6-31G(d) (6D, 7F)
 There are   242 symmetry adapted cartesian basis functions of A   symmetry.
 There are   242 symmetry adapted basis functions of A   symmetry.
   242 basis functions,   456 primitive gaussians,   242 cartesian basis functions
    58 alpha electrons       58 beta electrons
       nuclear repulsion energy      1169.5491834773 Hartrees.
 NAtoms=   30 NActive=   30 NUniq=   30 SFac= 1.00D+00 NAtFMM=   60 NAOKFM=F Big=F
 Integral buffers will be    131072 words long.
 Raffenetti 2 integral format.
 Two-electron integral symmetry is turned on.
 One-electron integrals computed using PRISM.
 NBasis=   242 RedAO= T EigKep=  1.28D-03  NBF=   242
 NBsUse=   242 1.00D-06 EigRej= -1.00D+00 NBFU=   242
 ExpMin= 1.61D-01 ExpMax= 5.48D+03 ExpMxC= 8.25D+02 IAcc=1 IRadAn=         1 AccDes= 0.00D+00
 Harris functional with IExCor=  402 and IRadAn=       1 diagonalized for initial guess.
 HarFok:  IExCor=  402 AccDes= 0.00D+00 IRadAn=         1 IDoV= 1 UseB2=F ITyADJ=14
 ICtDFT=  3500011 ScaDFX=  1.000000  1.000000  1.000000  1.000000
 FoFCou: FMM=F IPFlag=           0 FMFlag=      100000 FMFlg1=           0
         NFxFlg=           0 DoJE=T BraDBF=F KetDBF=T FulRan=T
         wScrn=  0.000000 ICntrl=     500 IOpCl=  0 I1Cent=   200000004 NGrid=           0
         NMat0=    1 NMatS0=      1 NMatT0=    0 NMatD0=    1 NMtDS0=    0 NMtDT0=    0
 Petite list used in FoFCou.
 Requested convergence on RMS density matrix=1.00D-08 within 128 cycles.
 Requested convergence on MAX density matrix=1.00D-06.
 Requested convergence on             energy=1.00D-06.
 No special actions if energy rises.
 Integral accuracy reduced to 1.0D-05 until final iterations.
 Initial convergence to 1.0D-05 achieved.  Increase integral accuracy.
 SCF Done:  E(RB3LYP) =  -839.736375428     A.U. after   15 cycles
            NFock= 15  Conv=0.72D-08     -V/T= 2.0076
 DoSCS=F DFT=T ScalE2(SS,OS)=  1.000000  1.000000
 Range of M.O.s used for correlation:     1   242
 NBasis=   242 NAE=    58 NBE=    58 NFC=     0 NFV=     0
 NROrb=    242 NOA=    58 NOB=    58 NVA=   184 NVB=   184
 Symmetrizing basis deriv contribution to polar:
 IMax=3 JMax=2 DiffMx= 0.00D+00
 G2DrvN: will do    31 centers at a time, making    1 passes.
 Calling FoFCou, ICntrl=  3107 FMM=F I1Cent=   0 AccDes= 0.00D+00.
 End of G2Drv F.D. properties file   721 does not exist.
 End of G2Drv F.D. properties file   722 does not exist.
 End of G2Drv F.D. properties file   788 does not exist.
          IDoAtm=111111111111111111111111111111
          Differentiating once with respect to nuclear coordinates.
          There are    93 degrees of freedom in the 1st order CPHF.  IDoFFX=6 NUNeed=     0.
     87 vectors produced by pass  0 Test12= 1.15D-14 1.08D-09 XBig12= 1.10D-01 1.03D-01.
 AX will form    87 AO Fock derivatives at one time.
     87 vectors produced by pass  1 Test12= 1.15D-14 1.08D-09 XBig12= 8.93D-03 1.25D-02.
     87 vectors produced by pass  2 Test12= 1.15D-14 1.08D-09 XBig12= 9.30D-05 1.51D-03.
     87 vectors produced by pass  3 Test12= 1.15D-14 1.08D-09 XBig12= 2.59D-07 7.21D-05.
     87 vectors produced by pass  4 Test12= 1.15D-14 1.08D-09 XBig12= 3.91D-10 2.08D-06.
     76 vectors produced by pass  5 Test12= 1.15D-14 1.08D-09 XBig12= 3.58D-13 5.68D-08.
      4 vectors produced by pass  6 Test12= 1.15D-14 1.08D-09 XBig12= 3.68D-16 1.53D-09.
 InvSVY:  IOpt=1 It=  1 EMax= 5.27D-16
 Solved reduced A of dimension   515 with    93 vectors.
 End of Minotr F.D. properties file   721 does not exist.
 End of Minotr F.D. properties file   722 does not exist.
 End of Minotr F.D. properties file   788 does not exist.

 **********************************************************************

            Population analysis using the SCF density.

 **********************************************************************

 Orbital symmetries:
       Occupied  (A) (A) (A) (A) (A) (A) (A) (A) (A) (A) (A) (A)
                 (A) (A) (A) (A) (A) (A) (A) (A) (A) (A) (A) (A)
                 (A) (A) (A) (A) (A) (A) (A) (A) (A) (A) (A) (A)
                 (A) (A) (A) (A) (A) (A) (A) (A) (A) (A) (A) (A)
                 (A) (A) (A) (A) (A) (A) (A) (A) (A) (A)
       Virtual   (A) (A) (A) (A) (A) (A) (A) (A) (A) (A) (A) (A)
                 (A) (A) (A) (A) (A) (A) (A) (A) (A) (A) (A) (A)
                 (A) (A) (A) (A) (A) (A) (A) (A) (A) (A) (A) (A)
                 (A) (A) (A) (A) (A) (A) (A) (A) (A) (A) (A) (A)
                 (A) (A) (A) (A) (A) (A) (A) (A) (A) (A) (A) (A)
                 (A) (A) (A) (A) (A) (A) (A) (A) (A) (A) (A) (A)
                 (A) (A) (A) (A) (A) (A) (A) (A) (A) (A) (A) (A)
                 (A) (A) (A) (A) (A) (A) (A) (A) (A) (A) (A) (A)
                 (A) (A) (A) (A) (A) (A) (A) (A) (A) (A) (A) (A)
                 (A) (A) (A) (A) (A) (A) (A) (A) (A) (A) (A) (A)
                 (A) (A) (A) (A) (A) (A) (A) (A) (A) (A) (A) (A)
                 (A) (A) (A) (A) (A) (A) (A) (A) (A) (A) (A) (A)
                 (A) (A) (A) (A) (A) (A) (A) (A) (A) (A) (A) (A)
                 (A) (A) (A) (A) (A) (A) (A) (A) (A) (A) (A) (A)
                 (A) (A) (A) (A) (A) (A) (A) (A) (A) (A) (A) (A)
                 (A) (A) (A) (A)
 The electronic state is 1-A.
 Alpha  occ. eigenvalues --  -19.19628 -19.17351 -19.17258 -19.17061 -19.16572
 Alpha  occ. eigenvalues --  -19.16506 -19.10705 -19.05204 -10.30547 -10.26987
 Alpha  occ. eigenvalues --  -10.26653 -10.26018 -10.25407 -10.25044  -1.07684
 Alpha  occ. eigenvalues --   -1.06016  -1.04836  -1.04314  -1.03880  -1.00870
 Alpha  occ. eigenvalues --   -0.95339  -0.94116  -0.80348  -0.77168  -0.71311
 Alpha  occ. eigenvalues --   -0.67344  -0.64386  -0.60485  -0.56539  -0.55817
 Alpha  occ. eigenvalues --   -0.54503  -0.53551  -0.52219  -0.50920  -0.50335
 Alpha  occ. eigenvalues --   -0.48674  -0.47905  -0.46490  -0.44942  -0.43827
 Alpha  occ. eigenvalues --   -0.42392  -0.41946  -0.40771  -0.38198  -0.37467
 Alpha  occ. eigenvalues --   -0.37199  -0.36341  -0.35500  -0.34806  -0.31483
 Alpha  occ. eigenvalues --   -0.30880  -0.30083  -0.29303  -0.28515  -0.28118
 Alpha  occ. eigenvalues --   -0.26397  -0.23810  -0.20614
 Alpha virt. eigenvalues --   -0.00946   0.00276   0.03252   0.05984   0.07338
 Alpha virt. eigenvalues --    0.09389   0.10115   0.11012   0.12458   0.14351
 Alpha virt. eigenvalues --    0.15074   0.15406   0.16555   0.16984   0.17876
 Alpha virt. eigenvalues --    0.18932   0.19520   0.20426   0.21260   0.21717
 Alpha virt. eigenvalues --    0.22294   0.25423   0.26027   0.28677   0.29307
 Alpha virt. eigenvalues --    0.30892   0.33571   0.39325   0.50796   0.51903
 Alpha virt. eigenvalues --    0.53054   0.54537   0.55615   0.56455   0.59125
 Alpha virt. eigenvalues --    0.59671   0.60764   0.63031   0.64537   0.65301
 Alpha virt. eigenvalues --    0.65932   0.68100   0.69929   0.71832   0.72989
 Alpha virt. eigenvalues --    0.73674   0.75051   0.78773   0.78894   0.80655
 Alpha virt. eigenvalues --    0.81117   0.82190   0.83023   0.83701   0.84494
 Alpha virt. eigenvalues --    0.84997   0.85537   0.87422   0.88020   0.88503
 Alpha virt. eigenvalues --    0.89827   0.92180   0.93488   0.94825   0.95210
 Alpha virt. eigenvalues --    0.97755   0.98663   1.00259   1.00662   1.02908
 Alpha virt. eigenvalues --    1.04874   1.06331   1.07381   1.08441   1.10304
 Alpha virt. eigenvalues --    1.13979   1.14445   1.15483   1.18169   1.18624
 Alpha virt. eigenvalues --    1.19716   1.20822   1.22920   1.24448   1.27985
 Alpha virt. eigenvalues --    1.28949   1.31486   1.32714   1.33481   1.36626
 Alpha virt. eigenvalues --    1.39763   1.41168   1.44639   1.47490   1.49366
 Alpha virt. eigenvalues --    1.51716   1.52724   1.55906   1.58344   1.58886
 Alpha virt. eigenvalues --    1.62251   1.63224   1.64766   1.65675   1.68014
 Alpha virt. eigenvalues --    1.68974   1.71596   1.72051   1.73622   1.75394
 Alpha virt. eigenvalues --    1.76186   1.78467   1.78741   1.80121   1.82957
 Alpha virt. eigenvalues --    1.83108   1.85592   1.86407   1.87440   1.90851
 Alpha virt. eigenvalues --    1.91916   1.94222   1.95468   1.96538   1.98154
 Alpha virt. eigenvalues --    2.01164   2.02280   2.03797   2.05896   2.08909
 Alpha virt. eigenvalues --    2.10847   2.11708   2.13362   2.16608   2.18623
 Alpha virt. eigenvalues --    2.22543   2.22833   2.25157   2.28065   2.30535
 Alpha virt. eigenvalues --    2.30721   2.35580   2.36634   2.38135   2.41777
 Alpha virt. eigenvalues --    2.42277   2.43629   2.44702   2.47703   2.48768
 Alpha virt. eigenvalues --    2.50645   2.51217   2.53700   2.56090   2.59463
 Alpha virt. eigenvalues --    2.61547   2.63730   2.67209   2.69763   2.73612
 Alpha virt. eigenvalues --    2.77262   2.81381   2.85206   2.85597   2.89810
 Alpha virt. eigenvalues --    2.91061   2.96793   2.99668   3.06745   3.12173
 Alpha virt. eigenvalues --    3.73182   3.74906   3.81202   3.84006   3.95716
 Alpha virt. eigenvalues --    4.02734   4.14021   4.23539   4.27912   4.31658
 Alpha virt. eigenvalues --    4.50396   4.61131   4.71280   4.99000
          Condensed to atoms (all electrons):
               1          2          3          4          5          6
     1  O    8.516477  -0.023271  -0.003048  -0.006287   0.102989   0.109875
     2  C   -0.023271   5.063066  -0.034239   0.246567   0.000731   0.271401
     3  C   -0.003048  -0.034239   5.321359   0.223896   0.247756  -0.027793
     4  C   -0.006287   0.246567   0.223896   5.183535  -0.030485  -0.018293
     5  C    0.102989   0.000731   0.247756  -0.030485   4.850097  -0.010995
     6  C    0.109875   0.271401  -0.027793  -0.018293  -0.010995   5.184392
     7  H   -0.000040  -0.036155  -0.065956   0.370042   0.000425   0.006080
     8  H   -0.054903  -0.060076   0.000821   0.005855   0.001642   0.344776
     9  H    0.002852   0.359614   0.006070  -0.044171   0.000475  -0.055858
    10  H    0.000630  -0.000596   0.381502  -0.071211  -0.022084   0.001211
    11  C   -0.032932  -0.035039  -0.000353  -0.004340   0.000773   0.303635
    12  H    0.004414   0.005457  -0.000074  -0.000440  -0.000080  -0.042046
    13  H    0.003674  -0.008282  -0.000374   0.001456   0.000082  -0.039899
    14  O    0.001642  -0.004444   0.000016  -0.001604  -0.000014  -0.049611
    15  H   -0.000024  -0.001263   0.000003   0.000134  -0.000001  -0.002295
    16  O    0.000544   0.001554   0.188882  -0.052150  -0.027943   0.000110
    17  H    0.000435   0.000367  -0.028486   0.000461  -0.010874   0.000067
    18  O   -0.000102  -0.024574  -0.045762   0.160311   0.000361  -0.004777
    19  H    0.000024  -0.002267   0.008239  -0.018870   0.000181  -0.002094
    20  O    0.000996   0.188203   0.003768  -0.037102   0.001791  -0.033643
    21  H   -0.000331  -0.018553  -0.000535   0.006417  -0.000033  -0.004497
    22  H   -0.019125   0.000022  -0.074965   0.006060   0.376656   0.001901
    23  O   -0.033788   0.010696  -0.042079  -0.002609   0.267647  -0.002139
    24  H    0.005189   0.000129   0.002180  -0.000249  -0.022544  -0.000682
    25  O   -0.095482  -0.009801  -0.000812   0.000200   0.007258   0.016089
    26  H    0.004833  -0.000890   0.000126  -0.000073   0.001059  -0.001819
    27  H    0.114823   0.006048   0.001562  -0.000184  -0.009484  -0.016650
    28  O   -0.000002   0.004805   0.003481   0.013782   0.005027  -0.000087
    29  H    0.000000   0.002320  -0.008843   0.009205  -0.001013  -0.000046
    30  H   -0.000008  -0.000869  -0.072019   0.017766  -0.002860  -0.000071
               7          8          9         10         11         12
     1  O   -0.000040  -0.054903   0.002852   0.000630  -0.032932   0.004414
     2  C   -0.036155  -0.060076   0.359614  -0.000596  -0.035039   0.005457
     3  C   -0.065956   0.000821   0.006070   0.381502  -0.000353  -0.000074
     4  C    0.370042   0.005855  -0.044171  -0.071211  -0.004340  -0.000440
     5  C    0.000425   0.001642   0.000475  -0.022084   0.000773  -0.000080
     6  C    0.006080   0.344776  -0.055858   0.001211   0.303635  -0.042046
     7  H    0.599792  -0.000218  -0.007083   0.005206   0.000201   0.000012
     8  H   -0.000218   0.719384  -0.001878   0.000009  -0.042433  -0.009884
     9  H   -0.007083  -0.001878   0.635451  -0.000274  -0.004669   0.000246
    10  H    0.005206   0.000009  -0.000274   0.528426   0.000076   0.000001
    11  C    0.000201  -0.042433  -0.004669   0.000076   4.940050   0.358092
    12  H    0.000012  -0.009884   0.000246   0.000001   0.358092   0.619403
    13  H    0.000139   0.005686   0.000023   0.001144   0.376678  -0.036117
    14  O   -0.000026   0.003611   0.016173  -0.000001   0.223983  -0.032096
    15  H   -0.000000   0.003573   0.000358   0.000000  -0.027737  -0.009697
    16  O    0.005906   0.000006  -0.000089  -0.042046   0.000005   0.000000
    17  H    0.000302   0.000002  -0.000001   0.004770   0.000001  -0.000000
    18  O   -0.051616  -0.000034  -0.002011   0.004872   0.001598   0.000466
    19  H   -0.002486  -0.000051   0.008510  -0.000209  -0.000338   0.000134
    20  O    0.004400  -0.005516  -0.040609   0.000005   0.002948  -0.000040
    21  H   -0.000246   0.007685  -0.006417   0.000009   0.000037  -0.000008
    22  H   -0.000181  -0.000139   0.000005  -0.003142  -0.000043   0.000002
    23  O    0.000276   0.000019   0.000024   0.003014  -0.000003   0.000002
    24  H   -0.000005  -0.001081   0.000085  -0.000072  -0.000034  -0.000000
    25  O   -0.000001   0.012542  -0.000042   0.000011   0.000678   0.000002
    26  H   -0.000007   0.002258   0.000151  -0.000002   0.000220  -0.000022
    27  H    0.000007  -0.012072  -0.000161  -0.000040  -0.000206   0.000293
    28  O    0.001370   0.000001  -0.000042   0.003437   0.000025   0.000001
    29  H   -0.001888   0.000001  -0.000043   0.000877   0.000006  -0.000001
    30  H    0.001775   0.000001   0.000002  -0.027835  -0.000026  -0.000001
              13         14         15         16         17         18
     1  O    0.003674   0.001642  -0.000024   0.000544   0.000435  -0.000102
     2  C   -0.008282  -0.004444  -0.001263   0.001554   0.000367  -0.024574
     3  C   -0.000374   0.000016   0.000003   0.188882  -0.028486  -0.045762
     4  C    0.001456  -0.001604   0.000134  -0.052150   0.000461   0.160311
     5  C    0.000082  -0.000014  -0.000001  -0.027943  -0.010874   0.000361
     6  C   -0.039899  -0.049611  -0.002295   0.000110   0.000067  -0.004777
     7  H    0.000139  -0.000026  -0.000000   0.005906   0.000302  -0.051616
     8  H    0.005686   0.003611   0.003573   0.000006   0.000002  -0.000034
     9  H    0.000023   0.016173   0.000358  -0.000089  -0.000001  -0.002011
    10  H    0.001144  -0.000001   0.000000  -0.042046   0.004770   0.004872
    11  C    0.376678   0.223983  -0.027737   0.000005   0.000001   0.001598
    12  H   -0.036117  -0.032096  -0.009697   0.000000  -0.000000   0.000466
    13  H    0.512200  -0.030238   0.006446   0.000005   0.000001   0.011170
    14  O   -0.030238   8.249450   0.234062   0.000000  -0.000000  -0.001071
    15  H    0.006446   0.234062   0.403313  -0.000000   0.000000   0.000031
    16  O    0.000005   0.000000  -0.000000   8.362965   0.222945   0.001884
    17  H    0.000001  -0.000000   0.000000   0.222945   0.343059  -0.000075
    18  O    0.011170  -0.001071   0.000031   0.001884  -0.000075   8.468093
    19  H   -0.002205   0.005921  -0.000121  -0.000148   0.000002   0.203814
    20  O   -0.000024   0.000050  -0.000024   0.000003   0.000288   0.000971
    21  H    0.000012   0.000037  -0.000008   0.000009   0.000016  -0.000078
    22  H   -0.000054   0.000000  -0.000000   0.001166   0.001706  -0.000079
    23  O    0.000005   0.000000  -0.000000  -0.015146   0.039366   0.000006
    24  H    0.000000  -0.000000   0.000000  -0.000010  -0.000022   0.000001
    25  O   -0.000001   0.000001  -0.000002  -0.000003   0.000126   0.000000
    26  H   -0.000000  -0.000005  -0.000002   0.000002  -0.000021  -0.000000
    27  H   -0.000102  -0.000014  -0.000000  -0.000018  -0.000051  -0.000004
    28  O   -0.000005  -0.000000   0.000000  -0.056754   0.001713  -0.161899
    29  H    0.000015   0.000001  -0.000000   0.003471   0.000034   0.023939
    30  H    0.000006   0.000001  -0.000000   0.046913  -0.000809   0.016579
              19         20         21         22         23         24
     1  O    0.000024   0.000996  -0.000331  -0.019125  -0.033788   0.005189
     2  C   -0.002267   0.188203  -0.018553   0.000022   0.010696   0.000129
     3  C    0.008239   0.003768  -0.000535  -0.074965  -0.042079   0.002180
     4  C   -0.018870  -0.037102   0.006417   0.006060  -0.002609  -0.000249
     5  C    0.000181   0.001791  -0.000033   0.376656   0.267647  -0.022544
     6  C   -0.002094  -0.033643  -0.004497   0.001901  -0.002139  -0.000682
     7  H   -0.002486   0.004400  -0.000246  -0.000181   0.000276  -0.000005
     8  H   -0.000051  -0.005516   0.007685  -0.000139   0.000019  -0.001081
     9  H    0.008510  -0.040609  -0.006417   0.000005   0.000024   0.000085
    10  H   -0.000209   0.000005   0.000009  -0.003142   0.003014  -0.000072
    11  C   -0.000338   0.002948   0.000037  -0.000043  -0.000003  -0.000034
    12  H    0.000134  -0.000040  -0.000008   0.000002   0.000002  -0.000000
    13  H   -0.002205  -0.000024   0.000012  -0.000054   0.000005   0.000000
    14  O    0.005921   0.000050   0.000037   0.000000   0.000000  -0.000000
    15  H   -0.000121  -0.000024  -0.000008  -0.000000  -0.000000   0.000000
    16  O   -0.000148   0.000003   0.000009   0.001166  -0.015146  -0.000010
    17  H    0.000002   0.000288   0.000016   0.001706   0.039366  -0.000022
    18  O    0.203814   0.000971  -0.000078  -0.000079   0.000006   0.000001
    19  H    0.401445   0.000091  -0.000024   0.000006  -0.000001   0.000000
    20  O    0.000091   8.312712   0.215816  -0.000023  -0.018666   0.006215
    21  H   -0.000024   0.215816   0.416391   0.000012   0.001487  -0.001157
    22  H    0.000006  -0.000023   0.000012   0.590719  -0.050596   0.001771
    23  O   -0.000001  -0.018666   0.001487  -0.050596   8.498254   0.145382
    24  H    0.000000   0.006215  -0.001157   0.001771   0.145382   0.274631
    25  O    0.000000  -0.003235   0.003782  -0.000456  -0.144000   0.122928
    26  H   -0.000000   0.010354   0.004742  -0.000055   0.007723  -0.005926
    27  H   -0.000001  -0.000797  -0.000697   0.000426   0.012446  -0.005678
    28  O    0.010702   0.000002   0.000000  -0.000061  -0.000020   0.000000
    29  H   -0.002260  -0.000038   0.000002   0.000006   0.000013  -0.000000
    30  H   -0.002080  -0.000100   0.000003  -0.000537  -0.000064   0.000000
              25         26         27         28         29         30
     1  O   -0.095482   0.004833   0.114823  -0.000002   0.000000  -0.000008
     2  C   -0.009801  -0.000890   0.006048   0.004805   0.002320  -0.000869
     3  C   -0.000812   0.000126   0.001562   0.003481  -0.008843  -0.072019
     4  C    0.000200  -0.000073  -0.000184   0.013782   0.009205   0.017766
     5  C    0.007258   0.001059  -0.009484   0.005027  -0.001013  -0.002860
     6  C    0.016089  -0.001819  -0.016650  -0.000087  -0.000046  -0.000071
     7  H   -0.000001  -0.000007   0.000007   0.001370  -0.001888   0.001775
     8  H    0.012542   0.002258  -0.012072   0.000001   0.000001   0.000001
     9  H   -0.000042   0.000151  -0.000161  -0.000042  -0.000043   0.000002
    10  H    0.000011  -0.000002  -0.000040   0.003437   0.000877  -0.027835
    11  C    0.000678   0.000220  -0.000206   0.000025   0.000006  -0.000026
    12  H    0.000002  -0.000022   0.000293   0.000001  -0.000001  -0.000001
    13  H   -0.000001  -0.000000  -0.000102  -0.000005   0.000015   0.000006
    14  O    0.000001  -0.000005  -0.000014  -0.000000   0.000001   0.000001
    15  H   -0.000002  -0.000002  -0.000000   0.000000  -0.000000  -0.000000
    16  O   -0.000003   0.000002  -0.000018  -0.056754   0.003471   0.046913
    17  H    0.000126  -0.000021  -0.000051   0.001713   0.000034  -0.000809
    18  O    0.000000  -0.000000  -0.000004  -0.161899   0.023939   0.016579
    19  H    0.000000  -0.000000  -0.000001   0.010702  -0.002260  -0.002080
    20  O   -0.003235   0.010354  -0.000797   0.000002  -0.000038  -0.000100
    21  H    0.003782   0.004742  -0.000697   0.000000   0.000002   0.000003
    22  H   -0.000456  -0.000055   0.000426  -0.000061   0.000006  -0.000537
    23  O   -0.144000   0.007723   0.012446  -0.000020   0.000013  -0.000064
    24  H    0.122928  -0.005926  -0.005678   0.000000  -0.000000   0.000000
    25  O    8.541856   0.206237   0.137923  -0.000000   0.000000   0.000000
    26  H    0.206237   0.403293  -0.011360   0.000000   0.000000  -0.000000
    27  H    0.137923  -0.011360   0.320889   0.000000  -0.000000   0.000001
    28  O   -0.000000   0.000000   0.000000   8.500833   0.227158   0.231922
    29  H    0.000000   0.000000  -0.000000   0.227158   0.374641  -0.020078
    30  H    0.000000  -0.000000   0.000001   0.231922  -0.020078   0.356429
 Mulliken charges:
               1
     1  O   -0.600055
     2  C    0.099340
     3  C    0.015678
     4  C    0.042380
     5  C    0.273460
     6  C    0.073759
     7  H    0.169976
     8  H    0.080416
     9  H    0.133307
    10  H    0.232312
    11  C   -0.060853
    12  H    0.141981
    13  H    0.198559
    14  O   -0.615822
    15  H    0.393254
    16  O   -0.642063
    17  H    0.424681
    18  O   -0.602012
    19  H    0.394085
    20  O   -0.608796
    21  H    0.376129
    22  H    0.168997
    23  O   -0.677250
    24  H    0.478950
    25  O   -0.795796
    26  H    0.379186
    27  H    0.463104
    28  O   -0.785387
    29  H    0.392520
    30  H    0.455960
 Sum of Mulliken charges =  -0.00000
 Mulliken charges with hydrogens summed into heavy atoms:
               1
     1  O   -0.600055
     2  C    0.232647
     3  C    0.247990
     4  C    0.212355
     5  C    0.442457
     6  C    0.154175
    11  C    0.279687
    14  O   -0.222568
    16  O   -0.217382
    18  O   -0.207927
    20  O   -0.232667
    23  O   -0.198300
    25  O    0.046494
    28  O    0.063093
 APT charges:
               1
     1  O   -0.468497
     2  C   -0.360417
     3  C   -0.052462
     4  C   -0.282336
     5  C   -0.438550
     6  C   -0.250734
     7  H    0.453982
     8  H    0.369698
     9  H    0.425348
    10  H    0.474624
    11  C   -0.713349
    12  H    0.553061
    13  H    0.331392
    14  O   -0.873361
    15  H    0.771035
    16  O   -0.691555
    17  H    0.579917
    18  O   -0.598163
    19  H    0.653130
    20  O   -0.794009
    21  H    0.674624
    22  H    0.604391
    23  O   -0.497907
    24  H    0.505403
    25  O   -0.869421
    26  H    0.458495
    27  H    0.377164
    28  O   -0.610850
    29  H    0.324202
    30  H   -0.054854
 Sum of APT charges =  -0.00000
 APT charges with hydrogens summed into heavy atoms:
               1
     1  O   -0.468497
     2  C    0.064931
     3  C    0.422162
     4  C    0.171646
     5  C    0.165841
     6  C    0.118964
    11  C    0.171104
    14  O   -0.102326
    16  O   -0.111638
    18  O    0.054966
    20  O   -0.119385
    23  O    0.007496
    25  O   -0.033762
    28  O   -0.341502
 Electronic spatial extent (au):  <R**2>=           2695.0091
 Charge=             -0.0000 electrons
 Dipole moment (field-independent basis, Debye):
    X=             -6.8330    Y=              1.9834    Z=              2.6223  Tot=              7.5829
 Quadrupole moment (field-independent basis, Debye-Ang):
   XX=            -90.1657   YY=            -88.5052   ZZ=            -80.0977
   XY=             -7.9254   XZ=             -1.8772   YZ=              3.9526
 Traceless Quadrupole moment (field-independent basis, Debye-Ang):
   XX=             -3.9096   YY=             -2.2490   ZZ=              6.1585
   XY=             -7.9254   XZ=             -1.8772   YZ=              3.9526
 Octapole moment (field-independent basis, Debye-Ang**2):
  XXX=           -102.7467  YYY=              1.3155  ZZZ=              4.0806  XYY=              5.3722
  XXY=             13.6087  XXZ=             34.1327  XZZ=             -4.6437  YZZ=              0.6082
  YYZ=             11.2881  XYZ=             12.4042
 Hexadecapole moment (field-independent basis, Debye-Ang**3):
 XXXX=          -1626.6174 YYYY=          -1345.0614 ZZZZ=           -421.2759 XXXY=            -84.1726
 XXXZ=             -1.9346 YYYX=            -34.2550 YYYZ=             10.3364 ZZZX=            -25.0041
 ZZZY=              6.8217 XXYY=           -415.5192 XXZZ=           -272.5304 YYZZ=           -261.5518
 XXYZ=              0.5092 YYXZ=             -1.8943 ZZXY=             10.7901
 N-N= 1.169549183477D+03 E-N=-4.311212428818D+03  KE= 8.333970144314D+02
  Exact polarizability:   0.000   0.000   0.000   0.000   0.000   0.000
 Approx polarizability: 151.215  -2.498 150.289  -7.748  -7.263 128.589
 Calling FoFJK, ICntrl=    100147 FMM=F ISym2X=0 I1Cent= 0 IOpClX= 0 NMat=1 NMatS=1 NMatT=0.
 ***** Axes restored to original set *****
 -------------------------------------------------------------------
 Center     Atomic                   Forces (Hartrees/Bohr)
 Number     Number              X              Y              Z
 -------------------------------------------------------------------
      1        8           0.029394889    0.023885103    0.009545317
      2        6          -0.025539268   -0.001892160    0.007447204
      3        6          -0.010816935   -0.035737010   -0.016109434
      4        6           0.003946571   -0.013219665    0.026649603
      5        6           0.030779307   -0.078244147    0.052033116
      6        6          -0.005153641   -0.014663022   -0.023090454
      7        1           0.006395993   -0.010692816    0.004490557
      8        1          -0.010837437    0.004899041    0.009386567
      9        1          -0.008485001    0.003611117   -0.008012181
     10        1          -0.004393958   -0.011421476    0.000688413
     11        6          -0.009841033    0.000169411   -0.001317229
     12        1           0.004790026   -0.004941236   -0.000358004
     13        1           0.001016659    0.002100113    0.007129985
     14        8          -0.004018453    0.002817033    0.003805695
     15        1           0.001331884    0.004750791   -0.001543950
     16        8           0.020121093   -0.026702043   -0.000506317
     17        1          -0.002199529   -0.003871112    0.006396775
     18        8          -0.078602207   -0.049838414    0.019902623
     19        1          -0.005901179   -0.010122676   -0.000614184
     20        8           0.001878947   -0.002483080    0.004475235
     21        1           0.002496468    0.015438457   -0.002132012
     22        1          -0.018920968   -0.004179056   -0.009349615
     23        8           0.002938681    0.054459341   -0.040731333
     24        1          -0.012020238    0.029986885   -0.040909399
     25        8          -0.030970126   -0.047964294   -0.001428910
     26        1          -0.004738271   -0.008801522    0.006234432
     27        1           0.042247959    0.009280424    0.017479479
     28        8           0.062221863    0.089839237   -0.031502057
     29        1           0.013508429    0.013306977   -0.009915693
     30        1           0.009369474    0.070229800    0.011855770
 -------------------------------------------------------------------
 Cartesian Forces:  Max     0.089839237 RMS     0.025584901

 GradGradGradGradGradGradGradGradGradGradGradGradGradGradGradGradGradGrad
 Berny optimization.
 Search for a saddle point.
 Step number   1 out of a maximum of  180
 All quantities printed in internal units (Hartrees-Bohrs-Radians)
 Swapping is turned off.
 Second derivative matrix not updated -- analytic derivatives used.
 ITU=  0
     Eigenvalues ---   -0.19836  -0.02369  -0.01970  -0.00726  -0.00334
     Eigenvalues ---    0.00023   0.00068   0.00214   0.00382   0.00548
     Eigenvalues ---    0.00641   0.00695   0.00800   0.00945   0.01065
     Eigenvalues ---    0.01415   0.01617   0.01785   0.02023   0.02217
     Eigenvalues ---    0.02719   0.02940   0.03151   0.03266   0.03749
     Eigenvalues ---    0.04121   0.04786   0.04822   0.05295   0.05663
     Eigenvalues ---    0.06294   0.06408   0.06711   0.07153   0.07605
     Eigenvalues ---    0.07927   0.08028   0.08208   0.08592   0.09910
     Eigenvalues ---    0.10668   0.10770   0.11580   0.12244   0.12521
     Eigenvalues ---    0.13931   0.14924   0.15964   0.16908   0.18212
     Eigenvalues ---    0.18616   0.19232   0.20695   0.21674   0.23667
     Eigenvalues ---    0.24782   0.27053   0.28490   0.30256   0.31648
     Eigenvalues ---    0.39038   0.42964   0.48621   0.50085   0.52983
     Eigenvalues ---    0.59539   0.62441   0.64754   0.67239   0.67997
     Eigenvalues ---    0.76934   0.80977   0.82594   0.85283   0.86274
     Eigenvalues ---    0.86952   0.91034   0.94346   0.96130   0.99858
     Eigenvalues ---    1.04520   1.05454   1.07459   1.22309
 Eigenvectors required to have negative eigenvalues:
                          Y27       Y24       Z27       Y1        X5
   1                    0.40153  -0.39295  -0.34380  -0.32958   0.32200
                          X24       X1        X25       Z25       Z23
   1                   -0.28300  -0.23863   0.23787   0.17416  -0.17354
 RFO step:  Lambda0=1.633172728D-03 Lambda=-1.41522671D-01.
 Linear search not attempted -- option 19 set.
 Maximum step size (   0.300) exceeded in Quadratic search.
    -- Step size scaled by   0.261
 B after Tr=     0.001632   -0.003360   -0.003322
         Rot=    1.000000    0.000270   -0.000422    0.000159 Ang=   0.06 deg.
 Variable       Old X    -DE/DX   Delta X   Delta X   Delta X     New X
                                 (Linear)    (Quad)   (Total)
    X1       -0.25356   0.02939   0.00000   0.01822   0.01730  -0.23626
    Y1       -2.67729   0.02389   0.00000  -0.00875  -0.01312  -2.69041
    Z1       -2.03066   0.00955   0.00000   0.02106   0.01938  -2.01128
    X2       -0.87038  -0.02554   0.00000  -0.01640  -0.01311  -0.88349
    Y2       -0.04402  -0.00189   0.00000  -0.00376  -0.00577  -0.04979
    Z2        1.98495   0.00745   0.00000  -0.00284  -0.00539   1.97956
    X3        2.43890  -0.01082   0.00000  -0.01202  -0.01090   2.42799
    Y3        1.46248  -0.03574   0.00000  -0.01322  -0.01797   1.44451
    Z3       -1.11061  -0.01611   0.00000  -0.04076  -0.04691  -1.15752
    X4        0.41401   0.00395   0.00000   0.00139   0.00442   0.41843
    Y4        2.25269  -0.01322   0.00000  -0.01601  -0.01907   2.23363
    Z4        0.81623   0.02665   0.00000  -0.00451  -0.00939   0.80684
    X5        2.77832   0.03078   0.00000   0.01709   0.01699   2.79531
    Y5       -1.29768  -0.07824   0.00000  -0.02766  -0.03275  -1.33042
    Z5       -1.56278   0.05203   0.00000   0.00897   0.00400  -1.55877
    X6       -1.97972  -0.00515   0.00000  -0.00521  -0.00419  -1.98392
    Y6       -1.75115  -0.01466   0.00000  -0.01337  -0.01614  -1.76728
    Z6       -0.05772  -0.02309   0.00000  -0.00906  -0.00975  -0.06748
    X7        1.34048   0.00640   0.00000   0.00204   0.00669   1.34716
    Y7        3.30705  -0.01069   0.00000  -0.01614  -0.01867   3.28838
    Z7        2.34212   0.00449   0.00000  -0.00454  -0.01077   2.33135
    X8       -2.56667  -0.01084   0.00000  -0.01927  -0.01806  -2.58473
    Y8       -3.53656   0.00490   0.00000   0.00024  -0.00185  -3.53841
    Z8        0.81526   0.00939   0.00000   0.01121   0.01197   0.82724
    X9       -2.45457  -0.00849   0.00000  -0.01629  -0.01182  -2.46639
    Y9        0.64521   0.00361   0.00000   0.01006   0.00916   0.65437
    Z9        3.12906  -0.00801   0.00000  -0.01609  -0.01768   3.11137
   X10        1.95534  -0.00439   0.00000  -0.02109  -0.02119   1.93415
   Y10        2.34851  -0.01142   0.00000   0.01390   0.00834   2.35685
   Z10       -2.92406   0.00069   0.00000  -0.01765  -0.02387  -2.94794
   X11       -4.20226  -0.00984   0.00000  -0.00620  -0.00611  -4.20836
   Y11       -0.67519   0.00017   0.00000  -0.00498  -0.00785  -0.68303
   Z11       -1.56374  -0.00132   0.00000  -0.00413  -0.00353  -1.56727
   X12       -5.03899   0.00479   0.00000   0.00031  -0.00107  -5.04007
   Y12       -2.14987  -0.00494   0.00000  -0.00886  -0.01210  -2.16197
   Z12       -2.75418  -0.00036   0.00000  -0.00216  -0.00006  -2.75424
   X13       -3.58613   0.00102   0.00000   0.00243   0.00190  -3.58422
   Y13        0.80393   0.00210   0.00000  -0.00224  -0.00600   0.79793
   Z13       -2.87016   0.00713   0.00000   0.00552   0.00479  -2.86537
   X14       -6.10773  -0.00402   0.00000  -0.00028   0.00150  -6.10623
   Y14        0.32654   0.00282   0.00000   0.00437   0.00298   0.32953
   Z14        0.04571   0.00381   0.00000  -0.00069   0.00096   0.04667
   X15       -7.01465   0.00133   0.00000  -0.00201  -0.00007  -7.01472
   Y15       -1.10083   0.00475   0.00000   0.00789   0.00718  -1.09365
   Z15        0.77393  -0.00154   0.00000  -0.00027   0.00292   0.77685
   X16        4.89260   0.02012   0.00000   0.01283   0.01475   4.90734
   Y16        2.40316  -0.02670   0.00000  -0.03353  -0.03875   2.36441
   Z16       -0.46491  -0.00051   0.00000  -0.08912  -0.09786  -0.56277
   X17        5.79157  -0.00220   0.00000  -0.03099  -0.02870   5.76287
   Y17        1.02126  -0.00387   0.00000   0.01155   0.00656   1.02782
   Z17        0.35375   0.00640   0.00000   0.03153   0.02279   0.37654
   X18       -1.29843  -0.07860   0.00000  -0.02616  -0.02357  -1.32200
   Y18        3.99895  -0.04984   0.00000  -0.04319  -0.04632   3.95263
   Z18       -0.33289   0.01990   0.00000  -0.01551  -0.01985  -0.35273
   X19       -2.77412  -0.00590   0.00000  -0.01180  -0.00821  -2.78233
   Y19        4.16766  -0.01012   0.00000  -0.01805  -0.02012   4.14754
   Z19        0.76181  -0.00061   0.00000  -0.00864  -0.01185   0.74996
   X20        0.67261   0.00188   0.00000  -0.00996  -0.00558   0.66703
   Y20       -1.35453  -0.00248   0.00000   0.00724   0.00570  -1.34883
   Z20        3.76418   0.00448   0.00000   0.00464   0.00149   3.76567
   X21       -0.29474   0.00250   0.00000  -0.01838  -0.01388  -0.30862
   Y21       -2.79791   0.01544   0.00000   0.02827   0.02741  -2.77050
   Z21        4.42038  -0.00213   0.00000   0.02363   0.02206   4.44244
   X22        3.88551  -0.01892   0.00000  -0.03130  -0.03298   3.85252
   Y22       -1.62961  -0.00418   0.00000  -0.02587  -0.03224  -1.66185
   Z22       -3.28246  -0.00935   0.00000  -0.02344  -0.02912  -3.31158
   X23        4.01698   0.00294   0.00000  -0.01595  -0.01481   4.00218
   Y23       -2.64369   0.05446   0.00000   0.04914   0.04472  -2.59898
   Z23        0.41572  -0.04073   0.00000  -0.01896  -0.02426   0.39146
   X24        3.11975  -0.01202   0.00000  -0.02611  -0.02494   3.09481
   Y24       -4.56321   0.02999   0.00000   0.00879   0.00508  -4.55813
   Z24        1.22367  -0.04091   0.00000  -0.04577  -0.04925   1.17442
   X25        1.33728  -0.03097   0.00000   0.00835   0.00871   1.34600
   Y25       -5.86295  -0.04796   0.00000  -0.03010  -0.03350  -5.89645
   Z25        0.69849  -0.00143   0.00000   0.02191   0.02063   0.71912
   X26        0.27074  -0.00474   0.00000   0.01181   0.01346   0.28420
   Y26       -5.79252  -0.00880   0.00000   0.03088   0.02861  -5.76391
   Z26        2.16430   0.00623   0.00000   0.02396   0.02351   2.18781
   X27        0.12833   0.04225   0.00000   0.04508   0.04437   0.17270
   Y27       -4.88588   0.00928   0.00000   0.01826   0.01434  -4.87155
   Z27       -0.95260   0.01748   0.00000   0.01811   0.01727  -0.93534
   X28        1.98007   0.06222   0.00000   0.05692   0.05949   2.03956
   Y28        5.81060   0.08984   0.00000   0.06287   0.05827   5.86887
   Z28       -1.16620  -0.03150   0.00000   0.06463   0.05643  -1.10977
   X29        0.82802   0.01351   0.00000  -0.02634  -0.02260   0.80543
   Y29        6.02084   0.01331   0.00000   0.03164   0.02814   6.04899
   Z29        0.21933  -0.00992   0.00000   0.00045  -0.00681   0.21252
   X30        2.95975   0.00937   0.00000   0.06981   0.07220   3.03195
   Y30        4.30438   0.07023   0.00000   0.08047   0.07574   4.38012
   Z30       -0.91596   0.01186   0.00000   0.16641   0.15817  -0.75778
         Item               Value     Threshold  Converged?
 Maximum Force            0.089839     0.000450     NO 
 RMS     Force            0.025585     0.000300     NO 
 Maximum Displacement     0.158173     0.001800     NO 
 RMS     Displacement     0.031406     0.001200     NO 
 Predicted change in Energy=-3.626934D-02
 GradGradGradGradGradGradGradGradGradGradGradGradGradGradGradGradGradGrad

                          Input orientation:                          
 ---------------------------------------------------------------------
 Center     Atomic      Atomic             Coordinates (Angstroms)
 Number     Number       Type             X           Y           Z
 ---------------------------------------------------------------------
      1          8           0       -0.125025   -1.423704   -1.064323
      2          6           0       -0.467524   -0.026350    1.047538
      3          6           0        1.284839    0.764401   -0.612535
      4          6           0        0.221424    1.181984    0.426960
      5          6           0        1.479216   -0.704030   -0.824868
      6          6           0       -1.049843   -0.935207   -0.035707
      7          1           0        0.712887    1.740133    1.233699
      8          1           0       -1.367778   -1.872448    0.437755
      9          1           0       -1.305159    0.346277    1.646468
     10          1           0        1.023507    1.247192   -1.559981
     11          6           0       -2.226969   -0.361446   -0.829366
     12          1           0       -2.667088   -1.144066   -1.457479
     13          1           0       -1.896688    0.422246   -1.516288
     14          8           0       -3.231275    0.174378    0.024697
     15          1           0       -3.712032   -0.578736    0.411091
     16          8           0        2.596855    1.251192   -0.297805
     17          1           0        3.049578    0.543897    0.199258
     18          8           0       -0.699572    2.091643   -0.186658
     19          1           0       -1.472345    2.194784    0.396859
     20          8           0        0.352977   -0.713770    1.992706
     21          1           0       -0.163315   -1.466084    2.350840
     22          1           0        2.038667   -0.879412   -1.752414
     23          8           0        2.117861   -1.375318    0.207153
     24          1           0        1.637703   -2.412058    0.621476
     25          8           0        0.712270   -3.120269    0.380543
     26          1           0        0.150390   -3.050130    1.157741
     27          1           0        0.091388   -2.577912   -0.494959
     28          8           0        1.079291    3.105672   -0.587265
     29          1           0        0.426214    3.200987    0.112461
     30          1           0        1.604438    2.317859   -0.401002
 ---------------------------------------------------------------------
                    Distance matrix (angstroms):
                    1          2          3          4          5
     1  O    0.000000
     2  C    2.555359   0.000000
     3  C    2.641899   2.540060   0.000000
     4  C    3.022179   1.523101   1.544596   0.000000
     5  C    1.774503   2.784771   1.496381   2.589626   0.000000
     6  C    1.466959   1.529227   2.944849   2.512504   2.659390
     7  H    3.999108   2.132719   2.165124   1.097221   3.286166
     8  H    2.000512   2.142515   3.884902   3.443144   3.326379
     9  H    3.445859   1.095081   3.462082   2.125103   3.868254
    10  H    2.949320   3.262551   1.095005   2.143718   2.134322
    11  C    2.366805   2.594360   3.694231   3.155180   3.721988
    12  H    2.587441   3.516032   4.469217   4.159943   4.217306
    13  H    2.598190   2.969335   3.325050   2.973183   3.625368
    14  O    3.659046   2.953780   4.598856   3.619146   4.866425
    15  H    3.969564   3.352168   5.274519   4.309578   5.337823
    16  O    3.892460   3.582245   1.434366   2.484501   2.312964
    17  H    3.942867   3.662617   1.954977   2.908171   2.252153
    18  O    3.668524   2.462312   2.425042   1.432564   3.601419
    19  H    4.128412   2.523190   3.266028   1.973709   4.313636
    20  O    3.174574   1.427974   3.136979   2.462265   3.034342
    21  H    3.415641   1.965700   3.981684   3.295695   3.655647
    22  H    2.334799   3.853367   2.137686   3.507334   1.097308
    23  O    2.578668   3.034827   2.438076   3.191329   1.386925
    24  H    2.631725   3.210158   3.425958   3.867922   2.243744
    25  O    2.380554   3.377740   4.050272   4.330412   2.807033
    26  H    2.767433   3.088237   4.355628   4.295332   3.346744
    27  H    1.305069   3.033504   3.550944   3.873456   2.355067
    28  O    4.710967   3.856784   2.350412   2.337769   3.837997
    29  H    4.803796   3.476902   2.683246   2.053588   4.151693
    30  H    4.174965   3.447696   1.600038   1.971918   3.054039
                    6          7          8          9         10
     6  C    0.000000
     7  H    3.446165   0.000000
     8  H    1.097119   4.244225   0.000000
     9  H    2.130047   2.487111   2.527381   0.000000
    10  H    3.374175   2.853791   4.409235   4.063945   0.000000
    11  C    1.531249   4.161205   2.151031   2.735025   3.699610
    12  H    2.163456   5.194735   2.410531   3.702764   4.398763
    13  H    2.179896   4.013619   3.060009   3.218495   3.034796
    14  O    2.448157   4.412447   2.798702   2.523810   4.665330
    15  H    2.722857   5.062978   2.677672   2.859168   5.444674
    16  O    4.259981   2.476672   5.100637   4.452503   2.017059
    17  H    4.364426   2.821555   5.040699   4.593169   2.773898
    18  O    3.050786   2.033719   4.068220   2.602574   2.359685
    19  H    3.187862   2.383746   4.068782   2.237510   3.310051
    20  O    2.476166   2.593698   2.592568   1.998248   4.112976
    21  H    2.600648   3.506504   2.296902   2.254906   4.905603
    22  H    3.533991   4.187670   4.169752   4.922996   2.364323
    23  O    3.207339   3.568443   3.528455   4.092992   3.346331
    24  H    3.136221   4.297767   3.059061   4.161666   4.304196
    25  O    2.837746   4.934713   2.426300   4.205893   4.789282
    26  H    2.708833   4.823774   2.051865   3.727339   5.159004
    27  H    2.052267   4.692551   1.869974   3.884191   4.078546
    28  O    4.600666   2.305398   5.640966   4.276614   2.098389
    29  H    4.394178   1.863719   5.391102   3.674262   2.640291
    30  H    4.214390   1.949584   5.205407   4.067557   1.681381
                   11         12         13         14         15
    11  C    0.000000
    12  H    1.095776   0.000000
    13  H    1.093216   1.746513   0.000000
    14  O    1.423082   2.062388   2.053581   0.000000
    15  H    1.947142   2.214286   2.830588   0.973452   0.000000
    16  O    5.113945   5.898406   4.729036   5.935540   6.607058
    17  H    5.451575   6.186620   5.236740   6.294135   6.857445
    18  O    2.960348   3.994486   2.447017   3.182782   4.069784
    19  H    2.933837   4.001737   2.642365   2.704511   3.564942
    20  O    3.839837   4.605402   4.320251   4.184343   4.363947
    21  H    3.948748   4.569012   4.639510   4.185026   4.140460
    22  H    4.394992   4.722410   4.151757   5.660467   6.151561
    23  O    4.580377   5.071510   4.724203   5.572083   5.887596
    24  H    4.609300   4.945815   5.009515   5.545516   5.659063
    25  O    4.208814   4.324785   4.791038   5.151007   5.102428
    26  H    4.102371   4.290762   4.837184   4.808004   4.645813
    27  H    3.224799   3.254466   3.741191   4.345714   4.391314
    28  O    4.796965   5.731745   4.113431   5.248615   6.126039
    29  H    4.540634   5.559921   3.971159   4.748189   5.612537
    30  H    4.694875   5.598839   4.134622   5.306586   6.108568
                   16         17         18         19         20
    16  O    0.000000
    17  H    0.975856   0.000000
    18  O    3.403695   4.074380   0.000000
    19  H    4.234538   4.817911   0.973812   0.000000
    20  O    3.760652   3.474168   3.705109   3.786583   0.000000
    21  H    4.692276   4.357983   4.402715   4.351271   0.980201
    22  H    2.639494   2.618544   4.333210   5.137827   4.110342
    23  O    2.717163   2.133436   4.484734   5.066676   2.596279
    24  H    3.896723   3.302928   5.138021   5.562900   2.532781
    25  O    4.808481   4.349941   5.429461   5.746530   2.918802
    26  H    5.158020   4.716038   5.382162   5.542683   2.489335
    27  H    4.580204   4.356434   4.746094   5.100905   3.119605
    28  O    2.413687   3.326160   2.086407   2.882545   4.666039
    29  H    2.946473   3.734929   1.608574   2.167454   4.343502
    30  H    1.460589   2.365519   2.324990   3.180931   4.060390
                   21         22         23         24         25
    21  H    0.000000
    22  H    4.693570   0.000000
    23  O    3.131676   2.022893   0.000000
    24  H    2.670063   2.853967   1.215337   0.000000
    25  O    2.717544   3.366047   2.247354   1.189974   0.000000
    26  H    2.007759   4.092262   2.753098   1.704939   0.961595
    27  H    3.065878   2.873672   2.458818   1.914426   1.202560
    28  O    5.574719   4.261322   4.667869   5.676110   6.311394
    29  H    5.209554   4.767328   4.879878   5.764814   6.333402
    30  H    5.001581   3.498201   3.777964   4.839285   5.565969
                   26         27         28         29         30
    26  H    0.000000
    27  H    1.719851   0.000000
    28  O    6.465431   5.769541   0.000000
    29  H    6.343907   5.820373   0.961878   0.000000
    30  H    5.775745   5.125107   0.964947   1.559413   0.000000
 Stoichiometry    C6H16O8
 Framework group  C1[X(C6H16O8)]
 Deg. of freedom    84
 Full point group                 C1      NOp   1
 Largest Abelian subgroup         C1      NOp   1
 Largest concise Abelian subgroup C1      NOp   1
                         Standard orientation:                         
 ---------------------------------------------------------------------
 Center     Atomic      Atomic             Coordinates (Angstroms)
 Number     Number       Type             X           Y           Z
 ---------------------------------------------------------------------
      1          8           0       -1.216835   -0.385175   -1.241512
      2          6           0       -0.421125    0.466436    1.032573
      3          6           0        1.310421   -0.586776   -0.498569
      4          6           0        1.032980    0.483825    0.579678
      5          6           0        0.158323   -1.453334   -0.899698
      6          6           0       -1.364202    0.599191   -0.163887
      7          1           0        1.660632    0.277144    1.455594
      8          1           0       -2.385901    0.397032    0.180980
      9          1           0       -0.576028    1.343571    1.669629
     10          1           0        1.712534   -0.070423   -1.376476
     11          6           0       -1.346671    1.950770   -0.883366
     12          1           0       -2.164679    1.993854   -1.611192
     13          1           0       -0.426889    2.080369   -1.459843
     14          8           0       -1.471233    3.037557    0.026875
     15          1           0       -2.402455    3.071618    0.308430
     16          8           0        2.332998   -1.516397   -0.114449
     17          1           0        1.882382   -2.282290    0.288848
     18          8           0        1.444794    1.763353    0.084241
     19          1           0        1.089889    2.454588    0.671222
     20          8           0       -0.728259   -0.637184    1.885101
     21          1           0       -1.672753   -0.570049    2.138512
     22          1           0        0.387299   -1.973117   -1.838570
     23          8           0       -0.233460   -2.395293    0.039866
     24          1           0       -1.413260   -2.500318    0.312052
     25          8           0       -2.448242   -2.019676   -0.025338
     26          1           0       -2.751893   -1.539874    0.750711
     27          1           0       -2.177825   -1.164559   -0.826461
     28          8           0        3.234827    0.721822   -0.168914
     29          1           0        2.917718    1.297955    0.533028
     30          1           0        2.786164   -0.128225   -0.083798
 ---------------------------------------------------------------------
 Rotational constants (GHZ):      0.7390193      0.6867946      0.4461486
 Standard basis: 6-31G(d) (6D, 7F)
 There are   242 symmetry adapted cartesian basis functions of A   symmetry.
 There are   242 symmetry adapted basis functions of A   symmetry.
   242 basis functions,   456 primitive gaussians,   242 cartesian basis functions
    58 alpha electrons       58 beta electrons
       nuclear repulsion energy      1168.7305816021 Hartrees.
 NAtoms=   30 NActive=   30 NUniq=   30 SFac= 1.00D+00 NAtFMM=   60 NAOKFM=F Big=F
 Integral buffers will be    131072 words long.
 Raffenetti 2 integral format.
 Two-electron integral symmetry is turned on.
 One-electron integrals computed using PRISM.
 NBasis=   242 RedAO= T EigKep=  1.25D-03  NBF=   242
 NBsUse=   242 1.00D-06 EigRej= -1.00D+00 NBFU=   242
 Initial guess from the checkpoint file:  "/scratch/10460707.yak.local/Gau-7403.chk"
 B after Tr=    -0.000000   -0.000000    0.000000
         Rot=    0.999969    0.002023    0.000164   -0.007637 Ang=   0.91 deg.
 ExpMin= 1.61D-01 ExpMax= 5.48D+03 ExpMxC= 8.25D+02 IAcc=1 IRadAn=         1 AccDes= 0.00D+00
 Harris functional with IExCor=  402 and IRadAn=       1 diagonalized for initial guess.
 HarFok:  IExCor=  402 AccDes= 0.00D+00 IRadAn=         1 IDoV= 1 UseB2=F ITyADJ=14
 ICtDFT=  3500011 ScaDFX=  1.000000  1.000000  1.000000  1.000000
 FoFCou: FMM=F IPFlag=           0 FMFlag=      100000 FMFlg1=           0
         NFxFlg=           0 DoJE=T BraDBF=F KetDBF=T FulRan=T
         wScrn=  0.000000 ICntrl=     500 IOpCl=  0 I1Cent=   200000004 NGrid=           0
         NMat0=    1 NMatS0=      1 NMatT0=    0 NMatD0=    1 NMtDS0=    0 NMtDT0=    0
 Petite list used in FoFCou.
 Requested convergence on RMS density matrix=1.00D-08 within 128 cycles.
 Requested convergence on MAX density matrix=1.00D-06.
 Requested convergence on             energy=1.00D-06.
 No special actions if energy rises.
 Integral accuracy reduced to 1.0D-05 until final iterations.
 Initial convergence to 1.0D-05 achieved.  Increase integral accuracy.
 SCF Done:  E(RB3LYP) =  -839.772452606     A.U. after   13 cycles
            NFock= 13  Conv=0.25D-08     -V/T= 2.0077
 Calling FoFJK, ICntrl=      2127 FMM=F ISym2X=0 I1Cent= 0 IOpClX= 0 NMat=1 NMatS=1 NMatT=0.
 ***** Axes restored to original set *****
 -------------------------------------------------------------------
 Center     Atomic                   Forces (Hartrees/Bohr)
 Number     Number              X              Y              Z
 -------------------------------------------------------------------
      1        8           0.025275420    0.018455039    0.009457172
      2        6          -0.021154665   -0.002172782    0.005835370
      3        6          -0.007924099   -0.028852752   -0.012454955
      4        6           0.003167569   -0.011901146    0.021186582
      5        6           0.024684022   -0.060972239    0.039133651
      6        6          -0.004192578   -0.012325573   -0.018573740
      7        1           0.005529356   -0.009705843    0.004068125
      8        1          -0.010140912    0.003982227    0.008020361
      9        1          -0.008636862    0.003218718   -0.007133447
     10        1          -0.004482107   -0.010134164    0.000103617
     11        6          -0.008099735   -0.000274335   -0.001604265
     12        1           0.003712828   -0.004482191   -0.000678259
     13        1           0.000741325    0.001872020    0.006308955
     14        8          -0.003048117    0.002280946    0.002900955
     15        1           0.000742241    0.004159186   -0.001084751
     16        8           0.016366254   -0.023866946   -0.001361921
     17        1          -0.003417264   -0.001817973    0.005418748
     18        8          -0.061950536   -0.042688538    0.015373462
     19        1          -0.005834794   -0.009240705    0.000316857
     20        8           0.000986817   -0.001887393    0.003213335
     21        1           0.001499011    0.013295942   -0.000680748
     22        1          -0.018004269   -0.005275298   -0.009093292
     23        8           0.002954205    0.042423764   -0.031446484
     24        1          -0.012048624    0.024068464   -0.036473994
     25        8          -0.023828281   -0.039985535   -0.000686390
     26        1          -0.003270819   -0.007802099    0.005211289
     27        1           0.036930497    0.008827216    0.015026827
     28        8           0.051719611    0.076105257   -0.021518706
     29        1           0.011252358    0.012520679   -0.010858258
     30        1           0.010472147    0.062176055    0.012073905
 -------------------------------------------------------------------
 Cartesian Forces:  Max     0.076105257 RMS     0.021112734

 GradGradGradGradGradGradGradGradGradGradGradGradGradGradGradGradGradGrad
 Berny optimization.
 Search for a saddle point.
 Step number   2 out of a maximum of  180
 All quantities printed in internal units (Hartrees-Bohrs-Radians)
 Swapping is turned off.
 Update second derivatives using D2CorN and points    1    2
 ITU=  0  0
     Eigenvalues ---   -0.19803  -0.02191  -0.01752  -0.00704  -0.00310
     Eigenvalues ---    0.00023   0.00069   0.00213   0.00382   0.00548
     Eigenvalues ---    0.00640   0.00694   0.00802   0.00947   0.01065
     Eigenvalues ---    0.01419   0.01618   0.01785   0.02028   0.02215
     Eigenvalues ---    0.02718   0.02940   0.03157   0.03264   0.03759
     Eigenvalues ---    0.04120   0.04786   0.04822   0.05285   0.05660
     Eigenvalues ---    0.06301   0.06405   0.06714   0.07154   0.07602
     Eigenvalues ---    0.07914   0.08025   0.08226   0.08607   0.09917
     Eigenvalues ---    0.10679   0.10810   0.11585   0.12244   0.12539
     Eigenvalues ---    0.13933   0.14928   0.15973   0.16904   0.18196
     Eigenvalues ---    0.18619   0.19228   0.20693   0.21681   0.23673
     Eigenvalues ---    0.24697   0.27073   0.28483   0.30260   0.31700
     Eigenvalues ---    0.39041   0.42973   0.48627   0.50127   0.53054
     Eigenvalues ---    0.59537   0.62444   0.64738   0.67242   0.68009
     Eigenvalues ---    0.76933   0.80978   0.82615   0.85285   0.86257
     Eigenvalues ---    0.86910   0.91020   0.94329   0.96143   0.99814
     Eigenvalues ---    1.04516   1.05425   1.07455   1.22233
 Eigenvectors required to have negative eigenvalues:
                          Y27       Y24       Z27       Y1        X5
   1                    0.40154  -0.39327  -0.34477  -0.32944   0.32188
                          X24       X1        X25       Z23       Z25
   1                   -0.28268  -0.23930   0.23702  -0.17317   0.17315
 RFO step:  Lambda0=1.126996055D-03 Lambda=-1.12249250D-01.
 Linear search not attempted -- option 19 set.
 Maximum step size (   0.300) exceeded in Quadratic search.
    -- Step size scaled by   0.263
 B after Tr=     0.003172   -0.002617   -0.002165
         Rot=    1.000000   -0.000023   -0.000202    0.000219 Ang=  -0.03 deg.
 Variable       Old X    -DE/DX   Delta X   Delta X   Delta X     New X
                                 (Linear)    (Quad)   (Total)
    X1       -0.23626   0.02528   0.00000   0.01416   0.01535  -0.22091
    Y1       -2.69041   0.01846   0.00000  -0.01035  -0.01278  -2.70319
    Z1       -2.01128   0.00946   0.00000   0.02213   0.01993  -1.99135
    X2       -0.88349  -0.02115   0.00000  -0.01502  -0.01108  -0.89457
    Y2       -0.04979  -0.00217   0.00000  -0.00446  -0.00678  -0.05657
    Z2        1.97956   0.00584   0.00000  -0.00535  -0.00716   1.97240
    X3        2.42799  -0.00792   0.00000  -0.00181   0.00151   2.42950
    Y3        1.44451  -0.02885   0.00000  -0.01068  -0.01430   1.43021
    Z3       -1.15752  -0.01245   0.00000  -0.03771  -0.04079  -1.19831
    X4        0.41843   0.00317   0.00000   0.00224   0.00670   0.42514
    Y4        2.23363  -0.01190   0.00000  -0.02058  -0.02342   2.21021
    Z4        0.80684   0.02119   0.00000  -0.01253  -0.01476   0.79208
    X5        2.79531   0.02468   0.00000   0.01273   0.01468   2.81000
    Y5       -1.33042  -0.06097   0.00000  -0.02385  -0.02763  -1.35805
    Z5       -1.55877   0.03913   0.00000  -0.00013  -0.00348  -1.56226
    X6       -1.98392  -0.00419   0.00000  -0.00737  -0.00501  -1.98893
    Y6       -1.76728  -0.01233   0.00000  -0.01480  -0.01655  -1.78383
    Z6       -0.06748  -0.01857   0.00000  -0.00556  -0.00700  -0.07447
    X7        1.34716   0.00553   0.00000  -0.00617  -0.00063   1.34654
    Y7        3.28838  -0.00971   0.00000  -0.01285  -0.01616   3.27221
    Z7        2.33135   0.00407   0.00000  -0.01219  -0.01475   2.31661
    X8       -2.58473  -0.01014   0.00000  -0.02047  -0.01850  -2.60323
    Y8       -3.53841   0.00398   0.00000  -0.00152  -0.00304  -3.54145
    Z8        0.82724   0.00802   0.00000   0.01433   0.01305   0.84029
    X9       -2.46639  -0.00864   0.00000  -0.01516  -0.01045  -2.47684
    Y9        0.65437   0.00322   0.00000   0.01309   0.01142   0.66579
    Z9        3.11137  -0.00713   0.00000  -0.01868  -0.01981   3.09156
   X10        1.93415  -0.00448   0.00000  -0.01365  -0.01064   1.92351
   Y10        2.35685  -0.01013   0.00000   0.01088   0.00756   2.36441
   Z10       -2.94794   0.00010   0.00000  -0.01986  -0.02269  -2.97063
   X11       -4.20836  -0.00810   0.00000  -0.01022  -0.00798  -4.21634
   Y11       -0.68303  -0.00027   0.00000  -0.00858  -0.00928  -0.69231
   Z11       -1.56727  -0.00160   0.00000  -0.00007  -0.00056  -1.56784
   X12       -5.04007   0.00371   0.00000  -0.00719  -0.00608  -5.04615
   Y12       -2.16197  -0.00448   0.00000  -0.01269  -0.01298  -2.17495
[...]
    Y5       -1.43084  -0.00029   0.00000   0.00157   0.00233  -1.42851
    Z5       -1.57263   0.00055   0.00000   0.01755   0.01665  -1.55598
    X6       -2.21809   0.00001   0.00000   0.00111   0.00238  -2.21571
    Y6       -1.92895   0.00028   0.00000  -0.00376  -0.00251  -1.93147
    Z6       -0.21742   0.00000   0.00000   0.00390   0.00499  -0.21243
    X7        2.13329  -0.00018   0.00000  -0.03521  -0.03240   2.10088
    Y7        1.17667  -0.00025   0.00000   0.05770   0.05914   1.23581
    Z7        3.22056  -0.00043   0.00000   0.00684   0.00583   3.22640
    X8       -3.40690  -0.00063   0.00000  -0.00144  -0.00004  -3.40693
    Y8       -3.52745  -0.00052   0.00000  -0.00886  -0.00746  -3.53491
    Z8        0.37708   0.00025   0.00000   0.00323   0.00500   0.38209
    X9       -3.05222  -0.00007   0.00000   0.00419   0.00684  -3.04539
    Y9        0.46252   0.00003   0.00000  -0.02299  -0.02127   0.44125
    Z9        2.92125  -0.00001   0.00000   0.02340   0.02450   2.94576
   X10        0.93023  -0.00033   0.00000   0.02927   0.02999   0.96021
   Y10        2.20412  -0.00021   0.00000   0.00436   0.00514   2.20925
   Z10       -2.28040  -0.00023   0.00000  -0.00551  -0.00621  -2.28660
   X11       -3.85367  -0.00140   0.00000   0.00120   0.00189  -3.85178
   Y11       -0.29393  -0.00370   0.00000   0.00005   0.00116  -0.29277
   Z11       -1.98321  -0.00234   0.00000   0.00522   0.00673  -1.97648
   X12       -3.96950  -0.00017   0.00000  -0.05757  -0.05765  -4.02716
   Y12       -1.24829   0.00019   0.00000  -0.02470  -0.02381  -1.27210
   Z12       -3.82792   0.00143   0.00000   0.03349   0.03520  -3.79272
   X13       -3.03965   0.00137   0.00000   0.04259   0.04326  -2.99639
   Y13        1.56576   0.00302   0.00000  -0.00926  -0.00824   1.55752
   Z13       -2.29722   0.00020   0.00000  -0.02702  -0.02609  -2.32331
   X14       -6.27742   0.00081   0.00000   0.03403   0.03519  -6.24224
   Y14        0.14373   0.00178   0.00000   0.06668   0.06809   0.21182
   Z14       -0.90220   0.00089   0.00000   0.05087   0.05324  -0.84896
   X15       -7.26360  -0.00068   0.00000  -0.00892  -0.00793  -7.27153
   Y15       -1.38579  -0.00144   0.00000   0.08521   0.08666  -1.29914
   Z15       -1.08686  -0.00029   0.00000   0.06315   0.06612  -1.02074
   X16        4.38310  -0.00054   0.00000   0.01399   0.01534   4.39845
   Y16        2.66058  -0.00024   0.00000  -0.00441  -0.00363   2.65695
   Z16       -0.75738  -0.00031   0.00000   0.03828   0.03619  -0.72119
   X17        5.61488   0.00039   0.00000  -0.00222  -0.00064   5.61423
   Y17        1.50359  -0.00024   0.00000  -0.00720  -0.00640   1.49719
   Z17       -0.02222   0.00034   0.00000   0.06144   0.05903   0.03681
   X18       -0.32419   0.00059   0.00000  -0.06305  -0.06064  -0.38483
   Y18        3.95093   0.00110   0.00000   0.00341   0.00481   3.95574
   Z18        1.84293  -0.00099   0.00000  -0.05786  -0.05826   1.78466
   X19       -0.48207  -0.00014   0.00000  -0.13071  -0.12759  -0.60966
   Y19        4.44722   0.00030   0.00000   0.01025   0.01190   4.45912
   Z19        3.59723   0.00044   0.00000  -0.06736  -0.06774   3.52949
   X20       -0.53387   0.00434   0.00000   0.04006   0.04295  -0.49092
   Y20       -2.35833   0.00096   0.00000  -0.01002  -0.00831  -2.36665
   Z20        4.04610  -0.00267   0.00000  -0.01451  -0.01404   4.03206
   X21       -1.85483  -0.00372   0.00000   0.01760   0.02095  -1.83388
   Y21       -2.57914  -0.00127   0.00000  -0.04573  -0.04378  -2.62292
   Z21        5.27823   0.00289   0.00000  -0.02327  -0.02224   5.25599
   X22        3.03099  -0.00017   0.00000   0.01222   0.01220   3.04318
   Y22       -1.68192  -0.00033   0.00000  -0.00342  -0.00295  -1.68487
   Z22       -3.61510  -0.00033   0.00000   0.01746   0.01647  -3.59862
   X23        4.33680  -0.00020   0.00000  -0.00268  -0.00137   4.33543
   Y23       -2.49412   0.00004   0.00000  -0.00055   0.00032  -2.49380
   Z23       -0.04834   0.00015   0.00000   0.02726   0.02589  -0.02245
   X24        3.39104  -0.00101   0.00000   0.00046   0.00193   3.39297
   Y24       -4.86731  -0.00039   0.00000  -0.01396  -0.01293  -4.88024
   Z24        0.78086   0.00041   0.00000  -0.02030  -0.02099   0.75986
   X25        1.82148   0.00073   0.00000   0.00793   0.00946   1.83094
   Y25       -6.11314   0.00013   0.00000  -0.02411  -0.02293  -6.13607
   Z25        1.17471  -0.00044   0.00000  -0.04094  -0.04086   1.13385
   X26        1.16649   0.00005   0.00000   0.00936   0.01156   1.17806
   Y26       -5.39265   0.00025   0.00000  -0.03134  -0.02991  -5.42256
   Z26        2.76048  -0.00019   0.00000  -0.03689  -0.03665   2.72382
   X27        0.63117   0.00017   0.00000   0.00676   0.00782   0.63899
   Y27       -4.94793   0.00013   0.00000  -0.00836  -0.00730  -4.95523
   Z27       -0.25776   0.00017   0.00000  -0.02299  -0.02261  -0.28036
   X28        1.47699  -0.00296   0.00000  -0.01388  -0.01312   1.46387
   Y28        6.72641   0.00451   0.00000  -0.02694  -0.02627   6.70014
   Z28       -2.86953  -0.00841   0.00000  -0.02469  -0.02617  -2.89569
   X29        0.63563  -0.00386   0.00000   0.00154   0.00291   0.63854
   Y29        6.43767  -0.00101   0.00000  -0.06006  -0.05913   6.37854
   Z29       -1.28190   0.00794   0.00000   0.00576   0.00464  -1.27726
   X30        3.07749   0.00685   0.00000   0.04232   0.04314   3.12063
   Y30        5.90065  -0.00235   0.00000   0.02313   0.02373   5.92438
   Z30       -2.59073   0.00118   0.00000  -0.01702  -0.01904  -2.60978
         Item               Value     Threshold  Converged?
 Maximum Force            0.008413     0.000450     NO 
 RMS     Force            0.001927     0.000300     NO 
 Maximum Displacement     0.127590     0.001800     NO 
 RMS     Displacement     0.031590     0.001200     NO 
 Predicted change in Energy=-7.562129D-04
 GradGradGradGradGradGradGradGradGradGradGradGradGradGradGradGradGradGrad

                          Input orientation:                          
 ---------------------------------------------------------------------
 Center     Atomic      Atomic             Coordinates (Angstroms)
 Number     Number       Type             X           Y           Z
 ---------------------------------------------------------------------
      1          8           0       -0.057296   -1.590815   -0.811087
      2          6           0       -0.735474   -0.285974    1.157277
      3          6           0        1.103320    0.677973   -0.437875
      4          6           0        0.367770    0.777551    0.912857
      5          6           0        1.453375   -0.755936   -0.823390
      6          6           0       -1.172505   -1.022087   -0.112413
      7          1           0        1.111740    0.653962    1.707335
      8          1           0       -1.802872   -1.870596    0.202191
      9          1           0       -1.611548    0.233498    1.558827
     10          1           0        0.508123    1.169086   -1.210019
     11          6           0       -2.038274   -0.154927   -1.045909
     12          1           0       -2.131079   -0.673168   -2.007023
     13          1           0       -1.585623    0.824205   -1.229440
     14          8           0       -3.303250    0.112090   -0.449251
     15          1           0       -3.847926   -0.687473   -0.540155
     16          8           0        2.327558    1.405995   -0.381638
     17          1           0        2.970924    0.792278    0.019479
     18          8           0       -0.203646    2.093287    0.944403
     19          1           0       -0.322619    2.359664    1.867726
     20          8           0       -0.259782   -1.252375    2.133675
     21          1           0       -0.970448   -1.387989    2.781349
     22          1           0        1.610383   -0.891593   -1.904309
     23          8           0        2.294211   -1.319663   -0.011880
     24          1           0        1.795483   -2.582510    0.402101
     25          8           0        0.968893   -3.247071    0.600007
     26          1           0        0.623400   -2.869496    1.441386
     27          1           0        0.338137   -2.622196   -0.148362
     28          8           0        0.774647    3.545563   -1.532336
     29          1           0        0.337902    3.375378   -0.675899
     30          1           0        1.651369    3.135047   -1.381034
 ---------------------------------------------------------------------
                    Distance matrix (angstroms):
                    1          2          3          4          5
     1  O    0.000000
     2  C    2.457029   0.000000
     3  C    2.575600   2.618180   0.000000
     4  C    2.960037   1.551764   1.541242   0.000000
     5  C    1.726065   2.989142   1.525535   2.558256   0.000000
     6  C    1.433627   1.531330   2.859285   2.581147   2.733417
     7  H    3.570451   2.144352   2.145361   1.095428   2.917036
     8  H    2.037656   2.136013   3.918014   3.497057   3.591299
     9  H    3.370506   1.094806   3.399248   2.151969   4.005957
    10  H    2.845329   3.044310   1.091630   2.163238   2.179150
    11  C    2.457883   2.562907   3.306514   3.239649   3.549977
    12  H    2.563769   3.480004   3.840461   4.107862   3.775732
    13  H    2.888446   2.766166   2.806843   2.899544   3.449237
    14  O    3.683344   3.054973   4.442770   3.971720   4.849632
    15  H    3.906188   3.567889   5.137094   4.693573   5.309304
    16  O    3.853936   3.822720   1.425461   2.431343   2.373455
    17  H    3.941965   4.024252   1.926184   2.752227   2.326016
    18  O    4.083597   2.447251   2.371068   1.434808   3.740171
    19  H    4.780451   2.770304   3.190169   1.972687   4.483662
    20  O    2.971054   1.453811   3.492443   2.450472   3.453345
    21  H    3.712220   1.976678   4.351105   3.157792   4.389595
    22  H    2.113102   3.904245   2.207052   3.502364   1.100655
    23  O    2.498368   3.407996   2.364370   2.994098   1.297436
    24  H    2.426536   3.500016   3.437354   3.686359   2.226036
    25  O    2.405709   3.461721   4.062172   4.081274   2.909730
    26  H    2.678060   2.932890   4.043079   3.694001   3.207055
    27  H    1.288146   2.883620   3.400065   3.561648   2.276476
    28  O    5.253066   4.918857   3.086898   3.715697   4.412049
    29  H    4.983727   4.232986   2.813985   3.045283   4.281798
    30  H    5.057484   4.882973   2.688329   3.530913   3.935723
                    6          7          8          9         10
     6  C    0.000000
     7  H    3.367254   0.000000
     8  H    1.102862   4.139301   0.000000
     9  H    2.135953   2.759556   2.510832   0.000000
    10  H    2.971614   3.023353   4.071203   3.610379   0.000000
    11  C    1.540435   4.261132   2.134640   2.667887   2.874730
    12  H    2.151780   5.106232   2.534202   3.715809   3.315796
    13  H    2.197092   3.991166   3.059202   2.850271   2.122048
    14  O    2.437190   4.943342   2.570322   2.628492   4.027725
    15  H    2.729983   5.607937   2.476510   3.202389   4.782331
    16  O    4.268314   2.531319   5.304465   4.544966   2.013129
    17  H    4.525188   2.514867   5.469315   4.866301   2.778317
    18  O    3.429446   2.093791   4.338291   2.412161   2.449958
    19  H    4.009925   2.234397   4.781239   2.505462   3.402957
    20  O    2.435366   2.386830   2.548323   2.089388   4.199219
    21  H    2.923793   3.107825   2.752797   2.129504   4.965462
    22  H    3.312459   3.959970   4.128692   4.862096   2.437912
    23  O    3.480916   2.872131   4.139497   4.487136   3.289304
    24  H    3.392432   3.556106   3.673546   4.569002   4.281437
    25  O    3.169176   4.057664   3.120195   4.437609   4.794887
    26  H    3.008735   3.567067   2.901758   3.825880   4.832534
    27  H    2.200835   3.843863   2.296020   3.856261   3.940790
    28  O    5.164398   4.355508   6.243954   5.120448   2.412999
    29  H    4.683647   3.699289   5.733603   4.320390   2.276398
    30  H    5.183186   3.998125   6.284491   5.263876   2.280627
                   11         12         13         14         15
    11  C    0.000000
    12  H    1.095868   0.000000
    13  H    1.094201   1.773213   0.000000
    14  O    1.423890   2.101729   2.016444   0.000000
    15  H    1.953007   2.258200   2.806832   0.971719   0.000000
    16  O    4.683825   5.181143   4.046014   5.777954   6.522602
    17  H    5.208101   5.681961   4.724716   6.328319   6.999970
    18  O    3.518759   4.480980   2.871589   3.933822   4.818435
    19  H    4.213776   5.242354   3.680387   4.393646   5.245067
    20  O    3.804889   4.580678   4.169003   4.218527   4.510350
    21  H    4.160360   4.978607   4.621544   4.257814   4.450055
    22  H    3.819976   3.749239   3.689696   5.221911   5.629895
    23  O    4.603939   4.897116   4.596927   5.794202   6.197143
    24  H    4.763148   4.986718   5.069468   5.829472   6.027194
    25  O    4.616649   4.799105   5.142734   5.534989   5.572544
    26  H    4.543130   4.929760   5.065227   5.280431   5.355416
    27  H    3.541233   3.653814   4.092342   4.563612   4.628150
    28  O    4.673623   5.144537   3.615025   5.439765   6.345959
    29  H    4.271554   4.925291   3.242659   4.894732   5.834925
    30  H    4.954765   5.403820   3.980085   5.878327   6.749887
                   16         17         18         19         20
    16  O    0.000000
    17  H    0.975430   0.000000
    18  O    2.939004   3.553309   0.000000
    19  H    3.604519   4.089027   0.968316   0.000000
    20  O    4.481970   4.368969   3.551193   3.622361   0.000000
    21  H    5.356088   5.283550   4.010192   3.911431   0.971040
    22  H    2.848118   2.896111   4.507257   5.341855   4.464638
    23  O    2.750827   2.217932   4.336127   4.890620   3.336287
    24  H    4.099454   3.594058   5.114067   5.573104   2.998619
    25  O    4.945768   4.545490   5.478401   5.891569   2.800105
    26  H    4.950494   4.576164   5.055711   5.331120   1.968339
    27  H    4.498726   4.314901   4.870671   5.414807   2.727931
    28  O    2.883295   3.848681   3.033215   3.764408   6.126164
    29  H    2.814923   3.753501   2.135980   2.817444   5.446745
    30  H    2.108469   3.031704   3.151824   3.879727   5.937604
                   21         22         23         24         25
    21  H    0.000000
    22  H    5.372382   0.000000
    23  O    4.297068   2.057220   0.000000
    24  H    3.839019   2.865832   1.419469   0.000000
    25  O    3.460561   3.497340   2.417803   1.078915   0.000000
    26  H    2.555527   4.009976   2.702882   1.592561   0.984808
    27  H    3.437857   2.774338   2.354027   1.558346   1.161197
    28  O    6.781826   4.530471   5.318955   6.506722   7.122112
    29  H    6.029429   4.619009   5.129472   6.227605   6.773693
    30  H    6.682604   4.060705   4.704495   5.990892   6.717270
                   26         27         28         29         30
    26  H    0.000000
    27  H    1.633961   0.000000
    28  O    7.072402   6.336179   0.000000
    29  H    6.600217   6.020730   0.976316   0.000000
    30  H    6.713963   6.032404   0.979825   1.510023   0.000000
 Stoichiometry    C6H16O8
 Framework group  C1[X(C6H16O8)]
 Deg. of freedom    84
 Full point group                 C1      NOp   1
 Largest Abelian subgroup         C1      NOp   1
 Largest concise Abelian subgroup C1      NOp   1
                         Standard orientation:                         
 ---------------------------------------------------------------------
 Center     Atomic      Atomic             Coordinates (Angstroms)
 Number     Number       Type             X           Y           Z
 ---------------------------------------------------------------------
      1          8           0       -1.281121   -0.074708   -1.184598
      2          6           0       -0.633752    0.763391    1.032494
      3          6           0        0.995318   -0.835261   -0.250201
      4          6           0        0.633092   -0.131863    1.072467
      5          6           0       -0.217767   -1.417173   -0.969271
      6          6           0       -1.103335    1.101990   -0.385186
      7          1           0        0.451728   -0.908043    1.823874
      8          1           0       -2.099537    1.566922   -0.297306
      9          1           0       -0.388876    1.704493    1.535448
     10          1           0        1.547872   -0.142584   -0.887804
     11          6           0       -0.199982    2.130658   -1.091398
     12          1           0       -0.476691    2.159384   -2.151366
     13          1           0        0.857905    1.859606   -1.022974
     14          8           0       -0.311374    3.405467   -0.466963
     15          1           0       -1.147213    3.805910   -0.758951
     16          8           0        1.890018   -1.916148    0.001068
     17          1           0        1.319212   -2.667028    0.249709
     18          8           0        1.780929    0.657488    1.416076
     19          1           0        1.789555    0.794743    2.374576
     20          8           0       -1.710353    0.100380    1.750068
     21          1           0       -2.121496    0.758358    2.333974
     22          1           0       -0.056673   -1.564821   -2.048016
     23          8           0       -0.806283   -2.365358   -0.307505
     24          1           0       -2.198994   -2.104517   -0.222589
     25          8           0       -3.025561   -1.411288   -0.205866
     26          1           0       -2.930459   -1.029476    0.696919
     27          1           0       -2.357385   -0.661124   -0.788251
     28          8           0        3.940204    0.015305   -0.615064
     29          1           0        3.493102    0.391750    0.166973
     30          1           0        3.664826   -0.923130   -0.555365
 ---------------------------------------------------------------------
 Rotational constants (GHZ):      0.6942378      0.5686657      0.4152402
 Standard basis: 6-31G(d) (6D, 7F)
 There are   242 symmetry adapted cartesian basis functions of A   symmetry.
 There are   242 symmetry adapted basis functions of A   symmetry.
   242 basis functions,   456 primitive gaussians,   242 cartesian basis functions
    58 alpha electrons       58 beta electrons
       nuclear repulsion energy      1126.0428964103 Hartrees.
 NAtoms=   30 NActive=   30 NUniq=   30 SFac= 1.00D+00 NAtFMM=   60 NAOKFM=F Big=F
 Integral buffers will be    131072 words long.
 Raffenetti 2 integral format.
 Two-electron integral symmetry is turned on.
 One-electron integrals computed using PRISM.
 NBasis=   242 RedAO= T EigKep=  1.41D-03  NBF=   242
 NBsUse=   242 1.00D-06 EigRej= -1.00D+00 NBFU=   242
 Initial guess from the checkpoint file:  "/scratch/10460707.yak.local/Gau-7403.chk"
 B after Tr=    -0.000000    0.000000   -0.000000
         Rot=    0.999924    0.002643    0.000172    0.012076 Ang=   1.42 deg.
 ExpMin= 1.61D-01 ExpMax= 5.48D+03 ExpMxC= 8.25D+02 IAcc=1 IRadAn=         1 AccDes= 0.00D+00
 Harris functional with IExCor=  402 and IRadAn=       1 diagonalized for initial guess.
 HarFok:  IExCor=  402 AccDes= 0.00D+00 IRadAn=         1 IDoV= 1 UseB2=F ITyADJ=14
 ICtDFT=  3500011 ScaDFX=  1.000000  1.000000  1.000000  1.000000
 FoFCou: FMM=F IPFlag=           0 FMFlag=      100000 FMFlg1=           0
         NFxFlg=           0 DoJE=T BraDBF=F KetDBF=T FulRan=T
         wScrn=  0.000000 ICntrl=     500 IOpCl=  0 I1Cent=   200000004 NGrid=           0
         NMat0=    1 NMatS0=      1 NMatT0=    0 NMatD0=    1 NMtDS0=    0 NMtDT0=    0
 Petite list used in FoFCou.
 Requested convergence on RMS density matrix=1.00D-08 within 128 cycles.
 Requested convergence on MAX density matrix=1.00D-06.
 Requested convergence on             energy=1.00D-06.
 No special actions if energy rises.
 Integral accuracy reduced to 1.0D-05 until final iterations.
