 Entering Gaussian System, Link 0=g09
 Initial command:
 /global/software/gaussian/g09.e01/l1.exe "/scratch/10460708.yak.local/Gau-2674.inp" -scrdir="/scratch/10460708.yak.local/"
 Entering Link 1 = /global/software/gaussian/g09.e01/l1.exe PID=      2675.
  
 Copyright (c) 1988,1990,1992,1993,1995,1998,2003,2009,2015,
            Gaussian, Inc.  All Rights Reserved.
  
 This is part of the Gaussian(R) 09 program.  It is based on
 the Gaussian(R) 03 system (copyright 2003, Gaussian, Inc.),
 the Gaussian(R) 98 system (copyright 1998, Gaussian, Inc.),
 the Gaussian(R) 94 system (copyright 1995, Gaussian, Inc.),
 the Gaussian 92(TM) system (copyright 1992, Gaussian, Inc.),
 the Gaussian 90(TM) system (copyright 1990, Gaussian, Inc.),
 the Gaussian 88(TM) system (copyright 1988, Gaussian, Inc.),
 the Gaussian 86(TM) system (copyright 1986, Carnegie Mellon
 University), and the Gaussian 82(TM) system (copyright 1983,
 Carnegie Mellon University). Gaussian is a federally registered
 trademark of Gaussian, Inc.
  
 This software contains proprietary and confidential information,
 including trade secrets, belonging to Gaussian, Inc.
  
 This software is provided under written license and may be
 used, copied, transmitted, or stored only in accord with that
 written license.
  
 The following legend is applicable only to US Government
 contracts under FAR:
  
                    RESTRICTED RIGHTS LEGEND
  
 Use, reproduction and disclosure by the US Government is
 subject to restrictions as set forth in subparagraphs (a)
 and (c) of the Commercial Computer Software - Restricted
 Rights clause in FAR 52.227-19.
  
 Gaussian, Inc.
 340 Quinnipiac St., Bldg. 40, Wallingford CT 06492
  
  
 ---------------------------------------------------------------
 Warning -- This program may not be used in any manner that
 competes with the business of Gaussian, Inc. or will provide
 assistance to any competitor of Gaussian, Inc.  The licensee
 of this program is prohibited from giving any competitor of
 Gaussian, Inc. access to this program.  By using this program,
 the user acknowledges that Gaussian, Inc. is engaged in the
 business of creating and licensing software in the field of
 computational chemistry and represents and warrants to the
 licensee that it is not a competitor of Gaussian, Inc. and that
 it will not use this program in any manner prohibited above.
 ---------------------------------------------------------------
  

 Cite this work as:
 Gaussian 09, Revision E.01,
 M. J. Frisch, G. W. Trucks, H. B. Schlegel, G. E. Scuseria, 
 M. A. Robb, J. R. Cheeseman, G. Scalmani, V. Barone, B. Mennucci, 
 G. A. Petersson, H. Nakatsuji, M. Caricato, X. Li, H. P. Hratchian, 
 A. F. Izmaylov, J. Bloino, G. Zheng, J. L. Sonnenberg, M. Hada, 
 M. Ehara, K. Toyota, R. Fukuda, J. Hasegawa, M. Ishida, T. Nakajima, 
 Y. Honda, O. Kitao, H. Nakai, T. Vreven, J. A. Montgomery, Jr., 
 J. E. Peralta, F. Ogliaro, M. Bearpark, J. J. Heyd, E. Brothers, 
 K. N. Kudin, V. N. Staroverov, T. Keith, R. Kobayashi, J. Normand, 
 K. Raghavachari, A. Rendell, J. C. Burant, S. S. Iyengar, J. Tomasi, 
 M. Cossi, N. Rega, J. M. Millam, M. Klene, J. E. Knox, J. B. Cross, 
 V. Bakken, C. Adamo, J. Jaramillo, R. Gomperts, R. E. Stratmann, 
 O. Yazyev, A. J. Austin, R. Cammi, C. Pomelli, J. W. Ochterski, 
 R. L. Martin, K. Morokuma, V. G. Zakrzewski, G. A. Voth, 
 P. Salvador, J. J. Dannenberg, S. Dapprich, A. D. Daniels, 
 O. Farkas, J. B. Foresman, J. V. Ortiz, J. Cioslowski, 
 and D. J. Fox, Gaussian, Inc., Wallingford CT, 2013.
 
 ******************************************
 Gaussian 09:  ES64L-G09RevE.01 30-Nov-2015
                13-Jan-2017 
 ******************************************
 %NPROCS=4
 Will use up to    4 processors via shared memory.
 ----------------------------------------------------------------------
 # opt=(calcfc,ts,noeigentest,maxcycle=1000,cartesian) b3lyp 6-31g(d) f
 req
 ----------------------------------------------------------------------
 1/5=1,6=1000,10=4,11=1,14=-1,18=10,26=3,38=1/1,3;
 2/12=2,17=6,18=5,29=2,40=1/2;
 3/5=1,6=6,7=1,11=2,16=1,25=1,30=1,71=2,74=-5,140=1/1,2,3;
 4//1;
 5/5=2,38=5/2;
 8/6=4,10=90,11=11/1;
 11/6=1,8=1,9=11,15=111,16=1/1,2,10;
 10/6=1,13=1/2;
 6/7=2,8=2,9=2,10=2,28=1/1;
 7/7=1,10=1,18=20,25=1/1,2,3,16;
 1/5=1,6=1000,10=4,11=1,14=-1,18=10,26=3/3(2);
 2/29=1/2;
 99/12=1/99;
 2/29=1/2;
 3/5=1,6=6,7=1,11=2,16=1,25=1,30=1,71=1,74=-5/1,2,3;
 4/5=5,16=3,69=1/1;
 5/5=2,38=5/2;
 7/7=1/1,2,3,16;
 1/5=1,6=1000,11=1,14=-1,18=10,26=3/3(-5);
 2/29=1/2;
 6/7=2,8=2,9=2,10=2,19=2,28=1/1;
 99/9=1,12=1/99;
 -------------------------
 boat5_Alpha_B3LYP_6-31G_d
 -------------------------
 Symbolic Z-matrix:
 Charge =  0 Multiplicity = 1
 O                    -0.13418  -1.41676  -1.07458 
 C                    -0.46059  -0.0233    1.05039 
 C                     1.29061   0.77391  -0.58771 
 C                     0.21908   1.19207   0.43193 
 C                     1.47022  -0.6867   -0.82699 
 C                    -1.04763  -0.92667  -0.03055 
 H                     0.70935   1.75001   1.2394 
 H                    -1.35822  -1.87147   0.43142 
 H                    -1.29891   0.34143   1.65583 
 H                     1.03472   1.24278  -1.54735 
 C                    -2.22374  -0.35729  -0.8275 
 H                    -2.66652  -1.13766  -1.45745 
 H                    -1.8977    0.42542  -1.51882 
 O                    -3.23207   0.1728    0.02419 
 H                    -3.71199  -0.58253   0.40955 
 O                     2.58905   1.2717   -0.24602 
 H                     3.06477   0.54043   0.1872 
 O                    -0.6871    2.11615  -0.17616 
 H                    -1.468     2.20543   0.40313 
 O                     0.35593  -0.71679   1.99192 
 H                    -0.15597  -1.48059   2.33917 
 H                     2.05612  -0.86235  -1.737 
 O                     2.1257   -1.39898   0.21999 
 H                     0.88307  -3.59634   0.71184 
 O                     0.16982  -3.63185  -0.25399 
 H                    -0.6468   -4.03479   0.04992 
 H                    -0.12043  -2.55826  -0.70472 
 O                     1.88356  -3.33085   1.3189 
 H                     2.62165  -3.90086   1.54675 
 H                     2.42744  -2.31563   0.94507 
 

 GradGradGradGradGradGradGradGradGradGradGradGradGradGradGradGradGradGrad
 Berny optimization.
 Initialization pass.
 No Z-matrix variables, so optimization will use Cartesian coordinates.
 Trust Radius=3.00D-01 FncErr=1.00D-07 GrdErr=1.00D-06
 Number of steps in this run=    180 maximum allowed number of steps=    180.
 Search for a saddle point of order  1.
 GradGradGradGradGradGradGradGradGradGradGradGradGradGradGradGradGradGrad

 ---------------------------------------------------------------------------------------------------
                            Z-MATRIX (ANGSTROMS AND DEGREES)
   CD    Cent   Atom    N1       Length/X        N2       Alpha/Y        N3        Beta/Z          J
 ---------------------------------------------------------------------------------------------------
      1      1  O        0  -0.134179         -1.416760         -1.074580
      2      2  C        0  -0.460586         -0.023297          1.050390
      3      3  C        0   1.290608          0.773912         -0.587710
      4      4  C        0   0.219084          1.192073          0.431930
      5      5  C        0   1.470224         -0.686701         -0.826985
      6      6  C        0  -1.047625         -0.926668         -0.030545
      7      7  H        0   0.709349          1.750014          1.239399
      8      8  H        0  -1.358221         -1.871468          0.431419
      9      9  H        0  -1.298905          0.341429          1.655826
     10     10  H        0   1.034723          1.242779         -1.547347
     11     11  C        0  -2.223738         -0.357293         -0.827497
     12     12  H        0  -2.666520         -1.137662         -1.457447
     13     13  H        0  -1.897696          0.425422         -1.518824
     14     14  O        0  -3.232070          0.172799          0.024187
     15     15  H        0  -3.711993         -0.582534          0.409546
     16     16  O        0   2.589051          1.271700         -0.246018
     17     17  H        0   3.064768          0.540426          0.187198
     18     18  O        0  -0.687100          2.116154         -0.176156
     19     19  H        0  -1.468002          2.205432          0.403131
     20     20  O        0   0.355928         -0.716785          1.991920
     21     21  H        0  -0.155970         -1.480588          2.339167
     22     22  H        0   2.056121         -0.862353         -1.737002
     23     23  O        0   2.125696         -1.398983          0.219990
     24     24  H        0   0.883065         -3.596342          0.711844
     25     25  O        0   0.169825         -3.631847         -0.253991
     26     26  H        0  -0.646800         -4.034790          0.049918
     27     27  H        0  -0.120431         -2.558256         -0.704717
     28     28  O        0   1.883562         -3.330850          1.318902
     29     29  H        0   2.621653         -3.900858          1.546746
     30     30  H        0   2.427441         -2.315629          0.945070
 ---------------------------------------------------------------------------------------------------
                         Z-Matrix orientation:                         
 ---------------------------------------------------------------------
 Center     Atomic      Atomic             Coordinates (Angstroms)
 Number     Number       Type             X           Y           Z
 ---------------------------------------------------------------------
      1          8           0       -0.134179   -1.416760   -1.074580
      2          6           0       -0.460586   -0.023297    1.050390
      3          6           0        1.290608    0.773912   -0.587710
      4          6           0        0.219084    1.192073    0.431930
      5          6           0        1.470224   -0.686701   -0.826985
      6          6           0       -1.047625   -0.926668   -0.030545
      7          1           0        0.709349    1.750014    1.239399
      8          1           0       -1.358221   -1.871468    0.431419
      9          1           0       -1.298905    0.341429    1.655826
     10          1           0        1.034723    1.242779   -1.547347
     11          6           0       -2.223738   -0.357293   -0.827497
     12          1           0       -2.666520   -1.137662   -1.457447
     13          1           0       -1.897696    0.425422   -1.518824
     14          8           0       -3.232070    0.172799    0.024187
     15          1           0       -3.711993   -0.582534    0.409546
     16          8           0        2.589051    1.271700   -0.246018
     17          1           0        3.064768    0.540426    0.187198
     18          8           0       -0.687100    2.116154   -0.176156
     19          1           0       -1.468002    2.205432    0.403131
     20          8           0        0.355928   -0.716785    1.991920
     21          1           0       -0.155970   -1.480588    2.339167
     22          1           0        2.056121   -0.862353   -1.737002
     23          8           0        2.125696   -1.398983    0.219990
     24          1           0        0.883065   -3.596342    0.711844
     25          8           0        0.169825   -3.631847   -0.253991
     26          1           0       -0.646800   -4.034790    0.049918
     27          1           0       -0.120431   -2.558256   -0.704717
     28          8           0        1.883562   -3.330850    1.318902
     29          1           0        2.621653   -3.900858    1.546746
     30          1           0        2.427441   -2.315629    0.945070
 ---------------------------------------------------------------------
                    Distance matrix (angstroms):
                    1          2          3          4          5
     1  O    0.000000
     2  C    2.561987   0.000000
     3  C    2.658215   2.526973   0.000000
     4  C    3.033212   1.523669   1.537104   0.000000
     5  C    1.780000   2.773566   1.490941   2.584572   0.000000
     6  C    1.471252   1.526144   2.944442   2.511473   2.651691
     7  H    4.011795   2.132863   2.151503   1.097116   3.284274
     8  H    1.993256   2.145835   3.879814   3.445747   3.314718
     9  H    3.450063   1.096520   3.453415   2.127394   3.858689
    10  H    2.943296   3.253788   1.098279   2.141349   2.105107
    11  C    2.355796   2.597444   3.699696   3.155007   3.708621
    12  H    2.576283   3.520966   4.479891   4.162225   4.208741
    13  H    2.588625   2.977834   3.339716   2.978918   3.613633
    14  O    3.651152   2.961869   4.603300   3.621552   4.855389
    15  H    3.962236   3.360815   5.278303   4.313131   5.328718
    16  O    3.915395   3.557805   1.431957   2.466313   2.329084
    17  H    3.956757   3.673010   1.950036   2.929583   2.253215
    18  O    3.687054   2.476484   2.425349   1.429987   3.596335
    19  H    4.133157   2.530032   3.262046   1.968244   4.302417
    20  O    3.183330   1.426219   3.122546   2.469015   3.031301
    21  H    3.414413   1.969120   3.967614   3.304744   3.646818
    22  H    2.354482   3.848036   2.141085   3.507084   1.096476
    23  O    2.604470   3.044820   2.463985   3.223920   1.425884
    24  H    2.996110   3.832318   4.577560   4.842328   3.343465
    25  O    2.381679   3.888503   4.558315   4.872691   3.270053
    26  H    2.895057   4.138562   5.223383   5.311853   4.057148
    27  H    1.200000   3.101954   3.620506   3.933472   2.459238
    28  O    3.669302   4.062885   4.564629   4.900412   3.430336
    29  H    4.542764   4.978157   5.308583   5.740479   4.158268
    30  H    3.383614   3.688709   3.631400   4.176616   2.590337
                    6          7          8          9         10
     6  C    0.000000
     7  H    3.444465   0.000000
     8  H    1.096598   4.247683   0.000000
     9  H    2.124867   2.488093   2.529744   0.000000
    10  H    3.367991   2.851159   4.397753   4.064304   0.000000
    11  C    1.530543   4.161226   2.150980   2.740515   3.700808
    12  H    2.168269   5.196936   2.412039   3.708173   4.401566
    13  H    2.183058   4.019829   3.061076   3.231719   3.044334
    14  O    2.446145   4.415782   2.802887   2.535312   4.671199
    15  H    2.722309   5.067317   2.683668   2.868783   5.449083
    16  O    4.254957   2.443057   5.091108   4.427032   2.027370
    17  H    4.371676   2.849250   5.043779   4.608482   2.760984
    18  O    3.067564   2.021862   4.089093   2.622997   2.368042
    19  H    3.189803   2.376469   4.078476   2.252187   3.315825
    20  O    2.470704   2.603131   2.589742   1.992799   4.102081
    21  H    2.591797   3.520661   2.288602   2.256768   4.892797
    22  H    3.542509   4.182968   4.168704   4.921034   2.347510
    23  O    3.218045   3.600197   3.522162   4.101043   3.360448
    24  H    3.377257   5.375129   2.842040   4.599798   5.342662
    25  O    2.974912   5.611214   2.429742   4.646664   5.116913
    26  H    3.134893   6.059534   2.309031   4.706960   5.764677
    27  H    1.994060   4.798886   1.815105   3.920349   4.061068
    28  O    4.024047   5.215389   3.664230   4.871062   5.463881
    29  H    4.979684   5.973585   4.604539   5.777514   6.208764
    30  H    3.867443   4.423564   3.846082   4.631499   4.562244
                   11         12         13         14         15
    11  C    0.000000
    12  H    1.096298   0.000000
    13  H    1.094020   1.743011   0.000000
    14  O    1.422356   2.057278   2.055543   0.000000
    15  H    1.948310   2.210621   2.833065   0.974349   0.000000
    16  O    5.114164   5.907082   4.739949   5.930096   6.600841
    17  H    5.459286   6.194231   5.248789   6.309666   6.872770
    18  O    2.983864   4.018349   2.475252   3.208370   4.095844
    19  H    2.941622   4.009298   2.654616   2.717928   3.578867
    20  O    3.838362   4.605482   4.325365   4.187728   4.366911
    21  H    3.945278   4.564508   4.642260   4.189894   4.144302
    22  H    4.404484   4.738912   4.163969   5.669065   6.160934
    23  O    4.593465   5.084036   4.747590   5.586993   5.897553
    24  H    4.744811   4.832234   5.374300   5.622600   5.503543
    25  O    4.096432   3.964103   4.726084   5.111321   4.980672
    26  H    4.096410   3.839891   4.890724   4.938429   4.630638
    27  H    3.046836   3.011189   3.567040   4.203838   4.247867
    28  O    5.506268   5.763804   6.038227   6.334156   6.300032
    29  H    6.455362   6.680210   6.966989   7.292389   7.240136
    30  H    5.348881   5.753966   5.682511   6.250628   6.401800
                   16         17         18         19         20
    16  O    0.000000
    17  H    0.974035   0.000000
    18  O    3.383955   4.085518   0.000000
    19  H    4.213422   4.833723   0.976397   0.000000
    20  O    3.734873   3.489328   3.716720   3.793458   0.000000
    21  H    4.668341   4.369052   4.421029   4.365364   0.982860
    22  H    2.657297   2.586059   4.339701   5.139155   4.100818
    23  O    2.750347   2.155049   4.519396   5.093134   2.595614
    24  H    5.246496   4.706159   5.990540   6.267647   3.195046
    25  O    5.467860   5.097372   5.812047   6.098205   3.684608
    26  H    6.222310   5.892977   6.155229   6.303927   3.973158
    27  H    4.713837   4.532420   4.738206   5.073065   3.299967
    28  O    4.912246   4.202711   6.205913   6.536210   3.101605
    29  H    5.474524   4.665803   7.079595   7.437736   3.933193
    30  H    3.783350   3.022846   5.531565   5.992342   2.818397
                   21         22         23         24         25
    21  H    0.000000
    22  H    4.678751   0.000000
    23  O    3.115055   2.030426   0.000000
    24  H    2.864296   3.853259   2.571855   0.000000
    25  O    3.385044   3.664360   3.005956   1.201170   0.000000
    26  H    3.464898   4.534669   3.829248   1.723621   0.960000
    27  H    3.229219   2.946028   2.691484   2.022689   1.200000
    28  O    2.936682   3.932151   2.235699   1.200000   2.345525
    29  H    3.768398   4.509472   2.875001   1.952557   3.053929
    30  H    3.052017   3.073011   1.207075   2.019831   2.875240
                   26         27         28         29         30
    26  H    0.000000
    27  H    1.739739   0.000000
    28  O    2.916948   2.950920   0.000000
    29  H    3.597391   3.793507   0.960000   0.000000
    30  H    3.634249   3.045048   1.210880   1.706659   0.000000
 Stoichiometry    C6H16O8
 Framework group  C1[X(C6H16O8)]
 Deg. of freedom    84
 Full point group                 C1      NOp   1
 Largest Abelian subgroup         C1      NOp   1
 Largest concise Abelian subgroup C1      NOp   1
                         Standard orientation:                         
 ---------------------------------------------------------------------
 Center     Atomic      Atomic             Coordinates (Angstroms)
 Number     Number       Type             X           Y           Z
 ---------------------------------------------------------------------
      1          8           0        0.213910   -0.748549   -1.235805
      2          6           0       -0.726844   -0.070755    1.048786
      3          6           0       -0.341014    1.779237   -0.628790
      4          6           0       -1.230311    1.264325    0.514322
      5          6           0        0.804976    0.919090   -1.040808
      6          6           0       -0.617150   -1.099152   -0.073480
      7          1           0       -1.192658    1.990761    1.335624
      8          1           0       -0.080955   -1.977375    0.305659
      9          1           0       -1.475887   -0.445023    1.756751
     10          1           0       -0.983726    1.926341   -1.507139
     11          6           0       -1.933247   -1.559440   -0.704817
     12          1           0       -1.753717   -2.405444   -1.378550
     13          1           0       -2.372838   -0.776812   -1.330222
     14          8           0       -2.883575   -1.949242    0.279067
     15          1           0       -2.609468   -2.821076    0.616891
     16          8           0        0.223850    3.063264   -0.341209
     17          1           0        1.133748    2.906358   -0.031030
     18          8           0       -2.594772    1.240331    0.087083
     19          1           0       -3.109191    0.720788    0.734230
     20          8           0        0.455340    0.039593    1.838953
     21          1           0        0.708765   -0.860820    2.140692
     22          1           0        1.205036    1.242203   -2.009214
     23          8           0        1.906093    0.897159   -0.135156
     24          1           0        2.721986   -1.517040    0.211831
     25          8           0        2.133900   -2.048189   -0.690857
     26          1           0        1.914102   -2.925016   -0.367650
     27          1           0        1.099425   -1.522044   -0.995871
     28          8           0        3.289339   -0.613427    0.761007
     29          1           0        4.232218   -0.465277    0.864115
     30          1           0        2.872017    0.482119    0.457939
 ---------------------------------------------------------------------
 Rotational constants (GHZ):      0.7721228      0.5832827      0.4220877
 Standard basis: 6-31G(d) (6D, 7F)
 There are   242 symmetry adapted cartesian basis functions of A   symmetry.
 There are   242 symmetry adapted basis functions of A   symmetry.
   242 basis functions,   456 primitive gaussians,   242 cartesian basis functions
    58 alpha electrons       58 beta electrons
       nuclear repulsion energy      1137.8109773748 Hartrees.
 NAtoms=   30 NActive=   30 NUniq=   30 SFac= 1.00D+00 NAtFMM=   60 NAOKFM=F Big=F
 Integral buffers will be    131072 words long.
 Raffenetti 2 integral format.
 Two-electron integral symmetry is turned on.
 One-electron integrals computed using PRISM.
 NBasis=   242 RedAO= T EigKep=  1.34D-03  NBF=   242
 NBsUse=   242 1.00D-06 EigRej= -1.00D+00 NBFU=   242
 ExpMin= 1.61D-01 ExpMax= 5.48D+03 ExpMxC= 8.25D+02 IAcc=1 IRadAn=         1 AccDes= 0.00D+00
 Harris functional with IExCor=  402 and IRadAn=       1 diagonalized for initial guess.
 HarFok:  IExCor=  402 AccDes= 0.00D+00 IRadAn=         1 IDoV= 1 UseB2=F ITyADJ=14
 ICtDFT=  3500011 ScaDFX=  1.000000  1.000000  1.000000  1.000000
 FoFCou: FMM=F IPFlag=           0 FMFlag=      100000 FMFlg1=           0
         NFxFlg=           0 DoJE=T BraDBF=F KetDBF=T FulRan=T
         wScrn=  0.000000 ICntrl=     500 IOpCl=  0 I1Cent=   200000004 NGrid=           0
         NMat0=    1 NMatS0=      1 NMatT0=    0 NMatD0=    1 NMtDS0=    0 NMtDT0=    0
 Petite list used in FoFCou.
 Requested convergence on RMS density matrix=1.00D-08 within 128 cycles.
 Requested convergence on MAX density matrix=1.00D-06.
 Requested convergence on             energy=1.00D-06.
 No special actions if energy rises.
 Integral accuracy reduced to 1.0D-05 until final iterations.
 Initial convergence to 1.0D-05 achieved.  Increase integral accuracy.
 SCF Done:  E(RB3LYP) =  -839.851039461     A.U. after   15 cycles
            NFock= 15  Conv=0.57D-08     -V/T= 2.0087
 DoSCS=F DFT=T ScalE2(SS,OS)=  1.000000  1.000000
 Range of M.O.s used for correlation:     1   242
 NBasis=   242 NAE=    58 NBE=    58 NFC=     0 NFV=     0
 NROrb=    242 NOA=    58 NOB=    58 NVA=   184 NVB=   184
 Symmetrizing basis deriv contribution to polar:
 IMax=3 JMax=2 DiffMx= 0.00D+00
 G2DrvN: will do    31 centers at a time, making    1 passes.
 Calling FoFCou, ICntrl=  3107 FMM=F I1Cent=   0 AccDes= 0.00D+00.
 End of G2Drv F.D. properties file   721 does not exist.
 End of G2Drv F.D. properties file   722 does not exist.
 End of G2Drv F.D. properties file   788 does not exist.
          IDoAtm=111111111111111111111111111111
          Differentiating once with respect to nuclear coordinates.
          There are    93 degrees of freedom in the 1st order CPHF.  IDoFFX=6 NUNeed=     0.
     87 vectors produced by pass  0 Test12= 1.15D-14 1.08D-09 XBig12= 1.08D-01 9.97D-02.
 AX will form    87 AO Fock derivatives at one time.
     87 vectors produced by pass  1 Test12= 1.15D-14 1.08D-09 XBig12= 1.23D-02 1.82D-02.
     87 vectors produced by pass  2 Test12= 1.15D-14 1.08D-09 XBig12= 1.66D-04 2.03D-03.
     87 vectors produced by pass  3 Test12= 1.15D-14 1.08D-09 XBig12= 4.37D-07 6.92D-05.
     87 vectors produced by pass  4 Test12= 1.15D-14 1.08D-09 XBig12= 4.99D-10 1.96D-06.
     72 vectors produced by pass  5 Test12= 1.15D-14 1.08D-09 XBig12= 4.00D-13 6.63D-08.
      5 vectors produced by pass  6 Test12= 1.15D-14 1.08D-09 XBig12= 3.32D-16 1.45D-09.
 InvSVY:  IOpt=1 It=  1 EMax= 4.44D-16
 Solved reduced A of dimension   512 with    93 vectors.
 End of Minotr F.D. properties file   721 does not exist.
 End of Minotr F.D. properties file   722 does not exist.
 End of Minotr F.D. properties file   788 does not exist.

 **********************************************************************

            Population analysis using the SCF density.

 **********************************************************************

 Orbital symmetries:
       Occupied  (A) (A) (A) (A) (A) (A) (A) (A) (A) (A) (A) (A)
                 (A) (A) (A) (A) (A) (A) (A) (A) (A) (A) (A) (A)
                 (A) (A) (A) (A) (A) (A) (A) (A) (A) (A) (A) (A)
                 (A) (A) (A) (A) (A) (A) (A) (A) (A) (A) (A) (A)
                 (A) (A) (A) (A) (A) (A) (A) (A) (A) (A)
       Virtual   (A) (A) (A) (A) (A) (A) (A) (A) (A) (A) (A) (A)
                 (A) (A) (A) (A) (A) (A) (A) (A) (A) (A) (A) (A)
                 (A) (A) (A) (A) (A) (A) (A) (A) (A) (A) (A) (A)
                 (A) (A) (A) (A) (A) (A) (A) (A) (A) (A) (A) (A)
                 (A) (A) (A) (A) (A) (A) (A) (A) (A) (A) (A) (A)
                 (A) (A) (A) (A) (A) (A) (A) (A) (A) (A) (A) (A)
                 (A) (A) (A) (A) (A) (A) (A) (A) (A) (A) (A) (A)
                 (A) (A) (A) (A) (A) (A) (A) (A) (A) (A) (A) (A)
                 (A) (A) (A) (A) (A) (A) (A) (A) (A) (A) (A) (A)
                 (A) (A) (A) (A) (A) (A) (A) (A) (A) (A) (A) (A)
                 (A) (A) (A) (A) (A) (A) (A) (A) (A) (A) (A) (A)
                 (A) (A) (A) (A) (A) (A) (A) (A) (A) (A) (A) (A)
                 (A) (A) (A) (A) (A) (A) (A) (A) (A) (A) (A) (A)
                 (A) (A) (A) (A) (A) (A) (A) (A) (A) (A) (A) (A)
                 (A) (A) (A) (A) (A) (A) (A) (A) (A) (A) (A) (A)
                 (A) (A) (A) (A)
 The electronic state is 1-A.
 Alpha  occ. eigenvalues --  -19.17908 -19.16270 -19.15340 -19.14938 -19.14295
 Alpha  occ. eigenvalues --  -19.13098 -19.12995 -19.08476 -10.29623 -10.25275
 Alpha  occ. eigenvalues --  -10.24455 -10.23935 -10.23490 -10.23445  -1.04705
 Alpha  occ. eigenvalues --   -1.03214  -1.02496  -1.01298  -1.00710  -1.00143
 Alpha  occ. eigenvalues --   -0.97666  -0.92227  -0.78155  -0.75331  -0.69565
 Alpha  occ. eigenvalues --   -0.65171  -0.62155  -0.56183  -0.55683  -0.54829
 Alpha  occ. eigenvalues --   -0.53525  -0.52048  -0.50385  -0.49838  -0.48962
 Alpha  occ. eigenvalues --   -0.46929  -0.46060  -0.44979  -0.43019  -0.42538
 Alpha  occ. eigenvalues --   -0.42097  -0.39859  -0.38667  -0.38203  -0.35655
 Alpha  occ. eigenvalues --   -0.34949  -0.33826  -0.33260  -0.32385  -0.31573
 Alpha  occ. eigenvalues --   -0.30806  -0.30078  -0.28301  -0.27466  -0.26625
 Alpha  occ. eigenvalues --   -0.25527  -0.23704  -0.21557
 Alpha virt. eigenvalues --    0.01161   0.03472   0.04827   0.07145   0.08501
 Alpha virt. eigenvalues --    0.08825   0.11119   0.12182   0.13056   0.13441
 Alpha virt. eigenvalues --    0.14921   0.16642   0.16809   0.17787   0.17997
 Alpha virt. eigenvalues --    0.19903   0.20869   0.21878   0.23271   0.24088
 Alpha virt. eigenvalues --    0.24852   0.26629   0.27290   0.29978   0.31258
 Alpha virt. eigenvalues --    0.32444   0.32987   0.36537   0.51039   0.53079
 Alpha virt. eigenvalues --    0.53467   0.55313   0.56468   0.57185   0.59845
 Alpha virt. eigenvalues --    0.60734   0.62211   0.63726   0.64531   0.65171
 Alpha virt. eigenvalues --    0.67203   0.68764   0.70450   0.71688   0.72361
 Alpha virt. eigenvalues --    0.73387   0.75958   0.78266   0.79583   0.80389
 Alpha virt. eigenvalues --    0.81694   0.82901   0.83760   0.85126   0.85406
 Alpha virt. eigenvalues --    0.86636   0.87800   0.88442   0.88872   0.89912
 Alpha virt. eigenvalues --    0.91083   0.92346   0.93339   0.94303   0.95127
 Alpha virt. eigenvalues --    0.96499   0.98318   1.00348   1.00927   1.02950
 Alpha virt. eigenvalues --    1.03221   1.04074   1.06372   1.07097   1.08796
 Alpha virt. eigenvalues --    1.10572   1.13794   1.13951   1.16874   1.18148
 Alpha virt. eigenvalues --    1.19588   1.21589   1.22889   1.25698   1.29391
 Alpha virt. eigenvalues --    1.29991   1.30758   1.33658   1.35904   1.36792
 Alpha virt. eigenvalues --    1.39633   1.41069   1.43198   1.45413   1.50005
 Alpha virt. eigenvalues --    1.50259   1.52539   1.55969   1.58742   1.59160
 Alpha virt. eigenvalues --    1.61661   1.64711   1.67991   1.69199   1.69965
 Alpha virt. eigenvalues --    1.71383   1.71948   1.73570   1.75845   1.76124
 Alpha virt. eigenvalues --    1.76611   1.77954   1.78483   1.80345   1.82733
 Alpha virt. eigenvalues --    1.84206   1.84541   1.86078   1.87276   1.88618
 Alpha virt. eigenvalues --    1.89666   1.90626   1.91629   1.93886   1.96578
 Alpha virt. eigenvalues --    2.00000   2.00496   2.02693   2.03631   2.04406
 Alpha virt. eigenvalues --    2.06210   2.07669   2.12813   2.13756   2.16659
 Alpha virt. eigenvalues --    2.19460   2.22880   2.23525   2.24716   2.27878
 Alpha virt. eigenvalues --    2.29861   2.31730   2.36131   2.39103   2.42352
 Alpha virt. eigenvalues --    2.43615   2.44290   2.44920   2.47507   2.49100
 Alpha virt. eigenvalues --    2.49727   2.50563   2.53649   2.54434   2.55007
 Alpha virt. eigenvalues --    2.60003   2.63486   2.67061   2.70626   2.73962
 Alpha virt. eigenvalues --    2.76781   2.81629   2.83910   2.85561   2.89310
 Alpha virt. eigenvalues --    2.90820   2.94430   2.98949   3.02765   3.13433
 Alpha virt. eigenvalues --    3.73187   3.75976   3.77695   3.83858   3.86073
 Alpha virt. eigenvalues --    3.91184   3.99294   4.17297   4.27458   4.31973
 Alpha virt. eigenvalues --    4.50101   4.61342   4.70824   4.96360
          Condensed to atoms (all electrons):
               1          2          3          4          5          6
     1  O    8.552387  -0.024204  -0.009378  -0.006920   0.085459   0.119389
     2  C   -0.024204   5.014810  -0.021077   0.277565  -0.002823   0.284888
     3  C   -0.009378  -0.021077   4.959453   0.262452   0.300962  -0.027554
     4  C   -0.006920   0.277565   0.262452   5.005681  -0.018508  -0.021032
     5  C    0.085459  -0.002823   0.300962  -0.018508   4.765868  -0.008883
     6  C    0.119389   0.284888  -0.027554  -0.021032  -0.008883   5.196769
     7  H   -0.000071  -0.048971  -0.050607   0.365990   0.002752   0.006699
     8  H   -0.052556  -0.048988   0.000596   0.005154   0.000994   0.330874
     9  H    0.002831   0.356161   0.006202  -0.047296   0.000382  -0.059398
    10  H    0.001466   0.004091   0.351857  -0.060864  -0.036836   0.000752
    11  C   -0.036041  -0.031450  -0.000391  -0.004952   0.001238   0.283496
    12  H    0.004328   0.005139  -0.000062  -0.000370  -0.000064  -0.042411
    13  H    0.003859  -0.008016  -0.000580   0.001043   0.000162  -0.038597
    14  O    0.001695  -0.004762   0.000012  -0.001584  -0.000005  -0.046737
    15  H   -0.000026  -0.001245   0.000005   0.000131  -0.000002  -0.001902
    16  O    0.000535   0.002651   0.270049  -0.046989  -0.030610   0.000088
    17  H    0.000518  -0.000404  -0.042118   0.000388  -0.006725   0.000044
    18  O   -0.000124  -0.025337  -0.033772   0.212647   0.001445  -0.004416
    19  H    0.000037  -0.004289   0.006134  -0.025837  -0.000234  -0.001779
    20  O    0.001210   0.183936   0.003498  -0.034596   0.001602  -0.033136
    21  H   -0.000266  -0.015156  -0.000401   0.005647  -0.000071  -0.006900
    22  H   -0.020459  -0.000063  -0.066702   0.006617   0.365566   0.001970
    23  O   -0.036052   0.007757  -0.044721  -0.003111   0.300416   0.001784
    24  H    0.003827  -0.000328   0.000058  -0.000008  -0.000476   0.000379
    25  O   -0.106909  -0.001524  -0.000036   0.000012   0.002481   0.002858
    26  H    0.004750   0.000143  -0.000001  -0.000001   0.000059  -0.000754
    27  H    0.118768   0.004100   0.000992  -0.000144  -0.005035  -0.012010
    28  O   -0.000611  -0.000028  -0.000151  -0.000008   0.004965  -0.000082
    29  H   -0.000012  -0.000003   0.000012   0.000000  -0.000182   0.000011
    30  H    0.001946  -0.000559   0.000392  -0.000040  -0.008630  -0.000045
               7          8          9         10         11         12
     1  O   -0.000071  -0.052556   0.002831   0.001466  -0.036041   0.004328
     2  C   -0.048971  -0.048988   0.356161   0.004091  -0.031450   0.005139
     3  C   -0.050607   0.000596   0.006202   0.351857  -0.000391  -0.000062
     4  C    0.365990   0.005154  -0.047296  -0.060864  -0.004952  -0.000370
     5  C    0.002752   0.000994   0.000382  -0.036836   0.001238  -0.000064
     6  C    0.006699   0.330874  -0.059398   0.000752   0.283496  -0.042411
     7  H    0.602743  -0.000240  -0.007181   0.004103   0.000166   0.000012
     8  H   -0.000240   0.722206  -0.001293   0.000039  -0.048291  -0.009918
     9  H   -0.007181  -0.001293   0.654710  -0.000337  -0.003415   0.000220
    10  H    0.004103   0.000039  -0.000337   0.604916   0.000120  -0.000001
    11  C    0.000166  -0.048291  -0.003415   0.000120   4.973985   0.353249
    12  H    0.000012  -0.009918   0.000220  -0.000001   0.353249   0.636603
    13  H    0.000154   0.005686   0.000015   0.001259   0.372398  -0.036721
    14  O   -0.000025   0.003452   0.015309  -0.000001   0.219662  -0.032470
    15  H   -0.000000   0.003519   0.000463   0.000000  -0.028139  -0.010050
    16  O    0.005575   0.000004  -0.000092  -0.043251   0.000005   0.000000
    17  H    0.000098   0.000004   0.000004   0.006957   0.000000  -0.000000
    18  O   -0.039748  -0.000063  -0.002420   0.005010   0.001908   0.000531
    19  H   -0.002361  -0.000062   0.009240  -0.000285  -0.000579   0.000096
    20  O    0.004108  -0.003061  -0.040188  -0.000025   0.003221  -0.000042
    21  H   -0.000275   0.008444  -0.005371   0.000012  -0.000027  -0.000010
    22  H   -0.000189  -0.000139   0.000006  -0.004200  -0.000017   0.000003
    23  O    0.000142  -0.000660   0.000011   0.003654   0.000060   0.000002
    24  H   -0.000001  -0.000789   0.000011  -0.000002   0.000063  -0.000005
    25  O    0.000000   0.021439  -0.000007   0.000001   0.000146   0.000060
    26  H   -0.000000   0.001498  -0.000004  -0.000000  -0.000043   0.000040
    27  H    0.000007  -0.011936  -0.000075  -0.000027  -0.001046   0.000670
    28  O    0.000000   0.000020  -0.000003   0.000002  -0.000001   0.000000
    29  H   -0.000000  -0.000003   0.000000  -0.000000   0.000000   0.000000
    30  H   -0.000003   0.000048   0.000014  -0.000026   0.000001  -0.000000
              13         14         15         16         17         18
     1  O    0.003859   0.001695  -0.000026   0.000535   0.000518  -0.000124
     2  C   -0.008016  -0.004762  -0.001245   0.002651  -0.000404  -0.025337
     3  C   -0.000580   0.000012   0.000005   0.270049  -0.042118  -0.033772
     4  C    0.001043  -0.001584   0.000131  -0.046989   0.000388   0.212647
     5  C    0.000162  -0.000005  -0.000002  -0.030610  -0.006725   0.001445
     6  C   -0.038597  -0.046737  -0.001902   0.000088   0.000044  -0.004416
     7  H    0.000154  -0.000025  -0.000000   0.005575   0.000098  -0.039748
     8  H    0.005686   0.003452   0.003519   0.000004   0.000004  -0.000063
     9  H    0.000015   0.015309   0.000463  -0.000092   0.000004  -0.002420
    10  H    0.001259  -0.000001   0.000000  -0.043251   0.006957   0.005010
    11  C    0.372398   0.219662  -0.028139   0.000005   0.000000   0.001908
    12  H   -0.036721  -0.032470  -0.010050   0.000000  -0.000000   0.000531
    13  H    0.521078  -0.030376   0.006564   0.000004   0.000000   0.013465
    14  O   -0.030376   8.253803   0.233808   0.000000  -0.000000  -0.001225
    15  H    0.006564   0.233808   0.406042  -0.000000   0.000000   0.000024
    16  O    0.000004   0.000000  -0.000000   8.273220   0.223640   0.001317
    17  H    0.000000  -0.000000   0.000000   0.223640   0.373499  -0.000066
    18  O    0.013465  -0.001225   0.000024   0.001317  -0.000066   8.278609
    19  H   -0.002290   0.006095  -0.000154  -0.000127   0.000012   0.231493
    20  O   -0.000025   0.000047  -0.000027  -0.000010   0.000420   0.001094
    21  H    0.000011   0.000036  -0.000013   0.000011  -0.000006  -0.000083
    22  H   -0.000062   0.000000  -0.000000   0.002152   0.001352  -0.000083
    23  O    0.000005   0.000000  -0.000000  -0.017294   0.039896   0.000006
    24  H   -0.000000  -0.000000   0.000000   0.000000  -0.000005   0.000000
    25  O   -0.000000   0.000001  -0.000003   0.000000   0.000002   0.000000
    26  H   -0.000002  -0.000003  -0.000002   0.000000  -0.000000  -0.000000
    27  H   -0.000019   0.000023   0.000004  -0.000010  -0.000024  -0.000010
    28  O    0.000000   0.000000   0.000000  -0.000001   0.000028  -0.000000
    29  H   -0.000000   0.000000  -0.000000   0.000001  -0.000019   0.000000
    30  H   -0.000000  -0.000000   0.000000  -0.000243   0.001051   0.000000
              19         20         21         22         23         24
     1  O    0.000037   0.001210  -0.000266  -0.020459  -0.036052   0.003827
     2  C   -0.004289   0.183936  -0.015156  -0.000063   0.007757  -0.000328
     3  C    0.006134   0.003498  -0.000401  -0.066702  -0.044721   0.000058
     4  C   -0.025837  -0.034596   0.005647   0.006617  -0.003111  -0.000008
     5  C   -0.000234   0.001602  -0.000071   0.365566   0.300416  -0.000476
     6  C   -0.001779  -0.033136  -0.006900   0.001970   0.001784   0.000379
     7  H   -0.002361   0.004108  -0.000275  -0.000189   0.000142  -0.000001
     8  H   -0.000062  -0.003061   0.008444  -0.000139  -0.000660  -0.000789
     9  H    0.009240  -0.040188  -0.005371   0.000006   0.000011   0.000011
    10  H   -0.000285  -0.000025   0.000012  -0.004200   0.003654  -0.000002
    11  C   -0.000579   0.003221  -0.000027  -0.000017   0.000060   0.000063
    12  H    0.000096  -0.000042  -0.000010   0.000003   0.000002  -0.000005
    13  H   -0.002290  -0.000025   0.000011  -0.000062   0.000005  -0.000000
    14  O    0.006095   0.000047   0.000036   0.000000   0.000000  -0.000000
    15  H   -0.000154  -0.000027  -0.000013  -0.000000  -0.000000   0.000000
    16  O   -0.000127  -0.000010   0.000011   0.002152  -0.017294   0.000000
    17  H    0.000012   0.000420  -0.000006   0.001352   0.039896  -0.000005
    18  O    0.231493   0.001094  -0.000083  -0.000083   0.000006   0.000000
    19  H    0.379695   0.000010  -0.000019   0.000008   0.000001  -0.000000
    20  O    0.000010   8.309462   0.220662  -0.000008  -0.016700   0.001950
    21  H   -0.000019   0.220662   0.403064   0.000010   0.002010   0.000749
    22  H    0.000008  -0.000008   0.000010   0.606375  -0.050601   0.000041
    23  O    0.000001  -0.016700   0.002010  -0.050601   8.522467   0.007123
    24  H   -0.000000   0.001950   0.000749   0.000041   0.007123   0.289972
    25  O    0.000000  -0.000084   0.000619  -0.000058  -0.002307   0.145223
    26  H   -0.000000  -0.000010  -0.000086  -0.000002   0.000231  -0.004106
    27  H   -0.000001  -0.000592  -0.000387   0.000078   0.005408  -0.008709
    28  O    0.000000  -0.000404   0.002927  -0.000102  -0.125060   0.113398
    29  H   -0.000000   0.000088  -0.000038   0.000021   0.007112  -0.002913
    30  H    0.000000   0.002840  -0.000610   0.000108   0.083218  -0.009555
              25         26         27         28         29         30
     1  O   -0.106909   0.004750   0.118768  -0.000611  -0.000012   0.001946
     2  C   -0.001524   0.000143   0.004100  -0.000028  -0.000003  -0.000559
     3  C   -0.000036  -0.000001   0.000992  -0.000151   0.000012   0.000392
     4  C    0.000012  -0.000001  -0.000144  -0.000008   0.000000  -0.000040
     5  C    0.002481   0.000059  -0.005035   0.004965  -0.000182  -0.008630
     6  C    0.002858  -0.000754  -0.012010  -0.000082   0.000011  -0.000045
     7  H    0.000000  -0.000000   0.000007   0.000000  -0.000000  -0.000003
     8  H    0.021439   0.001498  -0.011936   0.000020  -0.000003   0.000048
     9  H   -0.000007  -0.000004  -0.000075  -0.000003   0.000000   0.000014
    10  H    0.000001  -0.000000  -0.000027   0.000002  -0.000000  -0.000026
    11  C    0.000146  -0.000043  -0.001046  -0.000001   0.000000   0.000001
    12  H    0.000060   0.000040   0.000670   0.000000   0.000000  -0.000000
    13  H   -0.000000  -0.000002  -0.000019   0.000000  -0.000000  -0.000000
    14  O    0.000001  -0.000003   0.000023   0.000000   0.000000  -0.000000
    15  H   -0.000003  -0.000002   0.000004   0.000000  -0.000000   0.000000
    16  O    0.000000   0.000000  -0.000010  -0.000001   0.000001  -0.000243
    17  H    0.000002  -0.000000  -0.000024   0.000028  -0.000019   0.001051
    18  O    0.000000  -0.000000  -0.000010  -0.000000   0.000000   0.000000
    19  H    0.000000  -0.000000  -0.000001   0.000000  -0.000000   0.000000
    20  O   -0.000084  -0.000010  -0.000592  -0.000404   0.000088   0.002840
    21  H    0.000619  -0.000086  -0.000387   0.002927  -0.000038  -0.000610
    22  H   -0.000058  -0.000002   0.000078  -0.000102   0.000021   0.000108
    23  O   -0.002307   0.000231   0.005408  -0.125060   0.007112   0.083218
    24  H    0.145223  -0.004106  -0.008709   0.113398  -0.002913  -0.009555
    25  O    8.512005   0.215403   0.137021  -0.113597   0.004303   0.004173
    26  H    0.215403   0.399608  -0.007969   0.005114  -0.000222  -0.000152
    27  H    0.137021  -0.007969   0.288199   0.004911  -0.000061  -0.001127
    28  O   -0.113597   0.005114   0.004911   8.547276   0.222114   0.169086
    29  H    0.004303  -0.000222  -0.000061   0.222114   0.389110  -0.010378
    30  H    0.004173  -0.000152  -0.001127   0.169086  -0.010378   0.295964
 Mulliken charges:
               1
     1  O   -0.609376
     2  C    0.097987
     3  C    0.134878
     4  C    0.128932
     5  C    0.284733
     6  C    0.075636
     7  H    0.157121
     8  H    0.074021
     9  H    0.121499
    10  H    0.161618
    11  C   -0.055324
    12  H    0.131169
    13  H    0.190986
    14  O   -0.616756
    15  H    0.391005
    16  O   -0.640628
    17  H    0.401455
    18  O   -0.640201
    19  H    0.405194
    20  O   -0.605239
    21  H    0.385517
    22  H    0.158378
    23  O   -0.684797
    24  H    0.464101
    25  O   -0.821222
    26  H    0.386511
    27  H    0.489002
    28  O   -0.829791
    29  H    0.391060
    30  H    0.472529
 Sum of Mulliken charges =  -0.00000
 Mulliken charges with hydrogens summed into heavy atoms:
               1
     1  O   -0.609376
     2  C    0.219486
     3  C    0.296496
     4  C    0.286054
     5  C    0.443111
     6  C    0.149657
    11  C    0.266831
    14  O   -0.225750
    16  O   -0.239173
    18  O   -0.235007
    20  O   -0.219722
    23  O   -0.212268
    25  O    0.054291
    28  O    0.025370
 APT charges:
               1
     1  O   -0.415579
     2  C   -0.402026
     3  C   -0.258152
     4  C   -0.320389
     5  C   -0.456457
     6  C   -0.157802
     7  H    0.493086
     8  H    0.287481
     9  H    0.421879
    10  H    0.458984
    11  C   -0.717396
    12  H    0.498526
    13  H    0.388071
    14  O   -0.818035
    15  H    0.706205
    16  O   -0.588155
    17  H    0.505433
    18  O   -0.738891
    19  H    0.662953
    20  O   -0.723752
    21  H    0.626978
    22  H    0.585795
    23  O   -0.424666
    24  H    0.429504
    25  O   -1.041924
    26  H    0.661551
    27  H    0.370686
    28  O   -1.473841
    29  H    0.949726
    30  H    0.490208
 Sum of APT charges =  -0.00000
 APT charges with hydrogens summed into heavy atoms:
               1
     1  O   -0.415579
     2  C    0.019854
     3  C    0.200832
     4  C    0.172698
     5  C    0.129338
     6  C    0.129679
    11  C    0.169201
    14  O   -0.111830
    16  O   -0.082722
    18  O   -0.075938
    20  O   -0.096774
    23  O    0.065542
    25  O   -0.009687
    28  O   -0.094611
 Electronic spatial extent (au):  <R**2>=           2864.2428
 Charge=              0.0000 electrons
 Dipole moment (field-independent basis, Debye):
    X=              1.1011    Y=             -5.6378    Z=              1.7614  Tot=              6.0083
 Quadrupole moment (field-independent basis, Debye-Ang):
   XX=            -80.1752   YY=            -78.2290   ZZ=            -83.1467
   XY=              3.2339   XZ=             -0.0185   YZ=             -4.3750
 Traceless Quadrupole moment (field-independent basis, Debye-Ang):
   XX=              0.3418   YY=              2.2879   ZZ=             -2.6297
   XY=              3.2339   XZ=             -0.0185   YZ=             -4.3750
 Octapole moment (field-independent basis, Debye-Ang**2):
  XXX=             85.5261  YYY=            -85.4736  ZZZ=              4.4699  XYY=             15.0333
  XXY=              1.4921  XXZ=             25.6628  XZZ=             -4.1449  YZZ=             -2.0477
  YYZ=             16.5881  XYZ=             -6.7274
 Hexadecapole moment (field-independent basis, Debye-Ang**3):
 XXXX=          -1420.7699 YYYY=          -1164.2572 ZZZZ=           -460.6880 XXXY=            -16.1746
 XXXZ=             43.8571 YYYX=             42.2967 YYYZ=              1.3567 ZZZX=             -2.2874
 ZZZY=            -26.3168 XXYY=           -454.6692 XXZZ=           -339.2026 YYZZ=           -269.9816
 XXYZ=             -6.6490 YYXZ=              2.0789 ZZXY=              4.4915
 N-N= 1.137810977375D+03 E-N=-4.248929063419D+03  KE= 8.326345982549D+02
  Exact polarizability:   0.000   0.000   0.000   0.000   0.000   0.000
 Approx polarizability: 151.275   4.786 148.776  14.918  -2.868 124.993
 Calling FoFJK, ICntrl=    100147 FMM=F ISym2X=0 I1Cent= 0 IOpClX= 0 NMat=1 NMatS=1 NMatT=0.
 ***** Axes restored to original set *****
 -------------------------------------------------------------------
 Center     Atomic                   Forces (Hartrees/Bohr)
 Number     Number              X              Y              Z
 -------------------------------------------------------------------
      1        8           0.019792289    0.035420991    0.013515511
      2        6          -0.021230940   -0.004904823    0.011118738
      3        6           0.003403821    0.021912744   -0.001035936
      4        6           0.015046534    0.007970371    0.019441376
      5        6           0.052638662   -0.085576077    0.061947531
      6        6          -0.004349716   -0.013957069   -0.021251018
      7        1           0.007213248   -0.006389536    0.001210851
      8        1          -0.007854379    0.003720807    0.010549629
      9        1          -0.009640331    0.004211509   -0.008095567
     10        1          -0.002585084    0.000022571    0.001654083
     11        6          -0.008683804    0.000073427   -0.000899313
     12        1           0.004172701   -0.005039243   -0.000771337
     13        1           0.000915044    0.002171962    0.007324704
     14        8          -0.005349279    0.003266532    0.003181811
     15        1           0.001896484    0.004889709   -0.001249875
     16        8          -0.002861955    0.001972423   -0.005437396
     17        1          -0.005398458   -0.003114129    0.003964580
     18        8          -0.006751772   -0.010311186   -0.003836366
     19        1           0.003973346   -0.000832329   -0.002909406
     20        8          -0.001275912    0.001120288    0.002171991
     21        1           0.006656396    0.010469326   -0.006105263
     22        1          -0.019922417   -0.005365697   -0.009555668
     23        8          -0.018058765    0.088638071   -0.075576762
     24        1           0.020498719    0.006445034   -0.022652549
     25        8          -0.016734913   -0.006013267    0.006521914
     26        1          -0.010209486   -0.009648190   -0.001468301
     27        1           0.032131782   -0.008835819   -0.004042302
     28        8           0.032947008    0.013182545    0.035425762
     29        1          -0.005279427   -0.021059232    0.000561136
     30        1          -0.055099397   -0.024441712   -0.013702558
 -------------------------------------------------------------------
 Cartesian Forces:  Max     0.088638071 RMS     0.021927778

 GradGradGradGradGradGradGradGradGradGradGradGradGradGradGradGradGradGrad
 Berny optimization.
 Search for a saddle point.
 Step number   1 out of a maximum of  180
 All quantities printed in internal units (Hartrees-Bohrs-Radians)
 Swapping is turned off.
 Second derivative matrix not updated -- analytic derivatives used.
 ITU=  0
     Eigenvalues ---   -0.15664  -0.02761  -0.01165  -0.00678  -0.00140
     Eigenvalues ---   -0.00035   0.00007   0.00327   0.00366   0.00472
     Eigenvalues ---    0.00504   0.00707   0.00775   0.00950   0.01082
     Eigenvalues ---    0.01327   0.01443   0.01654   0.01883   0.02026
     Eigenvalues ---    0.02498   0.02581   0.03213   0.03276   0.03558
     Eigenvalues ---    0.03863   0.04134   0.04299   0.04759   0.05163
     Eigenvalues ---    0.05323   0.05650   0.05755   0.06361   0.06553
     Eigenvalues ---    0.06724   0.07582   0.07743   0.08008   0.08281
     Eigenvalues ---    0.09193   0.09939   0.11078   0.11506   0.11591
     Eigenvalues ---    0.12020   0.13785   0.14228   0.14481   0.15767
     Eigenvalues ---    0.16436   0.17721   0.18844   0.20584   0.21073
     Eigenvalues ---    0.21778   0.23919   0.26711   0.29025   0.30649
     Eigenvalues ---    0.34128   0.40693   0.43869   0.48244   0.51041
     Eigenvalues ---    0.52966   0.59643   0.61654   0.64513   0.66356
     Eigenvalues ---    0.66892   0.77156   0.80036   0.81540   0.84775
     Eigenvalues ---    0.86520   0.90738   0.92985   0.95917   0.98669
     Eigenvalues ---    1.02004   1.03717   1.07310   1.15416
 Eigenvectors required to have negative eigenvalues:
                          Y30       Y27       X24       Z30       X5
   1                    0.38115  -0.37814   0.35557  -0.28261  -0.27365
                          Z24       X1        Y1        X28       Z25
   1                    0.25599   0.24826   0.22035  -0.22028  -0.17125
 RFO step:  Lambda0=3.498939627D-03 Lambda=-1.08722006D-01.
 Linear search not attempted -- option 19 set.
 Maximum step size (   0.300) exceeded in Quadratic search.
    -- Step size scaled by   0.264
 B after Tr=     0.003308    0.000616    0.000853
         Rot=    1.000000    0.000541    0.000382   -0.000064 Ang=   0.08 deg.
 Variable       Old X    -DE/DX   Delta X   Delta X   Delta X     New X
                                 (Linear)    (Quad)   (Total)
    X1       -0.25356   0.01979   0.00000   0.01186   0.01704  -0.23652
    Y1       -2.67729   0.03542   0.00000   0.01542   0.01384  -2.66345
    Z1       -2.03066   0.01352   0.00000   0.02649   0.03005  -2.00062
    X2       -0.87038  -0.02123   0.00000  -0.01687  -0.01507  -0.88545
    Y2       -0.04402  -0.00490   0.00000  -0.00295  -0.00030  -0.04432
    Z2        1.98495   0.01112   0.00000   0.00027   0.00049   1.98544
    X3        2.43890   0.00340   0.00000   0.01201   0.01597   2.45487
    Y3        1.46248   0.02191   0.00000  -0.00403  -0.00430   1.45819
    Z3       -1.11061  -0.00104   0.00000   0.00751   0.00866  -1.10195
    X4        0.41401   0.01505   0.00000   0.00645   0.00884   0.42285
    Y4        2.25269   0.00797   0.00000  -0.00493  -0.00337   2.24932
    Z4        0.81623   0.01944   0.00000   0.01103   0.00977   0.82600
    X5        2.77832   0.05264   0.00000   0.06266   0.06729   2.84562
    Y5       -1.29768  -0.08558   0.00000  -0.03031  -0.03097  -1.32865
    Z5       -1.56278   0.06195   0.00000   0.04115   0.04562  -1.51716
    X6       -1.97972  -0.00435   0.00000  -0.00890  -0.00532  -1.98504
    Y6       -1.75115  -0.01396   0.00000  -0.01099  -0.01069  -1.76184
    Z6       -0.05772  -0.02125   0.00000  -0.00580  -0.00456  -0.06228
    X7        1.34048   0.00721   0.00000   0.00888   0.00998   1.35045
    Y7        3.30705  -0.00639   0.00000  -0.00923  -0.00590   3.30115
    Z7        2.34212   0.00121   0.00000   0.00905   0.00736   2.34948
    X8       -2.56667  -0.00785   0.00000  -0.01583  -0.01271  -2.57937
    Y8       -3.53656   0.00372   0.00000   0.00029   0.00149  -3.53508
    Z8        0.81526   0.01055   0.00000   0.01939   0.02210   0.83737
    X9       -2.45457  -0.00964   0.00000  -0.01285  -0.01201  -2.46659
    Y9        0.64521   0.00421   0.00000   0.00207   0.00575   0.65096
    Z9        3.12906  -0.00810   0.00000  -0.00024  -0.00198   3.12708
   X10        1.95534  -0.00259   0.00000  -0.00689  -0.00164   1.95370
   Y10        2.34851   0.00002   0.00000  -0.02589  -0.02818   2.32033
   Z10       -2.92406   0.00165   0.00000   0.00246   0.00228  -2.92178
   X11       -4.20226  -0.00868   0.00000  -0.01677  -0.01219  -4.21444
   Y11       -0.67519   0.00007   0.00000  -0.00594  -0.00755  -0.68273
   Z11       -1.56374  -0.00090   0.00000   0.00640   0.00477  -1.55897
   X12       -5.03899   0.00417   0.00000  -0.00917  -0.00349  -5.04248
   Y12       -2.14987  -0.00504   0.00000  -0.00949  -0.01250  -2.16237
   Z12       -2.75418  -0.00077   0.00000   0.00528   0.00462  -2.74956
   X13       -3.58613   0.00092   0.00000  -0.01095  -0.00557  -3.59169
   Y13        0.80393   0.00217   0.00000  -0.00026  -0.00319   0.80074
   Z13       -2.87016   0.00732   0.00000   0.01774   0.01497  -2.85519
   X14       -6.10773  -0.00535   0.00000  -0.01143  -0.00821  -6.11594
   Y14        0.32654   0.00327   0.00000  -0.00117  -0.00128   0.32527
   Z14        0.04571   0.00318   0.00000   0.01315   0.00898   0.05469
   X15       -7.01465   0.00190   0.00000  -0.00804  -0.00519  -7.01984
   Y15       -1.10083   0.00489   0.00000  -0.00028   0.00029  -1.10054
   Z15        0.77393  -0.00125   0.00000   0.01357   0.01025   0.78418
   X16        4.89260  -0.00286   0.00000   0.00137   0.00472   4.89732
   Y16        2.40316   0.00197   0.00000   0.02154   0.02228   2.42544
   Z16       -0.46491  -0.00544   0.00000  -0.00573  -0.00376  -0.46867
   X17        5.79157  -0.00540   0.00000   0.00842   0.01132   5.80289
   Y17        1.02126  -0.00311   0.00000   0.03295   0.03470   1.05596
   Z17        0.35375   0.00396   0.00000   0.00588   0.01002   0.36377
   X18       -1.29843  -0.00675   0.00000   0.00220   0.00526  -1.29317
   Y18        3.99895  -0.01031   0.00000  -0.01788  -0.01780   3.98115
   Z18       -0.33289  -0.00384   0.00000  -0.00674  -0.01119  -0.34407
   X19       -2.77412   0.00397   0.00000   0.00688   0.00908  -2.76504
   Y19        4.16766  -0.00083   0.00000  -0.00055   0.00053   4.16819
   Z19        0.76181  -0.00291   0.00000  -0.00591  -0.01168   0.75012
   X20        0.67261  -0.00128   0.00000   0.01332   0.01394   0.68655
   Y20       -1.35453   0.00112   0.00000  -0.00592  -0.00117  -1.35570
   Z20        3.76418   0.00217   0.00000  -0.02677  -0.02392   3.74026
   X21       -0.29474   0.00666   0.00000   0.01940   0.01969  -0.27505
   Y21       -2.79791   0.01047   0.00000   0.00535   0.01071  -2.78720
   Z21        4.42038  -0.00611   0.00000  -0.00731  -0.00365   4.41674
   X22        3.88551  -0.01992   0.00000  -0.02548  -0.01944   3.86606
   Y22       -1.62961  -0.00537   0.00000  -0.01568  -0.01814  -1.64775
   Z22       -3.28246  -0.00956   0.00000  -0.01825  -0.01267  -3.29513
   X23        4.01698  -0.01806   0.00000   0.08335   0.08672   4.10370
   Y23       -2.64369   0.08864   0.00000   0.02982   0.03134  -2.61235
   Z23        0.41572  -0.07558   0.00000  -0.06774  -0.06092   0.35480
   X24        1.66875   0.02050   0.00000   0.04159   0.04475   1.71350
   Y24       -6.79610   0.00645   0.00000   0.01018   0.01245  -6.78365
   Z24        1.34519  -0.02265   0.00000  -0.02388  -0.01438   1.33081
   X25        0.32092  -0.01673   0.00000  -0.00925  -0.00468   0.31624
   Y25       -6.86320  -0.00601   0.00000  -0.01793  -0.01783  -6.88102
   Z25       -0.47997   0.00652   0.00000  -0.03219  -0.02365  -0.50363
   X26       -1.22228  -0.01021   0.00000  -0.00537  -0.00115  -1.22342
   Y26       -7.62465  -0.00965   0.00000  -0.02391  -0.02337  -7.64801
   Z26        0.09433  -0.00147   0.00000  -0.02348  -0.01529   0.07905
   X27       -0.22758   0.03213   0.00000   0.02133   0.02629  -0.20129
   Y27       -4.83440  -0.00884   0.00000  -0.01383  -0.01470  -4.84910
   Z27       -1.33172  -0.00404   0.00000  -0.02201  -0.01606  -1.34778
   X28        3.55942   0.03295   0.00000  -0.06783  -0.06570   3.49372
   Y28       -6.29440   0.01318   0.00000   0.03776   0.04163  -6.25277
   Z28        2.49236   0.03543   0.00000   0.09240   0.10270   2.59506
   X29        4.95421  -0.00528   0.00000  -0.02759  -0.02548   4.92873
   Y29       -7.37155  -0.02106   0.00000  -0.00787  -0.00360  -7.37515
   Z29        2.92293   0.00056   0.00000  -0.12930  -0.11669   2.80623
   X30        4.58720  -0.05510   0.00000  -0.14552  -0.14305   4.44415
   Y30       -4.37590  -0.02444   0.00000   0.02666   0.02981  -4.34609
   Z30        1.78592  -0.01370   0.00000   0.02882   0.03777   1.82370
         Item               Value     Threshold  Converged?
 Maximum Force            0.088638     0.000450     NO 
 RMS     Force            0.021928     0.000300     NO 
 Maximum Displacement     0.143049     0.001800     NO 
 RMS     Displacement     0.031367     0.001200     NO 
 Predicted change in Energy=-2.873437D-02
 GradGradGradGradGradGradGradGradGradGradGradGradGradGradGradGradGradGrad

                          Input orientation:                          
 ---------------------------------------------------------------------
 Center     Atomic      Atomic             Coordinates (Angstroms)
 Number     Number       Type             X           Y           Z
 ---------------------------------------------------------------------
      1          8           0       -0.125162   -1.409439   -1.058680
      2          6           0       -0.468562   -0.023453    1.050651
      3          6           0        1.299059    0.771639   -0.583129
      4          6           0        0.223760    1.190290    0.437098
      5          6           0        1.505835   -0.703092   -0.802846
      6          6           0       -1.050438   -0.932326   -0.032957
      7          1           0        0.714628    1.746894    1.243292
      8          1           0       -1.364946   -1.870682    0.443115
      9          1           0       -1.305262    0.344474    1.654779
     10          1           0        1.033854    1.227865   -1.546138
     11          6           0       -2.230187   -0.361287   -0.824972
     12          1           0       -2.668367   -1.144276   -1.455002
     13          1           0       -1.900642    0.423734   -1.510900
     14          8           0       -3.236415    0.172123    0.028940
     15          1           0       -3.714741   -0.582382    0.414969
     16          8           0        2.591551    1.283488   -0.248009
     17          1           0        3.070756    0.558789    0.192499
     18          8           0       -0.684314    2.106736   -0.182076
     19          1           0       -1.463196    2.205713    0.396949
     20          8           0        0.363306   -0.717405    1.979259
     21          1           0       -0.145551   -1.474923    2.337237
     22          1           0        2.045832   -0.871951   -1.743705
     23          8           0        2.171587   -1.382397    0.187751
     24          1           0        0.906745   -3.589753    0.704235
     25          8           0        0.167349   -3.641281   -0.266507
     26          1           0       -0.647407   -4.047154    0.041829
     27          1           0       -0.106520   -2.566033   -0.713216
     28          8           0        1.848795   -3.308821    1.373246
     29          1           0        2.608172   -3.902762    1.484994
     30          1           0        2.351742   -2.299852    0.965059
 ---------------------------------------------------------------------
                    Distance matrix (angstroms):
                    1          2          3          4          5
     1  O    0.000000
     2  C    2.547186   0.000000
     3  C    2.647952   2.534934   0.000000
     4  C    3.019551   1.526083   1.540259   0.000000
     5  C    1.795697   2.792061   1.505278   2.601168   0.000000
     6  C    1.461464   1.529326   2.954034   2.519927   2.679516
     7  H    3.995843   2.138032   2.151394   1.095768   3.288635
     8  H    2.001299   2.141228   3.889981   3.448706   3.340220
     9  H    3.439725   1.095631   3.460229   2.129803   3.878090
    10  H    2.921695   3.250595   1.098118   2.142636   2.122226
    11  C    2.363127   2.595269   3.714510   3.165766   3.751691
    12  H    2.587522   3.517625   4.491253   4.170688   4.247812
    13  H    2.591786   2.968565   3.349609   2.982514   3.657207
    14  O    3.655701   2.956883   4.615687   3.629885   4.893547
    15  H    3.967460   3.354724   5.288455   4.319103   5.362095
    16  O    3.910188   3.571960   1.429976   2.466676   2.330905
    17  H    3.956420   3.688116   1.945717   2.926433   2.243219
    18  O    3.666684   2.470602   2.424273   1.431031   3.616247
    19  H    4.120499   2.527016   3.263001   1.969395   4.326176
    20  O    3.153821   1.426845   3.107848   2.457038   3.007605
    21  H    3.396609   1.966317   3.957584   3.293976   3.630829
    22  H    2.339096   3.853642   2.146158   3.511223   1.097874
    23  O    2.613308   3.092201   2.448556   3.236498   1.373304
    24  H    2.987720   3.837964   4.564312   4.835974   3.311044
    25  O    2.386257   3.902303   4.566714   4.882860   3.272944
    26  H    2.905409   4.152093   5.234507   5.324096   4.066040
    27  H    1.207230   3.115608   3.623897   3.942369   2.465416
    28  O    3.663117   4.033342   4.558482   4.874332   3.412158
    29  H    4.489772   4.970310   5.276450   5.720374   4.085002
    30  H    3.320152   3.625387   3.597094   4.121668   2.527982
                    6          7          8          9         10
     6  C    0.000000
     7  H    3.452896   0.000000
     8  H    1.098213   4.248737   0.000000
     9  H    2.131574   2.493203   2.525590   0.000000
    10  H    3.361609   2.855209   4.394583   4.061738   0.000000
    11  C    1.531398   4.170622   2.152895   2.739115   3.701277
    12  H    2.164446   5.204259   2.414419   3.707448   4.397930
    13  H    2.178546   4.021936   3.060962   3.222156   3.042883
    14  O    2.449926   4.423268   2.801248   2.530299   4.672329
    15  H    2.724263   5.072569   2.679933   2.863875   5.447210
    16  O    4.268508   2.441631   5.106888   4.437060   2.028461
    17  H    4.388450   2.840264   5.063654   4.618845   2.760343
    18  O    3.064667   2.029335   4.083378   2.620149   2.363299
    19  H    3.194132   2.381120   4.077840   2.251953   3.311651
    20  O    2.468578   2.595736   2.583920   2.004244   4.081928
    21  H    2.594427   3.509520   2.287192   2.262937   4.876131
    22  H    3.537964   4.189583   4.172895   4.925365   2.339307
    23  O    3.260785   3.609620   3.579203   4.150028   3.333807
    24  H    3.381706   5.367243   2.860764   4.612445   5.318813
    25  O    2.979260   5.622406   2.446736   4.663279   5.108509
    26  H    3.141685   6.072039   2.326570   4.724487   5.759696
    27  H    2.005675   4.806616   1.845061   3.938964   4.048194
    28  O    4.003834   5.182999   3.641637   4.834656   5.456047
    29  H    4.951070   5.963434   4.582634   5.777785   6.163567
    30  H    3.800131   4.374210   3.777617   4.565288   4.526337
                   11         12         13         14         15
    11  C    0.000000
    12  H    1.096362   0.000000
    13  H    1.093324   1.746763   0.000000
    14  O    1.423442   2.063412   2.053948   0.000000
    15  H    1.946853   2.215269   2.830583   0.973188   0.000000
    16  O    5.127117   5.917567   4.744878   5.939445   6.609866
    17  H    5.475563   6.209043   5.256863   6.321128   6.884383
    18  O    2.982311   4.015705   2.465304   3.209435   4.095279
    19  H    2.944632   4.013052   2.647016   2.723091   3.583749
    20  O    3.836241   4.600806   4.313801   4.189630   4.369863
    21  H    3.947842   4.566728   4.636098   4.194573   4.151007
    22  H    4.403316   4.730875   4.160247   5.668729   6.158565
    23  O    4.630754   5.116687   4.767659   5.629230   5.944788
    24  H    4.754136   4.839844   5.375530   5.636800   5.521421
    25  O    4.101027   3.960914   4.727521   5.120054   4.989178
    26  H    4.103919   3.840766   4.895959   4.950296   4.642458
    27  H    3.063226   3.022366   3.576854   4.224279   4.269301
    28  O    5.491649   5.752303   6.025658   6.307416   6.269346
    29  H    6.425551   6.640383   6.929889   7.272137   7.221434
    30  H    5.287374   5.691533   5.624151   6.181786   6.328864
                   16         17         18         19         20
    16  O    0.000000
    17  H    0.974101   0.000000
    18  O    3.378369   4.078848   0.000000
    19  H    4.208021   4.828134   0.975563   0.000000
    20  O    3.732207   3.485896   3.707378   3.792682   0.000000
    21  H    4.667338   4.368124   4.411971   4.364400   0.980263
    22  H    2.679708   2.616557   4.331854   5.134948   4.088428
    23  O    2.733715   2.139329   4.524046   5.111745   2.630892
    24  H    5.243454   4.706932   5.980552   6.268850   3.189263
    25  O    5.489120   5.126504   5.811382   6.106243   3.692008
    26  H    6.244245   5.921330   6.158073   6.315851   3.982764
    27  H    4.723856   4.547518   4.738220   5.083562   3.299634
    28  O    4.926404   4.224424   6.177696   6.506345   3.047846
    29  H    5.468158   4.667972   7.052209   7.421142   3.928132
    30  H    3.790695   3.047238   5.472804   5.930988   2.736168
                   21         22         23         24         25
    21  H    0.000000
    22  H    4.671169   0.000000
    23  O    3.161957   2.001723   0.000000
    24  H    2.871677   3.830975   2.595958   0.000000
    25  O    3.401543   3.657868   3.053830   1.221352   0.000000
    26  H    3.483838   4.530296   3.881874   1.750253   0.961057
    27  H    3.239954   2.926507   2.720755   2.020860   1.196123
    28  O    2.875739   3.961382   2.284886   1.189099   2.372042
    29  H    3.768781   4.463915   2.868045   1.898002   3.015584
    30  H    2.966454   3.077318   1.215890   1.954454   2.843899
                   26         27         28         29         30
    26  H    0.000000
    27  H    1.748247   0.000000
    28  O    2.923838   2.954372   0.000000
    29  H    3.564038   3.740123   0.970519   0.000000
    30  H    3.591701   2.988397   1.198996   1.704526   0.000000
 Stoichiometry    C6H16O8
 Framework group  C1[X(C6H16O8)]
 Deg. of freedom    84
 Full point group                 C1      NOp   1
 Largest Abelian subgroup         C1      NOp   1
 Largest concise Abelian subgroup C1      NOp   1
                         Standard orientation:                         
 ---------------------------------------------------------------------
 Center     Atomic      Atomic             Coordinates (Angstroms)
 Number     Number       Type             X           Y           Z
 ---------------------------------------------------------------------
      1          8           0        0.208684   -0.738016   -1.224223
      2          6           0       -0.734204   -0.076307    1.047618
      3          6           0       -0.319053    1.785843   -0.621494
      4          6           0       -1.215546    1.272761    0.521067
      5          6           0        0.850653    0.926613   -1.020711
      6          6           0       -0.626536   -1.102100   -0.081538
      7          1           0       -1.170242    1.995818    1.343164
      8          1           0       -0.103391   -1.984853    0.309792
      9          1           0       -1.487785   -0.442807    1.753452
     10          1           0       -0.958304    1.925920   -1.503310
     11          6           0       -1.949692   -1.550470   -0.708757
     12          1           0       -1.772640   -2.394365   -1.385887
     13          1           0       -2.381013   -0.758053   -1.326329
     14          8           0       -2.903927   -1.931236    0.276452
     15          1           0       -2.636838   -2.804773    0.612148
     16          8           0        0.242019    3.069447   -0.334454
     17          1           0        1.149197    2.910521   -0.017211
     18          8           0       -2.577530    1.255647    0.082258
     19          1           0       -3.102022    0.746751    0.728521
     20          8           0        0.458058    0.032304    1.823892
     21          1           0        0.702645   -0.864915    2.133879
     22          1           0        1.213003    1.221183   -2.014319
     23          8           0        1.927344    0.923461   -0.168250
     24          1           0        2.717449   -1.522344    0.196127
     25          8           0        2.117598   -2.075411   -0.712716
     26          1           0        1.894147   -2.952029   -0.388304
     27          1           0        1.098285   -1.526323   -1.013074
     28          8           0        3.250159   -0.658496    0.815759
     29          1           0        4.210269   -0.517633    0.799832
     30          1           0        2.814277    0.408266    0.484675
 ---------------------------------------------------------------------
 Rotational constants (GHZ):      0.7675490      0.5848597      0.4215832
 Standard basis: 6-31G(d) (6D, 7F)
 There are   242 symmetry adapted cartesian basis functions of A   symmetry.
 There are   242 symmetry adapted basis functions of A   symmetry.
   242 basis functions,   456 primitive gaussians,   242 cartesian basis functions
    58 alpha electrons       58 beta electrons
       nuclear repulsion energy      1137.4773500248 Hartrees.
 NAtoms=   30 NActive=   30 NUniq=   30 SFac= 1.00D+00 NAtFMM=   60 NAOKFM=F Big=F
 Integral buffers will be    131072 words long.
 Raffenetti 2 integral format.
 Two-electron integral symmetry is turned on.
 One-electron integrals computed using PRISM.
 NBasis=   242 RedAO= T EigKep=  1.35D-03  NBF=   242
 NBsUse=   242 1.00D-06 EigRej= -1.00D+00 NBFU=   242
 Initial guess from the checkpoint file:  "/scratch/10460708.yak.local/Gau-2675.chk"
 B after Tr=     0.000000   -0.000000   -0.000000
         Rot=    0.999989   -0.001344    0.001131    0.004239 Ang=  -0.53 deg.
 ExpMin= 1.61D-01 ExpMax= 5.48D+03 ExpMxC= 8.25D+02 IAcc=1 IRadAn=         1 AccDes= 0.00D+00
 Harris functional with IExCor=  402 and IRadAn=       1 diagonalized for initial guess.
 HarFok:  IExCor=  402 AccDes= 0.00D+00 IRadAn=         1 IDoV= 1 UseB2=F ITyADJ=14
 ICtDFT=  3500011 ScaDFX=  1.000000  1.000000  1.000000  1.000000
 FoFCou: FMM=F IPFlag=           0 FMFlag=      100000 FMFlg1=           0
         NFxFlg=           0 DoJE=T BraDBF=F KetDBF=T FulRan=T
         wScrn=  0.000000 ICntrl=     500 IOpCl=  0 I1Cent=   200000004 NGrid=           0
         NMat0=    1 NMatS0=      1 NMatT0=    0 NMatD0=    1 NMtDS0=    0 NMtDT0=    0
 Petite list used in FoFCou.
 Requested convergence on RMS density matrix=1.00D-08 within 128 cycles.
 Requested convergence on MAX density matrix=1.00D-06.
 Requested convergence on             energy=1.00D-06.
 No special actions if energy rises.
 Integral accuracy reduced to 1.0D-05 until final iterations.
 Initial convergence to 1.0D-05 achieved.  Increase integral accuracy.
 SCF Done:  E(RB3LYP) =  -839.879215920     A.U. after   12 cycles
            NFock= 12  Conv=0.80D-08     -V/T= 2.0087
 Calling FoFJK, ICntrl=      2127 FMM=F ISym2X=0 I1Cent= 0 IOpClX= 0 NMat=1 NMatS=1 NMatT=0.
 ***** Axes restored to original set *****
 -------------------------------------------------------------------
 Center     Atomic                   Forces (Hartrees/Bohr)
 Number     Number              X              Y              Z
 -------------------------------------------------------------------
      1        8           0.017528381    0.027897641    0.012710651
      2        6          -0.017245803   -0.003471375    0.008428463
      3        6           0.003393808    0.016315055   -0.000291984
      4        6           0.012052586    0.005820044    0.015564523
      5        6           0.042090963   -0.063201037    0.044617442
      6        6          -0.003288142   -0.010946289   -0.016500331
      7        1           0.006577866   -0.005472620    0.001982843
      8        1          -0.007096570    0.003154437    0.008853184
      9        1          -0.009071963    0.003545126   -0.006672155
     10        1          -0.002357327   -0.000978181    0.001694261
     11        6          -0.006901533   -0.000192492   -0.000997411
     12        1           0.003227196   -0.004337718   -0.000887617
     13        1           0.000608057    0.002040709    0.006491535
     14        8          -0.004240786    0.002725904    0.002124068
     15        1           0.001202436    0.004114849   -0.000660735
     16        8          -0.001680955    0.002281021   -0.004162102
     17        1          -0.004467282   -0.001648310    0.003565833
     18        8          -0.004812515   -0.009239710   -0.003384954
     19        1           0.003480558   -0.000862592   -0.002372386
     20        8          -0.000946051    0.001333794    0.000844042
     21        1           0.005599003    0.008429216   -0.004830089
     22        1          -0.019125767   -0.005232284   -0.008871753
     23        8          -0.009758199    0.065424170   -0.056017733
     24        1           0.017857412    0.006587372   -0.018546146
     25        8          -0.012167792   -0.005539470    0.005352514
     26        1          -0.008558248   -0.007921225   -0.001239629
     27        1           0.027715145   -0.007497375   -0.003499422
     28        8           0.030301041    0.008237325    0.029848819
     29        1          -0.010399192   -0.011713010   -0.002704584
     30        1          -0.049516326   -0.019652975   -0.010439147
 -------------------------------------------------------------------
 Cartesian Forces:  Max     0.065424170 RMS     0.017095576

 GradGradGradGradGradGradGradGradGradGradGradGradGradGradGradGradGradGrad
 Berny optimization.
 Search for a saddle point.
 Step number   2 out of a maximum of  180
 All quantities printed in internal units (Hartrees-Bohrs-Radians)
 Swapping is turned off.
 Update second derivatives using D2CorN and points    1    2
 ITU=  0  0
     Eigenvalues ---   -0.15693  -0.02268  -0.00994  -0.00463  -0.00131
     Eigenvalues ---   -0.00032   0.00008   0.00327   0.00366   0.00472
     Eigenvalues ---    0.00505   0.00706   0.00778   0.00950   0.01097
     Eigenvalues ---    0.01331   0.01443   0.01650   0.01883   0.02025
     Eigenvalues ---    0.02503   0.02583   0.03206   0.03284   0.03573
     Eigenvalues ---    0.03884   0.04131   0.04293   0.04766   0.05164
     Eigenvalues ---    0.05334   0.05649   0.05762   0.06367   0.06559
     Eigenvalues ---    0.06732   0.07593   0.07746   0.08007   0.08287
     Eigenvalues ---    0.09211   0.09942   0.11113   0.11518   0.11627
     Eigenvalues ---    0.12021   0.13809   0.14244   0.14483   0.15788
     Eigenvalues ---    0.16439   0.17743   0.18856   0.20585   0.21079
     Eigenvalues ---    0.21793   0.23937   0.26881   0.29038   0.30669
     Eigenvalues ---    0.34181   0.40715   0.43939   0.48275   0.51130
     Eigenvalues ---    0.53086   0.59664   0.61777   0.64510   0.66433
     Eigenvalues ---    0.66904   0.77146   0.80053   0.81553   0.84775
     Eigenvalues ---    0.86514   0.90723   0.92975   0.95950   0.98664
     Eigenvalues ---    1.01997   1.03713   1.07293   1.15354
 Eigenvectors required to have negative eigenvalues:
                          Y30       Y27       X24       Z30       X5
   1                    0.38220  -0.37781   0.35516  -0.28075  -0.27335
                          Z24       X1        Y1        X28       Z25
   1                    0.25597   0.24794   0.22022  -0.21994  -0.17088
 RFO step:  Lambda0=1.719064528D-03 Lambda=-7.77908464D-02.
 Linear search not attempted -- option 19 set.
 Maximum step size (   0.300) exceeded in Quadratic search.
    -- Step size scaled by   0.268
 B after Tr=     0.004211   -0.000562   -0.000286
         Rot=    1.000000    0.000377    0.000182   -0.000011 Ang=   0.05 deg.
 Variable       Old X    -DE/DX   Delta X   Delta X   Delta X     New X
                                 (Linear)    (Quad)   (Total)
    X1       -0.23652   0.01753   0.00000   0.01489   0.01988  -0.21665
    Y1       -2.66345   0.02790   0.00000   0.01574   0.01369  -2.64977
    Z1       -2.00062   0.01271   0.00000   0.02515   0.02678  -1.97383
    X2       -0.88545  -0.01725   0.00000  -0.01508  -0.01159  -0.89704
    Y2       -0.04432  -0.00347   0.00000  -0.00537  -0.00446  -0.04878
    Z2        1.98544   0.00843   0.00000  -0.00005  -0.00063   1.98482
    X3        2.45487   0.00339   0.00000   0.00993   0.01450   2.46937
    Y3        1.45819   0.01632   0.00000  -0.00166  -0.00299   1.45519
    Z3       -1.10195  -0.00029   0.00000   0.01204   0.01155  -1.09040
    X4        0.42285   0.01205   0.00000   0.00300   0.00686   0.42970
    Y4        2.24932   0.00582   0.00000  -0.00579  -0.00571   2.24361
    Z4        0.82600   0.01556   0.00000   0.01377   0.01195   0.83794
    X5        2.84562   0.04209   0.00000   0.04847   0.05326   2.89888
    Y5       -1.32865  -0.06320   0.00000  -0.01922  -0.02084  -1.34949
    Z5       -1.51716   0.04462   0.00000   0.01828   0.02006  -1.49710
    X6       -1.98504  -0.00329   0.00000  -0.00863  -0.00436  -1.98940
    Y6       -1.76184  -0.01095   0.00000  -0.00867  -0.00932  -1.77116
    Z6       -0.06228  -0.01650   0.00000  -0.00634  -0.00602  -0.06830
    X7        1.35045   0.00658   0.00000   0.00516   0.00844   1.35889
    Y7        3.30115  -0.00547   0.00000  -0.01115  -0.00990   3.29126
    Z7        2.34948   0.00198   0.00000   0.01434   0.01207   2.36155
    X8       -2.57937  -0.00710   0.00000  -0.01697  -0.01299  -2.59236
    Y8       -3.53508   0.00315   0.00000   0.00052   0.00054  -3.53453
    Z8        0.83737   0.00885   0.00000   0.01302   0.01445   0.85182
    X9       -2.46659  -0.00907   0.00000  -0.01056  -0.00750  -2.47409
    Y9        0.65096   0.00355   0.00000  -0.00682  -0.00508   0.64588
    Z9        3.12708  -0.00667   0.00000   0.00607   0.00440   3.13148
   X10        1.95370  -0.00236   0.00000  -0.00706  -0.00184   1.95186
   Y10        2.32033  -0.00098   0.00000  -0.01529  -0.01800   2.30232
   Z10       -2.92178   0.00169   0.00000   0.01026   0.00894  -2.91283
   X11       -4.21444  -0.00690   0.00000  -0.01520  -0.01040  -4.22485
   Y11       -0.68273  -0.00019   0.00000  -0.00414  -0.00597  -0.68870
   Z11       -1.55897  -0.00100   0.00000   0.00372   0.00241  -1.55656
   X12       -5.04248   0.00323   0.00000  -0.01004  -0.00478  -5.04727
   Y12       -2.16237  -0.00434   0.00000  -0.00667  -0.00941  -2.17178
[...]
    Y6       -1.54980   0.00007   0.00000   0.00162   0.00261  -1.54719
    Z6        0.50216  -0.00025   0.00000   0.00548   0.00595   0.50811
    X7        1.24567  -0.00007   0.00000  -0.01576  -0.01421   1.23147
    Y7        3.88600  -0.00011   0.00000   0.03460   0.03509   3.92109
    Z7        1.94820  -0.00010   0.00000  -0.03748  -0.03722   1.91098
    X8       -2.63307   0.00007   0.00000   0.05525   0.05600  -2.57708
    Y8       -3.06846  -0.00018   0.00000  -0.00118  -0.00025  -3.06871
    Z8        1.83571   0.00022   0.00000   0.01739   0.01783   1.85354
    X9       -3.01551  -0.00004   0.00000   0.00334   0.00479  -3.01072
    Y9        1.73969   0.00000   0.00000   0.01660   0.01752   1.75721
    Z9        2.62773  -0.00004   0.00000  -0.01917  -0.01825   2.60948
   X10        2.54390   0.00010   0.00000   0.05900   0.05940   2.60330
   Y10        1.75720  -0.00011   0.00000   0.01543   0.01615   1.77335
   Z10       -2.76120   0.00030   0.00000   0.01296   0.01278  -2.74843
   X11       -4.40592   0.00019   0.00000  -0.00861  -0.00823  -4.41415
   Y11       -1.00410  -0.00018   0.00000  -0.03016  -0.02877  -1.03287
   Z11       -1.23839  -0.00004   0.00000   0.03281   0.03377  -1.20461
   X12       -4.80096  -0.00003   0.00000  -0.00451  -0.00455  -4.80551
   Y12       -2.68652  -0.00002   0.00000  -0.03578  -0.03425  -2.72077
   Z12       -2.40022   0.00016   0.00000   0.04111   0.04201  -2.35821
   X13       -3.91840   0.00007   0.00000  -0.04147  -0.04117  -3.95957
   Y13        0.55056  -0.00011   0.00000  -0.02817  -0.02672   0.52383
   Z13       -2.49999  -0.00010   0.00000   0.02246   0.02346  -2.47653
   X14       -6.57186  -0.00006   0.00000  -0.00285  -0.00211  -6.57397
   Y14       -0.21689   0.00065   0.00000  -0.05282  -0.05130  -0.26819
   Z14        0.13717  -0.00017   0.00000   0.05711   0.05856   0.19572
   X15       -7.11105  -0.00024   0.00000   0.03144   0.03223  -7.07882
   Y15       -1.60349  -0.00047   0.00000  -0.05769  -0.05619  -1.65968
   Z15        1.20681   0.00032   0.00000   0.07204   0.07347   1.28028
   X16        5.06196   0.00007   0.00000   0.01126   0.01226   5.07423
   Y16        2.04687  -0.00020   0.00000  -0.00112  -0.00093   2.04594
   Z16        0.12910  -0.00011   0.00000   0.05179   0.05114   0.18025
   X17        5.43616  -0.00033   0.00000  -0.01876  -0.01761   5.41855
   Y17        0.92449   0.00046   0.00000  -0.00391  -0.00387   0.92062
   Z17        1.54536  -0.00005   0.00000   0.05742   0.05662   1.60197
   X18       -0.95678   0.00048   0.00000   0.00399   0.00489  -0.95189
   Y18        3.84420  -0.00024   0.00000  -0.03065  -0.02964   3.81456
   Z18       -1.33511  -0.00021   0.00000  -0.05053  -0.04986  -1.38497
   X19       -2.22168  -0.00028   0.00000  -0.00404  -0.00286  -2.22454
   Y19        4.88536  -0.00007   0.00000  -0.02394  -0.02284   4.86252
   Z19       -0.51178   0.00027   0.00000  -0.06815  -0.06714  -0.57892
   X20       -0.14914   0.00075   0.00000   0.01859   0.02018  -0.12896
   Y20       -0.01933  -0.00177   0.00000   0.04286   0.04331   0.02397
   Z20        4.39974  -0.00058   0.00000  -0.00914  -0.00893   4.39081
   X21        1.32029  -0.00055   0.00000  -0.00132   0.00006   1.32035
   Y21       -1.06904   0.00160   0.00000   0.02142   0.02174  -1.04730
   Z21        3.91834   0.00048   0.00000   0.00927   0.00911   3.92744
   X22        3.57310   0.00004   0.00000   0.01498   0.01500   3.58810
   Y22       -2.56921  -0.00009   0.00000   0.00341   0.00396  -2.56525
   Z22       -2.15939  -0.00007   0.00000   0.00708   0.00635  -2.15303
   X23        3.40080   0.00008   0.00000  -0.01681  -0.01603   3.38477
   Y23       -2.49401  -0.00035   0.00000  -0.00413  -0.00387  -2.49788
   Z23        1.71101   0.00064   0.00000   0.00880   0.00811   1.71912
   X24        1.96627   0.00036   0.00000  -0.02526  -0.02539   1.94088
   Y24       -7.31364   0.00007   0.00000   0.01254   0.01312  -7.30052
   Z24       -0.12552   0.00014   0.00000  -0.03362  -0.03441  -0.15993
   X25        0.23815   0.00003   0.00000   0.00104   0.00070   0.23885
   Y25       -7.04609   0.00050   0.00000   0.02746   0.02833  -7.01776
   Z25       -1.30562  -0.00081   0.00000  -0.06794  -0.06837  -1.37399
   X26       -1.14942  -0.00068   0.00000  -0.01685  -0.01714  -1.16657
   Y26       -7.93369  -0.00037   0.00000   0.01669   0.01766  -7.91602
   Z26       -0.50331   0.00063   0.00000  -0.10729  -0.10752  -0.61084
   X27       -0.10659  -0.00000   0.00000   0.00351   0.00343  -0.10316
   Y27       -4.82690  -0.00003   0.00000   0.03069   0.03160  -4.79530
   Z27       -1.27476   0.00004   0.00000  -0.04513  -0.04531  -1.32007
   X28        4.00756  -0.00124   0.00000  -0.05858  -0.05840   3.94917
   Y28       -7.11587   0.00096   0.00000  -0.00780  -0.00758  -7.12345
   Z28        1.35486  -0.00011   0.00000   0.01455   0.01339   1.36824
   X29        5.52841   0.00120   0.00000  -0.03841  -0.03845   5.48996
   Y29       -7.43809  -0.00078   0.00000  -0.02893  -0.02881  -7.46691
   Z29        0.38689  -0.00013   0.00000   0.05497   0.05347   0.44036
   X30        3.93608  -0.00013   0.00000  -0.04132  -0.04084   3.89524
   Y30       -5.09844  -0.00008   0.00000  -0.01020  -0.00999  -5.10843
   Z30        1.67266  -0.00009   0.00000   0.01041   0.00942   1.68208
         Item               Value     Threshold  Converged?
 Maximum Force            0.001772     0.000450     NO 
 RMS     Force            0.000435     0.000300     NO 
 Maximum Displacement     0.107524     0.001800     NO 
 RMS     Displacement     0.031612     0.001200     NO 
 Predicted change in Energy=-5.883969D-05
 GradGradGradGradGradGradGradGradGradGradGradGradGradGradGradGradGradGrad

                          Input orientation:                          
 ---------------------------------------------------------------------
 Center     Atomic      Atomic             Coordinates (Angstroms)
 Number     Number       Type             X           Y           Z
 ---------------------------------------------------------------------
      1          8           0       -0.069312   -1.299761   -0.621683
      2          6           0       -0.675257    0.394214    1.106356
      3          6           0        1.430085    0.652615   -0.399919
      4          6           0        0.231464    1.351680    0.301370
      5          6           0        1.396498   -0.880693   -0.280744
      6          6           0       -1.125433   -0.818739    0.268879
      7          1           0        0.651664    2.074952    1.011249
      8          1           0       -1.363730   -1.623893    0.980851
      9          1           0       -1.593206    0.929877    1.380876
     10          1           0        1.377607    0.938414   -1.454405
     11          6           0       -2.335868   -0.546571   -0.637454
     12          1           0       -2.542967   -1.439769   -1.247911
     13          1           0       -2.095312    0.277200   -1.310523
     14          8           0       -3.478795   -0.141918    0.103572
     15          1           0       -3.745953   -0.878263    0.677493
     16          8           0        2.685166    1.082667    0.095383
     17          1           0        2.867373    0.487169    0.847727
     18          8           0       -0.503719    2.018580   -0.732895
     19          1           0       -1.177176    2.573132   -0.306352
     20          8           0       -0.068242    0.012686    2.323517
     21          1           0        0.698699   -0.554209    2.078314
     22          1           0        1.898739   -1.357472   -1.139336
     23          8           0        1.791145   -1.321821    0.909720
     24          1           0        1.027067   -3.863269   -0.084631
     25          8           0        0.126392   -3.713639   -0.727084
     26          1           0       -0.617320   -4.188980   -0.323241
     27          1           0       -0.054591   -2.537561   -0.698553
     28          8           0        2.089810   -3.769568    0.724044
     29          1           0        2.905162   -3.951316    0.233027
     30          1           0        2.061273   -2.703265    0.890118
 ---------------------------------------------------------------------
                    Distance matrix (angstroms):
                    1          2          3          4          5
     1  O    0.000000
     2  C    2.494563   0.000000
     3  C    2.471668   2.601558   0.000000
     4  C    2.823585   1.544955   1.554732   0.000000
     5  C    1.562195   2.800286   1.538299   2.584501   0.000000
     6  C    1.462832   1.541195   3.023714   2.559871   2.581871
     7  H    3.817717   2.143512   2.149506   1.097096   3.310568
     8  H    2.085353   2.136002   3.859329   3.443889   3.124552
     9  H    3.362110   1.097691   3.519716   2.161636   3.870074
    10  H    2.792208   3.326846   1.093790   2.137096   2.164945
    11  C    2.388477   2.585262   3.959403   3.328053   3.764231
    12  H    2.555530   3.520570   4.569716   4.229648   4.094797
    13  H    2.658192   2.805629   3.660405   3.027638   3.820196
    14  O    3.673033   3.025365   4.998188   4.004494   4.945904
    15  H    3.922143   3.351461   5.504159   4.575364   5.230967
    16  O    3.711777   3.576098   1.416155   2.476985   2.378428
    17  H    3.738503   3.553274   1.910442   2.827349   2.303903
    18  O    3.348501   2.459844   2.390885   1.433511   3.495862
    19  H    4.040557   2.644873   3.239591   1.961004   4.307361
    20  O    3.224395   1.412626   3.173578   2.443728   3.118615
    21  H    2.904423   1.931829   2.851839   2.647310   2.481666
    22  H    2.035809   3.838879   2.192447   3.492126   1.103062
    23  O    2.409768   3.011077   2.396647   3.154410   1.329490
    24  H    2.839374   4.737354   4.544781   5.289392   3.011760
    25  O    2.424091   4.569311   4.568460   5.169740   3.136554
    26  H    2.955836   4.801330   5.257260   5.639989   3.873245
    27  H    1.240272   3.498318   3.531383   4.025900   2.241748
    28  O    3.545805   5.012868   4.610231   5.464364   3.136220
    29  H    4.075386   5.697872   4.875721   5.939285   3.459589
    30  H    2.965595   4.138808   3.650277   4.487471   2.265968
                    6          7          8          9         10
     6  C    0.000000
     7  H    3.476008   0.000000
     8  H    1.100892   4.212386   0.000000
     9  H    2.124384   2.547011   2.595077   0.000000
    10  H    3.510342   2.810367   4.473345   4.106656   0.000000
    11  C    1.536447   4.303017   2.173611   2.608659   4.081971
    12  H    2.166964   5.259538   2.528216   3.664395   4.590130
    13  H    2.153197   4.020997   3.065903   2.814557   3.538230
    14  O    2.454327   4.774838   2.727520   2.517080   5.213353
    15  H    2.652853   5.307721   2.514552   2.898006   5.839192
    16  O    4.262172   2.441018   4.950059   4.469934   2.032821
    17  H    4.240632   2.730780   4.730385   4.514090   2.778999
    18  O    3.072533   2.092876   4.116328   2.615394   2.286203
    19  H    3.440692   2.308444   4.393941   2.391675   3.243030
    20  O    2.455699   2.548186   2.481821   2.013785   4.149716
    21  H    2.582923   2.837838   2.569488   2.818113   3.894732
    22  H    3.379189   4.238130   3.899984   4.876179   2.375277
    23  O    3.028233   3.584242   3.170102   4.092184   3.296780
    24  H    3.745316   6.050153   3.444702   5.655776   5.005529
    25  O    3.307485   6.066753   3.082944   5.381706   4.871974
    26  H    3.459380   6.529014   2.972785   5.482615   5.616888
    27  H    2.244321   4.969657   2.317117   4.326025   3.834698
    28  O    4.387751   6.025708   4.073918   6.006731   5.236217
    29  H    5.104902   6.480725   4.919307   6.736388   5.393544
    30  H    3.753994   4.983274   3.592203   5.176464   4.384747
                   11         12         13         14         15
    11  C    0.000000
    12  H    1.101522   0.000000
    13  H    1.090636   1.775471   0.000000
    14  O    1.420966   2.094444   2.022214   0.000000
    15  H    1.956385   2.338727   2.830533   0.971062   0.000000
    16  O    5.329376   5.958229   5.047605   6.284432   6.748584
    17  H    5.508911   6.113638   5.415752   6.420542   6.754958
    18  O    3.153708   4.047709   2.428832   3.770743   4.570883
    19  H    3.344360   4.342269   2.668827   3.582874   4.413468
    20  O    3.771240   4.581374   4.169560   4.072337   4.126590
    21  H    4.072352   4.728254   4.470118   4.639078   4.671428
    22  H    4.340662   4.443795   4.319016   5.651571   5.949206
    23  O    4.475154   4.842913   4.752988   5.460248   5.559687
    24  H    4.755569   4.468973   5.328747   5.846936   5.680916
    25  O    4.012615   3.545027   4.604689   5.142426   5.000724
    26  H    4.039713   3.481565   4.806865   4.974828   4.663760
    27  H    3.028532   2.774700   3.530146   4.255312   4.274684
    28  O    5.641632   5.547900   6.166931   6.674892   6.512905
    29  H    6.310185   6.179252   6.728123   7.435266   7.340200
    30  H    5.130268   5.231311   5.568050   6.153982   6.090953
                   16         17         18         19         20
    16  O    0.000000
    17  H    0.976646   0.000000
    18  O    3.425050   4.025897   0.000000
    19  H    4.159394   4.694839   0.971087   0.000000
    20  O    3.700094   3.319778   3.681699   3.834297   0.000000
    21  H    3.249219   2.702214   3.995991   4.357270   0.984730
    22  H    2.845571   2.879127   4.163499   5.060115   4.211615
    23  O    2.691464   2.105838   4.372970   5.045832   2.690177
    24  H    5.219576   4.814803   6.112258   6.806990   4.692751
    25  O    5.498029   5.257356   5.766750   6.434267   4.819704
    26  H    6.234735   5.948161   6.222099   6.785270   4.996079
    27  H    4.608975   4.480831   4.578353   5.247209   3.954346
    28  O    4.928878   4.328939   6.507820   7.208658   4.639067
    29  H    5.040667   4.481009   6.942128   7.715234   5.378159
    30  H    3.918434   3.290967   5.613303   6.305510   3.737092
                   21         22         23         24         25
    21  H    0.000000
    22  H    3.526839   0.000000
    23  O    1.774339   2.052188   0.000000
    24  H    3.966867   2.855036   2.833991   0.000000
    25  O    4.263777   2.977027   3.342353   1.116401   0.000000
    26  H    4.550926   3.874790   3.942270   1.693231   0.970642
    27  H    3.494584   2.324306   2.733369   1.817797   1.190263
    28  O    3.756031   3.053997   2.472881   1.338715   2.442112
    29  H    4.451281   3.102305   2.934824   1.906804   2.949554
    30  H    2.808355   2.440545   1.407743   1.834483   2.716609
                   26         27         28         29         30
    26  H    0.000000
    27  H    1.784575   0.000000
    28  O    2.932791   2.853082   0.000000
    29  H    3.574045   3.409792   0.968984   0.000000
    30  H    3.294609   2.651077   1.079536   1.643640   0.000000
 Stoichiometry    C6H16O8
 Framework group  C1[X(C6H16O8)]
 Deg. of freedom    84
 Full point group                 C1      NOp   1
 Largest Abelian subgroup         C1      NOp   1
 Largest concise Abelian subgroup C1      NOp   1
                         Standard orientation:                         
 ---------------------------------------------------------------------
 Center     Atomic      Atomic             Coordinates (Angstroms)
 Number     Number       Type             X           Y           Z
 ---------------------------------------------------------------------
      1          8           0        0.346045   -0.679802   -0.742683
      2          6           0       -1.253643    0.186176    0.964339
      3          6           0       -0.094519    1.752225   -0.759618
      4          6           0       -1.388961    1.409401    0.030371
      5          6           0        1.026756    0.715906   -0.572141
      6          6           0       -0.684160   -1.043413    0.230117
      7          1           0       -1.619340    2.276484    0.661807
      8          1           0       -0.218799   -1.682129    0.996566
      9          1           0       -2.254903   -0.103693    1.308402
     10          1           0       -0.380948    1.793918   -1.814415
     11          6           0       -1.728753   -1.848544   -0.558082
     12          1           0       -1.226035   -2.661671   -1.105302
     13          1           0       -2.204998   -1.191653   -1.286897
     14          8           0       -2.765748   -2.342795    0.278280
     15          1           0       -2.375907   -2.971290    0.907550
     16          8           0        0.442926    3.016171   -0.414525
     17          1           0        1.034986    2.831562    0.339943
     18          8           0       -2.414015    1.204687   -0.950605
     19          1           0       -3.260313    1.123523   -0.481348
     20          8           0       -0.519512    0.506211    2.128015
     21          1           0        0.405132    0.667022    1.829912
     22          1           0        1.684876    0.677571   -1.456536
     23          8           0        1.662275    0.836853    0.589337
     24          1           0        3.003327   -1.527749   -0.211754
     25          8           0        2.266533   -2.158816   -0.764240
     26          1           0        2.137703   -2.981968   -0.266275
     27          1           0        1.272777   -1.503709   -0.767633
     28          8           0        3.673761   -0.597326    0.478890
     29          1           0        4.335483   -0.169375   -0.084946
     30          1           0        2.868526    0.111210    0.601246
 ---------------------------------------------------------------------
 Rotational constants (GHZ):      0.7270708      0.5598583      0.3966323
 Standard basis: 6-31G(d) (6D, 7F)
 There are   242 symmetry adapted cartesian basis functions of A   symmetry.
 There are   242 symmetry adapted basis functions of A   symmetry.
   242 basis functions,   456 primitive gaussians,   242 cartesian basis functions
    58 alpha electrons       58 beta electrons
       nuclear repulsion energy      1127.8210252268 Hartrees.
 NAtoms=   30 NActive=   30 NUniq=   30 SFac= 1.00D+00 NAtFMM=   60 NAOKFM=F Big=F
 Integral buffers will be    131072 words long.
 Raffenetti 2 integral format.
 Two-electron integral symmetry is turned on.
 One-electron integrals computed using PRISM.
 NBasis=   242 RedAO= T EigKep=  1.20D-03  NBF=   242
 NBsUse=   242 1.00D-06 EigRej= -1.00D+00 NBFU=   242
 Initial guess from the checkpoint file:  "/scratch/10460708.yak.local/Gau-2675.chk"
 B after Tr=     0.000000    0.000000    0.000000
         Rot=    0.999998    0.001059    0.001016   -0.001256 Ang=   0.22 deg.
 ExpMin= 1.61D-01 ExpMax= 5.48D+03 ExpMxC= 8.25D+02 IAcc=1 IRadAn=         1 AccDes= 0.00D+00
 Harris functional with IExCor=  402 and IRadAn=       1 diagonalized for initial guess.
 HarFok:  IExCor=  402 AccDes= 0.00D+00 IRadAn=         1 IDoV= 1 UseB2=F ITyADJ=14
 ICtDFT=  3500011 ScaDFX=  1.000000  1.000000  1.000000  1.000000
 FoFCou: FMM=F IPFlag=           0 FMFlag=      100000 FMFlg1=           0
         NFxFlg=           0 DoJE=T BraDBF=F KetDBF=T FulRan=T
         wScrn=  0.000000 ICntrl=     500 IOpCl=  0 I1Cent=   200000004 NGrid=           0
         NMat0=    1 NMatS0=      1 NMatT0=    0 NMatD0=    1 NMtDS0=    0 NMtDT0=    0
 Petite list used in FoFCou.
 Requested convergence on RMS density matrix=1.00D-08 within 128 cycles.
 Requested convergence on MAX density matrix=1.00D-06.
 Requested convergence on             energy=1.00D-06.
 No special actions if energy rises.
 Integral accuracy reduced to 1.0D-05 until final iterations.
 Initial convergence to 1.0D-05 achieved.  Increase integral accuracy.
 SCF Done:  E(RB3LYP) =  -839.965179084     A.U. after   11 cycles
            NFock= 11  Conv=0.46D-08     -V/T= 2.0086
