 Entering Gaussian System, Link 0=g09
 Initial command:
 /global/software/gaussian/g09.e01/l1.exe "/scratch/10451467.yak.local/Gau-27203.inp" -scrdir="/scratch/10451467.yak.local/"
 Entering Link 1 = /global/software/gaussian/g09.e01/l1.exe PID=     27204.
  
 Copyright (c) 1988,1990,1992,1993,1995,1998,2003,2009,2015,
            Gaussian, Inc.  All Rights Reserved.
  
 This is part of the Gaussian(R) 09 program.  It is based on
 the Gaussian(R) 03 system (copyright 2003, Gaussian, Inc.),
 the Gaussian(R) 98 system (copyright 1998, Gaussian, Inc.),
 the Gaussian(R) 94 system (copyright 1995, Gaussian, Inc.),
 the Gaussian 92(TM) system (copyright 1992, Gaussian, Inc.),
 the Gaussian 90(TM) system (copyright 1990, Gaussian, Inc.),
 the Gaussian 88(TM) system (copyright 1988, Gaussian, Inc.),
 the Gaussian 86(TM) system (copyright 1986, Carnegie Mellon
 University), and the Gaussian 82(TM) system (copyright 1983,
 Carnegie Mellon University). Gaussian is a federally registered
 trademark of Gaussian, Inc.
  
 This software contains proprietary and confidential information,
 including trade secrets, belonging to Gaussian, Inc.
  
 This software is provided under written license and may be
 used, copied, transmitted, or stored only in accord with that
 written license.
  
 The following legend is applicable only to US Government
 contracts under FAR:
  
                    RESTRICTED RIGHTS LEGEND
  
 Use, reproduction and disclosure by the US Government is
 subject to restrictions as set forth in subparagraphs (a)
 and (c) of the Commercial Computer Software - Restricted
 Rights clause in FAR 52.227-19.
  
 Gaussian, Inc.
 340 Quinnipiac St., Bldg. 40, Wallingford CT 06492
  
  
 ---------------------------------------------------------------
 Warning -- This program may not be used in any manner that
 competes with the business of Gaussian, Inc. or will provide
 assistance to any competitor of Gaussian, Inc.  The licensee
 of this program is prohibited from giving any competitor of
 Gaussian, Inc. access to this program.  By using this program,
 the user acknowledges that Gaussian, Inc. is engaged in the
 business of creating and licensing software in the field of
 computational chemistry and represents and warrants to the
 licensee that it is not a competitor of Gaussian, Inc. and that
 it will not use this program in any manner prohibited above.
 ---------------------------------------------------------------
  

 Cite this work as:
 Gaussian 09, Revision E.01,
 M. J. Frisch, G. W. Trucks, H. B. Schlegel, G. E. Scuseria, 
 M. A. Robb, J. R. Cheeseman, G. Scalmani, V. Barone, B. Mennucci, 
 G. A. Petersson, H. Nakatsuji, M. Caricato, X. Li, H. P. Hratchian, 
 A. F. Izmaylov, J. Bloino, G. Zheng, J. L. Sonnenberg, M. Hada, 
 M. Ehara, K. Toyota, R. Fukuda, J. Hasegawa, M. Ishida, T. Nakajima, 
 Y. Honda, O. Kitao, H. Nakai, T. Vreven, J. A. Montgomery, Jr., 
 J. E. Peralta, F. Ogliaro, M. Bearpark, J. J. Heyd, E. Brothers, 
 K. N. Kudin, V. N. Staroverov, T. Keith, R. Kobayashi, J. Normand, 
 K. Raghavachari, A. Rendell, J. C. Burant, S. S. Iyengar, J. Tomasi, 
 M. Cossi, N. Rega, J. M. Millam, M. Klene, J. E. Knox, J. B. Cross, 
 V. Bakken, C. Adamo, J. Jaramillo, R. Gomperts, R. E. Stratmann, 
 O. Yazyev, A. J. Austin, R. Cammi, C. Pomelli, J. W. Ochterski, 
 R. L. Martin, K. Morokuma, V. G. Zakrzewski, G. A. Voth, 
 P. Salvador, J. J. Dannenberg, S. Dapprich, A. D. Daniels, 
 O. Farkas, J. B. Foresman, J. V. Ortiz, J. Cioslowski, 
 and D. J. Fox, Gaussian, Inc., Wallingford CT, 2013.
 
 ******************************************
 Gaussian 09:  ES64L-G09RevE.01 30-Nov-2015
                11-Jan-2017 
 ******************************************
 %NPROCS=4
 Will use up to    4 processors via shared memory.
 ---------------------------------------------------------
 # opt=maxcycle=1000 freq b3lyp/6-31g(d) geom=connectivity
 ---------------------------------------------------------
 1/6=1000,14=-1,18=20,19=15,26=3,38=1,57=2/1,3;
 2/9=110,12=2,17=6,18=5,40=1/2;
 3/5=1,6=6,7=1,11=2,16=1,25=1,30=1,71=1,74=-5/1,2,3;
 4//1;
 5/5=2,38=5/2;
 6/7=2,8=2,9=2,10=2,28=1/1;
 7//1,2,3,16;
 1/6=1000,14=-1,18=20,19=15,26=3/3(2);
 2/9=110/2;
 99//99;
 2/9=110/2;
 3/5=1,6=6,7=1,11=2,16=1,25=1,30=1,71=1,74=-5/1,2,3;
 4/5=5,16=3,69=1/1;
 5/5=2,38=5/2;
 7//1,2,3,16;
 1/6=1000,14=-1,18=20,19=15,26=3/3(-5);
 2/9=110/2;
 6/7=2,8=2,9=2,10=2,19=2,28=1/1;
 99/9=1/99;
 -------------------------
 boat5_Alpha_B3LYP_6-31G_d
 -------------------------
 Symbolic Z-matrix:
 Charge =  0 Multiplicity = 1
 O                    -0.13418  -1.41676  -1.07458 
 C                    -0.46059  -0.0233    1.05039 
 C                     1.29061   0.77391  -0.58771 
 C                     0.21908   1.19207   0.43193 
 C                     1.47022  -0.6867   -0.82699 
 C                    -1.04763  -0.92667  -0.03055 
 H                     0.70935   1.75001   1.2394 
 H                    -1.35822  -1.87147   0.43142 
 H                    -1.29891   0.34143   1.65583 
 H                     1.03472   1.24278  -1.54735 
 C                    -2.22374  -0.35729  -0.8275 
 H                    -2.66652  -1.13766  -1.45745 
 H                    -1.8977    0.42542  -1.51882 
 O                    -3.23207   0.1728    0.02419 
 H                    -3.71199  -0.58253   0.40955 
 O                     2.58905   1.2717   -0.24602 
 H                     3.06477   0.54043   0.1872 
 O                    -0.6871    2.11615  -0.17616 
 H                    -1.468     2.20543   0.40313 
 O                     0.35593  -0.71679   1.99192 
 H                    -0.15597  -1.48059   2.33917 
 H                     2.05612  -0.86235  -1.737 
 O                     2.1257   -1.39898   0.21999 
 H                     1.6509   -2.41474   0.64754 
 O                     0.70766  -3.10254   0.36962 
 H                     0.14327  -3.06527   1.1453 
 H                     0.06791  -2.5855   -0.5041 
 O                     1.04781   3.07484  -0.61712 
 H                     0.43817   3.18609   0.11606 
 H                     1.56623   2.27778  -0.4847 
 
 Add virtual bond connecting atoms H24        and O23        Dist= 2.27D+00.
 Add virtual bond connecting atoms O25        and H24        Dist= 2.27D+00.
 Add virtual bond connecting atoms H27        and O1         Dist= 2.49D+00.
 Add virtual bond connecting atoms H27        and O25        Dist= 2.27D+00.
 Add virtual bond connecting atoms H29        and O18        Dist= 2.99D+00.
 Add virtual bond connecting atoms H30        and C3         Dist= 2.90D+00.
 Add virtual bond connecting atoms H30        and H10        Dist= 2.98D+00.
 Add virtual bond connecting atoms H30        and O16        Dist= 2.75D+00.

 GradGradGradGradGradGradGradGradGradGradGradGradGradGradGradGradGradGrad
 Berny optimization.
 Initialization pass.
                           ----------------------------
                           !    Initial Parameters    !
                           ! (Angstroms and Degrees)  !
 --------------------------                            --------------------------
 ! Name  Definition              Value          Derivative Info.                !
 --------------------------------------------------------------------------------
 ! R1    R(1,6)                  1.4713         estimate D2E/DX2                !
 ! R2    R(1,27)                 1.3161         estimate D2E/DX2                !
 ! R3    R(2,4)                  1.5237         estimate D2E/DX2                !
 ! R4    R(2,6)                  1.5261         estimate D2E/DX2                !
 ! R5    R(2,9)                  1.0965         estimate D2E/DX2                !
 ! R6    R(2,20)                 1.4262         estimate D2E/DX2                !
 ! R7    R(3,4)                  1.5371         estimate D2E/DX2                !
 ! R8    R(3,5)                  1.4909         estimate D2E/DX2                !
 ! R9    R(3,10)                 1.0983         estimate D2E/DX2                !
 ! R10   R(3,16)                 1.432          estimate D2E/DX2                !
 ! R11   R(3,30)                 1.5324         estimate D2E/DX2                !
 ! R12   R(4,7)                  1.0971         estimate D2E/DX2                !
 ! R13   R(4,18)                 1.43           estimate D2E/DX2                !
 ! R14   R(5,22)                 1.0965         estimate D2E/DX2                !
 ! R15   R(5,23)                 1.4259         estimate D2E/DX2                !
 ! R16   R(6,8)                  1.0966         estimate D2E/DX2                !
 ! R17   R(6,11)                 1.5305         estimate D2E/DX2                !
 ! R18   R(10,30)                1.5757         estimate D2E/DX2                !
 ! R19   R(11,12)                1.0963         estimate D2E/DX2                !
 ! R20   R(11,13)                1.094          estimate D2E/DX2                !
 ! R21   R(11,14)                1.4224         estimate D2E/DX2                !
 ! R22   R(14,15)                0.9743         estimate D2E/DX2                !
 ! R23   R(16,17)                0.974          estimate D2E/DX2                !
 ! R24   R(16,30)                1.4544         estimate D2E/DX2                !
 ! R25   R(18,19)                0.9764         estimate D2E/DX2                !
 ! R26   R(18,29)                1.58           estimate D2E/DX2                !
 ! R27   R(20,21)                0.9829         estimate D2E/DX2                !
 ! R28   R(23,24)                1.2            estimate D2E/DX2                !
 ! R29   R(24,25)                1.2            estimate D2E/DX2                !
 ! R30   R(25,26)                0.96           estimate D2E/DX2                !
 ! R31   R(25,27)                1.2            estimate D2E/DX2                !
 ! R32   R(28,29)                0.96           estimate D2E/DX2                !
 ! R33   R(28,30)                0.96           estimate D2E/DX2                !
 ! A1    A(6,1,27)              94.7925         estimate D2E/DX2                !
 ! A2    A(4,2,6)              110.8702         estimate D2E/DX2                !
 ! A3    A(4,2,9)              107.4476         estimate D2E/DX2                !
 ! A4    A(4,2,20)             113.6055         estimate D2E/DX2                !
 ! A5    A(6,2,9)              107.0904         estimate D2E/DX2                !
 ! A6    A(6,2,20)             113.5763         estimate D2E/DX2                !
 ! A7    A(9,2,20)             103.5873         estimate D2E/DX2                !
 ! A8    A(4,3,5)              117.1905         estimate D2E/DX2                !
 ! A9    A(4,3,10)             107.5211         estimate D2E/DX2                !
 ! A10   A(4,3,16)             112.2872         estimate D2E/DX2                !
 ! A11   A(4,3,30)              79.2696         estimate D2E/DX2                !
 ! A12   A(5,3,10)             107.8224         estimate D2E/DX2                !
 ! A13   A(5,3,16)             105.6412         estimate D2E/DX2                !
 ! A14   A(5,3,30)             161.9059         estimate D2E/DX2                !
 ! A15   A(10,3,16)            105.7449         estimate D2E/DX2                !
 ! A16   A(2,4,3)              111.2979         estimate D2E/DX2                !
 ! A17   A(2,4,7)              107.8332         estimate D2E/DX2                !
 ! A18   A(2,4,18)             113.9155         estimate D2E/DX2                !
 ! A19   A(3,4,7)              108.3642         estimate D2E/DX2                !
 ! A20   A(3,4,18)             109.6013         estimate D2E/DX2                !
 ! A21   A(7,4,18)             105.5166         estimate D2E/DX2                !
 ! A22   A(3,5,22)             110.7632         estimate D2E/DX2                !
 ! A23   A(3,5,23)             115.2721         estimate D2E/DX2                !
 ! A24   A(22,5,23)            106.4835         estimate D2E/DX2                !
 ! A25   A(1,6,2)              117.4499         estimate D2E/DX2                !
 ! A26   A(1,6,8)              100.824          estimate D2E/DX2                !
 ! A27   A(1,6,11)             103.3859         estimate D2E/DX2                !
 ! A28   A(2,6,8)              108.697          estimate D2E/DX2                !
 ! A29   A(2,6,11)             116.3707         estimate D2E/DX2                !
 ! A30   A(8,6,11)             108.7973         estimate D2E/DX2                !
 ! A31   A(6,11,12)            110.167          estimate D2E/DX2                !
 ! A32   A(6,11,13)            111.4803         estimate D2E/DX2                !
 ! A33   A(6,11,14)            111.8148         estimate D2E/DX2                !
 ! A34   A(12,11,13)           105.458          estimate D2E/DX2                !
 ! A35   A(12,11,14)           108.8465         estimate D2E/DX2                !
 ! A36   A(13,11,14)           108.8454         estimate D2E/DX2                !
 ! A37   A(11,14,15)           107.283          estimate D2E/DX2                !
 ! A38   A(3,16,17)            106.7384         estimate D2E/DX2                !
 ! A39   A(17,16,30)           159.3568         estimate D2E/DX2                !
 ! A40   A(4,18,19)            108.2774         estimate D2E/DX2                !
 ! A41   A(4,18,29)             84.7003         estimate D2E/DX2                !
 ! A42   A(19,18,29)           113.4503         estimate D2E/DX2                !
 ! A43   A(2,20,21)            108.236          estimate D2E/DX2                !
 ! A44   A(5,23,24)            120.17           estimate D2E/DX2                !
 ! A45   A(23,24,25)           135.5331         estimate D2E/DX2                !
 ! A46   A(24,25,26)           104.6395         estimate D2E/DX2                !
 ! A47   A(24,25,27)           109.9208         estimate D2E/DX2                !
 ! A48   A(26,25,27)           104.96           estimate D2E/DX2                !
 ! A49   A(1,27,25)            141.2665         estimate D2E/DX2                !
 ! A50   A(29,28,30)           109.5            estimate D2E/DX2                !
 ! A51   A(18,29,28)           103.4468         estimate D2E/DX2                !
 ! A52   A(3,30,28)            135.1062         estimate D2E/DX2                !
 ! A53   A(10,30,16)            83.8878         estimate D2E/DX2                !
 ! A54   A(10,30,28)           105.6747         estimate D2E/DX2                !
 ! A55   L(16,30,28,10,-1)     189.5625         estimate D2E/DX2                !
 ! A56   L(16,30,28,10,-2)     188.0204         estimate D2E/DX2                !
 ! D1    D(27,1,6,2)            97.8681         estimate D2E/DX2                !
 ! D2    D(27,1,6,8)           -19.9777         estimate D2E/DX2                !
 ! D3    D(27,1,6,11)         -132.4798         estimate D2E/DX2                !
 ! D4    D(6,1,27,25)          -80.0884         estimate D2E/DX2                !
 ! D5    D(6,2,4,3)            -55.5781         estimate D2E/DX2                !
 ! D6    D(6,2,4,7)           -174.3048         estimate D2E/DX2                !
 ! D7    D(6,2,4,18)            68.9466         estimate D2E/DX2                !
 ! D8    D(9,2,4,3)           -172.2906         estimate D2E/DX2                !
 ! D9    D(9,2,4,7)             68.9827         estimate D2E/DX2                !
 ! D10   D(9,2,4,18)           -47.7659         estimate D2E/DX2                !
 ! D11   D(20,2,4,3)            73.7499         estimate D2E/DX2                !
 ! D12   D(20,2,4,7)           -44.9768         estimate D2E/DX2                !
 ! D13   D(20,2,4,18)         -161.7254         estimate D2E/DX2                !
 ! D14   D(4,2,6,1)             56.0147         estimate D2E/DX2                !
 ! D15   D(4,2,6,8)            169.5432         estimate D2E/DX2                !
 ! D16   D(4,2,6,11)           -67.2638         estimate D2E/DX2                !
 ! D17   D(9,2,6,1)            172.9468         estimate D2E/DX2                !
 ! D18   D(9,2,6,8)            -73.5247         estimate D2E/DX2                !
 ! D19   D(9,2,6,11)            49.6683         estimate D2E/DX2                !
 ! D20   D(20,2,6,1)           -73.3288         estimate D2E/DX2                !
 ! D21   D(20,2,6,8)            40.1996         estimate D2E/DX2                !
 ! D22   D(20,2,6,11)          163.3927         estimate D2E/DX2                !
 ! D23   D(4,2,20,21)          180.0            estimate D2E/DX2                !
 ! D24   D(6,2,20,21)          -52.0554         estimate D2E/DX2                !
 ! D25   D(9,2,20,21)           63.7522         estimate D2E/DX2                !
 ! D26   D(5,3,4,2)              1.3124         estimate D2E/DX2                !
 ! D27   D(5,3,4,7)            119.7204         estimate D2E/DX2                !
 ! D28   D(5,3,4,18)          -125.6073         estimate D2E/DX2                !
 ! D29   D(10,3,4,2)           122.8473         estimate D2E/DX2                !
 ! D30   D(10,3,4,7)          -118.7447         estimate D2E/DX2                !
 ! D31   D(10,3,4,18)           -4.0724         estimate D2E/DX2                !
 ! D32   D(16,3,4,2)          -121.2446         estimate D2E/DX2                !
 ! D33   D(16,3,4,7)            -2.8367         estimate D2E/DX2                !
 ! D34   D(16,3,4,18)          111.8356         estimate D2E/DX2                !
 ! D35   D(30,3,4,2)          -170.7046         estimate D2E/DX2                !
 ! D36   D(30,3,4,7)           -52.2966         estimate D2E/DX2                !
 ! D37   D(30,3,4,18)           62.3757         estimate D2E/DX2                !
 ! D38   D(4,3,5,22)           165.3359         estimate D2E/DX2                !
 ! D39   D(4,3,5,23)           -73.6966         estimate D2E/DX2                !
 ! D40   D(10,3,5,22)           43.9579         estimate D2E/DX2                !
 ! D41   D(10,3,5,23)          164.9254         estimate D2E/DX2                !
 ! D42   D(16,3,5,22)          -68.7484         estimate D2E/DX2                !
 ! D43   D(16,3,5,23)           52.2191         estimate D2E/DX2                !
 ! D44   D(30,3,5,22)          -40.7262         estimate D2E/DX2                !
 ! D45   D(30,3,5,23)           80.2413         estimate D2E/DX2                !
 ! D46   D(4,3,16,17)           99.12           estimate D2E/DX2                !
 ! D47   D(5,3,16,17)          -29.7526         estimate D2E/DX2                !
 ! D48   D(10,3,16,17)        -143.9049         estimate D2E/DX2                !
 ! D49   D(4,3,30,28)          -56.8776         estimate D2E/DX2                !
 ! D50   D(5,3,30,28)          146.5599         estimate D2E/DX2                !
 ! D51   D(2,4,18,19)           41.3336         estimate D2E/DX2                !
 ! D52   D(2,4,18,29)          154.3042         estimate D2E/DX2                !
 ! D53   D(3,4,18,19)          166.7626         estimate D2E/DX2                !
 ! D54   D(3,4,18,29)          -80.2668         estimate D2E/DX2                !
 ! D55   D(7,4,18,19)          -76.7528         estimate D2E/DX2                !
 ! D56   D(7,4,18,29)           36.2178         estimate D2E/DX2                !
 ! D57   D(3,5,23,24)          130.7041         estimate D2E/DX2                !
 ! D58   D(22,5,23,24)        -106.03           estimate D2E/DX2                !
 ! D59   D(1,6,11,12)           58.7358         estimate D2E/DX2                !
 ! D60   D(1,6,11,13)          -57.9862         estimate D2E/DX2                !
 ! D61   D(1,6,11,14)          179.9129         estimate D2E/DX2                !
 ! D62   D(2,6,11,12)         -170.9589         estimate D2E/DX2                !
 ! D63   D(2,6,11,13)           72.3192         estimate D2E/DX2                !
 ! D64   D(2,6,11,14)          -49.7818         estimate D2E/DX2                !
 ! D65   D(8,6,11,12)          -47.8179         estimate D2E/DX2                !
 ! D66   D(8,6,11,13)         -164.5398         estimate D2E/DX2                !
 ! D67   D(8,6,11,14)           73.3592         estimate D2E/DX2                !
 ! D68   D(6,11,14,15)         -75.2143         estimate D2E/DX2                !
 ! D69   D(12,11,14,15)         46.7245         estimate D2E/DX2                !
 ! D70   D(13,11,14,15)        161.1862         estimate D2E/DX2                !
 ! D71   D(17,16,30,10)       -101.7172         estimate D2E/DX2                !
 ! D72   D(4,18,29,28)          82.2218         estimate D2E/DX2                !
 ! D73   D(19,18,29,28)       -170.1353         estimate D2E/DX2                !
 ! D74   D(5,23,24,25)           4.5115         estimate D2E/DX2                !
 ! D75   D(23,24,25,26)       -116.9592         estimate D2E/DX2                !
 ! D76   D(23,24,25,27)         -4.7212         estimate D2E/DX2                !
 ! D77   D(24,25,27,1)         -19.7438         estimate D2E/DX2                !
 ! D78   D(26,25,27,1)          92.286          estimate D2E/DX2                !
 ! D79   D(30,28,29,18)        -75.487          estimate D2E/DX2                !
 ! D80   D(29,28,30,3)          73.7993         estimate D2E/DX2                !
 ! D81   D(29,28,30,10)        108.42           estimate D2E/DX2                !
 --------------------------------------------------------------------------------
 Trust Radius=3.00D-01 FncErr=1.00D-07 GrdErr=1.00D-06
 Number of steps in this run=    180 maximum allowed number of steps=    180.
 GradGradGradGradGradGradGradGradGradGradGradGradGradGradGradGradGradGrad

                          Input orientation:                          
 ---------------------------------------------------------------------
 Center     Atomic      Atomic             Coordinates (Angstroms)
 Number     Number       Type             X           Y           Z
 ---------------------------------------------------------------------
      1          8           0       -0.134179   -1.416760   -1.074580
      2          6           0       -0.460586   -0.023297    1.050390
      3          6           0        1.290608    0.773912   -0.587710
      4          6           0        0.219084    1.192073    0.431930
      5          6           0        1.470224   -0.686701   -0.826985
      6          6           0       -1.047625   -0.926668   -0.030545
      7          1           0        0.709349    1.750014    1.239399
      8          1           0       -1.358221   -1.871468    0.431419
      9          1           0       -1.298905    0.341429    1.655826
     10          1           0        1.034723    1.242779   -1.547347
     11          6           0       -2.223738   -0.357293   -0.827497
     12          1           0       -2.666520   -1.137662   -1.457447
     13          1           0       -1.897696    0.425422   -1.518824
     14          8           0       -3.232070    0.172799    0.024187
     15          1           0       -3.711993   -0.582534    0.409546
     16          8           0        2.589051    1.271700   -0.246018
     17          1           0        3.064768    0.540426    0.187198
     18          8           0       -0.687100    2.116154   -0.176156
     19          1           0       -1.468002    2.205432    0.403131
     20          8           0        0.355928   -0.716785    1.991920
     21          1           0       -0.155970   -1.480588    2.339167
     22          1           0        2.056121   -0.862353   -1.737002
     23          8           0        2.125696   -1.398983    0.219990
     24          1           0        1.650899   -2.414745    0.647537
     25          8           0        0.707659   -3.102540    0.369624
     26          1           0        0.143267   -3.065269    1.145300
     27          1           0        0.067908   -2.585499   -0.504096
     28          8           0        1.047810    3.074839   -0.617124
     29          1           0        0.438172    3.186094    0.116063
     30          1           0        1.566232    2.277780   -0.484703
 ---------------------------------------------------------------------
                    Distance matrix (angstroms):
                    1          2          3          4          5
     1  O    0.000000
     2  C    2.561987   0.000000
     3  C    2.658215   2.526973   0.000000
     4  C    3.033212   1.523669   1.537104   0.000000
     5  C    1.780000   2.773566   1.490941   2.584572   0.000000
     6  C    1.471252   1.526144   2.944442   2.511473   2.651691
     7  H    4.011795   2.132863   2.151503   1.097116   3.284274
     8  H    1.993256   2.145835   3.879814   3.445747   3.314718
     9  H    3.450063   1.096520   3.453415   2.127394   3.858689
    10  H    2.943296   3.253788   1.098279   2.141349   2.105107
    11  C    2.355796   2.597444   3.699696   3.155007   3.708621
    12  H    2.576283   3.520966   4.479891   4.162225   4.208741
    13  H    2.588625   2.977834   3.339716   2.978918   3.613633
    14  O    3.651152   2.961869   4.603300   3.621552   4.855389
    15  H    3.962236   3.360815   5.278303   4.313131   5.328718
    16  O    3.915395   3.557805   1.431957   2.466313   2.329084
    17  H    3.956757   3.673010   1.950036   2.929583   2.253215
    18  O    3.687054   2.476484   2.425349   1.429987   3.596335
    19  H    4.133157   2.530032   3.262046   1.968244   4.302417
    20  O    3.183330   1.426219   3.122546   2.469015   3.031301
    21  H    3.414413   1.969120   3.967614   3.304744   3.646818
    22  H    2.354482   3.848036   2.141085   3.507084   1.096476
    23  O    2.604470   3.044820   2.463985   3.223920   1.425884
    24  H    2.673605   3.215538   3.438484   3.886607   2.278814
    25  O    2.374083   3.363030   4.035244   4.322764   2.801724
    26  H    2.778925   3.102780   4.365665   4.317361   3.362783
    27  H    1.316146   3.043125   3.575979   3.894746   2.382474
    28  O    4.666994   3.828095   2.313889   2.309136   3.790997
    29  H    4.788683   3.461347   2.653406   2.030736   4.117403
    30  H    4.109620   3.429206   1.532383   1.958005   2.985720
                    6          7          8          9         10
     6  C    0.000000
     7  H    3.444465   0.000000
     8  H    1.096598   4.247683   0.000000
     9  H    2.124867   2.488093   2.529744   0.000000
    10  H    3.367991   2.851159   4.397753   4.064304   0.000000
    11  C    1.530543   4.161226   2.150980   2.740515   3.700808
    12  H    2.168269   5.196936   2.412039   3.708173   4.401566
    13  H    2.183058   4.019829   3.061076   3.231719   3.044334
    14  O    2.446145   4.415782   2.802887   2.535312   4.671199
    15  H    2.722309   5.067317   2.683668   2.868783   5.449083
    16  O    4.254957   2.443057   5.091108   4.427032   2.027370
    17  H    4.371676   2.849250   5.043779   4.608482   2.760984
    18  O    3.067564   2.021862   4.089093   2.622997   2.368042
    19  H    3.189803   2.376469   4.078476   2.252187   3.315825
    20  O    2.470704   2.603131   2.589742   1.992799   4.102081
    21  H    2.591797   3.520661   2.288602   2.256768   4.892797
    22  H    3.542509   4.182968   4.168704   4.921034   2.347510
    23  O    3.218045   3.600197   3.522162   4.101043   3.360448
    24  H    3.155345   4.310688   3.065397   4.161068   4.309834
    25  O    2.824106   4.929887   2.405663   4.188261   4.760624
    26  H    2.715594   4.849356   2.046767   3.734446   5.157938
    27  H    2.054357   4.716767   1.849019   3.885916   4.083971
    28  O    4.554886   2.305731   5.599499   4.259684   2.054734
    29  H    4.375374   1.843297   5.376375   3.671570   2.626648
    30  H    4.160168   1.996325   5.158291   4.066980   1.575735
                   11         12         13         14         15
    11  C    0.000000
    12  H    1.096298   0.000000
    13  H    1.094020   1.743011   0.000000
    14  O    1.422356   2.057278   2.055543   0.000000
    15  H    1.948310   2.210621   2.833065   0.974349   0.000000
    16  O    5.114164   5.907082   4.739949   5.930096   6.600841
    17  H    5.459286   6.194231   5.248789   6.309666   6.872770
    18  O    2.983864   4.018349   2.475252   3.208370   4.095844
    19  H    2.941622   4.009298   2.654616   2.717928   3.578867
    20  O    3.838362   4.605482   4.325365   4.187728   4.366911
    21  H    3.945278   4.564508   4.642260   4.189894   4.144302
    22  H    4.404484   4.738912   4.163969   5.669065   6.160934
    23  O    4.593465   5.084036   4.747590   5.586993   5.897553
    24  H    4.628352   4.970111   5.035096   5.561235   5.672235
    25  O    4.190772   4.310918   4.775000   5.135040   5.087764
    26  H    4.102167   4.287758   4.842315   4.809873   4.644173
    27  H    3.212651   3.237623   3.736163   4.333260   4.374272
    28  O    4.746242   5.678693   4.063063   5.210613   6.089840
    29  H    4.531187   5.550668   3.968683   4.749638   5.613605
    30  H    4.628713   5.525184   4.061949   5.264372   6.069657
                   16         17         18         19         20
    16  O    0.000000
    17  H    0.974035   0.000000
    18  O    3.383955   4.085518   0.000000
    19  H    4.213422   4.833723   0.976397   0.000000
    20  O    3.734873   3.489328   3.716720   3.793458   0.000000
    21  H    4.668341   4.369052   4.421029   4.365364   0.982860
    22  H    2.657297   2.586059   4.339701   5.139155   4.100818
    23  O    2.750347   2.155049   4.519396   5.093134   2.595614
    24  H    3.907485   3.308167   5.164664   5.579723   2.523368
    25  O    4.801315   4.342861   5.429364   5.736653   2.906438
    26  H    5.169809   4.738582   5.411368   5.561231   2.505468
    27  H    4.615274   4.385255   4.773167   5.112250   3.131316
    28  O    2.400928   3.337410   2.030626   2.850631   4.654270
    29  H    2.902118   3.728757   1.580000   2.162777   4.331058
    30  H    1.454416   2.390703   2.280094   3.162287   4.070125
                   21         22         23         24         25
    21  H    0.000000
    22  H    4.678751   0.000000
    23  O    3.115055   2.030426   0.000000
    24  H    2.645569   2.874048   1.200000   0.000000
    25  O    2.693637   3.357776   2.221559   1.200000   0.000000
    26  H    2.006508   4.101160   2.750043   1.715781   0.960000
    27  H    3.058609   2.905561   2.483267   1.965013   1.200000
    28  O    5.562433   4.215721   4.677359   5.665564   6.264933
    29  H    5.203183   4.737249   4.886867   5.755220   6.299510
    30  H    5.006551   3.415945   3.785258   4.827932   5.514967
                   26         27         28         29         30
    26  H    0.000000
    27  H    1.719408   0.000000
    28  O    6.451765   5.745643   0.000000
    29  H    6.342384   5.816612   0.960000   0.000000
    30  H    5.764540   5.088893   0.960000   1.567952   0.000000
 Stoichiometry    C6H16O8
 Framework group  C1[X(C6H16O8)]
 Deg. of freedom    84
 Full point group                 C1      NOp   1
 Largest Abelian subgroup         C1      NOp   1
 Largest concise Abelian subgroup C1      NOp   1
                         Standard orientation:                         
 ---------------------------------------------------------------------
 Center     Atomic      Atomic             Coordinates (Angstroms)
 Number     Number       Type             X           Y           Z
 ---------------------------------------------------------------------
      1          8           0       -1.223565   -0.350525   -1.253639
      2          6           0       -0.407692    0.460372    1.035592
      3          6           0        1.306845   -0.609342   -0.481534
      4          6           0        1.047167    0.468679    0.582950
      5          6           0        0.143591   -1.437481   -0.910406
      6          6           0       -1.348540    0.620401   -0.155337
      7          1           0        1.672331    0.248763    1.457290
      8          1           0       -2.374417    0.423178    0.178142
      9          1           0       -0.555663    1.333123    1.682715
     10          1           0        1.707144   -0.105521   -1.371557
     11          6           0       -1.314233    1.972377   -0.871957
     12          1           0       -2.131917    2.035376   -1.599482
     13          1           0       -0.395971    2.094038   -1.454085
     14          8           0       -1.426729    3.057415    0.040805
     15          1           0       -2.358198    3.102883    0.323035
     16          8           0        2.315560   -1.541247   -0.075891
     17          1           0        1.851146   -2.329627    0.258058
     18          8           0        1.496930    1.737455    0.100472
     19          1           0        1.138508    2.432124    0.685554
     20          8           0       -0.737175   -0.641681    1.878812
     21          1           0       -1.686720   -0.569676    2.122110
     22          1           0        0.372877   -1.980575   -1.834927
     23          8           0       -0.290679   -2.412854    0.034688
     24          1           0       -1.452139   -2.496519    0.324533
     25          8           0       -2.466404   -1.970585   -0.042429
     26          1           0       -2.790788   -1.503088    0.730760
     27          1           0       -2.215417   -1.111137   -0.841400
     28          8           0        3.205580    0.684664   -0.208704
     29          1           0        2.929387    1.229300    0.532032
     30          1           0        2.738868   -0.153812   -0.181534
 ---------------------------------------------------------------------
 Rotational constants (GHZ):      0.7391775      0.6896083      0.4474870
 Standard basis: 6-31G(d) (6D, 7F)
 There are   242 symmetry adapted cartesian basis functions of A   symmetry.
 There are   242 symmetry adapted basis functions of A   symmetry.
   242 basis functions,   456 primitive gaussians,   242 cartesian basis functions
    58 alpha electrons       58 beta electrons
       nuclear repulsion energy      1169.5491834773 Hartrees.
 NAtoms=   30 NActive=   30 NUniq=   30 SFac= 1.00D+00 NAtFMM=   60 NAOKFM=F Big=F
 Integral buffers will be    131072 words long.
 Raffenetti 2 integral format.
 Two-electron integral symmetry is turned on.
 One-electron integrals computed using PRISM.
 NBasis=   242 RedAO= T EigKep=  1.28D-03  NBF=   242
 NBsUse=   242 1.00D-06 EigRej= -1.00D+00 NBFU=   242
 ExpMin= 1.61D-01 ExpMax= 5.48D+03 ExpMxC= 8.25D+02 IAcc=1 IRadAn=         1 AccDes= 0.00D+00
 Harris functional with IExCor=  402 and IRadAn=       1 diagonalized for initial guess.
 HarFok:  IExCor=  402 AccDes= 0.00D+00 IRadAn=         1 IDoV= 1 UseB2=F ITyADJ=14
 ICtDFT=  3500011 ScaDFX=  1.000000  1.000000  1.000000  1.000000
 FoFCou: FMM=F IPFlag=           0 FMFlag=      100000 FMFlg1=           0
         NFxFlg=           0 DoJE=T BraDBF=F KetDBF=T FulRan=T
         wScrn=  0.000000 ICntrl=     500 IOpCl=  0 I1Cent=   200000004 NGrid=           0
         NMat0=    1 NMatS0=      1 NMatT0=    0 NMatD0=    1 NMtDS0=    0 NMtDT0=    0
 Petite list used in FoFCou.
 Requested convergence on RMS density matrix=1.00D-08 within 128 cycles.
 Requested convergence on MAX density matrix=1.00D-06.
 Requested convergence on             energy=1.00D-06.
 No special actions if energy rises.
 Integral accuracy reduced to 1.0D-05 until final iterations.
 Initial convergence to 1.0D-05 achieved.  Increase integral accuracy.
 SCF Done:  E(RB3LYP) =  -839.736375428     A.U. after   15 cycles
            NFock= 15  Conv=0.72D-08     -V/T= 2.0076

 **********************************************************************

            Population analysis using the SCF density.

 **********************************************************************

 Orbital symmetries:
       Occupied  (A) (A) (A) (A) (A) (A) (A) (A) (A) (A) (A) (A)
                 (A) (A) (A) (A) (A) (A) (A) (A) (A) (A) (A) (A)
                 (A) (A) (A) (A) (A) (A) (A) (A) (A) (A) (A) (A)
                 (A) (A) (A) (A) (A) (A) (A) (A) (A) (A) (A) (A)
                 (A) (A) (A) (A) (A) (A) (A) (A) (A) (A)
       Virtual   (A) (A) (A) (A) (A) (A) (A) (A) (A) (A) (A) (A)
                 (A) (A) (A) (A) (A) (A) (A) (A) (A) (A) (A) (A)
                 (A) (A) (A) (A) (A) (A) (A) (A) (A) (A) (A) (A)
                 (A) (A) (A) (A) (A) (A) (A) (A) (A) (A) (A) (A)
                 (A) (A) (A) (A) (A) (A) (A) (A) (A) (A) (A) (A)
                 (A) (A) (A) (A) (A) (A) (A) (A) (A) (A) (A) (A)
                 (A) (A) (A) (A) (A) (A) (A) (A) (A) (A) (A) (A)
                 (A) (A) (A) (A) (A) (A) (A) (A) (A) (A) (A) (A)
                 (A) (A) (A) (A) (A) (A) (A) (A) (A) (A) (A) (A)
                 (A) (A) (A) (A) (A) (A) (A) (A) (A) (A) (A) (A)
                 (A) (A) (A) (A) (A) (A) (A) (A) (A) (A) (A) (A)
                 (A) (A) (A) (A) (A) (A) (A) (A) (A) (A) (A) (A)
                 (A) (A) (A) (A) (A) (A) (A) (A) (A) (A) (A) (A)
                 (A) (A) (A) (A) (A) (A) (A) (A) (A) (A) (A) (A)
                 (A) (A) (A) (A) (A) (A) (A) (A) (A) (A) (A) (A)
                 (A) (A) (A) (A)
 The electronic state is 1-A.
 Alpha  occ. eigenvalues --  -19.19628 -19.17351 -19.17258 -19.17061 -19.16572
 Alpha  occ. eigenvalues --  -19.16506 -19.10705 -19.05204 -10.30547 -10.26987
 Alpha  occ. eigenvalues --  -10.26653 -10.26018 -10.25407 -10.25044  -1.07684
 Alpha  occ. eigenvalues --   -1.06016  -1.04836  -1.04314  -1.03880  -1.00870
 Alpha  occ. eigenvalues --   -0.95339  -0.94116  -0.80348  -0.77168  -0.71311
 Alpha  occ. eigenvalues --   -0.67344  -0.64386  -0.60485  -0.56539  -0.55817
 Alpha  occ. eigenvalues --   -0.54503  -0.53551  -0.52219  -0.50920  -0.50335
 Alpha  occ. eigenvalues --   -0.48674  -0.47905  -0.46490  -0.44942  -0.43827
 Alpha  occ. eigenvalues --   -0.42392  -0.41946  -0.40771  -0.38198  -0.37467
 Alpha  occ. eigenvalues --   -0.37199  -0.36341  -0.35500  -0.34806  -0.31483
 Alpha  occ. eigenvalues --   -0.30880  -0.30083  -0.29303  -0.28515  -0.28118
 Alpha  occ. eigenvalues --   -0.26397  -0.23810  -0.20614
 Alpha virt. eigenvalues --   -0.00946   0.00276   0.03252   0.05984   0.07338
 Alpha virt. eigenvalues --    0.09389   0.10115   0.11012   0.12458   0.14351
 Alpha virt. eigenvalues --    0.15074   0.15406   0.16555   0.16984   0.17876
 Alpha virt. eigenvalues --    0.18932   0.19520   0.20426   0.21260   0.21717
 Alpha virt. eigenvalues --    0.22294   0.25423   0.26027   0.28677   0.29307
 Alpha virt. eigenvalues --    0.30892   0.33571   0.39325   0.50796   0.51903
 Alpha virt. eigenvalues --    0.53054   0.54537   0.55615   0.56455   0.59125
 Alpha virt. eigenvalues --    0.59671   0.60764   0.63031   0.64537   0.65301
 Alpha virt. eigenvalues --    0.65932   0.68100   0.69929   0.71832   0.72989
 Alpha virt. eigenvalues --    0.73674   0.75051   0.78773   0.78894   0.80655
 Alpha virt. eigenvalues --    0.81117   0.82190   0.83023   0.83701   0.84494
 Alpha virt. eigenvalues --    0.84997   0.85537   0.87422   0.88020   0.88503
 Alpha virt. eigenvalues --    0.89827   0.92180   0.93488   0.94825   0.95210
 Alpha virt. eigenvalues --    0.97755   0.98663   1.00259   1.00662   1.02908
 Alpha virt. eigenvalues --    1.04874   1.06331   1.07381   1.08441   1.10304
 Alpha virt. eigenvalues --    1.13979   1.14445   1.15483   1.18169   1.18624
 Alpha virt. eigenvalues --    1.19716   1.20822   1.22920   1.24448   1.27985
 Alpha virt. eigenvalues --    1.28949   1.31486   1.32714   1.33481   1.36626
 Alpha virt. eigenvalues --    1.39763   1.41168   1.44639   1.47490   1.49366
 Alpha virt. eigenvalues --    1.51716   1.52724   1.55906   1.58344   1.58886
 Alpha virt. eigenvalues --    1.62251   1.63224   1.64766   1.65675   1.68014
 Alpha virt. eigenvalues --    1.68974   1.71596   1.72051   1.73622   1.75394
 Alpha virt. eigenvalues --    1.76186   1.78467   1.78741   1.80121   1.82957
 Alpha virt. eigenvalues --    1.83108   1.85592   1.86407   1.87440   1.90851
 Alpha virt. eigenvalues --    1.91916   1.94222   1.95468   1.96538   1.98154
 Alpha virt. eigenvalues --    2.01164   2.02280   2.03797   2.05896   2.08909
 Alpha virt. eigenvalues --    2.10847   2.11708   2.13362   2.16608   2.18623
 Alpha virt. eigenvalues --    2.22543   2.22833   2.25157   2.28065   2.30535
 Alpha virt. eigenvalues --    2.30721   2.35580   2.36634   2.38135   2.41777
 Alpha virt. eigenvalues --    2.42277   2.43629   2.44702   2.47703   2.48768
 Alpha virt. eigenvalues --    2.50645   2.51217   2.53700   2.56090   2.59463
 Alpha virt. eigenvalues --    2.61547   2.63730   2.67209   2.69763   2.73612
 Alpha virt. eigenvalues --    2.77262   2.81381   2.85206   2.85597   2.89810
 Alpha virt. eigenvalues --    2.91061   2.96793   2.99668   3.06745   3.12173
 Alpha virt. eigenvalues --    3.73182   3.74906   3.81202   3.84006   3.95716
 Alpha virt. eigenvalues --    4.02734   4.14021   4.23539   4.27912   4.31658
 Alpha virt. eigenvalues --    4.50396   4.61131   4.71280   4.99000
          Condensed to atoms (all electrons):
               1          2          3          4          5          6
     1  O    8.516477  -0.023271  -0.003048  -0.006287   0.102989   0.109875
     2  C   -0.023271   5.063066  -0.034239   0.246567   0.000731   0.271401
     3  C   -0.003048  -0.034239   5.321359   0.223896   0.247756  -0.027793
     4  C   -0.006287   0.246567   0.223896   5.183535  -0.030485  -0.018293
     5  C    0.102989   0.000731   0.247756  -0.030485   4.850097  -0.010995
     6  C    0.109875   0.271401  -0.027793  -0.018293  -0.010995   5.184392
     7  H   -0.000040  -0.036155  -0.065956   0.370042   0.000425   0.006080
     8  H   -0.054903  -0.060076   0.000821   0.005855   0.001642   0.344776
     9  H    0.002852   0.359614   0.006070  -0.044171   0.000475  -0.055858
    10  H    0.000630  -0.000596   0.381502  -0.071211  -0.022084   0.001211
    11  C   -0.032932  -0.035039  -0.000353  -0.004340   0.000773   0.303635
    12  H    0.004414   0.005457  -0.000074  -0.000440  -0.000080  -0.042046
    13  H    0.003674  -0.008282  -0.000374   0.001456   0.000082  -0.039899
    14  O    0.001642  -0.004444   0.000016  -0.001604  -0.000014  -0.049611
    15  H   -0.000024  -0.001263   0.000003   0.000134  -0.000001  -0.002295
    16  O    0.000544   0.001554   0.188882  -0.052150  -0.027943   0.000110
    17  H    0.000435   0.000367  -0.028486   0.000461  -0.010874   0.000067
    18  O   -0.000102  -0.024574  -0.045762   0.160311   0.000361  -0.004777
    19  H    0.000024  -0.002267   0.008239  -0.018870   0.000181  -0.002094
    20  O    0.000996   0.188203   0.003768  -0.037102   0.001791  -0.033643
    21  H   -0.000331  -0.018553  -0.000535   0.006417  -0.000033  -0.004497
    22  H   -0.019125   0.000022  -0.074965   0.006060   0.376656   0.001901
    23  O   -0.033788   0.010696  -0.042079  -0.002609   0.267647  -0.002139
    24  H    0.005189   0.000129   0.002180  -0.000249  -0.022544  -0.000682
    25  O   -0.095482  -0.009801  -0.000812   0.000200   0.007258   0.016089
    26  H    0.004833  -0.000890   0.000126  -0.000073   0.001059  -0.001819
    27  H    0.114823   0.006048   0.001562  -0.000184  -0.009484  -0.016650
    28  O   -0.000002   0.004805   0.003481   0.013782   0.005027  -0.000087
    29  H    0.000000   0.002320  -0.008843   0.009205  -0.001013  -0.000046
    30  H   -0.000008  -0.000869  -0.072019   0.017766  -0.002860  -0.000071
               7          8          9         10         11         12
     1  O   -0.000040  -0.054903   0.002852   0.000630  -0.032932   0.004414
     2  C   -0.036155  -0.060076   0.359614  -0.000596  -0.035039   0.005457
     3  C   -0.065956   0.000821   0.006070   0.381502  -0.000353  -0.000074
     4  C    0.370042   0.005855  -0.044171  -0.071211  -0.004340  -0.000440
     5  C    0.000425   0.001642   0.000475  -0.022084   0.000773  -0.000080
     6  C    0.006080   0.344776  -0.055858   0.001211   0.303635  -0.042046
     7  H    0.599792  -0.000218  -0.007083   0.005206   0.000201   0.000012
     8  H   -0.000218   0.719384  -0.001878   0.000009  -0.042433  -0.009884
     9  H   -0.007083  -0.001878   0.635451  -0.000274  -0.004669   0.000246
    10  H    0.005206   0.000009  -0.000274   0.528426   0.000076   0.000001
    11  C    0.000201  -0.042433  -0.004669   0.000076   4.940050   0.358092
    12  H    0.000012  -0.009884   0.000246   0.000001   0.358092   0.619403
    13  H    0.000139   0.005686   0.000023   0.001144   0.376678  -0.036117
    14  O   -0.000026   0.003611   0.016173  -0.000001   0.223983  -0.032096
    15  H   -0.000000   0.003573   0.000358   0.000000  -0.027737  -0.009697
    16  O    0.005906   0.000006  -0.000089  -0.042046   0.000005   0.000000
    17  H    0.000302   0.000002  -0.000001   0.004770   0.000001  -0.000000
    18  O   -0.051616  -0.000034  -0.002011   0.004872   0.001598   0.000466
    19  H   -0.002486  -0.000051   0.008510  -0.000209  -0.000338   0.000134
    20  O    0.004400  -0.005516  -0.040609   0.000005   0.002948  -0.000040
    21  H   -0.000246   0.007685  -0.006417   0.000009   0.000037  -0.000008
    22  H   -0.000181  -0.000139   0.000005  -0.003142  -0.000043   0.000002
    23  O    0.000276   0.000019   0.000024   0.003014  -0.000003   0.000002
    24  H   -0.000005  -0.001081   0.000085  -0.000072  -0.000034  -0.000000
    25  O   -0.000001   0.012542  -0.000042   0.000011   0.000678   0.000002
    26  H   -0.000007   0.002258   0.000151  -0.000002   0.000220  -0.000022
    27  H    0.000007  -0.012072  -0.000161  -0.000040  -0.000206   0.000293
    28  O    0.001370   0.000001  -0.000042   0.003437   0.000025   0.000001
    29  H   -0.001888   0.000001  -0.000043   0.000877   0.000006  -0.000001
    30  H    0.001775   0.000001   0.000002  -0.027835  -0.000026  -0.000001
              13         14         15         16         17         18
     1  O    0.003674   0.001642  -0.000024   0.000544   0.000435  -0.000102
     2  C   -0.008282  -0.004444  -0.001263   0.001554   0.000367  -0.024574
     3  C   -0.000374   0.000016   0.000003   0.188882  -0.028486  -0.045762
     4  C    0.001456  -0.001604   0.000134  -0.052150   0.000461   0.160311
     5  C    0.000082  -0.000014  -0.000001  -0.027943  -0.010874   0.000361
     6  C   -0.039899  -0.049611  -0.002295   0.000110   0.000067  -0.004777
     7  H    0.000139  -0.000026  -0.000000   0.005906   0.000302  -0.051616
     8  H    0.005686   0.003611   0.003573   0.000006   0.000002  -0.000034
     9  H    0.000023   0.016173   0.000358  -0.000089  -0.000001  -0.002011
    10  H    0.001144  -0.000001   0.000000  -0.042046   0.004770   0.004872
    11  C    0.376678   0.223983  -0.027737   0.000005   0.000001   0.001598
    12  H   -0.036117  -0.032096  -0.009697   0.000000  -0.000000   0.000466
    13  H    0.512200  -0.030238   0.006446   0.000005   0.000001   0.011170
    14  O   -0.030238   8.249450   0.234062   0.000000  -0.000000  -0.001071
    15  H    0.006446   0.234062   0.403313  -0.000000   0.000000   0.000031
    16  O    0.000005   0.000000  -0.000000   8.362965   0.222945   0.001884
    17  H    0.000001  -0.000000   0.000000   0.222945   0.343059  -0.000075
    18  O    0.011170  -0.001071   0.000031   0.001884  -0.000075   8.468093
    19  H   -0.002205   0.005921  -0.000121  -0.000148   0.000002   0.203814
    20  O   -0.000024   0.000050  -0.000024   0.000003   0.000288   0.000971
    21  H    0.000012   0.000037  -0.000008   0.000009   0.000016  -0.000078
    22  H   -0.000054   0.000000  -0.000000   0.001166   0.001706  -0.000079
    23  O    0.000005   0.000000  -0.000000  -0.015146   0.039366   0.000006
    24  H    0.000000  -0.000000   0.000000  -0.000010  -0.000022   0.000001
    25  O   -0.000001   0.000001  -0.000002  -0.000003   0.000126   0.000000
    26  H   -0.000000  -0.000005  -0.000002   0.000002  -0.000021  -0.000000
    27  H   -0.000102  -0.000014  -0.000000  -0.000018  -0.000051  -0.000004
    28  O   -0.000005  -0.000000   0.000000  -0.056754   0.001713  -0.161899
    29  H    0.000015   0.000001  -0.000000   0.003471   0.000034   0.023939
    30  H    0.000006   0.000001  -0.000000   0.046913  -0.000809   0.016579
              19         20         21         22         23         24
     1  O    0.000024   0.000996  -0.000331  -0.019125  -0.033788   0.005189
     2  C   -0.002267   0.188203  -0.018553   0.000022   0.010696   0.000129
     3  C    0.008239   0.003768  -0.000535  -0.074965  -0.042079   0.002180
     4  C   -0.018870  -0.037102   0.006417   0.006060  -0.002609  -0.000249
     5  C    0.000181   0.001791  -0.000033   0.376656   0.267647  -0.022544
     6  C   -0.002094  -0.033643  -0.004497   0.001901  -0.002139  -0.000682
     7  H   -0.002486   0.004400  -0.000246  -0.000181   0.000276  -0.000005
     8  H   -0.000051  -0.005516   0.007685  -0.000139   0.000019  -0.001081
     9  H    0.008510  -0.040609  -0.006417   0.000005   0.000024   0.000085
    10  H   -0.000209   0.000005   0.000009  -0.003142   0.003014  -0.000072
    11  C   -0.000338   0.002948   0.000037  -0.000043  -0.000003  -0.000034
    12  H    0.000134  -0.000040  -0.000008   0.000002   0.000002  -0.000000
    13  H   -0.002205  -0.000024   0.000012  -0.000054   0.000005   0.000000
    14  O    0.005921   0.000050   0.000037   0.000000   0.000000  -0.000000
    15  H   -0.000121  -0.000024  -0.000008  -0.000000  -0.000000   0.000000
    16  O   -0.000148   0.000003   0.000009   0.001166  -0.015146  -0.000010
    17  H    0.000002   0.000288   0.000016   0.001706   0.039366  -0.000022
    18  O    0.203814   0.000971  -0.000078  -0.000079   0.000006   0.000001
    19  H    0.401445   0.000091  -0.000024   0.000006  -0.000001   0.000000
    20  O    0.000091   8.312712   0.215816  -0.000023  -0.018666   0.006215
    21  H   -0.000024   0.215816   0.416391   0.000012   0.001487  -0.001157
    22  H    0.000006  -0.000023   0.000012   0.590719  -0.050596   0.001771
    23  O   -0.000001  -0.018666   0.001487  -0.050596   8.498254   0.145382
    24  H    0.000000   0.006215  -0.001157   0.001771   0.145382   0.274631
    25  O    0.000000  -0.003235   0.003782  -0.000456  -0.144000   0.122928
    26  H   -0.000000   0.010354   0.004742  -0.000055   0.007723  -0.005926
    27  H   -0.000001  -0.000797  -0.000697   0.000426   0.012446  -0.005678
    28  O    0.010702   0.000002   0.000000  -0.000061  -0.000020   0.000000
    29  H   -0.002260  -0.000038   0.000002   0.000006   0.000013  -0.000000
    30  H   -0.002080  -0.000100   0.000003  -0.000537  -0.000064   0.000000
              25         26         27         28         29         30
     1  O   -0.095482   0.004833   0.114823  -0.000002   0.000000  -0.000008
     2  C   -0.009801  -0.000890   0.006048   0.004805   0.002320  -0.000869
     3  C   -0.000812   0.000126   0.001562   0.003481  -0.008843  -0.072019
     4  C    0.000200  -0.000073  -0.000184   0.013782   0.009205   0.017766
     5  C    0.007258   0.001059  -0.009484   0.005027  -0.001013  -0.002860
     6  C    0.016089  -0.001819  -0.016650  -0.000087  -0.000046  -0.000071
     7  H   -0.000001  -0.000007   0.000007   0.001370  -0.001888   0.001775
     8  H    0.012542   0.002258  -0.012072   0.000001   0.000001   0.000001
     9  H   -0.000042   0.000151  -0.000161  -0.000042  -0.000043   0.000002
    10  H    0.000011  -0.000002  -0.000040   0.003437   0.000877  -0.027835
    11  C    0.000678   0.000220  -0.000206   0.000025   0.000006  -0.000026
    12  H    0.000002  -0.000022   0.000293   0.000001  -0.000001  -0.000001
    13  H   -0.000001  -0.000000  -0.000102  -0.000005   0.000015   0.000006
    14  O    0.000001  -0.000005  -0.000014  -0.000000   0.000001   0.000001
    15  H   -0.000002  -0.000002  -0.000000   0.000000  -0.000000  -0.000000
    16  O   -0.000003   0.000002  -0.000018  -0.056754   0.003471   0.046913
    17  H    0.000126  -0.000021  -0.000051   0.001713   0.000034  -0.000809
    18  O    0.000000  -0.000000  -0.000004  -0.161899   0.023939   0.016579
    19  H    0.000000  -0.000000  -0.000001   0.010702  -0.002260  -0.002080
    20  O   -0.003235   0.010354  -0.000797   0.000002  -0.000038  -0.000100
    21  H    0.003782   0.004742  -0.000697   0.000000   0.000002   0.000003
    22  H   -0.000456  -0.000055   0.000426  -0.000061   0.000006  -0.000537
    23  O   -0.144000   0.007723   0.012446  -0.000020   0.000013  -0.000064
    24  H    0.122928  -0.005926  -0.005678   0.000000  -0.000000   0.000000
    25  O    8.541856   0.206237   0.137923  -0.000000   0.000000   0.000000
    26  H    0.206237   0.403293  -0.011360   0.000000   0.000000  -0.000000
    27  H    0.137923  -0.011360   0.320889   0.000000  -0.000000   0.000001
    28  O   -0.000000   0.000000   0.000000   8.500833   0.227158   0.231922
    29  H    0.000000   0.000000  -0.000000   0.227158   0.374641  -0.020078
    30  H    0.000000  -0.000000   0.000001   0.231922  -0.020078   0.356429
 Mulliken charges:
               1
     1  O   -0.600055
     2  C    0.099340
     3  C    0.015678
     4  C    0.042380
     5  C    0.273460
     6  C    0.073759
     7  H    0.169976
     8  H    0.080416
     9  H    0.133307
    10  H    0.232312
    11  C   -0.060853
    12  H    0.141981
    13  H    0.198559
    14  O   -0.615822
    15  H    0.393254
    16  O   -0.642063
    17  H    0.424681
    18  O   -0.602012
    19  H    0.394085
    20  O   -0.608796
    21  H    0.376129
    22  H    0.168997
    23  O   -0.677250
    24  H    0.478950
    25  O   -0.795796
    26  H    0.379186
    27  H    0.463104
    28  O   -0.785387
    29  H    0.392520
    30  H    0.455960
 Sum of Mulliken charges =  -0.00000
 Mulliken charges with hydrogens summed into heavy atoms:
               1
     1  O   -0.600055
     2  C    0.232647
     3  C    0.247990
     4  C    0.212355
     5  C    0.442457
     6  C    0.154175
    11  C    0.279687
    14  O   -0.222568
    16  O   -0.217382
    18  O   -0.207927
    20  O   -0.232667
    23  O   -0.198300
    25  O    0.046494
    28  O    0.063093
 Electronic spatial extent (au):  <R**2>=           2695.0091
 Charge=             -0.0000 electrons
 Dipole moment (field-independent basis, Debye):
    X=             -6.8330    Y=              1.9834    Z=              2.6223  Tot=              7.5829
 Quadrupole moment (field-independent basis, Debye-Ang):
   XX=            -90.1657   YY=            -88.5052   ZZ=            -80.0977
   XY=             -7.9254   XZ=             -1.8772   YZ=              3.9526
 Traceless Quadrupole moment (field-independent basis, Debye-Ang):
   XX=             -3.9096   YY=             -2.2490   ZZ=              6.1585
   XY=             -7.9254   XZ=             -1.8772   YZ=              3.9526
 Octapole moment (field-independent basis, Debye-Ang**2):
  XXX=           -102.7467  YYY=              1.3155  ZZZ=              4.0806  XYY=              5.3722
  XXY=             13.6087  XXZ=             34.1327  XZZ=             -4.6437  YZZ=              0.6082
  YYZ=             11.2881  XYZ=             12.4042
 Hexadecapole moment (field-independent basis, Debye-Ang**3):
 XXXX=          -1626.6174 YYYY=          -1345.0614 ZZZZ=           -421.2759 XXXY=            -84.1726
 XXXZ=             -1.9346 YYYX=            -34.2550 YYYZ=             10.3364 ZZZX=            -25.0041
 ZZZY=              6.8217 XXYY=           -415.5192 XXZZ=           -272.5304 YYZZ=           -261.5518
 XXYZ=              0.5092 YYXZ=             -1.8943 ZZXY=             10.7901
 N-N= 1.169549183477D+03 E-N=-4.311212428818D+03  KE= 8.333970144314D+02
 Calling FoFJK, ICntrl=      2127 FMM=F ISym2X=0 I1Cent= 0 IOpClX= 0 NMat=1 NMatS=1 NMatT=0.
 ***** Axes restored to original set *****
 -------------------------------------------------------------------
 Center     Atomic                   Forces (Hartrees/Bohr)
 Number     Number              X              Y              Z
 -------------------------------------------------------------------
      1        8           0.029394889    0.023885105    0.009545318
      2        6          -0.025539268   -0.001892160    0.007447204
      3        6          -0.010816935   -0.035737010   -0.016109434
      4        6           0.003946571   -0.013219666    0.026649602
      5        6           0.030779308   -0.078244146    0.052033116
      6        6          -0.005153641   -0.014663021   -0.023090454
      7        1           0.006395993   -0.010692816    0.004490557
      8        1          -0.010837437    0.004899041    0.009386567
      9        1          -0.008485001    0.003611117   -0.008012181
     10        1          -0.004393958   -0.011421476    0.000688413
     11        6          -0.009841033    0.000169411   -0.001317229
     12        1           0.004790027   -0.004941236   -0.000358003
     13        1           0.001016659    0.002100113    0.007129986
     14        8          -0.004018452    0.002817033    0.003805695
     15        1           0.001331884    0.004750791   -0.001543950
     16        8           0.020121094   -0.026702044   -0.000506317
     17        1          -0.002199529   -0.003871112    0.006396775
     18        8          -0.078602206   -0.049838419    0.019902626
     19        1          -0.005901179   -0.010122676   -0.000614184
     20        8           0.001878946   -0.002483077    0.004475233
     21        1           0.002496468    0.015438457   -0.002132011
     22        1          -0.018920968   -0.004179056   -0.009349616
     23        8           0.002938680    0.054459342   -0.040731334
     24        1          -0.012020238    0.029986884   -0.040909399
     25        8          -0.030970126   -0.047964293   -0.001428910
     26        1          -0.004738271   -0.008801522    0.006234432
     27        1           0.042247959    0.009280424    0.017479479
     28        8           0.062221863    0.089839236   -0.031502057
     29        1           0.013508429    0.013306977   -0.009915693
     30        1           0.009369474    0.070229800    0.011855770
 -------------------------------------------------------------------
 Cartesian Forces:  Max     0.089839236 RMS     0.025584901

 GradGradGradGradGradGradGradGradGradGradGradGradGradGradGradGradGradGrad
 Berny optimization.
 FormGI is forming the generalized inverse of G from B-inverse, IUseBI=4.
 Internal  Forces:  Max     0.085974023 RMS     0.017298199
 Search for a local minimum.
 Step number   1 out of a maximum of  180
 All quantities printed in internal units (Hartrees-Bohrs-Radians)
 Mixed Optimization -- RFO/linear search
 Second derivative matrix not updated -- first step.
 ITU=  0
     Eigenvalues ---    0.00233   0.00362   0.00390   0.00597   0.00744
     Eigenvalues ---    0.00888   0.01169   0.01211   0.01345   0.01396
     Eigenvalues ---    0.01845   0.02099   0.02829   0.03121   0.03232
     Eigenvalues ---    0.03423   0.03649   0.03775   0.04255   0.04371
     Eigenvalues ---    0.04680   0.04774   0.04888   0.05155   0.05410
     Eigenvalues ---    0.05698   0.06203   0.06718   0.07093   0.07408
     Eigenvalues ---    0.07666   0.08056   0.09269   0.09543   0.09814
     Eigenvalues ---    0.09951   0.11329   0.11694   0.11753   0.12344
     Eigenvalues ---    0.12907   0.13680   0.13965   0.15210   0.16000
     Eigenvalues ---    0.16000   0.16688   0.17046   0.17521   0.17931
     Eigenvalues ---    0.18424   0.19376   0.20801   0.21437   0.21936
     Eigenvalues ---    0.22568   0.24370   0.24664   0.24693   0.25515
     Eigenvalues ---    0.29142   0.29373   0.29525   0.29758   0.32697
     Eigenvalues ---    0.34003   0.34061   0.34070   0.34075   0.34095
     Eigenvalues ---    0.34352   0.34619   0.35050   0.37868   0.40796
     Eigenvalues ---    0.41537   0.42108   0.50582   0.50833   0.52091
     Eigenvalues ---    0.52498   0.52561   0.53058   0.55473
 RFO step:  Lambda=-1.67315352D-01 EMin= 2.33255131D-03
 Linear search not attempted -- first point.
 Maximum step size (   0.300) exceeded in Quadratic search.
    -- Step size scaled by   0.482
 Iteration  1 RMS(Cart)=  0.06545152 RMS(Int)=  0.00215600
 Iteration  2 RMS(Cart)=  0.00243407 RMS(Int)=  0.00054966
 Iteration  3 RMS(Cart)=  0.00000915 RMS(Int)=  0.00054963
 Iteration  4 RMS(Cart)=  0.00000001 RMS(Int)=  0.00054963
 Variable       Old X    -DE/DX   Delta X   Delta X   Delta X     New X
                                 (Linear)    (Quad)   (Total)
    R1        2.78026   0.01758   0.00000   0.01466   0.01491   2.79517
    R2        2.48716   0.01261   0.00000   0.01774   0.01828   2.50544
    R3        2.87932  -0.00901   0.00000  -0.00822  -0.00763   2.87169
    R4        2.88399  -0.00861   0.00000  -0.00901  -0.00825   2.87574
    R5        2.07212   0.00326   0.00000   0.00309   0.00309   2.07522
    R6        2.69516  -0.00224   0.00000  -0.00185  -0.00185   2.69331
    R7        2.90471   0.03205   0.00000   0.03152   0.03112   2.93583
    R8        2.81747   0.03220   0.00000   0.03135   0.03059   2.84806
    R9        2.07545  -0.00271   0.00000  -0.00300  -0.00292   2.07253
   R10        2.70601   0.00461   0.00000   0.00396   0.00337   2.70938
   R11        2.89578   0.06431   0.00000   0.11968   0.11956   3.01535
   R12        2.07325   0.00072   0.00000   0.00069   0.00069   2.07394
   R13        2.70228   0.00767   0.00000   0.00505   0.00439   2.70667
   R14        2.07204  -0.00168   0.00000  -0.00159  -0.00159   2.07045
   R15        2.69453  -0.07196   0.00000  -0.05938  -0.05938   2.63515
   R16        2.07227   0.00281   0.00000   0.00266   0.00266   2.07493
   R17        2.89231   0.00294   0.00000   0.00308   0.00308   2.89538
   R18        2.97771   0.02516   0.00000   0.04971   0.04977   3.02747
   R19        2.07170   0.00179   0.00000   0.00169   0.00169   2.07340
   R20        2.06740  -0.00271   0.00000  -0.00255  -0.00255   2.06484
   R21        2.68786   0.00609   0.00000   0.00499   0.00499   2.69285
   R22        1.84125  -0.00494   0.00000  -0.00344  -0.00344   1.83781
   R23        1.84066   0.00467   0.00000   0.00325   0.00325   1.84391
   R24        2.74845   0.02713   0.00000   0.04599   0.04670   2.79515
   R25        1.84512   0.00343   0.00000   0.00240   0.00240   1.84753
   R26        2.98577   0.08597   0.00000   0.15809   0.15834   3.14411
   R27        1.85734  -0.01406   0.00000  -0.01002  -0.01002   1.84732
   R28        2.26767   0.00349   0.00000   0.00301   0.00236   2.27003
   R29        2.26767   0.01545   0.00000   0.01682   0.01610   2.28377
   R30        1.81414   0.00748   0.00000   0.00499   0.00499   1.81912
   R31        2.26767  -0.02275   0.00000  -0.02667  -0.02664   2.24103
   R32        1.81414   0.03729   0.00000   0.02742   0.02748   1.84162
   R33        1.81414   0.03741   0.00000   0.02660   0.02714   1.84127
    A1        1.65444   0.02491   0.00000   0.04705   0.04681   1.70125
    A2        1.93505  -0.03569   0.00000  -0.05138  -0.05095   1.88410
    A3        1.87531   0.00656   0.00000   0.00898   0.00886   1.88417
    A4        1.98279   0.00782   0.00000   0.00599   0.00616   1.98895
    A5        1.86908   0.01409   0.00000   0.02376   0.02318   1.89226
    A6        1.98228   0.01552   0.00000   0.01962   0.01945   2.00173
    A7        1.80794  -0.00529   0.00000  -0.00145  -0.00172   1.80622
    A8        2.04536  -0.00000   0.00000   0.00067   0.00088   2.04624
    A9        1.87660  -0.00689   0.00000  -0.01534  -0.01541   1.86119
   A10        1.95978   0.00797   0.00000   0.01086   0.01068   1.97047
   A11        1.38352   0.01760   0.00000   0.03073   0.03124   1.41476
   A12        1.88186   0.00977   0.00000   0.01530   0.01537   1.89722
   A13        1.84379  -0.01017   0.00000  -0.01365  -0.01352   1.83027
   A14        2.82579  -0.01792   0.00000  -0.03048  -0.03107   2.79472
   A15        1.84560  -0.00032   0.00000   0.00323   0.00318   1.84877
   A16        1.94252   0.01377   0.00000   0.01950   0.02045   1.96297
   A17        1.88204   0.00111   0.00000   0.00278   0.00260   1.88465
   A18        1.98820  -0.01989   0.00000  -0.02972  -0.02992   1.95828
   A19        1.89131  -0.00205   0.00000   0.00496   0.00455   1.89586
   A20        1.91290   0.00035   0.00000  -0.00980  -0.01059   1.90232
   A21        1.84161   0.00693   0.00000   0.01369   0.01405   1.85566
   A22        1.93318  -0.00344   0.00000  -0.00360  -0.00302   1.93017
   A23        2.01188  -0.00455   0.00000  -0.00970  -0.01180   2.00007
   A24        1.85849   0.00216   0.00000   0.00213   0.00258   1.86106
   A25        2.04989  -0.02844   0.00000  -0.04606  -0.04433   2.00556
   A26        1.75971   0.01050   0.00000   0.02408   0.02358   1.78329
   A27        1.80443   0.02009   0.00000   0.02599   0.02535   1.82978
   A28        1.89712   0.00685   0.00000   0.01087   0.01138   1.90850
   A29        2.03105  -0.00084   0.00000  -0.00283  -0.00408   2.02697
   A30        1.89887  -0.00626   0.00000  -0.00762  -0.00750   1.89137
   A31        1.92278  -0.00647   0.00000  -0.00893  -0.00896   1.91382
   A32        1.94570  -0.00383   0.00000  -0.00680  -0.00681   1.93889
   A33        1.95154   0.00617   0.00000   0.00736   0.00737   1.95890
   A34        1.84059   0.00458   0.00000   0.00728   0.00725   1.84784
   A35        1.89973   0.00408   0.00000   0.00888   0.00890   1.90862
   A36        1.89971  -0.00448   0.00000  -0.00749  -0.00747   1.89224
   A37        1.87244   0.00265   0.00000   0.00390   0.00390   1.87634
   A38        1.86294  -0.01001   0.00000  -0.02012  -0.02014   1.84279
   A39        2.78130   0.01030   0.00000   0.01688   0.01746   2.79876
   A40        1.88980  -0.00708   0.00000  -0.00876  -0.00820   1.88160
   A41        1.47830   0.00779   0.00000   0.01699   0.01672   1.49502
   A42        1.98008   0.01496   0.00000   0.02883   0.02883   2.00892
   A43        1.88907  -0.00602   0.00000  -0.00886  -0.00886   1.88021
   A44        2.09736  -0.02767   0.00000  -0.04328  -0.04278   2.05458
   A45        2.36550   0.01652   0.00000   0.01659   0.01629   2.38179
   A46        1.82630   0.02445   0.00000   0.03158   0.03206   1.85836
   A47        1.91848  -0.06372   0.00000  -0.09722  -0.09680   1.82168
   A48        1.83190   0.00819   0.00000   0.01600   0.01622   1.84812
   A49        2.46557   0.02163   0.00000   0.02663   0.02862   2.49419
   A50        1.91114  -0.03238   0.00000  -0.04336  -0.04377   1.86736
   A51        1.80549   0.03438   0.00000   0.06019   0.06091   1.86639
   A52        2.35805   0.00302   0.00000   0.00844   0.00844   2.36649
   A53        1.46412  -0.01570   0.00000  -0.02744  -0.02729   1.43683
   A54        1.84437   0.00205   0.00000   0.00426   0.00469   1.84906
   A55        3.30849  -0.01365   0.00000  -0.02318  -0.02260   3.28589
   A56        3.28158  -0.00308   0.00000  -0.00586  -0.00533   3.27625
    D1        1.70812   0.00902   0.00000   0.02832   0.02999   1.73811
    D2       -0.34868   0.00733   0.00000   0.02098   0.02228  -0.32640
    D3       -2.31221   0.00437   0.00000   0.01310   0.01368  -2.29853
    D4       -1.39781  -0.02602   0.00000  -0.05305  -0.05396  -1.45177
    D5       -0.97002   0.01591   0.00000   0.04949   0.04895  -0.92107
    D6       -3.04219   0.00972   0.00000   0.03039   0.02950  -3.01269
    D7        1.20335   0.01201   0.00000   0.02893   0.02781   1.23116
    D8       -3.00704   0.01456   0.00000   0.04365   0.04380  -2.96324
    D9        1.20398   0.00838   0.00000   0.02455   0.02435   1.22833
   D10       -0.83367   0.01066   0.00000   0.02309   0.02266  -0.81101
   D11        1.28718   0.01274   0.00000   0.03665   0.03699   1.32416
   D12       -0.78499   0.00655   0.00000   0.01755   0.01753  -0.76746
   D13       -2.82264   0.00884   0.00000   0.01609   0.01585  -2.80680
   D14        0.97764  -0.00000   0.00000  -0.00997  -0.00925   0.96839
   D15        2.95909   0.00135   0.00000   0.00106   0.00203   2.96111
   D16       -1.17397  -0.00204   0.00000  -0.00231  -0.00172  -1.17569
   D17        3.01849  -0.00313   0.00000  -0.01302  -0.01318   3.00531
   D18       -1.28325  -0.00179   0.00000  -0.00199  -0.00190  -1.28515
   D19        0.86688  -0.00518   0.00000  -0.00536  -0.00565   0.86123
   D20       -1.27983   0.00726   0.00000   0.01011   0.01027  -1.26956
   D21        0.70162   0.00861   0.00000   0.02114   0.02154   0.72316
   D22        2.85174   0.00522   0.00000   0.01777   0.01780   2.86954
   D23        3.14159   0.00886   0.00000   0.01074   0.01050  -3.13109
   D24       -0.90854  -0.02061   0.00000  -0.03886  -0.03855  -0.94709
   D25        1.11269   0.00044   0.00000  -0.00201  -0.00207   1.11061
   D26        0.02291  -0.01244   0.00000  -0.02148  -0.02199   0.00092
   D27        2.08952  -0.00425   0.00000  -0.00353  -0.00349   2.08603
   D28       -2.19226   0.00303   0.00000   0.01023   0.01000  -2.18226
   D29        2.14409  -0.00507   0.00000  -0.01309  -0.01345   2.13064
   D30       -2.07249   0.00312   0.00000   0.00487   0.00505  -2.06744
   D31       -0.07108   0.01040   0.00000   0.01862   0.01854  -0.05254
   D32       -2.11612  -0.00527   0.00000  -0.01255  -0.01322  -2.12934
   D33       -0.04951   0.00292   0.00000   0.00541   0.00528  -0.04423
   D34        1.95190   0.01021   0.00000   0.01917   0.01877   1.97067
   D35       -2.97936  -0.00791   0.00000  -0.01717  -0.01818  -2.99754
   D36       -0.91275   0.00028   0.00000   0.00079   0.00032  -0.91243
   D37        1.08866   0.00757   0.00000   0.01455   0.01381   1.10247
   D38        2.88566  -0.01071   0.00000  -0.03127  -0.03115   2.85450
   D39       -1.28625  -0.01384   0.00000  -0.03829  -0.03852  -1.32477
   D40        0.76721  -0.00941   0.00000  -0.02371  -0.02369   0.74352
   D41        2.87849  -0.01253   0.00000  -0.03072  -0.03106   2.84743
   D42       -1.19989  -0.00859   0.00000  -0.02773  -0.02759  -1.22748
   D43        0.91140  -0.01171   0.00000  -0.03475  -0.03496   0.87643
   D44       -0.71081  -0.00132   0.00000  -0.00354  -0.00368  -0.71449
   D45        1.40048  -0.00445   0.00000  -0.01056  -0.01105   1.38942
   D46        1.72997  -0.00546   0.00000  -0.01292  -0.01300   1.71697
   D47       -0.51928  -0.00331   0.00000  -0.01101  -0.01125  -0.53053
   D48       -2.51161  -0.00974   0.00000  -0.02371  -0.02400  -2.53561
   D49       -0.99270  -0.01340   0.00000  -0.02666  -0.02677  -1.01948
   D50        2.55795  -0.02317   0.00000  -0.05391  -0.05353   2.50443
   D51        0.72141  -0.00432   0.00000   0.00016  -0.00030   0.72110
   D52        2.69312   0.01366   0.00000   0.03562   0.03496   2.72808
   D53        2.91056  -0.00072   0.00000  -0.00413  -0.00354   2.90702
   D54       -1.40092   0.01726   0.00000   0.03133   0.03173  -1.36919
   D55       -1.33959   0.00077   0.00000   0.00422   0.00406  -1.33553
   D56        0.63212   0.01875   0.00000   0.03969   0.03933   0.67144
   D57        2.28122   0.02169   0.00000   0.04723   0.04708   2.32830
   D58       -1.85057   0.01586   0.00000   0.03777   0.03739  -1.81318
   D59        1.02513   0.01127   0.00000   0.02182   0.02136   1.04649
   D60       -1.01205   0.01199   0.00000   0.02256   0.02207  -0.98998
   D61        3.14007   0.01613   0.00000   0.03187   0.03138  -3.11173
   D62       -2.98380  -0.01020   0.00000  -0.01960  -0.01927  -3.00307
   D63        1.26221  -0.00948   0.00000  -0.01886  -0.01856   1.24365
   D64       -0.86886  -0.00534   0.00000  -0.00956  -0.00925  -0.87811
   D65       -0.83458  -0.00678   0.00000  -0.01337  -0.01318  -0.84776
   D66       -2.87176  -0.00606   0.00000  -0.01263  -0.01247  -2.88424
   D67        1.28036  -0.00192   0.00000  -0.00332  -0.00316   1.27720
   D68       -1.31274  -0.00108   0.00000  -0.00348  -0.00351  -1.31624
   D69        0.81550  -0.00241   0.00000  -0.00385  -0.00381   0.81168
   D70        2.81323   0.00279   0.00000   0.00549   0.00548   2.81871
   D71       -1.77530   0.00047   0.00000  -0.00222  -0.00213  -1.77743
   D72        1.43504   0.00436   0.00000   0.00025  -0.00147   1.43357
   D73       -2.96942   0.00056   0.00000  -0.00091  -0.00142  -2.97084
   D74        0.07874  -0.00061   0.00000   0.00999   0.00963   0.08837
   D75       -2.04132  -0.01044   0.00000  -0.01748  -0.01743  -2.05875
   D76       -0.08240  -0.01628   0.00000  -0.02524  -0.02598  -0.10838
   D77       -0.34459  -0.01597   0.00000  -0.02196  -0.02284  -0.36744
   D78        1.61069  -0.01150   0.00000  -0.01997  -0.02039   1.59031
   D79       -1.31750   0.02882   0.00000   0.06133   0.05930  -1.25820
   D80        1.28804  -0.01913   0.00000  -0.03628  -0.03641   1.25163
   D81        1.89229  -0.03977   0.00000  -0.07621  -0.07628   1.81601
         Item               Value     Threshold  Converged?
 Maximum Force            0.085974     0.000450     NO 
 RMS     Force            0.017298     0.000300     NO 
 Maximum Displacement     0.206181     0.001800     NO 
 RMS     Displacement     0.066238     0.001200     NO 
 Predicted change in Energy=-7.299209D-02
 GradGradGradGradGradGradGradGradGradGradGradGradGradGradGradGradGradGrad

                          Input orientation:                          
 ---------------------------------------------------------------------
 Center     Atomic      Atomic             Coordinates (Angstroms)
 Number     Number       Type             X           Y           Z
 ---------------------------------------------------------------------
      1          8           0       -0.038123   -1.347257   -0.988152
      2          6           0       -0.496779   -0.018516    1.115152
      3          6           0        1.251151    0.741437   -0.586230
      4          6           0        0.195959    1.170392    0.470254
      5          6           0        1.434233   -0.736506   -0.817740
      6          6           0       -1.041827   -0.903400    0.003528
      7          1           0        0.702692    1.737426    1.261554
      8          1           0       -1.382279   -1.855904    0.430664
      9          1           0       -1.343129    0.360859    1.703127
     10          1           0        0.957421    1.211884   -1.532397
     11          6           0       -2.183276   -0.312982   -0.830766
     12          1           0       -2.587434   -1.082632   -1.500190
     13          1           0       -1.822057    0.488155   -1.480094
     14          8           0       -3.233138    0.204908   -0.018246
     15          1           0       -3.736021   -0.552243    0.327651
     16          8           0        2.565607    1.233542   -0.293569
     17          1           0        3.032574    0.493369    0.137914
     18          8           0       -0.733903    2.073207   -0.139493
     19          1           0       -1.500984    2.162426    0.460059
     20          8           0        0.300488   -0.698958    2.080902
     21          1           0       -0.225399   -1.446517    2.427629
     22          1           0        1.966995   -0.916131   -1.758120
     23          8           0        2.151866   -1.395710    0.179742
     24          1           0        1.707160   -2.430760    0.596760
     25          8           0        0.777026   -3.155090    0.330837
     26          1           0        0.214121   -3.174376    1.111503
     27          1           0        0.167360   -2.560442   -0.494433
     28          8           0        1.070412    3.123253   -0.691278
     29          1           0        0.451152    3.224849    0.054326
     30          1           0        1.573026    2.303426   -0.534301
 ---------------------------------------------------------------------
                    Distance matrix (angstroms):
                    1          2          3          4          5
     1  O    0.000000
     2  C    2.529784   0.000000
     3  C    2.487249   2.554895   0.000000
     4  C    2.918955   1.519632   1.553573   0.000000
     5  C    1.603088   2.824959   1.507126   2.613141   0.000000
     6  C    1.479142   1.521777   2.882889   2.459788   2.614041
     7  H    3.889120   2.131548   2.169588   1.097480   3.313451
     8  H    2.019533   2.151426   3.836040   3.413337   3.277851
     9  H    3.444370   1.098157   3.480846   2.131693   3.908033
    10  H    2.799378   3.261610   1.096736   2.142932   2.129392
    11  C    2.386667   2.591830   3.600956   3.090924   3.642240
    12  H    2.613656   3.513289   4.347101   4.087303   4.093819
    13  H    2.606370   2.957766   3.210568   2.888199   3.541459
    14  O    3.682126   2.970214   4.551847   3.595761   4.828023
    15  H    4.004727   3.376050   5.232654   4.295146   5.298812
    16  O    3.731270   3.595880   1.433741   2.490511   2.331491
    17  H    3.753014   3.697750   1.938916   2.935165   2.231717
    18  O    3.592201   2.450646   2.431794   1.432309   3.613214
    19  H    4.068803   2.488792   3.269278   1.965668   4.318805
    20  O    3.155003   1.425240   3.176806   2.469733   3.112702
    21  H    3.422351   1.958425   4.006331   3.295007   3.713612
    22  H    2.190711   3.889934   2.152507   3.529276   1.095634
    23  O    2.482413   3.128415   2.442416   3.239575   1.394459
    24  H    2.594596   3.308322   3.416173   3.907432   2.223914
    25  O    2.381692   3.475029   4.030971   4.366562   2.756936
    26  H    2.794734   3.234941   4.392188   4.391872   3.339740
    27  H    1.325820   3.081109   3.476411   3.853642   2.244157
    28  O    4.615457   3.948416   2.390972   2.434644   3.878930
    29  H    4.714902   3.541657   2.686568   2.111614   4.173641
    30  H    4.016126   3.520824   1.595654   2.046756   3.056270
                    6          7          8          9         10
     6  C    0.000000
     7  H    3.405868   0.000000
     8  H    1.098006   4.236686   0.000000
     9  H    2.139572   2.505057   2.556312   0.000000
    10  H    3.290971   2.854338   4.328872   4.060221   0.000000
    11  C    1.532170   4.112273   2.147886   2.753275   3.561107
    12  H    2.163838   5.138569   2.403861   3.727358   4.222777
    13  H    2.178604   3.930861   3.055980   3.221563   2.872633
    14  O    2.455741   4.413305   2.806091   2.561168   4.568090
    15  H    2.736247   5.081037   2.692629   2.907167   5.347928
    16  O    4.203376   2.478459   5.065076   4.475108   2.030129
    17  H    4.309266   2.870295   5.009562   4.649111   2.759070
    18  O    2.995907   2.034573   4.022858   2.588154   2.354280
    19  H    3.133454   2.383109   4.020191   2.194489   3.304114
    20  O    2.481751   2.601743   2.625550   1.991834   4.139905
    21  H    2.614918   3.515476   2.343894   2.245179   4.914058
    22  H    3.486628   4.214055   4.109937   4.956597   2.366144
    23  O    3.236217   3.617591   3.572803   4.197765   3.340310
    24  H    3.200262   4.338741   3.146852   4.280356   4.285356
    25  O    2.912982   4.980810   2.521992   4.328987   4.751279
    26  H    2.821763   4.938321   2.179541   3.908059   5.175131
    27  H    2.110897   4.673515   1.937410   3.955356   3.991493
    28  O    4.599809   2.422662   5.662725   4.380546   2.091310
    29  H    4.390217   1.932123   5.414531   3.760376   2.612666
    30  H    4.172583   2.074352   5.192785   4.157357   1.602070
                   11         12         13         14         15
    11  C    0.000000
    12  H    1.097193   0.000000
    13  H    1.092669   1.747449   0.000000
    14  O    1.424995   2.066603   2.051433   0.000000
    15  H    1.951972   2.222964   2.830835   0.972530   0.000000
    16  O    5.023167   5.777060   4.605978   5.895705   6.579169
    17  H    5.365970   6.062315   5.117169   6.274293   6.851510
    18  O    2.876185   3.904663   2.343860   3.122726   4.015461
    19  H    2.873917   3.943774   2.582725   2.657257   3.518857
    20  O    3.846541   4.616441   4.312207   4.208314   4.403274
    21  H    3.966778   4.597759   4.643551   4.213788   4.187375
    22  H    4.295174   4.564764   4.050460   5.596898   6.083358
    23  O    4.581145   5.037972   4.700645   5.621339   5.949835
[...]
    D5       -0.77808   0.00441  -0.00923   0.04599   0.03659  -0.74149
    D6       -2.89872   0.00681  -0.00635   0.05478   0.04864  -2.85008
    D7        1.27582   0.00828  -0.00064   0.04641   0.04535   1.32118
    D8       -2.81400  -0.00575  -0.01269   0.03718   0.02448  -2.78952
    D9        1.34854  -0.00335  -0.00981   0.04596   0.03653   1.38507
   D10       -0.76010  -0.00188  -0.00410   0.03759   0.03325  -0.72685
   D11        1.40359  -0.00054  -0.00676   0.04722   0.04012   1.44371
   D12       -0.71705   0.00186  -0.00388   0.05600   0.05217  -0.66488
   D13       -2.82569   0.00333   0.00183   0.04763   0.04888  -2.77681
   D14        0.91847  -0.00121  -0.00493   0.03027   0.02374   0.94221
   D15        2.94767  -0.00263  -0.00715   0.04772   0.03920   2.98687
   D16       -1.20421  -0.00409  -0.00847   0.02484   0.01558  -1.18862
   D17        2.97164   0.00574  -0.00218   0.03241   0.02937   3.00102
   D18       -1.28234   0.00432  -0.00440   0.04986   0.04483  -1.23751
   D19        0.84897   0.00286  -0.00572   0.02698   0.02122   0.87018
   D20       -1.21167  -0.00053  -0.00765   0.02073   0.01263  -1.19903
   D21        0.81754  -0.00195  -0.00987   0.03818   0.02809   0.84562
   D22        2.94884  -0.00341  -0.01119   0.01530   0.00448   2.95332
   D23        3.12028  -0.02241  -0.00724  -0.06087  -0.06714   3.05313
   D24       -1.03726   0.01934   0.00903  -0.01372  -0.00554  -1.04280
   D25        1.05087  -0.00053   0.00139  -0.03508  -0.03381   1.01706
   D26       -0.09449   0.01049   0.00453   0.04449   0.04939  -0.04510
   D27        2.03854   0.00454   0.00092   0.02376   0.02478   2.06332
   D28       -2.16696   0.00201  -0.00277   0.02893   0.02609  -2.14088
   D29        2.06217   0.00695   0.00941   0.00381   0.01324   2.07541
   D30       -2.08799   0.00100   0.00581  -0.01692  -0.01137  -2.09936
   D31       -0.01031  -0.00153   0.00212  -0.01175  -0.01006  -0.02037
   D32       -2.18624   0.00828   0.00764   0.01940   0.02703  -2.15922
   D33       -0.05322   0.00232   0.00404  -0.00133   0.00242  -0.05080
   D34        2.02447  -0.00021   0.00035   0.00384   0.00373   2.02819
   D35       -3.11412   0.00664   0.00819   0.00559   0.01403  -3.10009
   D36       -0.98109   0.00069   0.00458  -0.01514  -0.01058  -0.99167
   D37        1.09659  -0.00184   0.00089  -0.00997  -0.00927   1.08732
   D38        2.63622   0.00059   0.01922  -0.13160  -0.11285   2.52337
   D39       -1.45347   0.00266   0.00907  -0.04599  -0.03616  -1.48963
   D40        0.54537   0.00101   0.01580  -0.11223  -0.09716   0.44821
   D41        2.73887   0.00308   0.00564  -0.02662  -0.02047   2.71840
   D42       -1.49255  -0.00179   0.01660  -0.12522  -0.10990  -1.60245
   D43        0.70094   0.00028   0.00644  -0.03961  -0.03321   0.66773
   D44       -0.80553   0.00382   0.01117  -0.03750  -0.02688  -0.83241
   D45        1.38797   0.00589   0.00101   0.04812   0.04981   1.43778
   D46        1.62447  -0.00837  -0.00088  -0.04185  -0.04211   1.58237
   D47       -0.58386   0.00521   0.00283  -0.03212  -0.02704  -0.61090
   D48       -2.66317   0.00047  -0.00058  -0.01949  -0.01947  -2.68263
   D49       -1.08236  -0.00312  -0.00712   0.01104   0.00483  -1.07754
   D50        2.32783  -0.00379   0.00036  -0.06962  -0.06927   2.25856
   D51        0.75032  -0.00781  -0.01326   0.00606  -0.00576   0.74455
   D52        2.88936  -0.00629  -0.01229   0.02900   0.01917   2.90853
   D53        2.89647   0.00497   0.00337   0.01088   0.01337   2.90984
   D54       -1.24767   0.00649   0.00434   0.03382   0.03830  -1.20937
   D55       -1.34168  -0.00016  -0.00362   0.01344   0.00943  -1.33225
   D56        0.79736   0.00135  -0.00265   0.03638   0.03436   0.83172
   D57        2.51823  -0.00555  -0.01146   0.04746   0.03457   2.55280
   D58       -1.59940  -0.00256  -0.02793   0.16275   0.13379  -1.46562
   D59        1.07945  -0.00560   0.00119  -0.03428  -0.03291   1.04654
   D60       -0.97839  -0.00559   0.00107  -0.03300  -0.03174  -1.01013
   D61       -3.04615  -0.00529   0.00245  -0.03417  -0.03150  -3.07765
   D62       -3.02552   0.00532   0.00018   0.01591   0.01606  -3.00946
   D63        1.19982   0.00533   0.00005   0.01719   0.01723   1.21705
   D64       -0.86793   0.00564   0.00144   0.01602   0.01747  -0.85047
   D65       -0.89625  -0.00041   0.00064  -0.02541  -0.02497  -0.92122
   D66       -2.95410  -0.00040   0.00052  -0.02413  -0.02380  -2.97790
   D67        1.26133  -0.00010   0.00190  -0.02530  -0.02356   1.23777
   D68       -1.34094  -0.00052   0.00040  -0.01048  -0.01005  -1.35100
   D69        0.78643  -0.00019  -0.00106   0.00045  -0.00063   0.78580
   D70        2.84379  -0.00014   0.00100  -0.00694  -0.00594   2.83785
   D71       -1.89252  -0.00422   0.01136  -0.17201  -0.16074  -2.05325
   D72        1.36801  -0.00378   0.00217  -0.08425  -0.08240   1.28561
   D73       -2.93765  -0.00099  -0.00111  -0.03899  -0.04025  -2.97790
   D74        0.07720  -0.00358  -0.01434  -0.00980  -0.02885   0.04835
   D75       -2.05724   0.00097  -0.01106   0.04664   0.03391  -2.02333
   D76       -0.19221   0.00320  -0.00374   0.02056   0.01347  -0.17874
   D77       -0.37173   0.01478  -0.00162   0.10772   0.10447  -0.26726
   D78        1.57682   0.00805   0.00490   0.06242   0.06631   1.64313
   D79       -1.06564   0.00344  -0.00034   0.06991   0.06989  -0.99576
   D80        1.08621  -0.00496   0.00289  -0.06305  -0.06072   1.02549
   D81        1.52112  -0.00550  -0.00078  -0.06757  -0.06855   1.45257
         Item               Value     Threshold  Converged?
 Maximum Force            0.056411     0.000450     NO 
 RMS     Force            0.009901     0.000300     NO 
 Maximum Displacement     0.366183     0.001800     NO 
 RMS     Displacement     0.090703     0.001200     NO 
 Predicted change in Energy=-2.280004D-02
 GradGradGradGradGradGradGradGradGradGradGradGradGradGradGradGradGradGrad

                          Input orientation:                          
 ---------------------------------------------------------------------
 Center     Atomic      Atomic             Coordinates (Angstroms)
 Number     Number       Type             X           Y           Z
 ---------------------------------------------------------------------
      1          8           0       -0.065751   -1.500953   -0.753837
      2          6           0       -0.627898    0.019932    1.167548
      3          6           0        1.219186    0.789709   -0.524211
      4          6           0        0.178726    1.187897    0.581848
      5          6           0        1.311447   -0.728675   -0.805149
      6          6           0       -1.099145   -0.968503    0.101834
      7          1           0        0.723373    1.670137    1.403129
      8          1           0       -1.520736   -1.839862    0.631144
      9          1           0       -1.534201    0.439152    1.630393
     10          1           0        0.907410    1.321903   -1.424476
     11          6           0       -2.159885   -0.398909   -0.852946
     12          1           0       -2.536324   -1.207974   -1.491601
     13          1           0       -1.701823    0.353608   -1.498113
     14          8           0       -3.222379    0.245995   -0.157239
     15          1           0       -3.811978   -0.435970    0.202673
     16          8           0        2.540460    1.224993   -0.175799
     17          1           0        2.900479    0.454685    0.313964
     18          8           0       -0.726523    2.106727   -0.054920
     19          1           0       -1.512557    2.232626    0.502025
     20          8           0        0.162172   -0.599440    2.178887
     21          1           0       -0.372665   -1.289216    2.610430
     22          1           0        1.499958   -0.937622   -1.871146
     23          8           0        2.161612   -1.432712    0.030321
     24          1           0        1.811015   -2.434432    0.228000
     25          8           0        0.985635   -3.521436    0.127186
     26          1           0        0.572645   -3.707226    0.980883
     27          1           0        0.356829   -2.872265   -0.369589
     28          8           0        1.346179    3.523848   -0.853307
     29          1           0        0.623200    3.556978   -0.210545
     30          1           0        1.786432    2.688714   -0.620793
 ---------------------------------------------------------------------
                    Distance matrix (angstroms):
                    1          2          3          4          5
     1  O    0.000000
     2  C    2.514124   0.000000
     3  C    2.636460   2.620367   0.000000
     4  C    3.012264   1.535523   1.569865   0.000000
     5  C    1.579785   2.865834   1.546910   2.622988   0.000000
     6  C    1.443461   1.528013   2.976222   2.552142   2.586714
     7  H    3.915486   2.145835   2.176149   1.097132   3.313099
     8  H    2.037158   2.131601   3.969466   3.472453   3.364363
     9  H    3.406598   1.100616   3.513737   2.143405   3.923443
    10  H    3.060280   3.281903   1.091289   2.138755   2.179836
    11  C    2.368485   2.569982   3.597081   3.169493   3.487288
    12  H    2.594969   3.495843   4.362388   4.172635   3.937803
    13  H    2.582649   2.893165   3.109817   2.925533   3.275872
    14  O    3.656782   2.921899   4.489742   3.605682   4.682451
    15  H    4.010402   3.358154   5.229078   4.325094   5.229806
    16  O    3.815396   3.646264   1.434095   2.480562   2.392358
    17  H    3.709884   3.656099   1.908279   2.831484   2.275474
    18  O    3.733692   2.420510   2.395945   1.438471   3.571509
    19  H    4.196432   2.474178   3.255394   1.989540   4.295697
    20  O    3.076613   1.425005   3.217725   2.396953   3.200314
    21  H    3.384867   1.964923   4.084347   3.248887   3.849237
    22  H    2.004287   3.831233   2.208334   3.504378   1.102517
    23  O    2.362352   3.344372   2.476859   3.332208   1.384362
    24  H    2.314657   3.585380   3.363208   3.988840   2.055862
    25  O    2.442124   4.028291   4.366330   4.799546   2.962248
    26  H    2.878271   3.920185   4.785995   4.927132   3.550705
    27  H    1.485502   3.420128   3.765317   4.173951   2.386626
    28  O    5.220351   4.500918   2.756800   2.979812   4.252938
    29  H    5.133467   3.996884   2.848046   2.537319   4.381103
    30  H    4.582749   4.018650   1.984267   2.506694   3.455162
                    6          7          8          9         10
     6  C    0.000000
     7  H    3.460833   0.000000
     8  H    1.103256   4.236990   0.000000
     9  H    2.123031   2.581398   2.488490   0.000000
    10  H    3.406148   2.854905   4.485335   4.009107   0.000000
    11  C    1.536623   4.205235   2.165036   2.694587   3.563164
    12  H    2.159135   5.223850   2.436545   3.669349   4.273650
    13  H    2.161256   4.004002   3.062326   3.134162   2.784082
    14  O    2.459724   4.475700   2.804984   2.466350   4.451811
    15  H    2.766446   5.142586   2.721083   2.827100   5.292481
    16  O    4.258548   2.448054   5.151486   4.525786   2.058018
    17  H    4.250584   2.720918   4.991262   4.625972   2.783266
    18  O    3.101686   2.102074   4.083751   2.504682   2.271865
    19  H    3.252428   2.475432   4.074542   2.119017   3.224448
    20  O    2.457902   2.463276   2.601218   2.063298   4.151044
    21  H    2.631290   3.378853   2.353477   2.301498   4.973631
    22  H    3.263272   4.257272   4.024933   4.833467   2.378252
    23  O    3.294411   3.685214   3.753192   4.441074   3.358179
    24  H    3.260966   4.405835   3.408314   4.627598   4.202051
    25  O    3.296122   5.352499   3.059994   4.929043   5.086424
    26  H    3.326892   5.396021   2.826943   4.696074   5.584798
    27  H    2.442623   4.889815   2.364862   4.305973   4.359699
    28  O    5.203184   2.985905   6.260366   4.897010   2.316746
    29  H    4.852220   2.484783   5.867775   4.214768   2.559290
    30  H    4.714232   2.502769   5.745669   4.599454   1.812942
                   11         12         13         14         15
    11  C    0.000000
    12  H    1.097348   0.000000
    13  H    1.091944   1.770585   0.000000
    14  O    1.424360   2.089310   2.030176   0.000000
    15  H    1.960897   2.256956   2.822917   0.970690   0.000000
    16  O    5.018847   5.781384   4.528222   5.845433   6.576892
    17  H    5.262850   5.965177   4.947224   6.144508   6.772203
    18  O    2.994926   4.040628   2.471324   3.114818   4.006456
    19  H    3.029844   4.106138   2.750833   2.702744   3.535301
    20  O    3.824157   4.596159   4.231207   4.198503   4.441398
    21  H    3.997722   4.638393   4.620137   4.258842   4.284180
    22  H    3.836847   4.063093   3.472439   5.161288   5.724426
    23  O    4.530369   4.943416   4.522520   5.642747   6.058629
    24  H    4.591279   4.833279   4.805483   5.715605   5.967625
    25  O    4.539288   4.514065   4.987986   5.655247   5.704638
    26  H    4.666327   4.693094   5.273424   5.596917   5.525545
    27  H    3.561597   3.521237   3.989721   4.751774   4.862301
    28  O    5.261226   6.153973   4.444830   5.665735   6.588007
    29  H    4.879271   5.859050   4.162348   5.074833   5.982072
    30  H    5.016047   5.884616   4.288395   5.591954   6.464050
                   16         17         18         19         20
    16  O    0.000000
    17  H    0.981252   0.000000
    18  O    3.386037   4.002557   0.000000
    19  H    4.231042   4.761442   0.971539   0.000000
    20  O    3.811739   3.476701   3.619809   3.692855   0.000000
    21  H    4.750854   4.362158   4.331482   4.260058   0.973689
    22  H    2.938325   2.945282   4.186163   4.975707   4.278646
    23  O    2.692473   2.046618   4.569050   5.211212   3.050974
    24  H    3.753204   3.088903   5.209728   5.736083   3.145130
    25  O    5.003786   4.417132   5.885649   6.284162   3.664100
    26  H    5.434795   4.815091   6.046716   6.313415   3.355896
    27  H    4.646861   4.243347   5.105196   5.505835   3.420286
    28  O    2.677696   3.632923   2.634720   3.417097   5.253340
    29  H    3.019146   3.883984   1.987260   2.612111   4.816404
    30  H    1.705595   2.665662   2.640808   3.514551   4.613934
                   21         22         23         24         25
    21  H    0.000000
    22  H    4.869791   0.000000
    23  O    3.619408   2.073277   0.000000
    24  H    3.428695   2.596846   1.079555   0.000000
    25  O    3.604759   3.306653   2.398973   1.368573   0.000000
    26  H    3.065259   4.082240   2.932883   1.928833   0.966373
    27  H    3.452350   2.702639   2.342964   1.632013   1.031313
    28  O    6.173935   4.578686   5.100315   6.073417   7.122316
    29  H    5.695195   4.871112   5.227020   6.123742   7.095729
    30  H    5.561153   3.846526   4.189375   5.193041   6.306085
                   26         27         28         29         30
    26  H    0.000000
    27  H    1.602345   0.000000
    28  O    7.500069   6.490227   0.000000
    29  H    7.361435   6.436723   0.967956   0.000000
    30  H    6.704230   5.747291   0.972283   1.508408   0.000000
 Stoichiometry    C6H16O8
 Framework group  C1[X(C6H16O8)]
 Deg. of freedom    84
 Full point group                 C1      NOp   1
 Largest Abelian subgroup         C1      NOp   1
 Largest concise Abelian subgroup C1      NOp   1
                         Standard orientation:                         
 ---------------------------------------------------------------------
 Center     Atomic      Atomic             Coordinates (Angstroms)
 Number     Number       Type             X           Y           Z
 ---------------------------------------------------------------------
      1          8           0       -1.402642   -0.039479   -0.928267
      2          6           0       -0.204120    0.794376    1.118450
      3          6           0        1.015696   -0.951561   -0.408010
      4          6           0        1.128998    0.163279    0.691432
      5          6           0       -0.431387   -1.282515   -0.843151
      6          6           0       -1.128822    1.083154   -0.063226
      7          1           0        1.594265   -0.281480    1.579922
      8          1           0       -2.106490    1.378140    0.354296
      9          1           0        0.020748    1.764887    1.586317
     10          1           0        1.590792   -0.582858   -1.259029
     11          6           0       -0.623465    2.196195   -0.994335
     12          1           0       -1.404671    2.428852   -1.729020
     13          1           0        0.255659    1.844218   -1.538022
     14          8           0       -0.225932    3.361111   -0.277578
     15          1           0       -1.024114    3.847200   -0.015161
     16          8           0        1.603481   -2.181778    0.036630
     17          1           0        0.846833   -2.644310    0.456636
     18          8           0        1.965856    1.183798    0.119238
     19          1           0        1.910241    1.992641    0.654558
     20          8           0       -0.805255   -0.057607    2.089737
     21          1           0       -1.610767    0.374858    2.424692
     22          1           0       -0.491111   -1.525747   -1.916844
     23          8           0       -1.087337   -2.210980   -0.053125
     24          1           0       -2.145945   -2.013901    0.023991
     25          8           0       -3.326818   -1.367883   -0.223385
     26          1           0       -3.665291   -0.968498    0.588899
     27          1           0       -2.728785   -0.658601   -0.673810
     28          8           0        3.757314   -0.664696   -0.442452
     29          1           0        3.610582    0.069613    0.170899
     30          1           0        2.977321   -1.222458   -0.281681
 ---------------------------------------------------------------------
 Rotational constants (GHZ):      0.7110557      0.6008541      0.4073750
 Standard basis: 6-31G(d) (6D, 7F)
 There are   242 symmetry adapted cartesian basis functions of A   symmetry.
 There are   242 symmetry adapted basis functions of A   symmetry.
   242 basis functions,   456 primitive gaussians,   242 cartesian basis functions
    58 alpha electrons       58 beta electrons
       nuclear repulsion energy      1135.2483074143 Hartrees.
 NAtoms=   30 NActive=   30 NUniq=   30 SFac= 1.00D+00 NAtFMM=   60 NAOKFM=F Big=F
 Integral buffers will be    131072 words long.
 Raffenetti 2 integral format.
 Two-electron integral symmetry is turned on.
 One-electron integrals computed using PRISM.
 NBasis=   242 RedAO= T EigKep=  1.33D-03  NBF=   242
 NBsUse=   242 1.00D-06 EigRej= -1.00D+00 NBFU=   242
 Initial guess from the checkpoint file:  "/scratch/10451467.yak.local/Gau-27204.chk"
 B after Tr=     0.000000   -0.000000    0.000000
         Rot=    0.999351    0.001011   -0.012018   -0.033948 Ang=   4.13 deg.
 ExpMin= 1.61D-01 ExpMax= 5.48D+03 ExpMxC= 8.25D+02 IAcc=1 IRadAn=         1 AccDes= 0.00D+00
 Harris functional with IExCor=  402 and IRadAn=       1 diagonalized for initial guess.
 HarFok:  IExCor=  402 AccDes= 0.00D+00 IRadAn=         1 IDoV= 1 UseB2=F ITyADJ=14
 ICtDFT=  3500011 ScaDFX=  1.000000  1.000000  1.000000  1.000000
 FoFCou: FMM=F IPFlag=           0 FMFlag=      100000 FMFlg1=           0
         NFxFlg=           0 DoJE=T BraDBF=F KetDBF=T FulRan=T
         wScrn=  0.000000 ICntrl=     500 IOpCl=  0 I1Cent=   200000004 NGrid=           0
         NMat0=    1 NMatS0=      1 NMatT0=    0 NMatD0=    1 NMtDS0=    0 NMtDT0=    0
 Petite list used in FoFCou.
 Requested convergence on RMS density matrix=1.00D-08 within 128 cycles.
 Requested convergence on MAX density matrix=1.00D-06.
 Requested convergence on             energy=1.00D-06.
 No special actions if energy rises.
 Integral accuracy reduced to 1.0D-05 until final iterations.
