 Entering Gaussian System, Link 0=g09
 Initial command:
 /global/software/gaussian/g09.e01/l1.exe "/scratch/10451472.yak.local/Gau-28386.inp" -scrdir="/scratch/10451472.yak.local/"
 Entering Link 1 = /global/software/gaussian/g09.e01/l1.exe PID=     28387.
  
 Copyright (c) 1988,1990,1992,1993,1995,1998,2003,2009,2015,
            Gaussian, Inc.  All Rights Reserved.
  
 This is part of the Gaussian(R) 09 program.  It is based on
 the Gaussian(R) 03 system (copyright 2003, Gaussian, Inc.),
 the Gaussian(R) 98 system (copyright 1998, Gaussian, Inc.),
 the Gaussian(R) 94 system (copyright 1995, Gaussian, Inc.),
 the Gaussian 92(TM) system (copyright 1992, Gaussian, Inc.),
 the Gaussian 90(TM) system (copyright 1990, Gaussian, Inc.),
 the Gaussian 88(TM) system (copyright 1988, Gaussian, Inc.),
 the Gaussian 86(TM) system (copyright 1986, Carnegie Mellon
 University), and the Gaussian 82(TM) system (copyright 1983,
 Carnegie Mellon University). Gaussian is a federally registered
 trademark of Gaussian, Inc.
  
 This software contains proprietary and confidential information,
 including trade secrets, belonging to Gaussian, Inc.
  
 This software is provided under written license and may be
 used, copied, transmitted, or stored only in accord with that
 written license.
  
 The following legend is applicable only to US Government
 contracts under FAR:
  
                    RESTRICTED RIGHTS LEGEND
  
 Use, reproduction and disclosure by the US Government is
 subject to restrictions as set forth in subparagraphs (a)
 and (c) of the Commercial Computer Software - Restricted
 Rights clause in FAR 52.227-19.
  
 Gaussian, Inc.
 340 Quinnipiac St., Bldg. 40, Wallingford CT 06492
  
  
 ---------------------------------------------------------------
 Warning -- This program may not be used in any manner that
 competes with the business of Gaussian, Inc. or will provide
 assistance to any competitor of Gaussian, Inc.  The licensee
 of this program is prohibited from giving any competitor of
 Gaussian, Inc. access to this program.  By using this program,
 the user acknowledges that Gaussian, Inc. is engaged in the
 business of creating and licensing software in the field of
 computational chemistry and represents and warrants to the
 licensee that it is not a competitor of Gaussian, Inc. and that
 it will not use this program in any manner prohibited above.
 ---------------------------------------------------------------
  

 Cite this work as:
 Gaussian 09, Revision E.01,
 M. J. Frisch, G. W. Trucks, H. B. Schlegel, G. E. Scuseria, 
 M. A. Robb, J. R. Cheeseman, G. Scalmani, V. Barone, B. Mennucci, 
 G. A. Petersson, H. Nakatsuji, M. Caricato, X. Li, H. P. Hratchian, 
 A. F. Izmaylov, J. Bloino, G. Zheng, J. L. Sonnenberg, M. Hada, 
 M. Ehara, K. Toyota, R. Fukuda, J. Hasegawa, M. Ishida, T. Nakajima, 
 Y. Honda, O. Kitao, H. Nakai, T. Vreven, J. A. Montgomery, Jr., 
 J. E. Peralta, F. Ogliaro, M. Bearpark, J. J. Heyd, E. Brothers, 
 K. N. Kudin, V. N. Staroverov, T. Keith, R. Kobayashi, J. Normand, 
 K. Raghavachari, A. Rendell, J. C. Burant, S. S. Iyengar, J. Tomasi, 
 M. Cossi, N. Rega, J. M. Millam, M. Klene, J. E. Knox, J. B. Cross, 
 V. Bakken, C. Adamo, J. Jaramillo, R. Gomperts, R. E. Stratmann, 
 O. Yazyev, A. J. Austin, R. Cammi, C. Pomelli, J. W. Ochterski, 
 R. L. Martin, K. Morokuma, V. G. Zakrzewski, G. A. Voth, 
 P. Salvador, J. J. Dannenberg, S. Dapprich, A. D. Daniels, 
 O. Farkas, J. B. Foresman, J. V. Ortiz, J. Cioslowski, 
 and D. J. Fox, Gaussian, Inc., Wallingford CT, 2013.
 
 ******************************************
 Gaussian 09:  ES64L-G09RevE.01 30-Nov-2015
                11-Jan-2017 
 ******************************************
 %NPROCS=4
 Will use up to    4 processors via shared memory.
 ---------------------------------------------------------
 # opt=maxcycle=1000 freq b3lyp/6-31g(d) geom=connectivity
 ---------------------------------------------------------
 1/6=1000,14=-1,18=20,19=15,26=3,38=1,57=2/1,3;
 2/9=110,12=2,17=6,18=5,40=1/2;
 3/5=1,6=6,7=1,11=2,16=1,25=1,30=1,71=1,74=-5/1,2,3;
 4//1;
 5/5=2,38=5/2;
 6/7=2,8=2,9=2,10=2,28=1/1;
 7//1,2,3,16;
 1/6=1000,14=-1,18=20,19=15,26=3/3(2);
 2/9=110/2;
 99//99;
 2/9=110/2;
 3/5=1,6=6,7=1,11=2,16=1,25=1,30=1,71=1,74=-5/1,2,3;
 4/5=5,16=3,69=1/1;
 5/5=2,38=5/2;
 7//1,2,3,16;
 1/6=1000,14=-1,18=20,19=15,26=3/3(-5);
 2/9=110/2;
 6/7=2,8=2,9=2,10=2,19=2,28=1/1;
 99/9=1/99;
 -------------------------
 boat5_Alpha_B3LYP_6-31G_d
 -------------------------
 Symbolic Z-matrix:
 Charge =  0 Multiplicity = 1
 O                    -0.13418  -1.41676  -1.07458 
 C                    -0.46059  -0.0233    1.05039 
 C                     1.29061   0.77391  -0.58771 
 C                     0.21908   1.19207   0.43193 
 C                     1.47022  -0.6867   -0.82699 
 C                    -1.04763  -0.92667  -0.03055 
 H                     0.70935   1.75001   1.2394 
 H                    -1.35822  -1.87147   0.43142 
 H                    -1.29891   0.34143   1.65583 
 H                     1.03472   1.24278  -1.54735 
 C                    -2.22374  -0.35729  -0.8275 
 H                    -2.66652  -1.13766  -1.45745 
 H                    -1.8977    0.42542  -1.51882 
 O                    -3.23207   0.1728    0.02419 
 H                    -3.71199  -0.58253   0.40955 
 O                     2.58905   1.2717   -0.24602 
 H                     3.06477   0.54043   0.1872 
 O                    -0.6871    2.11615  -0.17616 
 H                    -1.468     2.20543   0.40313 
 O                     0.35593  -0.71679   1.99192 
 H                    -0.15597  -1.48059   2.33917 
 H                     2.05612  -0.86235  -1.737 
 O                     2.1257   -1.39898   0.21999 
 H                     0.88307  -3.59634   0.71184 
 O                     0.16982  -3.63185  -0.25399 
 H                    -0.6468   -4.03479   0.04992 
 H                    -0.12043  -2.55826  -0.70472 
 O                     1.88356  -3.33085   1.3189 
 H                     2.62165  -3.90086   1.54675 
 H                     2.42744  -2.31563   0.94507 
 
 Add virtual bond connecting atoms H27        and O25        Dist= 2.27D+00.
 Add virtual bond connecting atoms H27        and O1         Dist= 2.27D+00.
 Add virtual bond connecting atoms O28        and H24        Dist= 2.27D+00.
 Add virtual bond connecting atoms O25        and H24        Dist= 2.27D+00.
 Add virtual bond connecting atoms H30        and O23        Dist= 2.28D+00.
 Add virtual bond connecting atoms H30        and O28        Dist= 2.29D+00.

 GradGradGradGradGradGradGradGradGradGradGradGradGradGradGradGradGradGrad
 Berny optimization.
 Initialization pass.
                           ----------------------------
                           !    Initial Parameters    !
                           ! (Angstroms and Degrees)  !
 --------------------------                            --------------------------
 ! Name  Definition              Value          Derivative Info.                !
 --------------------------------------------------------------------------------
 ! R1    R(1,6)                  1.4713         estimate D2E/DX2                !
 ! R2    R(1,27)                 1.2            estimate D2E/DX2                !
 ! R3    R(2,4)                  1.5237         estimate D2E/DX2                !
 ! R4    R(2,6)                  1.5261         estimate D2E/DX2                !
 ! R5    R(2,9)                  1.0965         estimate D2E/DX2                !
 ! R6    R(2,20)                 1.4262         estimate D2E/DX2                !
 ! R7    R(3,4)                  1.5371         estimate D2E/DX2                !
 ! R8    R(3,5)                  1.4909         estimate D2E/DX2                !
 ! R9    R(3,10)                 1.0983         estimate D2E/DX2                !
 ! R10   R(3,16)                 1.432          estimate D2E/DX2                !
 ! R11   R(4,7)                  1.0971         estimate D2E/DX2                !
 ! R12   R(4,18)                 1.43           estimate D2E/DX2                !
 ! R13   R(5,22)                 1.0965         estimate D2E/DX2                !
 ! R14   R(5,23)                 1.4259         estimate D2E/DX2                !
 ! R15   R(6,8)                  1.0966         estimate D2E/DX2                !
 ! R16   R(6,11)                 1.5305         estimate D2E/DX2                !
 ! R17   R(11,12)                1.0963         estimate D2E/DX2                !
 ! R18   R(11,13)                1.094          estimate D2E/DX2                !
 ! R19   R(11,14)                1.4224         estimate D2E/DX2                !
 ! R20   R(14,15)                0.9743         estimate D2E/DX2                !
 ! R21   R(16,17)                0.974          estimate D2E/DX2                !
 ! R22   R(18,19)                0.9764         estimate D2E/DX2                !
 ! R23   R(20,21)                0.9829         estimate D2E/DX2                !
 ! R24   R(23,30)                1.2071         estimate D2E/DX2                !
 ! R25   R(24,25)                1.2012         estimate D2E/DX2                !
 ! R26   R(24,28)                1.2            estimate D2E/DX2                !
 ! R27   R(25,26)                0.96           estimate D2E/DX2                !
 ! R28   R(25,27)                1.2            estimate D2E/DX2                !
 ! R29   R(28,29)                0.96           estimate D2E/DX2                !
 ! R30   R(28,30)                1.2109         estimate D2E/DX2                !
 ! A1    A(6,1,27)              96.0424         estimate D2E/DX2                !
 ! A2    A(4,2,6)              110.8702         estimate D2E/DX2                !
 ! A3    A(4,2,9)              107.4476         estimate D2E/DX2                !
 ! A4    A(4,2,20)             113.6055         estimate D2E/DX2                !
 ! A5    A(6,2,9)              107.0904         estimate D2E/DX2                !
 ! A6    A(6,2,20)             113.5763         estimate D2E/DX2                !
 ! A7    A(9,2,20)             103.5873         estimate D2E/DX2                !
 ! A8    A(4,3,5)              117.1905         estimate D2E/DX2                !
 ! A9    A(4,3,10)             107.5211         estimate D2E/DX2                !
 ! A10   A(4,3,16)             112.2872         estimate D2E/DX2                !
 ! A11   A(5,3,10)             107.8224         estimate D2E/DX2                !
 ! A12   A(5,3,16)             105.6412         estimate D2E/DX2                !
 ! A13   A(10,3,16)            105.7449         estimate D2E/DX2                !
 ! A14   A(2,4,3)              111.2979         estimate D2E/DX2                !
 ! A15   A(2,4,7)              107.8332         estimate D2E/DX2                !
 ! A16   A(2,4,18)             113.9155         estimate D2E/DX2                !
 ! A17   A(3,4,7)              108.3642         estimate D2E/DX2                !
 ! A18   A(3,4,18)             109.6013         estimate D2E/DX2                !
 ! A19   A(7,4,18)             105.5166         estimate D2E/DX2                !
 ! A20   A(3,5,22)             110.7632         estimate D2E/DX2                !
 ! A21   A(3,5,23)             115.2721         estimate D2E/DX2                !
 ! A22   A(22,5,23)            106.4835         estimate D2E/DX2                !
 ! A23   A(1,6,2)              117.4499         estimate D2E/DX2                !
 ! A24   A(1,6,8)              100.824          estimate D2E/DX2                !
 ! A25   A(1,6,11)             103.3859         estimate D2E/DX2                !
 ! A26   A(2,6,8)              108.697          estimate D2E/DX2                !
 ! A27   A(2,6,11)             116.3707         estimate D2E/DX2                !
 ! A28   A(8,6,11)             108.7973         estimate D2E/DX2                !
 ! A29   A(6,11,12)            110.167          estimate D2E/DX2                !
 ! A30   A(6,11,13)            111.4803         estimate D2E/DX2                !
 ! A31   A(6,11,14)            111.8148         estimate D2E/DX2                !
 ! A32   A(12,11,13)           105.458          estimate D2E/DX2                !
 ! A33   A(12,11,14)           108.8465         estimate D2E/DX2                !
 ! A34   A(13,11,14)           108.8454         estimate D2E/DX2                !
 ! A35   A(11,14,15)           107.283          estimate D2E/DX2                !
 ! A36   A(3,16,17)            106.7384         estimate D2E/DX2                !
 ! A37   A(4,18,19)            108.2774         estimate D2E/DX2                !
 ! A38   A(2,20,21)            108.236          estimate D2E/DX2                !
 ! A39   A(5,23,30)            159.2809         estimate D2E/DX2                !
 ! A40   A(25,24,28)           155.2821         estimate D2E/DX2                !
 ! A41   A(24,25,26)           105.246          estimate D2E/DX2                !
 ! A42   A(24,25,27)           114.7839         estimate D2E/DX2                !
 ! A43   A(26,25,27)           106.7782         estimate D2E/DX2                !
 ! A44   A(24,28,29)           129.0296         estimate D2E/DX2                !
 ! A45   A(24,28,30)           113.8159         estimate D2E/DX2                !
 ! A46   A(29,28,30)           103.0472         estimate D2E/DX2                !
 ! A47   A(23,30,28)           135.2234         estimate D2E/DX2                !
 ! A48   L(1,27,25,8,-1)       185.4988         estimate D2E/DX2                !
 ! A49   L(1,27,25,8,-2)       193.3988         estimate D2E/DX2                !
 ! D1    D(27,1,6,2)           109.3111         estimate D2E/DX2                !
 ! D2    D(27,1,6,8)            -8.5346         estimate D2E/DX2                !
 ! D3    D(27,1,6,11)         -121.0368         estimate D2E/DX2                !
 ! D4    D(6,1,25,24)          -73.9422         estimate D2E/DX2                !
 ! D5    D(6,1,25,26)           42.6881         estimate D2E/DX2                !
 ! D6    D(6,2,4,3)            -55.5781         estimate D2E/DX2                !
 ! D7    D(6,2,4,7)           -174.3048         estimate D2E/DX2                !
 ! D8    D(6,2,4,18)            68.9466         estimate D2E/DX2                !
 ! D9    D(9,2,4,3)           -172.2906         estimate D2E/DX2                !
 ! D10   D(9,2,4,7)             68.9827         estimate D2E/DX2                !
 ! D11   D(9,2,4,18)           -47.7659         estimate D2E/DX2                !
 ! D12   D(20,2,4,3)            73.7499         estimate D2E/DX2                !
 ! D13   D(20,2,4,7)           -44.9768         estimate D2E/DX2                !
 ! D14   D(20,2,4,18)         -161.7254         estimate D2E/DX2                !
 ! D15   D(4,2,6,1)             56.0147         estimate D2E/DX2                !
 ! D16   D(4,2,6,8)            169.5432         estimate D2E/DX2                !
 ! D17   D(4,2,6,11)           -67.2638         estimate D2E/DX2                !
 ! D18   D(9,2,6,1)            172.9468         estimate D2E/DX2                !
 ! D19   D(9,2,6,8)            -73.5247         estimate D2E/DX2                !
 ! D20   D(9,2,6,11)            49.6683         estimate D2E/DX2                !
 ! D21   D(20,2,6,1)           -73.3288         estimate D2E/DX2                !
 ! D22   D(20,2,6,8)            40.1996         estimate D2E/DX2                !
 ! D23   D(20,2,6,11)          163.3927         estimate D2E/DX2                !
 ! D24   D(4,2,20,21)          180.0            estimate D2E/DX2                !
 ! D25   D(6,2,20,21)          -52.0554         estimate D2E/DX2                !
 ! D26   D(9,2,20,21)           63.7522         estimate D2E/DX2                !
 ! D27   D(5,3,4,2)              1.3124         estimate D2E/DX2                !
 ! D28   D(5,3,4,7)            119.7204         estimate D2E/DX2                !
 ! D29   D(5,3,4,18)          -125.6073         estimate D2E/DX2                !
 ! D30   D(10,3,4,2)           122.8473         estimate D2E/DX2                !
 ! D31   D(10,3,4,7)          -118.7447         estimate D2E/DX2                !
 ! D32   D(10,3,4,18)           -4.0724         estimate D2E/DX2                !
 ! D33   D(16,3,4,2)          -121.2446         estimate D2E/DX2                !
 ! D34   D(16,3,4,7)            -2.8367         estimate D2E/DX2                !
 ! D35   D(16,3,4,18)          111.8356         estimate D2E/DX2                !
 ! D36   D(4,3,5,22)           165.3359         estimate D2E/DX2                !
 ! D37   D(4,3,5,23)           -73.6966         estimate D2E/DX2                !
 ! D38   D(10,3,5,22)           43.9579         estimate D2E/DX2                !
 ! D39   D(10,3,5,23)          164.9254         estimate D2E/DX2                !
 ! D40   D(16,3,5,22)          -68.7484         estimate D2E/DX2                !
 ! D41   D(16,3,5,23)           52.2191         estimate D2E/DX2                !
 ! D42   D(4,3,16,17)           99.12           estimate D2E/DX2                !
 ! D43   D(5,3,16,17)          -29.7526         estimate D2E/DX2                !
 ! D44   D(10,3,16,17)        -143.9049         estimate D2E/DX2                !
 ! D45   D(2,4,18,19)           41.3336         estimate D2E/DX2                !
 ! D46   D(3,4,18,19)          166.7626         estimate D2E/DX2                !
 ! D47   D(7,4,18,19)          -76.7528         estimate D2E/DX2                !
 ! D48   D(3,5,23,30)          150.4651         estimate D2E/DX2                !
 ! D49   D(22,5,23,30)         -86.2691         estimate D2E/DX2                !
 ! D50   D(1,6,11,12)           58.7358         estimate D2E/DX2                !
 ! D51   D(1,6,11,13)          -57.9862         estimate D2E/DX2                !
 ! D52   D(1,6,11,14)          179.9129         estimate D2E/DX2                !
 ! D53   D(2,6,11,12)         -170.9589         estimate D2E/DX2                !
 ! D54   D(2,6,11,13)           72.3192         estimate D2E/DX2                !
 ! D55   D(2,6,11,14)          -49.7818         estimate D2E/DX2                !
 ! D56   D(8,6,11,12)          -47.8179         estimate D2E/DX2                !
 ! D57   D(8,6,11,13)         -164.5398         estimate D2E/DX2                !
 ! D58   D(8,6,11,14)           73.3592         estimate D2E/DX2                !
 ! D59   D(6,11,14,15)         -75.2143         estimate D2E/DX2                !
 ! D60   D(12,11,14,15)         46.7245         estimate D2E/DX2                !
 ! D61   D(13,11,14,15)        161.1862         estimate D2E/DX2                !
 ! D62   D(5,23,30,28)         -25.4977         estimate D2E/DX2                !
 ! D63   D(28,24,25,26)       -177.5722         estimate D2E/DX2                !
 ! D64   D(28,24,25,27)        -60.4817         estimate D2E/DX2                !
 ! D65   D(25,24,28,29)       -100.2484         estimate D2E/DX2                !
 ! D66   D(25,24,28,30)         32.242          estimate D2E/DX2                !
 ! D67   D(24,28,30,23)         11.7222         estimate D2E/DX2                !
 ! D68   D(29,28,30,23)        155.7071         estimate D2E/DX2                !
 --------------------------------------------------------------------------------
 Trust Radius=3.00D-01 FncErr=1.00D-07 GrdErr=1.00D-06
 Number of steps in this run=    180 maximum allowed number of steps=    180.
 GradGradGradGradGradGradGradGradGradGradGradGradGradGradGradGradGradGrad

                          Input orientation:                          
 ---------------------------------------------------------------------
 Center     Atomic      Atomic             Coordinates (Angstroms)
 Number     Number       Type             X           Y           Z
 ---------------------------------------------------------------------
      1          8           0       -0.134179   -1.416760   -1.074580
      2          6           0       -0.460586   -0.023297    1.050390
      3          6           0        1.290608    0.773912   -0.587710
      4          6           0        0.219084    1.192073    0.431930
      5          6           0        1.470224   -0.686701   -0.826985
      6          6           0       -1.047625   -0.926668   -0.030545
      7          1           0        0.709349    1.750014    1.239399
      8          1           0       -1.358221   -1.871468    0.431419
      9          1           0       -1.298905    0.341429    1.655826
     10          1           0        1.034723    1.242779   -1.547347
     11          6           0       -2.223738   -0.357293   -0.827497
     12          1           0       -2.666520   -1.137662   -1.457447
     13          1           0       -1.897696    0.425422   -1.518824
     14          8           0       -3.232070    0.172799    0.024187
     15          1           0       -3.711993   -0.582534    0.409546
     16          8           0        2.589051    1.271700   -0.246018
     17          1           0        3.064768    0.540426    0.187198
     18          8           0       -0.687100    2.116154   -0.176156
     19          1           0       -1.468002    2.205432    0.403131
     20          8           0        0.355928   -0.716785    1.991920
     21          1           0       -0.155970   -1.480588    2.339167
     22          1           0        2.056121   -0.862353   -1.737002
     23          8           0        2.125696   -1.398983    0.219990
     24          1           0        0.883065   -3.596342    0.711844
     25          8           0        0.169825   -3.631847   -0.253991
     26          1           0       -0.646800   -4.034790    0.049918
     27          1           0       -0.120431   -2.558256   -0.704717
     28          8           0        1.883562   -3.330850    1.318902
     29          1           0        2.621653   -3.900858    1.546746
     30          1           0        2.427441   -2.315629    0.945070
 ---------------------------------------------------------------------
                    Distance matrix (angstroms):
                    1          2          3          4          5
     1  O    0.000000
     2  C    2.561987   0.000000
     3  C    2.658215   2.526973   0.000000
     4  C    3.033212   1.523669   1.537104   0.000000
     5  C    1.780000   2.773566   1.490941   2.584572   0.000000
     6  C    1.471252   1.526144   2.944442   2.511473   2.651691
     7  H    4.011795   2.132863   2.151503   1.097116   3.284274
     8  H    1.993256   2.145835   3.879814   3.445747   3.314718
     9  H    3.450063   1.096520   3.453415   2.127394   3.858689
    10  H    2.943296   3.253788   1.098279   2.141349   2.105107
    11  C    2.355796   2.597444   3.699696   3.155007   3.708621
    12  H    2.576283   3.520966   4.479891   4.162225   4.208741
    13  H    2.588625   2.977834   3.339716   2.978918   3.613633
    14  O    3.651152   2.961869   4.603300   3.621552   4.855389
    15  H    3.962236   3.360815   5.278303   4.313131   5.328718
    16  O    3.915395   3.557805   1.431957   2.466313   2.329084
    17  H    3.956757   3.673010   1.950036   2.929583   2.253215
    18  O    3.687054   2.476484   2.425349   1.429987   3.596335
    19  H    4.133157   2.530032   3.262046   1.968244   4.302417
    20  O    3.183330   1.426219   3.122546   2.469015   3.031301
    21  H    3.414413   1.969120   3.967614   3.304744   3.646818
    22  H    2.354482   3.848036   2.141085   3.507084   1.096476
    23  O    2.604470   3.044820   2.463985   3.223920   1.425884
    24  H    2.996110   3.832318   4.577560   4.842328   3.343465
    25  O    2.381679   3.888503   4.558315   4.872691   3.270053
    26  H    2.895057   4.138562   5.223383   5.311853   4.057148
    27  H    1.200000   3.101954   3.620506   3.933472   2.459238
    28  O    3.669302   4.062885   4.564629   4.900412   3.430336
    29  H    4.542764   4.978157   5.308583   5.740479   4.158268
    30  H    3.383614   3.688709   3.631400   4.176616   2.590337
                    6          7          8          9         10
     6  C    0.000000
     7  H    3.444465   0.000000
     8  H    1.096598   4.247683   0.000000
     9  H    2.124867   2.488093   2.529744   0.000000
    10  H    3.367991   2.851159   4.397753   4.064304   0.000000
    11  C    1.530543   4.161226   2.150980   2.740515   3.700808
    12  H    2.168269   5.196936   2.412039   3.708173   4.401566
    13  H    2.183058   4.019829   3.061076   3.231719   3.044334
    14  O    2.446145   4.415782   2.802887   2.535312   4.671199
    15  H    2.722309   5.067317   2.683668   2.868783   5.449083
    16  O    4.254957   2.443057   5.091108   4.427032   2.027370
    17  H    4.371676   2.849250   5.043779   4.608482   2.760984
    18  O    3.067564   2.021862   4.089093   2.622997   2.368042
    19  H    3.189803   2.376469   4.078476   2.252187   3.315825
    20  O    2.470704   2.603131   2.589742   1.992799   4.102081
    21  H    2.591797   3.520661   2.288602   2.256768   4.892797
    22  H    3.542509   4.182968   4.168704   4.921034   2.347510
    23  O    3.218045   3.600197   3.522162   4.101043   3.360448
    24  H    3.377257   5.375129   2.842040   4.599798   5.342662
    25  O    2.974912   5.611214   2.429742   4.646664   5.116913
    26  H    3.134893   6.059534   2.309031   4.706960   5.764677
    27  H    1.994060   4.798886   1.815105   3.920349   4.061068
    28  O    4.024047   5.215389   3.664230   4.871062   5.463881
    29  H    4.979684   5.973585   4.604539   5.777514   6.208764
    30  H    3.867443   4.423564   3.846082   4.631499   4.562244
                   11         12         13         14         15
    11  C    0.000000
    12  H    1.096298   0.000000
    13  H    1.094020   1.743011   0.000000
    14  O    1.422356   2.057278   2.055543   0.000000
    15  H    1.948310   2.210621   2.833065   0.974349   0.000000
    16  O    5.114164   5.907082   4.739949   5.930096   6.600841
    17  H    5.459286   6.194231   5.248789   6.309666   6.872770
    18  O    2.983864   4.018349   2.475252   3.208370   4.095844
    19  H    2.941622   4.009298   2.654616   2.717928   3.578867
    20  O    3.838362   4.605482   4.325365   4.187728   4.366911
    21  H    3.945278   4.564508   4.642260   4.189894   4.144302
    22  H    4.404484   4.738912   4.163969   5.669065   6.160934
    23  O    4.593465   5.084036   4.747590   5.586993   5.897553
    24  H    4.744811   4.832234   5.374300   5.622600   5.503543
    25  O    4.096432   3.964103   4.726084   5.111321   4.980672
    26  H    4.096410   3.839891   4.890724   4.938429   4.630638
    27  H    3.046836   3.011189   3.567040   4.203838   4.247867
    28  O    5.506268   5.763804   6.038227   6.334156   6.300032
    29  H    6.455362   6.680210   6.966989   7.292389   7.240136
    30  H    5.348881   5.753966   5.682511   6.250628   6.401800
                   16         17         18         19         20
    16  O    0.000000
    17  H    0.974035   0.000000
    18  O    3.383955   4.085518   0.000000
    19  H    4.213422   4.833723   0.976397   0.000000
    20  O    3.734873   3.489328   3.716720   3.793458   0.000000
    21  H    4.668341   4.369052   4.421029   4.365364   0.982860
    22  H    2.657297   2.586059   4.339701   5.139155   4.100818
    23  O    2.750347   2.155049   4.519396   5.093134   2.595614
    24  H    5.246496   4.706159   5.990540   6.267647   3.195046
    25  O    5.467860   5.097372   5.812047   6.098205   3.684608
    26  H    6.222310   5.892977   6.155229   6.303927   3.973158
    27  H    4.713837   4.532420   4.738206   5.073065   3.299967
    28  O    4.912246   4.202711   6.205913   6.536210   3.101605
    29  H    5.474524   4.665803   7.079595   7.437736   3.933193
    30  H    3.783350   3.022846   5.531565   5.992342   2.818397
                   21         22         23         24         25
    21  H    0.000000
    22  H    4.678751   0.000000
    23  O    3.115055   2.030426   0.000000
    24  H    2.864296   3.853259   2.571855   0.000000
    25  O    3.385044   3.664360   3.005956   1.201170   0.000000
    26  H    3.464898   4.534669   3.829248   1.723621   0.960000
    27  H    3.229219   2.946028   2.691484   2.022689   1.200000
    28  O    2.936682   3.932151   2.235699   1.200000   2.345525
    29  H    3.768398   4.509472   2.875001   1.952557   3.053929
    30  H    3.052017   3.073011   1.207075   2.019831   2.875240
                   26         27         28         29         30
    26  H    0.000000
    27  H    1.739739   0.000000
    28  O    2.916948   2.950920   0.000000
    29  H    3.597391   3.793507   0.960000   0.000000
    30  H    3.634249   3.045048   1.210880   1.706659   0.000000
 Stoichiometry    C6H16O8
 Framework group  C1[X(C6H16O8)]
 Deg. of freedom    84
 Full point group                 C1      NOp   1
 Largest Abelian subgroup         C1      NOp   1
 Largest concise Abelian subgroup C1      NOp   1
                         Standard orientation:                         
 ---------------------------------------------------------------------
 Center     Atomic      Atomic             Coordinates (Angstroms)
 Number     Number       Type             X           Y           Z
 ---------------------------------------------------------------------
      1          8           0        0.213910   -0.748549   -1.235805
      2          6           0       -0.726844   -0.070755    1.048786
      3          6           0       -0.341014    1.779237   -0.628790
      4          6           0       -1.230311    1.264325    0.514322
      5          6           0        0.804976    0.919090   -1.040808
      6          6           0       -0.617150   -1.099152   -0.073480
      7          1           0       -1.192658    1.990761    1.335624
      8          1           0       -0.080955   -1.977375    0.305659
      9          1           0       -1.475887   -0.445023    1.756751
     10          1           0       -0.983726    1.926341   -1.507139
     11          6           0       -1.933247   -1.559440   -0.704817
     12          1           0       -1.753717   -2.405444   -1.378550
     13          1           0       -2.372838   -0.776812   -1.330222
     14          8           0       -2.883575   -1.949242    0.279067
     15          1           0       -2.609468   -2.821076    0.616891
     16          8           0        0.223850    3.063264   -0.341209
     17          1           0        1.133748    2.906358   -0.031030
     18          8           0       -2.594772    1.240331    0.087083
     19          1           0       -3.109191    0.720788    0.734230
     20          8           0        0.455340    0.039593    1.838953
     21          1           0        0.708765   -0.860820    2.140692
     22          1           0        1.205036    1.242203   -2.009214
     23          8           0        1.906093    0.897159   -0.135156
     24          1           0        2.721986   -1.517040    0.211831
     25          8           0        2.133900   -2.048189   -0.690857
     26          1           0        1.914102   -2.925016   -0.367650
     27          1           0        1.099425   -1.522044   -0.995871
     28          8           0        3.289339   -0.613427    0.761007
     29          1           0        4.232218   -0.465277    0.864115
     30          1           0        2.872017    0.482119    0.457939
 ---------------------------------------------------------------------
 Rotational constants (GHZ):      0.7721228      0.5832827      0.4220877
 Standard basis: 6-31G(d) (6D, 7F)
 There are   242 symmetry adapted cartesian basis functions of A   symmetry.
 There are   242 symmetry adapted basis functions of A   symmetry.
   242 basis functions,   456 primitive gaussians,   242 cartesian basis functions
    58 alpha electrons       58 beta electrons
       nuclear repulsion energy      1137.8109773748 Hartrees.
 NAtoms=   30 NActive=   30 NUniq=   30 SFac= 1.00D+00 NAtFMM=   60 NAOKFM=F Big=F
 Integral buffers will be    131072 words long.
 Raffenetti 2 integral format.
 Two-electron integral symmetry is turned on.
 One-electron integrals computed using PRISM.
 NBasis=   242 RedAO= T EigKep=  1.34D-03  NBF=   242
 NBsUse=   242 1.00D-06 EigRej= -1.00D+00 NBFU=   242
 ExpMin= 1.61D-01 ExpMax= 5.48D+03 ExpMxC= 8.25D+02 IAcc=1 IRadAn=         1 AccDes= 0.00D+00
 Harris functional with IExCor=  402 and IRadAn=       1 diagonalized for initial guess.
 HarFok:  IExCor=  402 AccDes= 0.00D+00 IRadAn=         1 IDoV= 1 UseB2=F ITyADJ=14
 ICtDFT=  3500011 ScaDFX=  1.000000  1.000000  1.000000  1.000000
 FoFCou: FMM=F IPFlag=           0 FMFlag=      100000 FMFlg1=           0
         NFxFlg=           0 DoJE=T BraDBF=F KetDBF=T FulRan=T
         wScrn=  0.000000 ICntrl=     500 IOpCl=  0 I1Cent=   200000004 NGrid=           0
         NMat0=    1 NMatS0=      1 NMatT0=    0 NMatD0=    1 NMtDS0=    0 NMtDT0=    0
 Petite list used in FoFCou.
 Requested convergence on RMS density matrix=1.00D-08 within 128 cycles.
 Requested convergence on MAX density matrix=1.00D-06.
 Requested convergence on             energy=1.00D-06.
 No special actions if energy rises.
 Integral accuracy reduced to 1.0D-05 until final iterations.
 Initial convergence to 1.0D-05 achieved.  Increase integral accuracy.
 SCF Done:  E(RB3LYP) =  -839.851039461     A.U. after   15 cycles
            NFock= 15  Conv=0.57D-08     -V/T= 2.0087

 **********************************************************************

            Population analysis using the SCF density.

 **********************************************************************

 Orbital symmetries:
       Occupied  (A) (A) (A) (A) (A) (A) (A) (A) (A) (A) (A) (A)
                 (A) (A) (A) (A) (A) (A) (A) (A) (A) (A) (A) (A)
                 (A) (A) (A) (A) (A) (A) (A) (A) (A) (A) (A) (A)
                 (A) (A) (A) (A) (A) (A) (A) (A) (A) (A) (A) (A)
                 (A) (A) (A) (A) (A) (A) (A) (A) (A) (A)
       Virtual   (A) (A) (A) (A) (A) (A) (A) (A) (A) (A) (A) (A)
                 (A) (A) (A) (A) (A) (A) (A) (A) (A) (A) (A) (A)
                 (A) (A) (A) (A) (A) (A) (A) (A) (A) (A) (A) (A)
                 (A) (A) (A) (A) (A) (A) (A) (A) (A) (A) (A) (A)
                 (A) (A) (A) (A) (A) (A) (A) (A) (A) (A) (A) (A)
                 (A) (A) (A) (A) (A) (A) (A) (A) (A) (A) (A) (A)
                 (A) (A) (A) (A) (A) (A) (A) (A) (A) (A) (A) (A)
                 (A) (A) (A) (A) (A) (A) (A) (A) (A) (A) (A) (A)
                 (A) (A) (A) (A) (A) (A) (A) (A) (A) (A) (A) (A)
                 (A) (A) (A) (A) (A) (A) (A) (A) (A) (A) (A) (A)
                 (A) (A) (A) (A) (A) (A) (A) (A) (A) (A) (A) (A)
                 (A) (A) (A) (A) (A) (A) (A) (A) (A) (A) (A) (A)
                 (A) (A) (A) (A) (A) (A) (A) (A) (A) (A) (A) (A)
                 (A) (A) (A) (A) (A) (A) (A) (A) (A) (A) (A) (A)
                 (A) (A) (A) (A) (A) (A) (A) (A) (A) (A) (A) (A)
                 (A) (A) (A) (A)
 The electronic state is 1-A.
 Alpha  occ. eigenvalues --  -19.17908 -19.16270 -19.15340 -19.14938 -19.14295
 Alpha  occ. eigenvalues --  -19.13098 -19.12995 -19.08476 -10.29623 -10.25275
 Alpha  occ. eigenvalues --  -10.24455 -10.23935 -10.23490 -10.23445  -1.04705
 Alpha  occ. eigenvalues --   -1.03214  -1.02496  -1.01298  -1.00710  -1.00143
 Alpha  occ. eigenvalues --   -0.97666  -0.92227  -0.78155  -0.75331  -0.69565
 Alpha  occ. eigenvalues --   -0.65171  -0.62155  -0.56183  -0.55683  -0.54829
 Alpha  occ. eigenvalues --   -0.53525  -0.52048  -0.50385  -0.49838  -0.48962
 Alpha  occ. eigenvalues --   -0.46929  -0.46060  -0.44979  -0.43019  -0.42538
 Alpha  occ. eigenvalues --   -0.42097  -0.39859  -0.38667  -0.38203  -0.35655
 Alpha  occ. eigenvalues --   -0.34949  -0.33826  -0.33260  -0.32385  -0.31573
 Alpha  occ. eigenvalues --   -0.30806  -0.30078  -0.28301  -0.27466  -0.26625
 Alpha  occ. eigenvalues --   -0.25527  -0.23704  -0.21557
 Alpha virt. eigenvalues --    0.01161   0.03472   0.04827   0.07145   0.08501
 Alpha virt. eigenvalues --    0.08825   0.11119   0.12182   0.13056   0.13441
 Alpha virt. eigenvalues --    0.14921   0.16642   0.16809   0.17787   0.17997
 Alpha virt. eigenvalues --    0.19903   0.20869   0.21878   0.23271   0.24088
 Alpha virt. eigenvalues --    0.24852   0.26629   0.27290   0.29978   0.31258
 Alpha virt. eigenvalues --    0.32444   0.32987   0.36537   0.51039   0.53079
 Alpha virt. eigenvalues --    0.53467   0.55313   0.56468   0.57185   0.59845
 Alpha virt. eigenvalues --    0.60734   0.62211   0.63726   0.64531   0.65171
 Alpha virt. eigenvalues --    0.67203   0.68764   0.70450   0.71688   0.72361
 Alpha virt. eigenvalues --    0.73387   0.75958   0.78266   0.79583   0.80389
 Alpha virt. eigenvalues --    0.81694   0.82901   0.83760   0.85126   0.85406
 Alpha virt. eigenvalues --    0.86636   0.87800   0.88442   0.88872   0.89912
 Alpha virt. eigenvalues --    0.91083   0.92346   0.93339   0.94303   0.95127
 Alpha virt. eigenvalues --    0.96499   0.98318   1.00348   1.00927   1.02950
 Alpha virt. eigenvalues --    1.03221   1.04074   1.06372   1.07097   1.08796
 Alpha virt. eigenvalues --    1.10572   1.13794   1.13951   1.16874   1.18148
 Alpha virt. eigenvalues --    1.19588   1.21589   1.22889   1.25698   1.29391
 Alpha virt. eigenvalues --    1.29991   1.30758   1.33658   1.35904   1.36792
 Alpha virt. eigenvalues --    1.39633   1.41069   1.43198   1.45413   1.50005
 Alpha virt. eigenvalues --    1.50259   1.52539   1.55969   1.58742   1.59160
 Alpha virt. eigenvalues --    1.61661   1.64711   1.67991   1.69199   1.69965
 Alpha virt. eigenvalues --    1.71383   1.71948   1.73570   1.75845   1.76124
 Alpha virt. eigenvalues --    1.76611   1.77954   1.78483   1.80345   1.82733
 Alpha virt. eigenvalues --    1.84206   1.84541   1.86078   1.87276   1.88618
 Alpha virt. eigenvalues --    1.89666   1.90626   1.91629   1.93886   1.96578
 Alpha virt. eigenvalues --    2.00000   2.00496   2.02693   2.03631   2.04406
 Alpha virt. eigenvalues --    2.06210   2.07669   2.12813   2.13756   2.16659
 Alpha virt. eigenvalues --    2.19460   2.22880   2.23525   2.24716   2.27878
 Alpha virt. eigenvalues --    2.29861   2.31730   2.36131   2.39103   2.42352
 Alpha virt. eigenvalues --    2.43615   2.44290   2.44920   2.47507   2.49100
 Alpha virt. eigenvalues --    2.49727   2.50563   2.53649   2.54434   2.55007
 Alpha virt. eigenvalues --    2.60003   2.63486   2.67061   2.70626   2.73962
 Alpha virt. eigenvalues --    2.76781   2.81629   2.83910   2.85561   2.89310
 Alpha virt. eigenvalues --    2.90820   2.94430   2.98949   3.02765   3.13433
 Alpha virt. eigenvalues --    3.73187   3.75976   3.77695   3.83858   3.86073
 Alpha virt. eigenvalues --    3.91184   3.99294   4.17297   4.27458   4.31973
 Alpha virt. eigenvalues --    4.50101   4.61342   4.70824   4.96360
          Condensed to atoms (all electrons):
               1          2          3          4          5          6
     1  O    8.552387  -0.024204  -0.009378  -0.006920   0.085459   0.119389
     2  C   -0.024204   5.014810  -0.021077   0.277565  -0.002823   0.284888
     3  C   -0.009378  -0.021077   4.959453   0.262452   0.300962  -0.027554
     4  C   -0.006920   0.277565   0.262452   5.005681  -0.018508  -0.021032
     5  C    0.085459  -0.002823   0.300962  -0.018508   4.765868  -0.008883
     6  C    0.119389   0.284888  -0.027554  -0.021032  -0.008883   5.196769
     7  H   -0.000071  -0.048971  -0.050607   0.365990   0.002752   0.006699
     8  H   -0.052556  -0.048988   0.000596   0.005154   0.000994   0.330874
     9  H    0.002831   0.356161   0.006202  -0.047296   0.000382  -0.059398
    10  H    0.001466   0.004091   0.351857  -0.060864  -0.036836   0.000752
    11  C   -0.036041  -0.031450  -0.000391  -0.004952   0.001238   0.283496
    12  H    0.004328   0.005139  -0.000062  -0.000370  -0.000064  -0.042411
    13  H    0.003859  -0.008016  -0.000580   0.001043   0.000162  -0.038597
    14  O    0.001695  -0.004762   0.000012  -0.001584  -0.000005  -0.046737
    15  H   -0.000026  -0.001245   0.000005   0.000131  -0.000002  -0.001902
    16  O    0.000535   0.002651   0.270049  -0.046989  -0.030610   0.000088
    17  H    0.000518  -0.000404  -0.042118   0.000388  -0.006725   0.000044
    18  O   -0.000124  -0.025337  -0.033772   0.212647   0.001445  -0.004416
    19  H    0.000037  -0.004289   0.006134  -0.025837  -0.000234  -0.001779
    20  O    0.001210   0.183936   0.003498  -0.034596   0.001602  -0.033136
    21  H   -0.000266  -0.015156  -0.000401   0.005647  -0.000071  -0.006900
    22  H   -0.020459  -0.000063  -0.066702   0.006617   0.365566   0.001970
    23  O   -0.036052   0.007757  -0.044721  -0.003111   0.300416   0.001784
    24  H    0.003827  -0.000328   0.000058  -0.000008  -0.000476   0.000379
    25  O   -0.106909  -0.001524  -0.000036   0.000012   0.002481   0.002858
    26  H    0.004750   0.000143  -0.000001  -0.000001   0.000059  -0.000754
    27  H    0.118768   0.004100   0.000992  -0.000144  -0.005035  -0.012010
    28  O   -0.000611  -0.000028  -0.000151  -0.000008   0.004965  -0.000082
    29  H   -0.000012  -0.000003   0.000012   0.000000  -0.000182   0.000011
    30  H    0.001946  -0.000559   0.000392  -0.000040  -0.008630  -0.000045
               7          8          9         10         11         12
     1  O   -0.000071  -0.052556   0.002831   0.001466  -0.036041   0.004328
     2  C   -0.048971  -0.048988   0.356161   0.004091  -0.031450   0.005139
     3  C   -0.050607   0.000596   0.006202   0.351857  -0.000391  -0.000062
     4  C    0.365990   0.005154  -0.047296  -0.060864  -0.004952  -0.000370
     5  C    0.002752   0.000994   0.000382  -0.036836   0.001238  -0.000064
     6  C    0.006699   0.330874  -0.059398   0.000752   0.283496  -0.042411
     7  H    0.602743  -0.000240  -0.007181   0.004103   0.000166   0.000012
     8  H   -0.000240   0.722206  -0.001293   0.000039  -0.048291  -0.009918
     9  H   -0.007181  -0.001293   0.654710  -0.000337  -0.003415   0.000220
    10  H    0.004103   0.000039  -0.000337   0.604916   0.000120  -0.000001
    11  C    0.000166  -0.048291  -0.003415   0.000120   4.973985   0.353249
    12  H    0.000012  -0.009918   0.000220  -0.000001   0.353249   0.636603
    13  H    0.000154   0.005686   0.000015   0.001259   0.372398  -0.036721
    14  O   -0.000025   0.003452   0.015309  -0.000001   0.219662  -0.032470
    15  H   -0.000000   0.003519   0.000463   0.000000  -0.028139  -0.010050
    16  O    0.005575   0.000004  -0.000092  -0.043251   0.000005   0.000000
    17  H    0.000098   0.000004   0.000004   0.006957   0.000000  -0.000000
    18  O   -0.039748  -0.000063  -0.002420   0.005010   0.001908   0.000531
    19  H   -0.002361  -0.000062   0.009240  -0.000285  -0.000579   0.000096
    20  O    0.004108  -0.003061  -0.040188  -0.000025   0.003221  -0.000042
    21  H   -0.000275   0.008444  -0.005371   0.000012  -0.000027  -0.000010
    22  H   -0.000189  -0.000139   0.000006  -0.004200  -0.000017   0.000003
    23  O    0.000142  -0.000660   0.000011   0.003654   0.000060   0.000002
    24  H   -0.000001  -0.000789   0.000011  -0.000002   0.000063  -0.000005
    25  O    0.000000   0.021439  -0.000007   0.000001   0.000146   0.000060
    26  H   -0.000000   0.001498  -0.000004  -0.000000  -0.000043   0.000040
    27  H    0.000007  -0.011936  -0.000075  -0.000027  -0.001046   0.000670
    28  O    0.000000   0.000020  -0.000003   0.000002  -0.000001   0.000000
    29  H   -0.000000  -0.000003   0.000000  -0.000000   0.000000   0.000000
    30  H   -0.000003   0.000048   0.000014  -0.000026   0.000001  -0.000000
              13         14         15         16         17         18
     1  O    0.003859   0.001695  -0.000026   0.000535   0.000518  -0.000124
     2  C   -0.008016  -0.004762  -0.001245   0.002651  -0.000404  -0.025337
     3  C   -0.000580   0.000012   0.000005   0.270049  -0.042118  -0.033772
     4  C    0.001043  -0.001584   0.000131  -0.046989   0.000388   0.212647
     5  C    0.000162  -0.000005  -0.000002  -0.030610  -0.006725   0.001445
     6  C   -0.038597  -0.046737  -0.001902   0.000088   0.000044  -0.004416
     7  H    0.000154  -0.000025  -0.000000   0.005575   0.000098  -0.039748
     8  H    0.005686   0.003452   0.003519   0.000004   0.000004  -0.000063
     9  H    0.000015   0.015309   0.000463  -0.000092   0.000004  -0.002420
    10  H    0.001259  -0.000001   0.000000  -0.043251   0.006957   0.005010
    11  C    0.372398   0.219662  -0.028139   0.000005   0.000000   0.001908
    12  H   -0.036721  -0.032470  -0.010050   0.000000  -0.000000   0.000531
    13  H    0.521078  -0.030376   0.006564   0.000004   0.000000   0.013465
    14  O   -0.030376   8.253803   0.233808   0.000000  -0.000000  -0.001225
    15  H    0.006564   0.233808   0.406042  -0.000000   0.000000   0.000024
    16  O    0.000004   0.000000  -0.000000   8.273220   0.223640   0.001317
    17  H    0.000000  -0.000000   0.000000   0.223640   0.373499  -0.000066
    18  O    0.013465  -0.001225   0.000024   0.001317  -0.000066   8.278609
    19  H   -0.002290   0.006095  -0.000154  -0.000127   0.000012   0.231493
    20  O   -0.000025   0.000047  -0.000027  -0.000010   0.000420   0.001094
    21  H    0.000011   0.000036  -0.000013   0.000011  -0.000006  -0.000083
    22  H   -0.000062   0.000000  -0.000000   0.002152   0.001352  -0.000083
    23  O    0.000005   0.000000  -0.000000  -0.017294   0.039896   0.000006
    24  H   -0.000000  -0.000000   0.000000   0.000000  -0.000005   0.000000
    25  O   -0.000000   0.000001  -0.000003   0.000000   0.000002   0.000000
    26  H   -0.000002  -0.000003  -0.000002   0.000000  -0.000000  -0.000000
    27  H   -0.000019   0.000023   0.000004  -0.000010  -0.000024  -0.000010
    28  O    0.000000   0.000000   0.000000  -0.000001   0.000028  -0.000000
    29  H   -0.000000   0.000000  -0.000000   0.000001  -0.000019   0.000000
    30  H   -0.000000  -0.000000   0.000000  -0.000243   0.001051   0.000000
              19         20         21         22         23         24
     1  O    0.000037   0.001210  -0.000266  -0.020459  -0.036052   0.003827
     2  C   -0.004289   0.183936  -0.015156  -0.000063   0.007757  -0.000328
     3  C    0.006134   0.003498  -0.000401  -0.066702  -0.044721   0.000058
     4  C   -0.025837  -0.034596   0.005647   0.006617  -0.003111  -0.000008
     5  C   -0.000234   0.001602  -0.000071   0.365566   0.300416  -0.000476
     6  C   -0.001779  -0.033136  -0.006900   0.001970   0.001784   0.000379
     7  H   -0.002361   0.004108  -0.000275  -0.000189   0.000142  -0.000001
     8  H   -0.000062  -0.003061   0.008444  -0.000139  -0.000660  -0.000789
     9  H    0.009240  -0.040188  -0.005371   0.000006   0.000011   0.000011
    10  H   -0.000285  -0.000025   0.000012  -0.004200   0.003654  -0.000002
    11  C   -0.000579   0.003221  -0.000027  -0.000017   0.000060   0.000063
    12  H    0.000096  -0.000042  -0.000010   0.000003   0.000002  -0.000005
    13  H   -0.002290  -0.000025   0.000011  -0.000062   0.000005  -0.000000
    14  O    0.006095   0.000047   0.000036   0.000000   0.000000  -0.000000
    15  H   -0.000154  -0.000027  -0.000013  -0.000000  -0.000000   0.000000
    16  O   -0.000127  -0.000010   0.000011   0.002152  -0.017294   0.000000
    17  H    0.000012   0.000420  -0.000006   0.001352   0.039896  -0.000005
    18  O    0.231493   0.001094  -0.000083  -0.000083   0.000006   0.000000
    19  H    0.379695   0.000010  -0.000019   0.000008   0.000001  -0.000000
    20  O    0.000010   8.309462   0.220662  -0.000008  -0.016700   0.001950
    21  H   -0.000019   0.220662   0.403064   0.000010   0.002010   0.000749
    22  H    0.000008  -0.000008   0.000010   0.606375  -0.050601   0.000041
    23  O    0.000001  -0.016700   0.002010  -0.050601   8.522467   0.007123
    24  H   -0.000000   0.001950   0.000749   0.000041   0.007123   0.289972
    25  O    0.000000  -0.000084   0.000619  -0.000058  -0.002307   0.145223
    26  H   -0.000000  -0.000010  -0.000086  -0.000002   0.000231  -0.004106
    27  H   -0.000001  -0.000592  -0.000387   0.000078   0.005408  -0.008709
    28  O    0.000000  -0.000404   0.002927  -0.000102  -0.125060   0.113398
    29  H   -0.000000   0.000088  -0.000038   0.000021   0.007112  -0.002913
    30  H    0.000000   0.002840  -0.000610   0.000108   0.083218  -0.009555
              25         26         27         28         29         30
     1  O   -0.106909   0.004750   0.118768  -0.000611  -0.000012   0.001946
     2  C   -0.001524   0.000143   0.004100  -0.000028  -0.000003  -0.000559
     3  C   -0.000036  -0.000001   0.000992  -0.000151   0.000012   0.000392
     4  C    0.000012  -0.000001  -0.000144  -0.000008   0.000000  -0.000040
     5  C    0.002481   0.000059  -0.005035   0.004965  -0.000182  -0.008630
     6  C    0.002858  -0.000754  -0.012010  -0.000082   0.000011  -0.000045
     7  H    0.000000  -0.000000   0.000007   0.000000  -0.000000  -0.000003
     8  H    0.021439   0.001498  -0.011936   0.000020  -0.000003   0.000048
     9  H   -0.000007  -0.000004  -0.000075  -0.000003   0.000000   0.000014
    10  H    0.000001  -0.000000  -0.000027   0.000002  -0.000000  -0.000026
    11  C    0.000146  -0.000043  -0.001046  -0.000001   0.000000   0.000001
    12  H    0.000060   0.000040   0.000670   0.000000   0.000000  -0.000000
    13  H   -0.000000  -0.000002  -0.000019   0.000000  -0.000000  -0.000000
    14  O    0.000001  -0.000003   0.000023   0.000000   0.000000  -0.000000
    15  H   -0.000003  -0.000002   0.000004   0.000000  -0.000000   0.000000
    16  O    0.000000   0.000000  -0.000010  -0.000001   0.000001  -0.000243
    17  H    0.000002  -0.000000  -0.000024   0.000028  -0.000019   0.001051
    18  O    0.000000  -0.000000  -0.000010  -0.000000   0.000000   0.000000
    19  H    0.000000  -0.000000  -0.000001   0.000000  -0.000000   0.000000
    20  O   -0.000084  -0.000010  -0.000592  -0.000404   0.000088   0.002840
    21  H    0.000619  -0.000086  -0.000387   0.002927  -0.000038  -0.000610
    22  H   -0.000058  -0.000002   0.000078  -0.000102   0.000021   0.000108
    23  O   -0.002307   0.000231   0.005408  -0.125060   0.007112   0.083218
    24  H    0.145223  -0.004106  -0.008709   0.113398  -0.002913  -0.009555
    25  O    8.512005   0.215403   0.137021  -0.113597   0.004303   0.004173
    26  H    0.215403   0.399608  -0.007969   0.005114  -0.000222  -0.000152
    27  H    0.137021  -0.007969   0.288199   0.004911  -0.000061  -0.001127
    28  O   -0.113597   0.005114   0.004911   8.547276   0.222114   0.169086
    29  H    0.004303  -0.000222  -0.000061   0.222114   0.389110  -0.010378
    30  H    0.004173  -0.000152  -0.001127   0.169086  -0.010378   0.295964
 Mulliken charges:
               1
     1  O   -0.609376
     2  C    0.097987
     3  C    0.134878
     4  C    0.128932
     5  C    0.284733
     6  C    0.075636
     7  H    0.157121
     8  H    0.074021
     9  H    0.121499
    10  H    0.161618
    11  C   -0.055324
    12  H    0.131169
    13  H    0.190986
    14  O   -0.616756
    15  H    0.391005
    16  O   -0.640628
    17  H    0.401455
    18  O   -0.640201
    19  H    0.405194
    20  O   -0.605239
    21  H    0.385517
    22  H    0.158378
    23  O   -0.684797
    24  H    0.464101
    25  O   -0.821222
    26  H    0.386511
    27  H    0.489002
    28  O   -0.829791
    29  H    0.391060
    30  H    0.472529
 Sum of Mulliken charges =  -0.00000
 Mulliken charges with hydrogens summed into heavy atoms:
               1
     1  O   -0.609376
     2  C    0.219486
     3  C    0.296496
     4  C    0.286054
     5  C    0.443111
     6  C    0.149657
    11  C    0.266831
    14  O   -0.225750
    16  O   -0.239173
    18  O   -0.235007
    20  O   -0.219722
    23  O   -0.212268
    25  O    0.054291
    28  O    0.025370
 Electronic spatial extent (au):  <R**2>=           2864.2428
 Charge=              0.0000 electrons
 Dipole moment (field-independent basis, Debye):
    X=              1.1011    Y=             -5.6378    Z=              1.7614  Tot=              6.0083
 Quadrupole moment (field-independent basis, Debye-Ang):
   XX=            -80.1752   YY=            -78.2290   ZZ=            -83.1467
   XY=              3.2339   XZ=             -0.0185   YZ=             -4.3750
 Traceless Quadrupole moment (field-independent basis, Debye-Ang):
   XX=              0.3418   YY=              2.2879   ZZ=             -2.6297
   XY=              3.2339   XZ=             -0.0185   YZ=             -4.3750
 Octapole moment (field-independent basis, Debye-Ang**2):
  XXX=             85.5261  YYY=            -85.4736  ZZZ=              4.4699  XYY=             15.0333
  XXY=              1.4921  XXZ=             25.6628  XZZ=             -4.1449  YZZ=             -2.0477
  YYZ=             16.5881  XYZ=             -6.7274
 Hexadecapole moment (field-independent basis, Debye-Ang**3):
 XXXX=          -1420.7699 YYYY=          -1164.2572 ZZZZ=           -460.6880 XXXY=            -16.1746
 XXXZ=             43.8571 YYYX=             42.2967 YYYZ=              1.3567 ZZZX=             -2.2874
 ZZZY=            -26.3168 XXYY=           -454.6692 XXZZ=           -339.2026 YYZZ=           -269.9816
 XXYZ=             -6.6490 YYXZ=              2.0789 ZZXY=              4.4915
 N-N= 1.137810977375D+03 E-N=-4.248929063419D+03  KE= 8.326345982549D+02
 Calling FoFJK, ICntrl=      2127 FMM=F ISym2X=0 I1Cent= 0 IOpClX= 0 NMat=1 NMatS=1 NMatT=0.
 ***** Axes restored to original set *****
 -------------------------------------------------------------------
 Center     Atomic                   Forces (Hartrees/Bohr)
 Number     Number              X              Y              Z
 -------------------------------------------------------------------
      1        8           0.019792289    0.035420992    0.013515512
      2        6          -0.021230940   -0.004904823    0.011118738
      3        6           0.003403821    0.021912742   -0.001035936
      4        6           0.015046534    0.007970371    0.019441375
      5        6           0.052638663   -0.085576077    0.061947531
      6        6          -0.004349715   -0.013957069   -0.021251018
      7        1           0.007213248   -0.006389536    0.001210850
      8        1          -0.007854380    0.003720807    0.010549629
      9        1          -0.009640330    0.004211509   -0.008095567
     10        1          -0.002585084    0.000022571    0.001654083
     11        6          -0.008683803    0.000073428   -0.000899313
     12        1           0.004172701   -0.005039242   -0.000771337
     13        1           0.000915044    0.002171962    0.007324704
     14        8          -0.005349280    0.003266533    0.003181811
     15        1           0.001896485    0.004889709   -0.001249875
     16        8          -0.002861955    0.001972421   -0.005437397
     17        1          -0.005398458   -0.003114129    0.003964580
     18        8          -0.006751772   -0.010311189   -0.003836365
     19        1           0.003973346   -0.000832329   -0.002909406
     20        8          -0.001275913    0.001120290    0.002171991
     21        1           0.006656396    0.010469326   -0.006105262
     22        1          -0.019922417   -0.005365697   -0.009555668
     23        8          -0.018058765    0.088638072   -0.075576762
     24        1           0.020498719    0.006445034   -0.022652550
     25        8          -0.016734912   -0.006013268    0.006521913
     26        1          -0.010209486   -0.009648190   -0.001468301
     27        1           0.032131782   -0.008835819   -0.004042302
     28        8           0.032947007    0.013182546    0.035425762
     29        1          -0.005279427   -0.021059232    0.000561136
     30        1          -0.055099397   -0.024441712   -0.013702558
 -------------------------------------------------------------------
 Cartesian Forces:  Max     0.088638072 RMS     0.021927778

 GradGradGradGradGradGradGradGradGradGradGradGradGradGradGradGradGradGrad
 Berny optimization.
 FormGI is forming the generalized inverse of G from B-inverse, IUseBI=4.
 Internal  Forces:  Max     0.094745988 RMS     0.014248221
 Search for a local minimum.
 Step number   1 out of a maximum of  180
 All quantities printed in internal units (Hartrees-Bohrs-Radians)
 Mixed Optimization -- RFO/linear search
 Second derivative matrix not updated -- first step.
 ITU=  0
     Eigenvalues ---    0.00230   0.00230   0.00267   0.00358   0.00362
     Eigenvalues ---    0.00506   0.00579   0.00816   0.00985   0.01269
     Eigenvalues ---    0.01295   0.01345   0.01396   0.02196   0.02443
     Eigenvalues ---    0.02805   0.03518   0.03847   0.04208   0.04330
     Eigenvalues ---    0.04505   0.04774   0.04844   0.04937   0.05060
     Eigenvalues ---    0.05698   0.05911   0.06920   0.07260   0.07662
     Eigenvalues ---    0.08079   0.08819   0.10310   0.11694   0.11843
     Eigenvalues ---    0.13007   0.13965   0.14047   0.15643   0.16000
     Eigenvalues ---    0.16000   0.16000   0.16000   0.16569   0.16923
     Eigenvalues ---    0.17260   0.18132   0.18957   0.19519   0.20446
     Eigenvalues ---    0.20821   0.21754   0.21936   0.22343   0.23880
     Eigenvalues ---    0.24159   0.24327   0.24549   0.24628   0.24665
     Eigenvalues ---    0.28480   0.29373   0.29440   0.29835   0.32930
     Eigenvalues ---    0.33873   0.34003   0.34057   0.34070   0.34075
     Eigenvalues ---    0.34095   0.34352   0.35259   0.40709   0.40991
     Eigenvalues ---    0.41020   0.41537   0.42108   0.50833   0.52091
     Eigenvalues ---    0.52498   0.52561   0.55473   0.55473
 RFO step:  Lambda=-1.08817010D-01 EMin= 2.30000000D-03
 Linear search not attempted -- first point.
 Maximum step size (   0.300) exceeded in Quadratic search.
    -- Step size scaled by   0.589
 Iteration  1 RMS(Cart)=  0.12937895 RMS(Int)=  0.00497552
 Iteration  2 RMS(Cart)=  0.00823888 RMS(Int)=  0.00099725
 Iteration  3 RMS(Cart)=  0.00007417 RMS(Int)=  0.00099687
 Iteration  4 RMS(Cart)=  0.00000023 RMS(Int)=  0.00099687
 Variable       Old X    -DE/DX   Delta X   Delta X   Delta X     New X
                                 (Linear)    (Quad)   (Total)
    R1        2.78026   0.01173   0.00000   0.01411   0.01378   2.79404
    R2        2.26767   0.01948   0.00000   0.03079   0.03176   2.29943
    R3        2.87932  -0.00875   0.00000  -0.01292  -0.01176   2.86756
    R4        2.88399  -0.01165   0.00000  -0.01615  -0.01525   2.86875
    R5        2.07212   0.00430   0.00000   0.00563   0.00563   2.07776
    R6        2.69516  -0.00516   0.00000  -0.00579  -0.00579   2.68937
    R7        2.90471   0.00785   0.00000   0.01270   0.01291   2.91762
    R8        2.81747   0.03176   0.00000   0.04327   0.04235   2.85982
    R9        2.07545  -0.00083   0.00000  -0.00109  -0.00109   2.07436
   R10        2.70601  -0.00824   0.00000  -0.00940  -0.00940   2.69660
   R11        2.07325   0.00086   0.00000   0.00113   0.00113   2.07438
   R12        2.70228  -0.00256   0.00000  -0.00291  -0.00291   2.69938
   R13        2.07204  -0.00186   0.00000  -0.00243  -0.00243   2.06961
   R14        2.69453  -0.09475   0.00000  -0.10475  -0.10473   2.58980
   R15        2.07227   0.00327   0.00000   0.00433   0.00430   2.07657
   R16        2.89231   0.00346   0.00000   0.00505   0.00505   2.89736
   R17        2.07170   0.00235   0.00000   0.00308   0.00308   2.07478
   R18        2.06740  -0.00281   0.00000  -0.00365  -0.00365   2.06375
   R19        2.68786   0.00664   0.00000   0.00737   0.00737   2.69524
   R20        1.84125  -0.00522   0.00000  -0.00484  -0.00484   1.83641
   R21        1.84066   0.00146   0.00000   0.00135   0.00135   1.84201
   R22        1.84512  -0.00498   0.00000  -0.00466  -0.00466   1.84047
   R23        1.85734  -0.01376   0.00000  -0.01313  -0.01313   1.84421
   R24        2.28104   0.02242   0.00000   0.03971   0.03920   2.32025
   R25        2.26988  -0.00249   0.00000  -0.00615  -0.00659   2.26329
   R26        2.26767  -0.00480   0.00000  -0.00997  -0.01087   2.25680
   R27        1.81414   0.01227   0.00000   0.01088   0.01088   1.82502
   R28        2.26767   0.00648   0.00000   0.00872   0.00948   2.27716
   R29        1.81414   0.00858   0.00000   0.00761   0.00761   1.82175
   R30        2.28823  -0.00875   0.00000  -0.01448  -0.01567   2.27257
    A1        1.67626   0.02845   0.00000   0.07075   0.06911   1.74537
    A2        1.93505  -0.03762   0.00000  -0.08206  -0.08168   1.85337
    A3        1.87531   0.01135   0.00000   0.02885   0.02875   1.90407
    A4        1.98279   0.00440   0.00000  -0.00365  -0.00347   1.97932
    A5        1.86908   0.01172   0.00000   0.03177   0.03148   1.90056
    A6        1.98228   0.01697   0.00000   0.02667   0.02501   2.00729
    A7        1.80794  -0.00316   0.00000   0.00981   0.00912   1.81706
    A8        2.04536   0.00663   0.00000   0.01007   0.01103   2.05639
    A9        1.87660  -0.00885   0.00000  -0.02534  -0.02599   1.85061
   A10        1.95978   0.00395   0.00000   0.01328   0.01345   1.97324
   A11        1.88186  -0.00117   0.00000  -0.00379  -0.00332   1.87853
   A12        1.84379  -0.00400   0.00000  -0.00260  -0.00399   1.83980
   A13        1.84560   0.00328   0.00000   0.00843   0.00870   1.85429
   A14        1.94252  -0.00096   0.00000  -0.01481  -0.01275   1.92976
   A15        1.88204   0.00250   0.00000   0.01837   0.01851   1.90055
   A16        1.98820  -0.00399   0.00000  -0.01948  -0.02236   1.96583
   A17        1.89131   0.00850   0.00000   0.03132   0.03037   1.92168
   A18        1.91290  -0.01076   0.00000  -0.03075  -0.03216   1.88074
   A19        1.84161   0.00616   0.00000   0.02147   0.02250   1.86411
   A20        1.93318   0.00606   0.00000   0.01801   0.01896   1.95215
   A21        2.01188  -0.01492   0.00000  -0.02379  -0.02656   1.98532
   A22        1.85849   0.00791   0.00000   0.01762   0.01800   1.87649
   A23        2.04989  -0.03144   0.00000  -0.07527  -0.07398   1.97591
   A24        1.75971   0.01222   0.00000   0.04457   0.04387   1.80358
   A25        1.80443   0.01969   0.00000   0.03355   0.03306   1.83748
   A26        1.89712   0.00621   0.00000   0.01308   0.01435   1.91147
   A27        2.03105   0.00120   0.00000  -0.00135  -0.00297   2.02809
   A28        1.89887  -0.00587   0.00000  -0.00640  -0.00672   1.89216
   A29        1.92278  -0.00638   0.00000  -0.01240  -0.01248   1.91030
   A30        1.94570  -0.00399   0.00000  -0.01101  -0.01103   1.93467
   A31        1.95154   0.00730   0.00000   0.01254   0.01254   1.96408
   A32        1.84059   0.00459   0.00000   0.01095   0.01090   1.85149
   A33        1.89973   0.00350   0.00000   0.01339   0.01343   1.91316
   A34        1.89971  -0.00507   0.00000  -0.01312  -0.01308   1.88663
   A35        1.87244   0.00246   0.00000   0.00539   0.00539   1.87783
   A36        1.86294  -0.01048   0.00000  -0.02295  -0.02295   1.83999
   A37        1.88980  -0.00049   0.00000  -0.00107  -0.00107   1.88873
   A38        1.88907  -0.00196   0.00000  -0.00430  -0.00430   1.88477
   A39        2.77998  -0.02597   0.00000  -0.05603  -0.05482   2.72515
   A40        2.71018  -0.01211   0.00000  -0.02430  -0.02399   2.68620
   A41        1.83689   0.01608   0.00000   0.03960   0.03828   1.87517
   A42        2.00336  -0.02172   0.00000  -0.05723  -0.05603   1.94733
   A43        1.86363   0.00614   0.00000   0.02633   0.02681   1.89044
   A44        2.25199  -0.00450   0.00000  -0.01647  -0.01651   2.23549
   A45        1.98646  -0.04880   0.00000  -0.12069  -0.12429   1.86217
   A46        1.79851   0.03271   0.00000   0.06915   0.06759   1.86610
   A47        2.36009   0.03081   0.00000   0.04566   0.04416   2.40426
   A48        3.23756  -0.01764   0.00000  -0.06092  -0.06168   3.17588
   A49        3.37545  -0.02168   0.00000  -0.08231  -0.08571   3.28973
    D1        1.90784   0.00755   0.00000   0.03790   0.04008   1.94792
    D2       -0.14896   0.00693   0.00000   0.02806   0.03079  -0.11817
    D3       -2.11249   0.00309   0.00000   0.00965   0.01061  -2.10188
    D4       -1.29053  -0.01163   0.00000  -0.03844  -0.03740  -1.32793
    D5        0.74505  -0.00496   0.00000  -0.01986  -0.01821   0.72684
    D6       -0.97002   0.02032   0.00000   0.09450   0.09296  -0.87706
    D7       -3.04219   0.00895   0.00000   0.05347   0.05162  -2.99057
    D8        1.20335   0.00200   0.00000   0.02612   0.02488   1.22823
    D9       -3.00704   0.02007   0.00000   0.08410   0.08418  -2.92285
   D10        1.20398   0.00870   0.00000   0.04308   0.04285   1.24683
   D11       -0.83367   0.00175   0.00000   0.01572   0.01611  -0.81756
   D12        1.28718   0.01454   0.00000   0.05631   0.05680   1.34398
   D13       -0.78499   0.00317   0.00000   0.01528   0.01547  -0.76953
   D14       -2.82264  -0.00378   0.00000  -0.01207  -0.01127  -2.83391
   D15        0.97764  -0.00507   0.00000  -0.04288  -0.04088   0.93676
   D16        2.95909  -0.00379   0.00000  -0.02154  -0.01993   2.93916
   D17       -1.17397  -0.00568   0.00000  -0.02040  -0.01937  -1.19335
   D18        3.01849  -0.00490   0.00000  -0.03396  -0.03360   2.98489
   D19       -1.28325  -0.00361   0.00000  -0.01262  -0.01265  -1.29590
   D20        0.86688  -0.00550   0.00000  -0.01148  -0.01209   0.85479
   D21       -1.27983   0.00739   0.00000   0.01144   0.01237  -1.26746
   D22        0.70162   0.00868   0.00000   0.03278   0.03333   0.73494
   D23        2.85174   0.00679   0.00000   0.03392   0.03389   2.88563
   D24        3.14159   0.01642   0.00000   0.04703   0.04694  -3.09465
   D25       -0.90854  -0.01755   0.00000  -0.04816  -0.04820  -0.95674
   D26        1.11269   0.00265   0.00000   0.00840   0.00853   1.12122
   D27        0.02291  -0.00530   0.00000  -0.02436  -0.02594  -0.00303
   D28        2.08952   0.00250   0.00000   0.00891   0.00837   2.09789
   D29       -2.19226   0.00873   0.00000   0.03517   0.03393  -2.15833
   D30        2.14409  -0.00934   0.00000  -0.04263  -0.04346   2.10063
   D31       -2.07249  -0.00155   0.00000  -0.00935  -0.00915  -2.08163
   D32       -0.07108   0.00469   0.00000   0.01690   0.01641  -0.05466
   D33       -2.11612  -0.00859   0.00000  -0.04053  -0.04157  -2.15769
   D34       -0.04951  -0.00079   0.00000  -0.00726  -0.00726  -0.05677
   D35        1.95190   0.00545   0.00000   0.01900   0.01830   1.97020
   D36        2.88566  -0.01491   0.00000  -0.06965  -0.06966   2.81600
   D37       -1.28625  -0.01057   0.00000  -0.04959  -0.05073  -1.33698
   D38        0.76721  -0.00687   0.00000  -0.04015  -0.04031   0.72690
   D39        2.87849  -0.00253   0.00000  -0.02009  -0.02139   2.85711
   D40       -1.19989  -0.00823   0.00000  -0.04687  -0.04690  -1.24678
   D41        0.91140  -0.00389   0.00000  -0.02682  -0.02797   0.88342
   D42        1.72997   0.00231   0.00000   0.00011   0.00047   1.73044
   D43       -0.51928  -0.00591   0.00000  -0.02001  -0.02018  -0.53946
   D44       -2.51161  -0.00428   0.00000  -0.01827  -0.01846  -2.53007
   D45        0.72141   0.00575   0.00000   0.02742   0.02610   0.74751
   D46        2.91056  -0.00711   0.00000  -0.03142  -0.02987   2.88069
   D47       -1.33959   0.00088   0.00000   0.00168   0.00144  -1.33815
   D48        2.62611   0.00769   0.00000   0.02312   0.02295   2.64906
   D49       -1.50568   0.01160   0.00000   0.04393   0.04307  -1.46261
   D50        1.02513   0.01287   0.00000   0.03901   0.03882   1.06395
   D51       -1.01205   0.01362   0.00000   0.03995   0.03969  -0.97236
   D52        3.14007   0.01781   0.00000   0.05587   0.05563  -3.08749
   D53       -2.98380  -0.01144   0.00000  -0.03389  -0.03386  -3.01765
   D54        1.26221  -0.01070   0.00000  -0.03295  -0.03298   1.22923
   D55       -0.86886  -0.00650   0.00000  -0.01703  -0.01705  -0.88590
   D56       -0.83458  -0.00706   0.00000  -0.02263  -0.02236  -0.85694
   D57       -2.87176  -0.00632   0.00000  -0.02169  -0.02149  -2.89325
   D58        1.28036  -0.00212   0.00000  -0.00577  -0.00555   1.27481
   D59       -1.31274  -0.00084   0.00000  -0.00501  -0.00508  -1.31782
   D60        0.81550  -0.00172   0.00000  -0.00328  -0.00319   0.81231
   D61        2.81323   0.00288   0.00000   0.00980   0.00978   2.82301
   D62       -0.44502   0.01945   0.00000   0.07817   0.07681  -0.36821
   D63       -3.09922  -0.00694   0.00000  -0.00814  -0.00696  -3.10618
   D64       -1.05561  -0.00061   0.00000   0.01920   0.01904  -1.03657
   D65       -1.74967   0.00218   0.00000   0.01784   0.01630  -1.73336
   D66        0.56273  -0.01643   0.00000  -0.05717  -0.05522   0.50751
   D67        0.20459   0.01352   0.00000   0.05052   0.05030   0.25489
   D68        2.71760  -0.00703   0.00000  -0.02079  -0.02192   2.69568
         Item               Value     Threshold  Converged?
 Maximum Force            0.094746     0.000450     NO 
 RMS     Force            0.014248     0.000300     NO 
 Maximum Displacement     0.502239     0.001800     NO 
 RMS     Displacement     0.133146     0.001200     NO 
 Predicted change in Energy=-5.470157D-02
 GradGradGradGradGradGradGradGradGradGradGradGradGradGradGradGradGradGrad

                          Input orientation:                          
 ---------------------------------------------------------------------
 Center     Atomic      Atomic             Coordinates (Angstroms)
 Number     Number       Type             X           Y           Z
 ---------------------------------------------------------------------
      1          8           0        0.031560   -1.259179   -0.932657
      2          6           0       -0.504149    0.025372    1.146485
      3          6           0        1.193929    0.683606   -0.590110
      4          6           0        0.191430    1.191292    0.468660
      5          6           0        1.326291   -0.812251   -0.777508
      6          6           0       -1.018685   -0.866894    0.031287
      7          1           0        0.714648    1.784335    1.229920
      8          1           0       -1.348240   -1.827134    0.451826
      9          1           0       -1.360229    0.403487    1.723598
     10          1           0        0.866779    1.110901   -1.546844
     11          6           0       -2.157270   -0.295620   -0.821958
     12          1           0       -2.527153   -1.071616   -1.504934
     13          1           0       -1.797772    0.518335   -1.455120
     14          8           0       -3.236081    0.200884   -0.032107
     15          1           0       -3.733056   -0.564957    0.300867
     16          8           0        2.522435    1.157851   -0.374619
     17          1           0        2.989717    0.426926    0.069833
     18          8           0       -0.723320    2.072631   -0.184747
     19          1           0       -1.488088    2.208006    0.402918
     20          8           0        0.305690   -0.629871    2.116117
     21          1           0       -0.199221   -1.387011    2.468552
     22          1           0        1.790348   -1.063325   -1.737225
     23          8           0        2.053676   -1.429558    0.206371
     24          1           0        0.971280   -3.620646    0.669934
     25          8           0        0.337448   -3.581955   -0.345547
     26          1           0       -0.506057   -4.021083   -0.177151
     27          1           0        0.112773   -2.447678   -0.684675
     28          8           0        1.924775   -3.383552    1.348803
     29          1           0        2.664923   -3.964644    1.558235
     30          1           0        2.392883   -2.354175    0.939559
 ---------------------------------------------------------------------
                    Distance matrix (angstroms):
                    1          2          3          4          5
     1  O    0.000000
     2  C    2.501977   0.000000
     3  C    2.289728   2.516446   0.000000
     4  C    2.827376   1.517447   1.543937   0.000000
     5  C    1.378458   2.784577   1.513349   2.618211   0.000000
     6  C    1.478543   1.518075   2.772335   2.427303   2.481138
     7  H    3.795567   2.141583   2.180326   1.097713   3.338583
     8  H    2.035489   2.151004   3.721837   3.388475   3.113578
     9  H    3.428881   1.099501   3.457662   2.145495   3.866644
    10  H    2.586908   3.211205   1.097702   2.127161   2.121684
    11  C    2.394092   2.590484   3.499024   3.064798   3.521942
    12  H    2.628629   3.510833   4.214754   4.050496   3.930070
    13  H    2.603647   2.947002   3.118626   2.847933   3.462569
    14  O    3.690562   2.980492   4.491033   3.602708   4.732579
    15  H    4.021922   3.389601   5.160225   4.302807   5.178903
    16  O    3.515381   3.571621   1.426980   2.479077   2.339740
    17  H    3.549455   3.677978   1.930353   2.928093   2.240654
    18  O    3.497167   2.451832   2.401989   1.428449   3.588150
    19  H    4.014283   2.506974   3.240851   1.964385   4.293727
    20  O    3.125092   1.423155   3.136535   2.458415   3.073752
    21  H    3.411426   1.958487   3.947624   3.286309   3.632415
    22  H    1.943971   3.842624   2.173328   3.536348   1.095191
    23  O    2.327094   3.089191   2.416404   3.225773   1.370465
    24  H    3.004646   3.961999   4.490419   4.878875   3.179340
    25  O    2.415275   3.993402   4.357566   4.844393   2.972484
    26  H    2.913406   4.257443   5.019421   5.298341   3.743599
    27  H    1.216807   3.138426   3.314028   3.818176   2.038594
    28  O    3.647230   4.190629   4.564570   4.970748   3.389834
    29  H    4.523128   5.112024   5.327799   5.821428   4.145506
    30  H    3.206253   3.754712   3.606313   4.199819   2.542336
                    6          7          8          9         10
     6  C    0.000000
     7  H    3.386765   0.000000
     8  H    1.098873   4.231270   0.000000
     9  H    2.143464   2.540781   2.567726   0.000000
    10  H    3.155494   2.861307   4.187247   4.019426   0.000000
    11  C    1.533217   4.096868   2.150021   2.757513   3.413009
    12  H    2.162721   5.113233   2.406150   3.736450   4.035332
    13  H    2.176061   3.889017   3.056101   3.210745   2.731186
    14  O    2.461913   4.439402   2.812649   2.577280   4.467216
    15  H    2.744385   5.115113   2.702449   2.931272   5.232687
    16  O    4.099254   2.497022   4.957345   4.477349   2.029166
    17  H    4.212213   2.892110   4.903527   4.653764   2.754693
    18  O    2.962215   2.037682   4.000490   2.614092   2.304051
    19  H    3.132644   2.390706   4.037860   2.239829   3.248171
    20  O    2.481263   2.604032   2.634158   1.999296   4.094190
    21  H    2.623415   3.525167   2.362443   2.260261   4.847611
    22  H    3.325189   4.250911   3.902061   4.904586   2.369912
    23  O    3.128362   3.629016   3.433853   4.161343   3.307026
    24  H    3.457019   5.439969   2.940140   4.768625   5.226142
    25  O    3.058212   5.605484   2.560614   4.800752   4.873008
    26  H    3.202365   6.096954   2.432755   4.890734   5.486164
    27  H    2.071637   4.683787   1.952247   4.012313   3.738361
    28  O    4.090645   5.309011   3.733581   5.027265   5.450160
    29  H    5.049416   6.079649   4.679590   5.942202   6.215786
    30  H    3.830896   4.475271   3.809417   4.722846   4.529674
                   11         12         13         14         15
    11  C    0.000000
    12  H    1.097926   0.000000
    13  H    1.092088   1.749977   0.000000
    14  O    1.426259   2.071486   2.048042   0.000000
    15  H    1.953556   2.229759   2.828840   0.971786   0.000000
    16  O    4.920602   5.634401   4.498961   5.847530   6.523459
    17  H    5.273408   5.929702   5.025325   6.230734   6.799477
    18  O    2.840927   3.857849   2.276869   3.136990   4.031278
    19  H    2.866403   3.933888   2.530455   2.696900   3.569260
    20  O    3.848399   4.618674   4.300775   4.224827   4.428410
    21  H    3.981526   4.615987   4.645527   4.242314   4.226420
    22  H    4.124411   4.323753   3.931391   5.456247   5.908484
    23  O    4.480551   4.903130   4.624769   5.540464   5.851729
    24  H    4.803057   4.844237   5.414302   5.727027   5.621763
    25  O    4.153382   3.981447   4.754229   5.213274   5.107752
    26  H    4.125695   3.814079   4.889586   5.029819   4.752561
    27  H    3.131022   3.087974   3.611233   4.319207   4.393898
    28  O    5.559732   5.771354   6.078163   6.433470   6.407317
    29  H    6.510039   6.686574   7.006644   7.396125   7.353434
    30  H    5.295705   5.641566   5.616707   6.257612   6.413764
                   16         17         18         19         20
    16  O    0.000000
    17  H    0.974752   0.000000
    18  O    3.377543   4.069373   0.000000
    19  H    4.218019   4.830520   0.973934   0.000000
    20  O    3.783341   3.536679   3.695450   3.769116   0.000000
    21  H    4.686934   4.383326   4.391333   4.341909   0.975914
    22  H    2.706708   2.631500   4.308472   5.101956   4.152147
    23  O    2.692948   2.083590   4.486648   5.080806   2.709627
    24  H    5.131394   4.562570   6.001296   6.331901   3.388095
    25  O    5.219270   4.824749   5.755470   6.116898   3.843904
    26  H    6.002676   5.662705   6.097591   6.332647   4.173527
    27  H    4.347694   4.136355   4.624087   5.041925   3.344559
    28  O    4.894050   4.158078   6.255727   6.618751   3.285265
    29  H    5.476878   4.648303   7.139109   7.528869   4.122854
    30  H    3.752090   2.974418   5.529142   6.013603   2.951930
                   21         22         23         24         25
    21  H    0.000000
    22  H    4.663873   0.000000
    23  O    3.192932   1.995253   0.000000
    24  H    3.097454   3.606268   2.487436   0.000000
    25  O    3.609009   3.223536   2.807644   1.197682   0.000000
    26  H    3.745962   4.056555   3.662694   1.749408   0.965759
    27  H    3.341436   2.416309   2.365932   1.986920   1.205019
    28  O    3.122719   3.863301   2.267126   1.194249   2.330192
    29  H    3.959317   4.476895   2.937316   1.943153   3.031168
    30  H    3.161049   3.032246   1.227821   1.922915   2.717307
                   26         27         28         29         30
    26  H    0.000000
    27  H    1.765258   0.000000
    28  O    2.940056   2.879973   0.000000
    29  H    3.615227   3.720927   0.964027   0.000000
    30  H    3.525547   2.801032   1.202590   1.746532   0.000000
 Stoichiometry    C6H16O8
 Framework group  C1[X(C6H16O8)]
 Deg. of freedom    84
 Full point group                 C1      NOp   1
 Largest Abelian subgroup         C1      NOp   1
 Largest concise Abelian subgroup C1      NOp   1
                         Standard orientation:                         
 ---------------------------------------------------------------------
 Center     Atomic      Atomic             Coordinates (Angstroms)
 Number     Number       Type             X           Y           Z
 ---------------------------------------------------------------------
      1          8           0        0.246003   -0.507055   -1.106884
      2          6           0       -0.788628   -0.091831    1.132985
      3          6           0       -0.341520    1.652806   -0.624523
      4          6           0       -1.253657    1.228212    0.546574
      5          6           0        0.812943    0.743608   -0.986185
      6          6           0       -0.626245   -1.042136   -0.039663
      7          1           0       -1.236900    1.992620    1.334212
      8          1           0       -0.096557   -1.946315    0.291113
      9          1           0       -1.568330   -0.482533    1.802552
     10          1           0       -0.993383    1.728555   -1.504458
     11          6           0       -1.916857   -1.469060   -0.748756
[...]
 00005804,0.00009451,0.00002270,0.00002670,0.00015726,0.00035480,0.0000
 2909,-0.00016770,-0.00025991,-0.00008315,-0.00015372,0.00019879,-0.000
 07236,-0.00000808,-0.00004069,0.00001911,-0.00019217,0.00017215,0.0001
 6964,0.00024039,-0.00024712,-0.00037742,-0.00033428,-0.00011137,0.0005
 4992,0.00172148,0.00021055,0.00084346,0.07225380,0.06455231,-0.0010746
 8,-0.00231585,-0.00142605,0.00044572,-0.00010385,0.00046120,0.00015044
 ,0.00014504,-0.00029932,0.00004683,-0.00005395,0.00001986,0.00247937,0
 .00005756,0.00316141,-0.00068965,-0.00013186,0.00041704,-0.00002789,-0
 .00005197,-0.00002496,0.00010715,0.00010591,0.00004659,-0.00003513,-0.
 00004180,-0.00006524,-0.00000323,0.00015303,-0.00004561,-0.00003041,0.
 00030625,0.00019364,-0.00012833,-0.00009043,-0.00014696,-0.00000851,-0
 .00000454,-0.00002393,0.00014740,-0.00017236,-0.00020691,-0.00001395,0
 .00004878,0.00008986,-0.00037102,-0.00005268,-0.00020534,-0.00000772,-
 0.00025290,0.00007071,-0.00010989,-0.00001582,-0.00010659,0.00002606,0
 .00003110,0.00001460,-0.00043346,0.00027978,-0.00034357,0.00030675,-0.
 00032595,-0.00008744,0.00025174,-0.00004107,-0.00022560,-0.00165658,0.
 00384515,-0.00160403,0.14796090,0.06805195,0.16946921,0.00677046,0.002
 15838,0.00016440,-0.00019487,-0.00015607,-0.00060147,0.00041164,-0.000
 08721,0.00018612,-0.00027413,-0.00002524,0.00005689,-0.00439524,0.0020
 3495,-0.00144612,-0.00018180,-0.00081092,0.00003388,0.00011189,0.00004
 389,-0.00001431,0.00012200,-0.00016152,-0.00047444,0.00002299,-0.00002
 966,-0.00001463,-0.00001991,-0.00014125,0.00003058,0.00001136,-0.00085
 648,-0.00091080,0.00037107,0.00017801,0.00049392,-0.00004006,0.0001152
 8,0.00003889,-0.00010772,0.00041454,0.00049247,0.00005435,-0.00016224,
 -0.00020460,0.00057023,0.00006517,0.00012886,-0.00003096,0.00032577,-0
 .00001323,0.00031257,0.00005481,0.00009454,-0.00004582,-0.00009588,-0.
 00001889,0.00067374,-0.00009775,0.00032596,-0.00059709,0.00027070,0.00
 026225,0.00049262,0.00020162,-0.00033921,0.00229922,-0.00367399,0.0010
 0044,0.00265391,-0.00100562,0.00171844,0.39224466,-0.00010416,-0.01870
 381,-0.00543295,0.00165959,-0.00016224,0.00043005,-0.00065916,0.000907
 62,-0.00042176,-0.00016633,0.00077710,-0.00007746,0.00798302,-0.000633
 23,0.00206442,-0.00593801,-0.00048167,0.00298088,-0.00004960,-0.000146
 90,-0.00002510,0.00047092,0.00039398,-0.00034248,-0.00008593,-0.000503
 22,-0.00036977,0.00000110,0.00010309,-0.00001457,-0.00084433,0.0001255
 5,-0.00062887,-0.00009993,0.00005673,-0.00001807,-0.00000537,0.0000157
 2,-0.00003471,0.00134949,-0.00028543,0.00007308,-0.00034674,-0.0000653
 0,-0.00004953,-0.00107475,-0.00123132,-0.00031615,0.00029785,0.0002153
 3,0.00019744,0.00014738,-0.00055574,0.00018479,0.00003648,0.00020140,-
 0.00008590,-0.00032539,-0.00008992,-0.00079043,0.00008528,0.00012380,0
 .00048001,-0.00014624,0.00005609,0.00005850,-0.00256231,0.00149187,-0.
 00217646,-0.00353341,-0.01352989,0.00132250,0.06951714,0.58051308,0.00
 067078,-0.00259169,0.00348962,-0.00038559,0.00015933,-0.00021519,-0.00
 020225,0.00008848,0.00000413,-0.00013379,0.00023544,-0.00016750,-0.000
 37674,0.00057636,-0.00256834,-0.00044522,0.00144916,0.00024050,-0.0000
 0127,-0.00001340,0.00004348,-0.00040610,0.00024959,0.00031876,0.000039
 17,-0.00004392,0.00000552,-0.00000416,-0.00013481,0.00005574,-0.000316
 19,-0.00068896,-0.00074162,0.00025664,0.00022846,0.00018942,0.00008412
 ,-0.00003262,0.00008207,0.00016431,0.00019569,0.00048770,-0.00015680,-
 0.00003599,-0.00018177,0.00001739,-0.00028984,0.00015709,0.00011380,0.
 00030971,-0.00002549,0.00019088,-0.00017664,0.00023998,-0.00002051,0.0
 0003523,-0.00004645,0.00032915,-0.00048830,0.00026277,-0.00016916,0.00
 046976,0.00018568,-0.00039195,0.00002061,0.00014343,0.00047536,-0.0029
 9348,0.00136302,0.00883549,0.00123189,-0.00920996,-0.18353712,-0.07312
 741,0.13422977,-0.00052346,0.00139738,0.00036773,-0.00007680,0.0000302
 9,0.00014950,0.00006518,-0.00005933,-0.00001126,0.00005033,-0.00006448
 ,0.00000116,-0.00018027,-0.00014014,0.00028729,0.00055033,0.00000300,-
 0.00019717,-0.00001636,-0.00000359,-0.00000166,0.00004034,-0.00003322,
 0.00009144,0.00000351,0.00005641,0.00003364,0.00000277,0.00001332,-0.0
 0000477,0.00012490,0.00024172,0.00025413,-0.00003949,-0.00005815,-0.00
 014612,-0.00000982,-0.00004922,-0.00002931,-0.00011492,-0.00010004,-0.
 00013433,0.00001614,0.00009484,0.00009246,-0.00001153,0.00007803,-0.00
 000692,-0.00001263,-0.00005228,-0.00000171,-0.00007766,0.00001058,-0.0
 0004304,0.00001259,0.00001279,0.00001335,-0.00010310,0.00006436,-0.000
 08454,0.00005705,-0.00010309,-0.00003755,-0.00002252,-0.00004645,-0.00
 004449,0.00000337,0.00035236,-0.00013650,-0.00332681,-0.00268023,0.004
 03799,-0.30669657,-0.18275134,0.17140394,0.30318929,0.00155911,-0.0005
 4722,-0.00105674,0.00012999,-0.00009914,-0.00034506,-0.00003290,-0.000
 09757,0.00007576,0.00001043,-0.00005519,0.00012496,-0.00059470,0.00007
 008,0.00010684,-0.00028081,-0.00091510,0.00027541,0.00004453,0.0000487
 9,-0.00001013,0.00020422,0.00000381,-0.00043607,-0.00002203,0.00000934
 ,-0.00001273,0.00000297,-0.00000062,-0.00000463,0.00028975,-0.00028016
 ,-0.00028727,0.00011126,0.00004305,0.00021323,-0.00005917,0.00007991,-
 0.00000033,-0.00029217,0.00019631,0.00014020,0.00014514,-0.00006390,-0
 .00004480,0.00019001,0.00016735,0.00002401,-0.00007168,-0.00006755,-0.
 00002452,0.00002169,0.00016323,-0.00005354,-0.00001332,-0.00007535,0.0
 0001287,0.00009436,0.00015454,0.00016863,-0.00007482,-0.00010440,-0.00
 009136,0.00006004,-0.00000938,-0.00002861,0.00031232,0.00019874,0.0000
 2255,-0.00228826,0.00073890,-0.00250196,-0.13287048,-0.14590763,0.0847
 5456,0.17375431,0.16426239,-0.00001266,-0.00023997,-0.00044627,0.00009
 832,-0.00002718,0.00002446,-0.00000801,0.00002302,0.00000179,0.0000285
 4,-0.00005356,0.00009564,0.00011044,-0.00004715,0.00034167,-0.00010725
 ,-0.00048632,0.00039464,0.00000599,0.00001109,-0.00001568,0.00017922,0
 .00000056,-0.00017246,-0.00000307,0.00001952,0.00000060,0.00000550,0.0
 0001670,-0.00001151,0.00013951,0.00034259,0.00028058,-0.00008477,-0.00
 009044,-0.00010882,-0.00004917,-0.00001176,-0.00006678,-0.00002959,-0.
 00010668,-0.00021681,0.00007150,0.00001186,0.00010780,0.00001618,0.000
 03629,-0.00002954,-0.00002566,-0.00004295,0.00000946,-0.00005591,0.000
 05502,-0.00008903,0.00000944,-0.00001545,0.00001843,-0.00002297,0.0001
 8920,-0.00014323,-0.00005387,-0.00015622,0.00002231,0.00000851,-0.0000
 4268,-0.00007230,0.00009206,0.00027554,-0.00025424,-0.00055992,-0.0023
 4103,0.00408603,0.17152640,0.11385584,-0.10320410,-0.16971591,-0.10653
 907,0.10222045,-0.01021702,0.00069726,0.00099475,-0.00039148,0.0001748
 0,0.00041006,-0.00089659,0.00007978,0.00004866,0.00022148,0.00001866,-
 0.00006504,0.00236545,-0.00527216,-0.00115578,0.00146900,0.00225599,-0
 .00041175,-0.00009610,0.00000213,0.00003787,-0.00018050,-0.00001702,0.
 00063191,0.00003047,0.00013422,0.00010469,0.00002547,0.00004122,0.0000
 1144,0.00003675,0.00104294,0.00119308,-0.00053135,-0.00024803,-0.00058
 649,0.00005305,-0.00016730,-0.00006051,0.00001269,-0.00041966,-0.00053
 818,-0.00004937,0.00012155,0.00017462,-0.00026532,-0.00011007,-0.00001
 006,-0.00001090,-0.00016996,-0.00001355,-0.00023846,0.00000019,-0.0000
 6325,0.00002476,0.00005372,0.00001796,-0.00033669,0.00002359,-0.000118
 02,0.00032354,-0.00018626,-0.00021823,-0.00092003,-0.00023374,0.000569
 65,-0.00054684,0.00103558,0.00014154,-0.00098263,0.00717880,-0.0000506
 6,-0.07498580,0.11624964,0.02016911,0.00681981,-0.04146976,-0.00012081
 ,0.07982098,0.00088075,0.00088676,0.00383105,-0.00287317,0.00046284,-0
 .00048855,0.00113514,-0.00122104,0.00070092,0.00018458,-0.00111017,0.0
 0003965,-0.01395136,0.00045082,-0.00331970,0.00967771,0.00092819,-0.00
 426972,0.00006815,0.00018975,0.00004085,-0.00123799,-0.00007174,0.0009
 9722,0.00016736,0.00082868,0.00060554,-0.00000396,-0.00016824,0.000038
 13,0.00118782,-0.00003137,0.00125630,0.00014051,-0.00009745,-0.0001530
 9,0.00003229,-0.00007958,0.00005518,-0.00186792,0.00029834,-0.00021189
 ,0.00041000,0.00017987,0.00012091,0.00157171,0.00170799,0.00043388,-0.
 00036880,-0.00017236,-0.00025787,-0.00020090,0.00069562,-0.00023627,-0
 .00004757,-0.00024788,0.00012214,0.00056429,-0.00007603,0.00107032,-0.
 00018676,0.00000484,-0.00056400,0.00049910,0.00004684,-0.00021089,0.00
 403328,-0.00294901,0.00352692,0.00944316,0.00143670,0.00499939,0.06498
 317,-0.40773959,-0.00942323,0.00951375,-0.01777714,-0.00491165,-0.0780
 3448,0.42240750,0.00069369,0.00310391,-0.00412155,0.00028158,-0.000138
 53,-0.00019295,0.00042813,-0.00030624,0.00037453,0.00010786,-0.0002718
 0,0.00015337,-0.00294946,-0.00111883,0.00097828,0.00145655,-0.00264732
 ,-0.00154255,0.00002966,0.00005393,-0.00004022,0.00022875,-0.00023764,
 -0.00028764,-0.00003990,0.00007150,0.00004049,0.00000861,0.00003446,-0
 .00004123,0.00039234,0.00080150,0.00099965,-0.00029707,-0.00029047,-0.
 00015784,-0.00010180,0.00006054,-0.00006390,-0.00031950,-0.00014833,-0
 .00051159,0.00018662,0.00001183,0.00013487,0.00035011,0.00052243,-0.00
 004179,-0.00015416,-0.00018694,-0.00003493,-0.00014973,0.00020729,-0.0
 0019893,0.00000348,-0.00005433,0.00003990,-0.00008819,0.00036292,-0.00
 001849,-0.00003511,-0.00032032,-0.00021034,0.00066289,0.00021794,-0.00
 006252,0.00093324,0.00072869,-0.00050595,-0.00144058,0.00490625,0.0007
 3545,0.02523071,-0.03688792,-0.02209794,-0.00424904,0.02429717,-0.0001
 5056,-0.02035188,0.00909542,0.02765136,0.00067536,0.00275489,0.0003687
 4,-0.00023566,-0.00014785,-0.00022304,-0.00035307,-0.00020396,-0.00008
 087,-0.00002682,-0.00019770,0.00008615,-0.00216469,-0.00102161,0.00031
 982,0.00082096,-0.00038319,-0.00027640,0.00004918,0.00007395,0.0000159
 8,0.00009968,-0.00000872,-0.00011964,0.00000760,0.00010424,0.00004313,
 0.00002807,0.00003978,0.00001662,0.00027875,-0.00023327,-0.00015452,0.
 00009484,0.00006308,0.00013333,-0.00005059,0.00002947,-0.00001618,-0.0
 0035761,0.00021564,0.00014192,0.00011848,-0.00006569,-0.00004877,0.000
 80070,0.00034637,-0.00007357,-0.00056153,-0.00004673,0.00004892,0.0001
 1487,0.00024218,-0.00004940,-0.00003749,-0.00012466,0.00001405,0.00026
 064,0.00029332,0.00025857,-0.00017350,-0.00032093,-0.00025349,-0.00033
 062,0.00011714,-0.00039461,0.00621417,0.00769182,0.00147347,-0.2487451
 5,-0.07983521,-0.18194721,-0.01799849,-0.00037738,-0.01429062,0.000094
 42,0.00146370,-0.00136841,0.00002582,-0.00452826,0.00026730,0.62930971
 ,0.00500708,0.00149440,0.00147310,-0.00063193,0.00016096,-0.00059577,0
 .00042575,0.00051272,0.00134609,-0.00081452,0.00066687,0.00002429,-0.0
 0792830,0.00053685,-0.01048720,-0.00140091,0.00047462,0.00097822,0.000
 11880,-0.00004525,-0.00004765,0.00034176,-0.00001746,-0.00031404,0.000
 15091,-0.00012290,-0.00002990,-0.00008906,-0.00068902,0.00013732,-0.00
 053637,-0.00006573,-0.00044165,0.00011747,0.00009708,0.00014540,-0.000
 04392,0.00000031,-0.00004880,0.00080573,-0.00004083,0.00017241,-0.0002
 2381,-0.00006934,-0.00007388,0.00015050,-0.00113326,0.00040422,0.00090
 312,0.00156061,-0.00001607,0.00059656,-0.00058850,0.00029857,0.0000078
 3,0.00009909,-0.00007928,0.00188677,-0.00070563,-0.00078378,-0.0020320
 3,0.00058347,0.00222525,0.00008306,0.00063303,0.00009513,0.01272669,-0
 .03146525,-0.00048501,-0.05663858,-0.05240746,-0.07597186,-0.00489671,
 0.00808142,-0.00297537,0.00090370,-0.00019345,0.00039162,-0.00223693,-
 0.00371210,-0.00146632,0.00240079,0.10719474,0.00057726,0.00204374,0.0
 0147886,-0.00045624,0.00012760,-0.00057899,-0.00037785,-0.00021209,0.0
 0103241,0.00008261,0.00015268,-0.00007967,-0.00105568,-0.00175667,-0.0
 0478574,0.00072252,-0.00006161,-0.00047735,0.00000425,0.00008569,0.000
 05364,-0.00012786,-0.00008378,-0.00000564,0.00003022,0.00004022,0.0000
 8041,0.00000335,-0.00028395,0.00005224,0.00008190,-0.00023077,-0.00010
 196,0.00010308,0.00007810,0.00011663,0.00000730,-0.00000341,0.00001711
 ,-0.00021794,0.00016727,0.00017821,0.00003184,-0.00004065,-0.00007794,
 0.00039684,0.00021632,0.00033414,0.00003024,0.00023591,-0.00024565,0.0
 0003932,0.00005698,0.00013086,-0.00003216,-0.00002483,-0.00002395,0.00
 043562,-0.00026580,0.00049078,-0.00035644,0.00036044,-0.00007963,-0.00
 034149,-0.00023928,0.00151804,0.00302220,-0.00830867,0.00646705,-0.129
 17737,-0.07285475,-0.17859257,-0.01397193,-0.00118500,-0.00062273,-0.0
 0222400,0.00135304,-0.00294961,0.00028334,-0.00312923,-0.00098240,-0.0
 3329031,0.14220935,0.36094481,0.00028502,-0.00026713,-0.00007828,0.000
 00525,0.00002876,0.00001233,0.00031311,0.00014662,-0.00002307,-0.00009
 485,0.00003590,0.00001196,-0.00045329,0.00027665,-0.00009051,-0.000252
 07,0.00009736,0.00015028,0.00001126,-0.00002747,-0.00002109,0.00003037
 ,-0.00000194,-0.00001753,0.00000995,-0.00002752,-0.00001184,-0.0000150
 0,-0.00003641,0.00000614,-0.00008559,0.00003949,-0.00001776,-0.0000079
 6,-0.00000651,-0.00001016,0.00000198,-0.00000103,-0.00000118,0.0001306
 2,-0.00004447,-0.00001448,-0.00003601,0.00000618,0.00000424,-0.0002325
 8,-0.00016460,-0.00000959,0.00017831,0.00010341,0.00000492,0.00003366,
 -0.00010450,0.00002309,0.00001214,0.00003106,-0.00000586,0.00008218,-0
 .00010898,-0.00010766,-0.00011184,0.00011073,0.00018641,0.00012258,0.0
 0013696,-0.00023707,0.00050544,-0.00252266,-0.00004316,-0.02705861,0.0
 0940921,0.02815755,0.00007256,-0.00029180,-0.00195836,0.00027941,-0.00
 008516,0.00013772,-0.00014180,0.00017383,0.00019249,-0.35133415,0.0564
 8696,0.17833347,0.37827839,-0.00060099,-0.00006186,0.00024006,-0.00002
 836,0.00005482,-0.00007118,0.00000661,-0.00006661,0.00033530,0.0001286
 4,0.00001099,-0.00002158,0.00110255,-0.00040077,-0.00108720,0.00019226
 ,-0.00007888,-0.00017224,-0.00002268,0.00002253,0.00001570,-0.00007741
 ,-0.00000963,0.00004163,-0.00001528,0.00001124,0.00002286,-0.00000998,
 -0.00005811,-0.00000293,0.00008140,-0.00000688,0.00005985,-0.00000351,
 -0.00000782,-0.00000750,0.00001114,-0.00000099,0.00001093,-0.00014083,
 0.00002138,-0.00000793,0.00003674,0.00000639,0.00000461,-0.00021408,0.
 00018453,0.00013606,0.00018439,-0.00014741,-0.00016238,-0.00011130,0.0
 0007598,-0.00001158,-0.00000158,-0.00000360,0.00000586,-0.00007561,-0.
 00002379,0.00011173,0.00009580,0.00002843,-0.00011541,0.00004961,-0.00
 015106,0.00069655,-0.00141658,-0.00401393,0.00093079,-0.01051958,0.002
 78152,0.00866015,-0.00075443,-0.00063337,-0.00096932,-0.00001479,0.000
 20029,0.00005856,0.00034941,0.00019782,-0.00004458,0.07362307,-0.03183
 359,-0.06437473,-0.06751993,0.02876241,0.00016900,-0.00008029,-0.00021
 873,0.00003299,-0.00000490,0.00005697,0.00020620,0.00005307,-0.0000009
 7,-0.00006096,0.00000003,0.00002087,-0.00036568,-0.00005906,0.00068272
 ,-0.00011297,0.00006057,0.00007926,0.00000985,-0.00002386,-0.00001928,
 0.00002244,-0.00000023,-0.00001782,0.00000575,-0.00001033,-0.00001028,
 -0.00002058,0.00000149,-0.00001142,-0.00005308,0.00001722,-0.00000140,
 -0.00000538,-0.00000933,-0.00000407,0.00000023,0.00000500,0.00000098,0
 .00007846,-0.00002648,-0.00002130,-0.00001873,0.00000311,0.00000598,-0
 .00010457,-0.00009907,-0.00008267,0.00009109,0.00001332,0.00006371,0.0
 0002074,-0.00004650,-0.00001203,0.00000878,0.00001266,0.00000010,-0.00
 001944,-0.00003482,-0.00008556,-0.00000444,0.00007150,0.00008788,0.000
 04773,0.00006531,-0.00020804,-0.00033869,0.00043023,0.00006566,-0.0243
 8838,0.00482566,0.01489592,-0.00125168,0.00007069,-0.00261174,0.000267
 86,-0.00009835,0.00014803,-0.00003657,-0.00011740,0.00033059,0.2303726
 1,-0.06439071,-0.17512661,-0.20538090,0.05887760,0.16323859,0.00154700
 ,-0.00070853,0.00099182,0.00018610,0.00003167,0.00007544,0.00073048,-0
 .00129570,-0.00073068,-0.00023663,0.00004403,-0.00010215,-0.00652010,0
 .01529986,-0.00534002,-0.00121271,0.00098980,0.00054158,0.00002621,-0.
 00006748,0.00000171,-0.00014993,-0.00006119,-0.00007226,0.00004047,-0.
 00012548,-0.00002213,0.00001979,-0.00025791,0.00004045,-0.00038378,-0.
 00009861,-0.00017638,0.00001698,0.00004351,0.00003006,0.00005366,-0.00
 001084,0.00002159,0.00050176,-0.00009149,0.00005596,-0.00015810,-0.000
 00560,-0.00003479,0.00001766,-0.00119553,0.00190710,0.00216230,0.00171
 818,-0.00059998,0.00017906,-0.00033633,0.00014536,0.00003316,0.0000930
 8,-0.00003314,-0.00072534,-0.00019614,0.00070829,-0.00030425,0.0017394
 7,-0.00020806,0.00040850,-0.00137304,0.00068411,-0.04391858,0.07947330
 ,-0.00711453,0.00617356,-0.00659364,0.00075194,-0.00162678,0.00156427,
 0.00004570,-0.00009747,-0.00023859,-0.00021134,-0.00043839,-0.00136544
 ,-0.00127761,-0.01662390,-0.00564039,-0.00255609,-0.00052847,0.0056652
 9,0.00082831,0.06082774,-0.00793710,-0.00280765,-0.00397438,0.00127327
 ,-0.00043454,0.00113380,-0.00044417,-0.00025971,-0.00115691,0.00096975
 ,-0.00103650,-0.00000908,0.01221520,-0.00640216,0.01772664,0.00179440,
 -0.00059143,-0.00115423,-0.00016635,0.00004327,0.00006171,-0.00052756,
 0.00006907,0.00041334,-0.00020647,0.00017877,0.00003512,0.00007670,0.0
 0091400,-0.00042376,0.00067333,0.00000733,0.00058744,-0.00017798,-0.00
 012204,-0.00020248,0.00006877,0.00000364,0.00007021,-0.00103072,0.0000
 5970,-0.00023502,0.00027820,0.00009372,0.00009318,0.00041867,0.0018596
 0,-0.00045977,-0.00131121,-0.00244903,0.00002754,-0.00071943,0.0007935
 6,-0.00047257,-0.00001219,-0.00014656,0.00010913,-0.00379393,0.0017488
 7,0.00156681,0.00422007,-0.00173692,-0.00468000,-0.00099230,0.00097296
 ,-0.00478059,0.08734589,-0.34242291,-0.01005407,-0.01137439,-0.0016537
 5,-0.00587775,0.00546202,-0.00239353,0.00398071,-0.00037050,-0.0001429
 2,-0.00017531,-0.00089414,0.00473113,-0.00035623,-0.00196428,0.0009935
 8,0.00592792,0.00412699,0.00513995,0.00049389,-0.08700052,0.34499052,-
 0.00034799,-0.00234292,-0.00044731,-0.00037049,0.00033799,-0.00039174,
 -0.00271136,0.00047602,-0.00713472,0.00011827,-0.00008073,-0.00029757,
 -0.01027458,0.04337442,-0.00138653,-0.00032353,-0.00019921,0.00030855,
 -0.00000519,0.00005630,0.00005711,0.00010246,0.00005490,-0.00005678,-0
 .00000645,-0.00006291,0.00001114,0.00009455,0.00179270,0.00006226,-0.0
 0000836,0.00014488,-0.00006704,-0.00001732,-0.00002424,-0.00000322,-0.
 00000419,0.00000734,-0.00000368,0.00009475,-0.00005482,-0.00003165,-0.
 00000904,0.00000474,0.00002794,-0.00013028,-0.00066684,0.00041629,0.00
 055029,0.00021715,-0.00011892,-0.00013688,0.00001137,0.00009518,-0.000
 05568,0.00003319,0.00005346,0.00226367,-0.00043956,-0.00149742,-0.0019
 2107,-0.00161542,0.00269523,0.00037827,0.00042180,-0.00019533,0.002252
 09,-0.04414497,-0.05263736,-0.00110961,-0.00482447,-0.00104744,0.00101
 366,0.00026637,0.00019416,0.00006782,-0.00003405,0.00017908,-0.0009879
 1,0.00035964,-0.00017520,-0.00097357,0.00830631,-0.00816474,0.00080788
 ,-0.00315967,-0.00124535,0.01164978,0.00178472,0.07080158\\0.00001596,
 0.00000946,0.00001754,0.00003426,-0.00002078,0.00002245,0.00000353,0.0
 0001112,0.00000775,-0.00001394,-0.00000469,0.00000140,-0.00001268,-0.0
 0002775,-0.00004343,-0.00004529,0.00002423,0.00000523,0.00000204,0.000
 00053,0.00000276,0.00000651,-0.00000209,-0.00000409,-0.00000192,-0.000
 00386,0.00000747,-0.00000788,0.00000528,0.00000066,0.00000957,-0.00000
 771,0.00000718,-0.00000188,-0.00000130,0.00000433,-0.00000885,0.000000
 97,0.00000366,-0.00000400,0.00000103,0.00000030,0.00000546,-0.00000328
 ,0.00001364,-0.00000327,-0.00001889,-0.00001136,-0.00000080,0.00000785
 ,-0.00000048,0.00000270,0.00000516,0.00000341,-0.00000761,-0.00000948,
 0.00000450,-0.00000573,0.00001820,-0.00001074,-0.00000090,-0.00000482,
 -0.00001162,0.00001735,0.00001816,0.00000026,-0.00001984,-0.00000838,0
 .00004961,0.00003728,-0.00003841,-0.00004281,0.00001514,0.00000025,0.0
 0002561,-0.00001349,0.00000848,-0.00002363,-0.00003112,-0.00001238,0.0
 0000045,-0.00004246,0.00003952,0.00003748,-0.00000310,0.00000097,-0.00
 001014,0.00007496,0.00001260,-0.00005739\\\@


 A politician is a person who can make waves and then
 make you think he's the only one who can save the ship.
 -- Ivern Ball
 Job cpu time:       0 days  0 hours 37 minutes 27.3 seconds.
 File lengths (MBytes):  RWF=    220 Int=      0 D2E=      0 Chk=      6 Scr=      1
 Normal termination of Gaussian 09 at Wed Jan 11 21:37:38 2017.
