 Entering Gaussian System, Link 0=g09
 Initial command:
 /global/software/gaussian/g09.e01/l1.exe "//home/aalrawas/scratch/Gau-15929.inp" -scrdir="//home/aalrawas/scratch/"
 Entering Link 1 = /global/software/gaussian/g09.e01/l1.exe PID=     15930.

 Copyright (c) 1988,1990,1992,1993,1995,1998,2003,2009,2015,
            Gaussian, Inc.  All Rights Reserved.

 This is part of the Gaussian(R) 09 program.  It is based on
 the Gaussian(R) 03 system (copyright 2003, Gaussian, Inc.),
 the Gaussian(R) 98 system (copyright 1998, Gaussian, Inc.),
 the Gaussian(R) 94 system (copyright 1995, Gaussian, Inc.),
 the Gaussian 92(TM) system (copyright 1992, Gaussian, Inc.),
 the Gaussian 90(TM) system (copyright 1990, Gaussian, Inc.),
 the Gaussian 88(TM) system (copyright 1988, Gaussian, Inc.),
 the Gaussian 86(TM) system (copyright 1986, Carnegie Mellon
 University), and the Gaussian 82(TM) system (copyright 1983,
 Carnegie Mellon University). Gaussian is a federally registered
 trademark of Gaussian, Inc.

 This software contains proprietary and confidential information,
 including trade secrets, belonging to Gaussian, Inc.

 This software is provided under written license and may be
 used, copied, transmitted, or stored only in accord with that
 written license.

 The following legend is applicable only to US Government
 contracts under FAR:

                    RESTRICTED RIGHTS LEGEND

 Use, reproduction and disclosure by the US Government is
 subject to restrictions as set forth in subparagraphs (a)
 and (c) of the Commercial Computer Software - Restricted
 Rights clause in FAR 52.227-19.

 Gaussian, Inc.
 340 Quinnipiac St., Bldg. 40, Wallingford CT 06492


 ---------------------------------------------------------------
 Warning -- This program may not be used in any manner that
 competes with the business of Gaussian, Inc. or will provide
 assistance to any competitor of Gaussian, Inc.  The licensee
 of this program is prohibited from giving any competitor of
 Gaussian, Inc. access to this program.  By using this program,
 the user acknowledges that Gaussian, Inc. is engaged in the
 business of creating and licensing software in the field of
 computational chemistry and represents and warrants to the
 licensee that it is not a competitor of Gaussian, Inc. and that
 it will not use this program in any manner prohibited above.
 ---------------------------------------------------------------


 Cite this work as:
 Gaussian 09, Revision E.01,
 M. J. Frisch, G. W. Trucks, H. B. Schlegel, G. E. Scuseria,
 M. A. Robb, J. R. Cheeseman, G. Scalmani, V. Barone, B. Mennucci,
 G. A. Petersson, H. Nakatsuji, M. Caricato, X. Li, H. P. Hratchian,
 A. F. Izmaylov, J. Bloino, G. Zheng, J. L. Sonnenberg, M. Hada,
 M. Ehara, K. Toyota, R. Fukuda, J. Hasegawa, M. Ishida, T. Nakajima,
 Y. Honda, O. Kitao, H. Nakai, T. Vreven, J. A. Montgomery, Jr.,
 J. E. Peralta, F. Ogliaro, M. Bearpark, J. J. Heyd, E. Brothers,
 K. N. Kudin, V. N. Staroverov, T. Keith, R. Kobayashi, J. Normand,
 K. Raghavachari, A. Rendell, J. C. Burant, S. S. Iyengar, J. Tomasi,
 M. Cossi, N. Rega, J. M. Millam, M. Klene, J. E. Knox, J. B. Cross,
 V. Bakken, C. Adamo, J. Jaramillo, R. Gomperts, R. E. Stratmann,
 O. Yazyev, A. J. Austin, R. Cammi, C. Pomelli, J. W. Ochterski,
 R. L. Martin, K. Morokuma, V. G. Zakrzewski, G. A. Voth,
 P. Salvador, J. J. Dannenberg, S. Dapprich, A. D. Daniels,
 O. Farkas, J. B. Foresman, J. V. Ortiz, J. Cioslowski,
 and D. J. Fox, Gaussian, Inc., Wallingford CT, 2013.

 ******************************************
 Gaussian 09:  ES64L-G09RevE.01 30-Nov-2015
                16-Jan-2017
 ******************************************
 %NPROCS=16
 Will use up to   16 processors via shared memory.
 ------------------------------------------------------
 # opt=(modredundant,MaxCycle=1000) freq B3LYP/6-31G(d)
 ------------------------------------------------------
 1/6=1000,14=-1,18=120,19=15,26=3,38=1/1,3;
 2/9=110,12=2,17=6,18=5,40=1/2;
 3/5=1,6=6,7=1,11=2,16=1,25=1,30=1,71=1,74=-5/1,2,3;
 4//1;
 5/5=2,38=5/2;
 6/7=2,8=2,9=2,10=2,28=1/1;
 7//1,2,3,16;
 1/6=1000,14=-1,18=20,19=15,26=3/3(2);
 2/9=110/2;
 99//99;
 2/9=110/2;
 3/5=1,6=6,7=1,11=2,16=1,25=1,30=1,71=1,74=-5/1,2,3;
 4/5=5,16=3,69=1/1;
 5/5=2,38=5/2;
 7//1,2,3,16;
 1/6=1000,14=-1,18=20,19=15,26=3/3(-5);
 2/9=110/2;
 6/7=2,8=2,9=2,10=2,19=2,28=1/1;
 99/9=1/99;
 -------------------
 Title Card Required
 -------------------
 Symbolic Z-matrix:
 Charge =  0 Multiplicity = 1
 H                    -1.7263    0.21099   1.53249
 C                    -1.17536  -0.15066   0.65528
 C                     1.01099   1.01964   0.16145
 C                     0.92302  -1.49816   0.35774
 C                     1.59572  -0.29894  -0.32924
 O                    -0.20388  -1.10649   1.17824
 C                    -0.50266   1.04857  -0.03169
 H                     1.63488  -2.01433   1.01161
 H                     1.49388  -0.3753   -1.41886
 H                    -0.71972   1.0625   -1.10713
 C                    -2.18696  -0.84006  -0.26503
 H                    -2.63174  -1.70411   0.23997
 H                    -1.71463  -1.19773  -1.18484
 O                     0.46175  -2.43027  -0.61078
 H                     0.15288  -3.19734  -0.09934
 H                     1.27507   1.19506   1.21195
 O                    -3.22221   0.07518  -0.61718
 H                    -3.86227  -0.42418  -1.15628
 O                     3.01406  -0.29628  -0.08215
 H                     3.31832   0.5787   -0.39902
 O                     1.61733   2.10157  -0.57104
 H                     1.08337   2.88772  -0.33377
 O                    -1.00373   2.29609   0.47406
 H                    -1.9695    2.27871   0.32175
 O                    -1.02341  -3.57525   1.25633
 H                    -0.98225  -2.68878   1.66751
 H                    -1.93041  -3.66144   0.92748
 O                     4.35087   2.09804  -0.61798
 H                     3.40561   2.34541  -0.71149
 H                     4.63566   2.54747   0.19211

 Add virtual bond connecting atoms O28        and H20        Dist= 3.50D+00.
 Add virtual bond connecting atoms H29        and H20        Dist= 3.39D+00.
 Add virtual bond connecting atoms H29        and O21        Dist= 3.42D+00.
 Add virtual bond connecting atoms O25        and H15        Dist= 3.47D+00.
 Add virtual bond connecting atoms H26        and O6         Dist= 3.46D+00.
 The following ModRedundant input section has been read:
 D       6       4       5       3 F
 D       6       2       7       3 F


 GradGradGradGradGradGradGradGradGradGradGradGradGradGradGradGradGradGrad
 Berny optimization.
 Initialization pass.
                           ----------------------------
                           !    Initial Parameters    !
                           ! (Angstroms and Degrees)  !
 --------------------------                            --------------------------
 ! Name  Definition              Value          Derivative Info.                !
 --------------------------------------------------------------------------------
 ! R1    R(1,2)                  1.0972         estimate D2E/DX2                !
 ! R2    R(2,6)                  1.4597         estimate D2E/DX2                !
 ! R3    R(2,7)                  1.5371         estimate D2E/DX2                !
 ! R4    R(2,11)                 1.5315         estimate D2E/DX2                !
 ! R5    R(3,5)                  1.5236         estimate D2E/DX2                !
 ! R6    R(3,7)                  1.5262         estimate D2E/DX2                !
 ! R7    R(3,16)                 1.0973         estimate D2E/DX2                !
 ! R8    R(3,21)                 1.4404         estimate D2E/DX2                !
 ! R9    R(4,5)                  1.5371         estimate D2E/DX2                !
 ! R10   R(4,6)                  1.4479         estimate D2E/DX2                !
 ! R11   R(4,8)                  1.0958         estimate D2E/DX2                !
 ! R12   R(4,14)                 1.4211         estimate D2E/DX2                !
 ! R13   R(5,9)                  1.097          estimate D2E/DX2                !
 ! R14   R(5,19)                 1.4397         estimate D2E/DX2                !
 ! R15   R(6,26)                 1.83           estimate D2E/DX2                !
 ! R16   R(7,10)                 1.0972         estimate D2E/DX2                !
 ! R17   R(7,23)                 1.4364         estimate D2E/DX2                !
 ! R18   R(11,12)                1.0952         estimate D2E/DX2                !
 ! R19   R(11,13)                1.0941         estimate D2E/DX2                !
 ! R20   R(11,17)                1.426          estimate D2E/DX2                !
 ! R21   R(14,15)                0.9723         estimate D2E/DX2                !
 ! R22   R(15,25)                1.8342         estimate D2E/DX2                !
 ! R23   R(17,18)                0.9745         estimate D2E/DX2                !
 ! R24   R(19,20)                0.9791         estimate D2E/DX2                !
 ! R25   R(20,28)                1.85           estimate D2E/DX2                !
 ! R26   R(20,29)                1.7962         estimate D2E/DX2                !
 ! R27   R(21,22)                0.9795         estimate D2E/DX2                !
 ! R28   R(21,29)                1.8103         estimate D2E/DX2                !
 ! R29   R(23,24)                0.9779         estimate D2E/DX2                !
 ! R30   R(25,26)                0.9781         estimate D2E/DX2                !
 ! R31   R(25,27)                0.9686         estimate D2E/DX2                !
 ! R32   R(28,29)                0.9815         estimate D2E/DX2                !
 ! R33   R(28,30)                0.9692         estimate D2E/DX2                !
 ! A1    A(1,2,6)              105.2828         estimate D2E/DX2                !
 ! A2    A(1,2,7)              108.6583         estimate D2E/DX2                !
 ! A3    A(1,2,11)             107.2854         estimate D2E/DX2                !
 ! A4    A(6,2,7)              112.3164         estimate D2E/DX2                !
 ! A5    A(6,2,11)             111.1071         estimate D2E/DX2                !
 ! A6    A(7,2,11)             111.8209         estimate D2E/DX2                !
 ! A7    A(5,3,7)              110.8717         estimate D2E/DX2                !
 ! A8    A(5,3,16)             110.7517         estimate D2E/DX2                !
 ! A9    A(5,3,21)             108.949          estimate D2E/DX2                !
 ! A10   A(7,3,16)             110.9043         estimate D2E/DX2                !
 ! A11   A(7,3,21)             109.8098         estimate D2E/DX2                !
 ! A12   A(16,3,21)            105.3939         estimate D2E/DX2                !
 ! A13   A(5,4,6)              112.509          estimate D2E/DX2                !
 ! A14   A(5,4,8)              110.4811         estimate D2E/DX2                !
 ! A15   A(5,4,14)             110.4376         estimate D2E/DX2                !
 ! A16   A(6,4,8)              107.1498         estimate D2E/DX2                !
 ! A17   A(6,4,14)             108.1197         estimate D2E/DX2                !
 ! A18   A(8,4,14)             107.9733         estimate D2E/DX2                !
 ! A19   A(3,5,4)              111.3037         estimate D2E/DX2                !
 ! A20   A(3,5,9)              110.1513         estimate D2E/DX2                !
 ! A21   A(3,5,19)             108.7366         estimate D2E/DX2                !
 ! A22   A(4,5,9)              110.4251         estimate D2E/DX2                !
 ! A23   A(4,5,19)             110.8482         estimate D2E/DX2                !
 ! A24   A(9,5,19)             105.1914         estimate D2E/DX2                !
 ! A25   A(2,6,4)              119.4764         estimate D2E/DX2                !
 ! A26   A(2,6,26)             112.264          estimate D2E/DX2                !
 ! A27   A(4,6,26)             104.3973         estimate D2E/DX2                !
 ! A28   A(2,7,3)              111.2664         estimate D2E/DX2                !
 ! A29   A(2,7,10)             111.1857         estimate D2E/DX2                !
 ! A30   A(2,7,23)             111.5668         estimate D2E/DX2                !
 ! A31   A(3,7,10)             108.692          estimate D2E/DX2                !
 ! A32   A(3,7,23)             108.5346         estimate D2E/DX2                !
 ! A33   A(10,7,23)            105.3715         estimate D2E/DX2                !
 ! A34   A(2,11,12)            110.2613         estimate D2E/DX2                !
 ! A35   A(2,11,13)            111.542          estimate D2E/DX2                !
 ! A36   A(2,11,17)            109.8167         estimate D2E/DX2                !
 ! A37   A(12,11,13)           107.762          estimate D2E/DX2                !
 ! A38   A(12,11,17)           108.9905         estimate D2E/DX2                !
 ! A39   A(13,11,17)           108.398          estimate D2E/DX2                !
 ! A40   A(4,14,15)            105.1927         estimate D2E/DX2                !
 ! A41   A(14,15,25)           139.0296         estimate D2E/DX2                !
 ! A42   A(11,17,18)           106.5327         estimate D2E/DX2                !
 ! A43   A(5,19,20)            104.6112         estimate D2E/DX2                !
 ! A44   A(19,20,28)           161.0337         estimate D2E/DX2                !
 ! A45   A(19,20,29)           161.8779         estimate D2E/DX2                !
 ! A46   A(3,21,22)            104.4892         estimate D2E/DX2                !
 ! A47   A(3,21,29)            123.8114         estimate D2E/DX2                !
 ! A48   A(22,21,29)           116.6924         estimate D2E/DX2                !
 ! A49   A(7,23,24)            105.9171         estimate D2E/DX2                !
 ! A50   A(15,25,26)            95.5661         estimate D2E/DX2                !
 ! A51   A(15,25,27)           111.587          estimate D2E/DX2                !
 ! A52   A(26,25,27)           105.236          estimate D2E/DX2                !
 ! A53   A(6,26,25)            133.565          estimate D2E/DX2                !
 ! A54   A(20,28,30)           116.4816         estimate D2E/DX2                !
 ! A55   A(29,28,30)           104.2263         estimate D2E/DX2                !
 ! A56   A(20,29,21)            78.8147         estimate D2E/DX2                !
 ! A57   A(21,29,28)           155.5028         estimate D2E/DX2                !
 ! D1    D(1,2,6,4)           -163.0567         estimate D2E/DX2                !
 ! D2    D(1,2,6,26)            74.258          estimate D2E/DX2                !
 ! D3    D(7,2,6,4)            -44.9796         estimate D2E/DX2                !
 ! D4    D(7,2,6,26)          -167.6648         estimate D2E/DX2                !
 ! D5    D(11,2,6,4)            81.1165         estimate D2E/DX2                !
 ! D6    D(11,2,6,26)          -41.5688         estimate D2E/DX2                !
 ! D7    D(1,2,7,3)            108.9719         estimate D2E/DX2                !
 ! D8    D(1,2,7,10)          -129.7175         estimate D2E/DX2                !
 ! D9    D(1,2,7,23)           -12.4021         estimate D2E/DX2                !
 ! D10   D(6,2,7,3)             -7.0892         Frozen                          !
 ! D11   D(6,2,7,10)           114.2214         estimate D2E/DX2                !
 ! D12   D(6,2,7,23)          -128.4632         estimate D2E/DX2                !
 ! D13   D(11,2,7,3)          -132.7976         estimate D2E/DX2                !
 ! D14   D(11,2,7,10)          -11.487          estimate D2E/DX2                !
 ! D15   D(11,2,7,23)          105.8284         estimate D2E/DX2                !
 ! D16   D(1,2,11,12)          -62.3685         estimate D2E/DX2                !
 ! D17   D(1,2,11,13)          177.94           estimate D2E/DX2                !
 ! D18   D(1,2,11,17)           57.7461         estimate D2E/DX2                !
 ! D19   D(6,2,11,12)           52.2153         estimate D2E/DX2                !
 ! D20   D(6,2,11,13)          -67.4761         estimate D2E/DX2                !
 ! D21   D(6,2,11,17)          172.3299         estimate D2E/DX2                !
 ! D22   D(7,2,11,12)          178.5855         estimate D2E/DX2                !
 ! D23   D(7,2,11,13)           58.894          estimate D2E/DX2                !
 ! D24   D(7,2,11,17)          -61.2999         estimate D2E/DX2                !
 ! D25   D(7,3,5,4)            -55.5743         estimate D2E/DX2                !
 ! D26   D(7,3,5,9)             67.2526         estimate D2E/DX2                !
 ! D27   D(7,3,5,19)          -177.9619         estimate D2E/DX2                !
 ! D28   D(16,3,5,4)            67.9872         estimate D2E/DX2                !
 ! D29   D(16,3,5,9)          -169.1859         estimate D2E/DX2                !
 ! D30   D(16,3,5,19)          -54.4004         estimate D2E/DX2                !
 ! D31   D(21,3,5,4)          -176.5311         estimate D2E/DX2                !
 ! D32   D(21,3,5,9)           -53.7042         estimate D2E/DX2                !
 ! D33   D(21,3,5,19)           61.0813         estimate D2E/DX2                !
 ! D34   D(5,3,7,2)             55.5531         estimate D2E/DX2                !
 ! D35   D(5,3,7,10)           -67.2034         estimate D2E/DX2                !
 ! D36   D(5,3,7,23)           178.6813         estimate D2E/DX2                !
 ! D37   D(16,3,7,2)           -67.9208         estimate D2E/DX2                !
 ! D38   D(16,3,7,10)          169.3227         estimate D2E/DX2                !
 ! D39   D(16,3,7,23)           55.2074         estimate D2E/DX2                !
 ! D40   D(21,3,7,2)           176.0            estimate D2E/DX2                !
 ! D41   D(21,3,7,10)           53.2434         estimate D2E/DX2                !
 ! D42   D(21,3,7,23)          -60.8719         estimate D2E/DX2                !
 ! D43   D(5,3,21,22)          169.563          estimate D2E/DX2                !
 ! D44   D(5,3,21,29)          -53.4275         estimate D2E/DX2                !
 ! D45   D(7,3,21,22)           47.9583         estimate D2E/DX2                !
 ! D46   D(7,3,21,29)         -175.0322         estimate D2E/DX2                !
 ! D47   D(16,3,21,22)         -71.5495         estimate D2E/DX2                !
 ! D48   D(16,3,21,29)          65.4599         estimate D2E/DX2                !
 ! D49   D(6,4,5,3)              6.941          Frozen                          !
 ! D50   D(6,4,5,9)           -115.7286         estimate D2E/DX2                !
 ! D51   D(6,4,5,19)           128.1016         estimate D2E/DX2                !
 ! D52   D(8,4,5,3)           -112.7621         estimate D2E/DX2                !
 ! D53   D(8,4,5,9)            124.5683         estimate D2E/DX2                !
 ! D54   D(8,4,5,19)             8.3985         estimate D2E/DX2                !
 ! D55   D(14,4,5,3)           127.8507         estimate D2E/DX2                !
 ! D56   D(14,4,5,9)             5.1811         estimate D2E/DX2                !
 ! D57   D(14,4,5,19)         -110.9887         estimate D2E/DX2                !
 ! D58   D(5,4,6,2)             45.059          estimate D2E/DX2                !
 ! D59   D(5,4,6,26)           171.53           estimate D2E/DX2                !
 ! D60   D(8,4,6,2)            166.6771         estimate D2E/DX2                !
 ! D61   D(8,4,6,26)           -66.8519         estimate D2E/DX2                !
 ! D62   D(14,4,6,2)           -77.1702         estimate D2E/DX2                !
 ! D63   D(14,4,6,26)           49.3008         estimate D2E/DX2                !
 ! D64   D(5,4,14,15)          173.3            estimate D2E/DX2                !
 ! D65   D(6,4,14,15)          -63.2092         estimate D2E/DX2                !
 ! D66   D(8,4,14,15)           52.4063         estimate D2E/DX2                !
 ! D67   D(3,5,19,20)          -46.4852         estimate D2E/DX2                !
 ! D68   D(4,5,19,20)         -169.1481         estimate D2E/DX2                !
 ! D69   D(9,5,19,20)           71.4876         estimate D2E/DX2                !
 ! D70   D(2,6,26,25)          103.2541         estimate D2E/DX2                !
 ! D71   D(4,6,26,25)          -27.5926         estimate D2E/DX2                !
 ! D72   D(2,7,23,24)          -57.7445         estimate D2E/DX2                !
 ! D73   D(3,7,23,24)          179.3085         estimate D2E/DX2                !
 ! D74   D(10,7,23,24)          63.0309         estimate D2E/DX2                !
 ! D75   D(2,11,17,18)        -176.7591         estimate D2E/DX2                !
 ! D76   D(12,11,17,18)        -55.8751         estimate D2E/DX2                !
 ! D77   D(13,11,17,18)         61.1558         estimate D2E/DX2                !
 ! D78   D(4,14,15,25)          55.5115         estimate D2E/DX2                !
 ! D79   D(14,15,25,26)        -27.182          estimate D2E/DX2                !
 ! D80   D(14,15,25,27)         81.6332         estimate D2E/DX2                !
 ! D81   D(5,19,20,28)         158.4392         estimate D2E/DX2                !
 ! D82   D(5,19,20,29)          43.0623         estimate D2E/DX2                !
 ! D83   D(19,20,28,30)        -50.1318         estimate D2E/DX2                !
 ! D84   D(19,20,29,21)        -28.5201         estimate D2E/DX2                !
 ! D85   D(3,21,29,20)          24.8278         estimate D2E/DX2                !
 ! D86   D(3,21,29,28)          10.5226         estimate D2E/DX2                !
 ! D87   D(22,21,29,20)        157.1867         estimate D2E/DX2                !
 ! D88   D(22,21,29,28)        142.8815         estimate D2E/DX2                !
 ! D89   D(15,25,26,6)           7.2752         estimate D2E/DX2                !
 ! D90   D(27,25,26,6)        -106.9087         estimate D2E/DX2                !
 ! D91   D(20,28,29,30)        113.5789         estimate D2E/DX2                !
 ! D92   D(30,28,29,21)        -99.1992         estimate D2E/DX2                !
 --------------------------------------------------------------------------------
 Trust Radius=3.00D-01 FncErr=1.00D-07 GrdErr=1.00D-06
 Number of steps in this run=    180 maximum allowed number of steps=    180.
 GradGradGradGradGradGradGradGradGradGradGradGradGradGradGradGradGradGrad

                          Input orientation:
 ---------------------------------------------------------------------
 Center     Atomic      Atomic             Coordinates (Angstroms)
 Number     Number       Type             X           Y           Z
 ---------------------------------------------------------------------
      1          1           0       -1.726303    0.210990    1.532492
      2          6           0       -1.175361   -0.150659    0.655284
      3          6           0        1.010987    1.019640    0.161454
      4          6           0        0.923018   -1.498163    0.357735
      5          6           0        1.595719   -0.298936   -0.329237
      6          8           0       -0.203882   -1.106486    1.178242
      7          6           0       -0.502660    1.048567   -0.031687
      8          1           0        1.634876   -2.014330    1.011615
      9          1           0        1.493882   -0.375297   -1.418864
     10          1           0       -0.719719    1.062497   -1.107133
     11          6           0       -2.186962   -0.840061   -0.265027
     12          1           0       -2.631737   -1.704107    0.239971
     13          1           0       -1.714625   -1.197731   -1.184843
     14          8           0        0.461751   -2.430274   -0.610784
     15          1           0        0.152881   -3.197341   -0.099336
     16          1           0        1.275065    1.195061    1.211949
     17          8           0       -3.222206    0.075179   -0.617182
     18          1           0       -3.862273   -0.424181   -1.156279
     19          8           0        3.014060   -0.296275   -0.082151
     20          1           0        3.318315    0.578702   -0.399017
     21          8           0        1.617328    2.101575   -0.571035
     22          1           0        1.083365    2.887719   -0.333773
     23          8           0       -1.003728    2.296092    0.474061
     24          1           0       -1.969503    2.278709    0.321747
     25          8           0       -1.023411   -3.575247    1.256331
     26          1           0       -0.982249   -2.688782    1.667510
     27          1           0       -1.930406   -3.661443    0.927477
     28          8           0        4.350866    2.098042   -0.617981
     29          1           0        3.405614    2.345405   -0.711492
     30          1           0        4.635665    2.547470    0.192109
 ---------------------------------------------------------------------
                    Distance matrix (angstroms):
                    1          2          3          4          5
     1  H    0.000000
     2  C    1.097188   0.000000
     3  C    3.166452   2.528554   0.000000
     4  C    3.364545   2.511473   2.526974   0.000000
     5  C    3.842120   2.944512   1.523592   1.537076   0.000000
     6  O    2.044261   1.459747   2.651448   1.447946   2.482578
     7  C    2.155341   1.537075   1.526194   2.944493   2.511473
     8  H    4.064589   3.390822   3.212006   1.095778   2.177612
     9  H    4.407247   3.387833   2.162508   2.177847   1.097036
    10  H    2.950575   2.187572   2.146274   3.376596   2.796404
    11  C    2.132602   1.531530   3.723876   3.239276   3.821729
    12  H    2.481535   2.169497   4.549110   3.562663   4.491090
    13  H    3.060807   2.184773   3.762740   3.070337   3.535289
    14  O    4.044439   3.078914   3.577697   1.421136   2.430587
    15  H    4.220297   3.408217   4.311297   1.920737   3.245826
    16  H    3.174800   2.850513   1.097292   2.847292   2.170277
    17  O    2.622455   2.420691   4.406609   4.539686   4.840999
    18  H    3.492177   3.252087   5.250686   5.132707   5.521717
    19  O    5.033431   4.256320   2.408999   2.451630   1.439705
    20  H    5.414251   4.672969   2.415019   3.259369   1.934543
    21  O    4.379384   3.791507   1.440407   3.781903   2.412755
    22  H    4.306049   3.913032   1.933962   4.442956   3.227584
    23  O    2.447456   2.459449   2.405437   4.257024   3.759865
    24  H    2.408425   2.577545   3.239486   4.757387   4.447341
    25  O    3.860818   3.480252   5.143007   2.985019   4.484204
    26  H    2.996752   2.739336   4.471419   2.600601   4.042806
    27  H    3.924721   3.601359   5.581319   3.625798   5.031833
    28  O    6.716955   6.100577   3.595172   5.063087   3.663292
    29  H    5.993978   5.392935   2.872965   4.698888   3.227132
    30  H    6.908719   6.423586   3.933636   5.493480   4.197035
                    6          7          8          9         10
     6  O    0.000000
     7  C    2.489468   0.000000
     8  H    2.057420   3.877999   0.000000
     9  H    3.187789   2.817415   2.934883   0.000000
    10  H    3.192728   1.097220   4.415889   2.657905   0.000000
    11  C    2.467106   2.541306   4.197043   3.885352   2.545913
    12  H    2.670577   3.490556   4.346914   4.640927   3.622789
    13  H    2.806215   2.800800   4.087838   3.320494   2.470730
    14  O    2.322950   3.656197   2.044850   2.437461   3.720441
    15  H    2.476118   4.296748   2.197735   3.391662   4.463552
    16  H    2.735971   2.174488   3.235705   3.071658   3.061842
    17  O    3.705423   2.947239   5.532655   4.804905   2.734463
    18  H    4.393103   3.836756   6.119394   5.362811   3.476819
    19  O    3.549674   3.765430   2.459712   2.025830   4.103408
    20  H    4.211113   3.867241   3.398185   2.297555   4.128099
    21  O    4.082699   2.427771   4.409735   2.620868   2.613211
    22  H    4.460591   2.447287   5.113151   3.463123   2.679670
    23  O    3.565552   1.436373   5.082414   4.117953   2.025486
    24  H    3.912869   1.946739   5.647800   4.697713   2.254513
    25  O    2.602404   4.828026   3.092384   4.871664   5.214102
    26  H    1.830000   4.133407   2.781084   4.583573   4.673293
    27  H    3.093796   5.014245   3.928269   5.294320   5.284034
    28  O    5.851593   5.000185   5.190740   3.862794   5.198313
    29  H    5.339954   4.173552   5.011178   3.399605   4.338290
    30  H    6.143702   5.357161   5.521444   4.583514   5.707303
                   11         12         13         14         15
    11  C    0.000000
    12  H    1.095182   0.000000
    13  H    1.094117   1.768504   0.000000
    14  O    3.108698   3.289494   2.566188   0.000000
    15  H    3.325520   3.177888   2.943525   0.972302   0.000000
    16  H    4.278880   4.961151   4.517556   4.138465   4.719318
    17  O    1.425976   2.061364   2.053129   4.455208   4.729562
    18  H    1.942667   2.258748   2.282890   4.797828   4.992895
    19  O    5.232569   5.827588   4.938524   3.368633   4.074656
    20  H    5.686732   6.404892   5.394787   4.154364   4.936424
    21  O    4.818660   5.761554   4.729069   4.677028   5.517754
    22  H    4.959446   5.934310   5.024338   5.361361   6.160253
    23  O    3.432455   4.325136   3.932447   5.065871   5.643078
    24  H    3.180930   4.038324   3.797422   5.380997   5.888034
    25  O    3.339106   2.668495   3.477023   2.646278   1.834205
    26  H    2.933224   2.393379   3.300837   2.709721   2.160763
    27  H    3.073774   2.189908   3.252435   3.099103   2.368506
    28  O    7.176365   7.996822   6.926300   5.969163   6.777400
    29  H    6.451623   7.331674   6.244576   5.611024   6.455776
    30  H    7.631027   8.419818   7.499914   6.545543   7.292678
                   16         17         18         19         20
    16  H    0.000000
    17  O    4.982500   0.000000
    18  H    5.884105   0.974511   0.000000
    19  O    2.631137   6.270187   6.960896   0.000000
    20  H    2.673945   6.563501   7.289723   0.979061   0.000000
    21  O    2.029272   5.246856   6.062011   2.817721   2.289561
    22  H    2.300238   5.150596   6.008705   3.732119   3.214159
    23  O    2.636218   3.323388   4.269564   4.813768   4.731992
    24  H    3.534682   2.703035   3.615626   5.624018   5.600941
    25  O    5.295357   4.655144   4.879451   5.370695   6.232660
    26  H    4.515223   4.228086   4.625661   4.975529   5.782892
    27  H    5.825942   4.244651   4.307438   6.065595   6.876590
    28  O    3.691148   7.838584   8.608544   2.794086   1.850000
    29  H    3.092274   7.006484   7.790419   2.743695   1.796247
    30  H    3.763339   8.277277   9.102956   3.285074   2.441493
                   21         22         23         24         25
    21  O    0.000000
    22  H    0.979506   0.000000
    23  O    2.828427   2.314860   0.000000
    24  H    3.700513   3.181289   0.977867   0.000000
    25  O    6.522199   6.981180   5.923256   6.003111   0.000000
    26  H    5.892063   6.274493   5.125793   5.240393   0.978051
    27  H    6.931402   7.318818   6.046201   5.971084   0.968615
    28  O    2.733944   3.373563   5.468405   6.392401   8.036299
    29  H    1.810290   2.414460   4.566209   5.473931   7.651321
    30  H    3.145087   3.607098   5.652030   6.611905   8.405080
                   26         27         28         29         30
    26  H    0.000000
    27  H    1.546842   0.000000
    28  O    7.521919   8.661090   0.000000
    29  H    7.089150   8.200095   0.981547   0.000000
    30  H    7.820237   9.066678   0.969196   1.539594   0.000000
 Stoichiometry    C6H16O8
 Framework group  C1[X(C6H16O8)]
 Deg. of freedom    84
 Full point group                 C1      NOp   1
 Largest Abelian subgroup         C1      NOp   1
 Largest concise Abelian subgroup C1      NOp   1
                         Standard orientation:
 ---------------------------------------------------------------------
 Center     Atomic      Atomic             Coordinates (Angstroms)
 Number     Number       Type             X           Y           Z
 ---------------------------------------------------------------------
      1          1           0        1.645691    1.234149   -1.421868
      2          6           0        1.285960    0.718517   -0.522680
      3          6           0       -1.223611    0.506406   -0.297628
      4          6           0        0.255179   -1.533966   -0.108791
      5          6           0       -1.040466   -0.854455    0.362559
      6          8           0        1.068335   -0.665157   -0.933712
      7          6           0       -0.009684    1.398027   -0.051332
      8          1           0        0.026157   -2.424299   -0.705102
      9          1           0       -1.041630   -0.748045    1.454421
     10          1           0        0.036547    1.641741    1.017480
     11          6           0        2.394079    0.813294    0.530255
     12          1           0        3.295748    0.300315    0.179157
     13          1           0        2.092220    0.349352    1.474041
     14          8           0        1.035639   -1.942025    1.006555
     15          1           0        1.772342   -2.452093    0.629103
     16          1           0       -1.415675    0.394552   -1.372174
     17          8           0        2.706725    2.181755    0.781203
     18          1           0        3.447605    2.185366    1.414255
     19          8           0       -2.186582   -1.672272    0.061987
     20          1           0       -2.955998   -1.090946    0.231159
     21          8           0       -2.405240    1.131371    0.238975
     22          1           0       -2.367543    2.052247   -0.092685
     23          8           0       -0.221263    2.652070   -0.718999
     24          1           0        0.569565    3.194500   -0.527726
     25          8           0        3.111662   -2.243226   -0.606576
     26          1           0        2.638723   -1.579984   -1.147890
     27          1           0        3.871019   -1.772120   -0.232877
     28          8           0       -4.670519   -0.398077    0.177761
     29          1           0       -4.035227    0.344407    0.270260
     30          1           0       -5.058345   -0.271586   -0.701405
 ---------------------------------------------------------------------
 Rotational constants (GHZ):      0.8353369      0.4427273      0.3183503
 Standard basis: 6-31G(d) (6D, 7F)
 There are   242 symmetry adapted cartesian basis functions of A   symmetry.
 There are   242 symmetry adapted basis functions of A   symmetry.
   242 basis functions,   456 primitive gaussians,   242 cartesian basis functions
    58 alpha electrons       58 beta electrons
       nuclear repulsion energy      1094.2664981716 Hartrees.
 NAtoms=   30 NActive=   30 NUniq=   30 SFac= 1.00D+00 NAtFMM=   60 NAOKFM=F Big=F
 Integral buffers will be    131072 words long.
 Raffenetti 2 integral format.
 Two-electron integral symmetry is turned on.
 One-electron integrals computed using PRISM.
 NBasis=   242 RedAO= T EigKep=  1.54D-03  NBF=   242
 NBsUse=   242 1.00D-06 EigRej= -1.00D+00 NBFU=   242
 ExpMin= 1.61D-01 ExpMax= 5.48D+03 ExpMxC= 8.25D+02 IAcc=1 IRadAn=         1 AccDes= 0.00D+00
 Harris functional with IExCor=  402 and IRadAn=       1 diagonalized for initial guess.
 HarFok:  IExCor=  402 AccDes= 0.00D+00 IRadAn=         1 IDoV= 1 UseB2=F ITyADJ=14
 ICtDFT=  3500011 ScaDFX=  1.000000  1.000000  1.000000  1.000000
 FoFCou: FMM=F IPFlag=           0 FMFlag=      100000 FMFlg1=           0
         NFxFlg=           0 DoJE=T BraDBF=F KetDBF=T FulRan=T
         wScrn=  0.000000 ICntrl=     500 IOpCl=  0 I1Cent=   200000004 NGrid=           0
         NMat0=    1 NMatS0=      1 NMatT0=    0 NMatD0=    1 NMtDS0=    0 NMtDT0=    0
 Petite list used in FoFCou.
 Requested convergence on RMS density matrix=1.00D-08 within 128 cycles.
 Requested convergence on MAX density matrix=1.00D-06.
 Requested convergence on             energy=1.00D-06.
 No special actions if energy rises.
 Integral accuracy reduced to 1.0D-05 until final iterations.
 Initial convergence to 1.0D-05 achieved.  Increase integral accuracy.
 SCF Done:  E(RB3LYP) =  -839.973977659     A.U. after   14 cycles
            NFock= 14  Conv=0.28D-08     -V/T= 2.0085

 **********************************************************************

            Population analysis using the SCF density.

 **********************************************************************

 Orbital symmetries:
       Occupied  (A) (A) (A) (A) (A) (A) (A) (A) (A) (A) (A) (A)
                 (A) (A) (A) (A) (A) (A) (A) (A) (A) (A) (A) (A)
                 (A) (A) (A) (A) (A) (A) (A) (A) (A) (A) (A) (A)
                 (A) (A) (A) (A) (A) (A) (A) (A) (A) (A) (A) (A)
                 (A) (A) (A) (A) (A) (A) (A) (A) (A) (A)
       Virtual   (A) (A) (A) (A) (A) (A) (A) (A) (A) (A) (A) (A)
                 (A) (A) (A) (A) (A) (A) (A) (A) (A) (A) (A) (A)
                 (A) (A) (A) (A) (A) (A) (A) (A) (A) (A) (A) (A)
                 (A) (A) (A) (A) (A) (A) (A) (A) (A) (A) (A) (A)
                 (A) (A) (A) (A) (A) (A) (A) (A) (A) (A) (A) (A)
                 (A) (A) (A) (A) (A) (A) (A) (A) (A) (A) (A) (A)
                 (A) (A) (A) (A) (A) (A) (A) (A) (A) (A) (A) (A)
                 (A) (A) (A) (A) (A) (A) (A) (A) (A) (A) (A) (A)
                 (A) (A) (A) (A) (A) (A) (A) (A) (A) (A) (A) (A)
                 (A) (A) (A) (A) (A) (A) (A) (A) (A) (A) (A) (A)
                 (A) (A) (A) (A) (A) (A) (A) (A) (A) (A) (A) (A)
                 (A) (A) (A) (A) (A) (A) (A) (A) (A) (A) (A) (A)
                 (A) (A) (A) (A) (A) (A) (A) (A) (A) (A) (A) (A)
                 (A) (A) (A) (A) (A) (A) (A) (A) (A) (A) (A) (A)
                 (A) (A) (A) (A) (A) (A) (A) (A) (A) (A) (A) (A)
                 (A) (A) (A) (A)
 The electronic state is 1-A.
 Alpha  occ. eigenvalues --  -19.17639 -19.17447 -19.17059 -19.16623 -19.15102
 Alpha  occ. eigenvalues --  -19.13456 -19.13365 -19.11834 -10.29044 -10.26222
 Alpha  occ. eigenvalues --  -10.25396 -10.25078 -10.24933 -10.23736  -1.06917
 Alpha  occ. eigenvalues --   -1.05251  -1.04135  -1.02939  -1.01005  -0.99757
 Alpha  occ. eigenvalues --   -0.99233  -0.98689  -0.79470  -0.77307  -0.69935
 Alpha  occ. eigenvalues --   -0.64826  -0.63369  -0.57237  -0.56141  -0.54462
 Alpha  occ. eigenvalues --   -0.53564  -0.52471  -0.52233  -0.51752  -0.48467
 Alpha  occ. eigenvalues --   -0.48270  -0.46568  -0.45400  -0.44390  -0.43744
 Alpha  occ. eigenvalues --   -0.42065  -0.41066  -0.40141  -0.38533  -0.38083
 Alpha  occ. eigenvalues --   -0.37271  -0.35810  -0.35423  -0.33878  -0.32285
 Alpha  occ. eigenvalues --   -0.30459  -0.30296  -0.29455  -0.29261  -0.28799
 Alpha  occ. eigenvalues --   -0.27641  -0.26809  -0.25021
 Alpha virt. eigenvalues --    0.02905   0.04392   0.05906   0.08423   0.08926
 Alpha virt. eigenvalues --    0.09540   0.11033   0.12005   0.12850   0.14529
 Alpha virt. eigenvalues --    0.15312   0.15578   0.16143   0.17761   0.18115
 Alpha virt. eigenvalues --    0.19728   0.20133   0.21648   0.22370   0.22813
 Alpha virt. eigenvalues --    0.24066   0.24641   0.26630   0.28658   0.29251
 Alpha virt. eigenvalues --    0.30757   0.31632   0.32722   0.50715   0.52360
 Alpha virt. eigenvalues --    0.54272   0.54830   0.55403   0.58428   0.59018
 Alpha virt. eigenvalues --    0.59566   0.62912   0.64076   0.65037   0.66891
 Alpha virt. eigenvalues --    0.69301   0.71324   0.73070   0.75010   0.76046
 Alpha virt. eigenvalues --    0.76566   0.77542   0.78903   0.79695   0.81023
 Alpha virt. eigenvalues --    0.82150   0.82677   0.83958   0.84102   0.85244
 Alpha virt. eigenvalues --    0.85428   0.86193   0.87882   0.88659   0.89074
 Alpha virt. eigenvalues --    0.90434   0.90643   0.92041   0.92650   0.94436
 Alpha virt. eigenvalues --    0.96205   0.98774   0.99425   1.00551   1.00929
 Alpha virt. eigenvalues --    1.05068   1.05610   1.06490   1.07244   1.08122
 Alpha virt. eigenvalues --    1.09189   1.11359   1.13019   1.14109   1.16003
 Alpha virt. eigenvalues --    1.16295   1.18778   1.19989   1.23253   1.24525
 Alpha virt. eigenvalues --    1.28114   1.30892   1.32744   1.33160   1.33836
 Alpha virt. eigenvalues --    1.36207   1.38604   1.41630   1.43554   1.48414
 Alpha virt. eigenvalues --    1.50494   1.52746   1.55232   1.56818   1.59358
 Alpha virt. eigenvalues --    1.62856   1.65408   1.67187   1.67639   1.69862
 Alpha virt. eigenvalues --    1.70233   1.72738   1.72961   1.73538   1.74187
 Alpha virt. eigenvalues --    1.75066   1.76499   1.78042   1.78792   1.80145
 Alpha virt. eigenvalues --    1.81128   1.83003   1.84183   1.86342   1.87712
 Alpha virt. eigenvalues --    1.88600   1.89335   1.90058   1.91688   1.92981
 Alpha virt. eigenvalues --    1.95800   1.97765   2.00317   2.03751   2.04976
 Alpha virt. eigenvalues --    2.05548   2.06874   2.08664   2.12153   2.13690
 Alpha virt. eigenvalues --    2.20089   2.23828   2.24942   2.26599   2.28099
 Alpha virt. eigenvalues --    2.30095   2.30310   2.34484   2.35093   2.37908
 Alpha virt. eigenvalues --    2.40128   2.41970   2.43176   2.47770   2.50386
 Alpha virt. eigenvalues --    2.51225   2.52098   2.53284   2.54729   2.57268
 Alpha virt. eigenvalues --    2.59285   2.62136   2.64224   2.64811   2.68776
 Alpha virt. eigenvalues --    2.71564   2.73594   2.80315   2.87668   2.88877
 Alpha virt. eigenvalues --    2.91796   2.94813   2.98075   3.04779   3.06493
 Alpha virt. eigenvalues --    3.69071   3.71543   3.72408   3.80465   3.86952
 Alpha virt. eigenvalues --    3.91153   4.04197   4.14441   4.26977   4.37411
 Alpha virt. eigenvalues --    4.40249   4.50404   4.69743   4.74089
          Condensed to atoms (all electrons):
               1          2          3          4          5          6
     1  H    0.584294   0.363744  -0.002618   0.002791   0.000309  -0.027906
     2  C    0.363744   4.967385  -0.037718  -0.018567  -0.011613   0.204661
     3  C   -0.002618  -0.037718   5.033199  -0.034237   0.306163  -0.002656
     4  C    0.002791  -0.018567  -0.034237   4.748201   0.307046   0.180079
     5  C    0.000309  -0.011613   0.306163   0.307046   4.911563  -0.027821
     6  O   -0.027906   0.204661  -0.002656   0.180079  -0.027821   8.358910
     7  C   -0.042983   0.282371   0.271954  -0.011703  -0.017508  -0.030967
     8  H   -0.000136   0.003626   0.000816   0.373787  -0.046747  -0.039934
     9  H    0.000020   0.000883  -0.045964  -0.052566   0.354304   0.002356
    10  H    0.005949  -0.058758  -0.046284   0.000158  -0.003203   0.002750
    11  C   -0.053240   0.324193   0.002293  -0.000563  -0.000482  -0.038543
    12  H   -0.007152  -0.033808  -0.000072  -0.000617   0.000004  -0.000417
    13  H    0.005800  -0.030232  -0.000247   0.000698  -0.000469   0.000799
    14  O   -0.000171   0.000938   0.001658   0.232962  -0.032435  -0.070668
    15  H    0.000008  -0.000553  -0.000202  -0.019520   0.005352   0.004434
    16  H    0.000745  -0.001581   0.348715  -0.003421  -0.038854   0.003332
    17  O    0.004294  -0.043635   0.000238  -0.000007  -0.000004   0.000957
    18  H   -0.000242   0.005245  -0.000003  -0.000003   0.000000  -0.000086
    19  O    0.000001   0.000013  -0.030540  -0.031061   0.235225   0.000809
    20  H   -0.000001  -0.000003  -0.007655   0.004044  -0.019476  -0.000090
    21  O   -0.000064   0.003312   0.191582   0.002293  -0.031189   0.000107
    22  H   -0.000001   0.000669  -0.025723  -0.000222   0.005560  -0.000015
    23  O    0.003191  -0.033580  -0.030690   0.000079   0.001788   0.001351
    24  H    0.002468  -0.003917   0.005334   0.000012  -0.000188  -0.000010
    25  O    0.000026  -0.000125   0.000014   0.004405  -0.000040  -0.027372
    26  H   -0.000771  -0.001467   0.000023  -0.004822   0.000579   0.047217
    27  H   -0.000022  -0.000042  -0.000001  -0.000212  -0.000003   0.001656
    28  O   -0.000000   0.000000   0.001506  -0.000026  -0.000843   0.000000
    29  H    0.000000  -0.000012  -0.002504   0.000053  -0.000321   0.000000
    30  H    0.000000  -0.000000   0.000212   0.000002  -0.000105  -0.000000
               7          8          9         10         11         12
     1  H   -0.042983  -0.000136   0.000020   0.005949  -0.053240  -0.007152
     2  C    0.282371   0.003626   0.000883  -0.058758   0.324193  -0.033808
     3  C    0.271954   0.000816  -0.045964  -0.046284   0.002293  -0.000072
     4  C   -0.011703   0.373787  -0.052566   0.000158  -0.000563  -0.000617
     5  C   -0.017508  -0.046747   0.354304  -0.003203  -0.000482   0.000004
     6  O   -0.030967  -0.039934   0.002356   0.002750  -0.038543  -0.000417
     7  C    5.043385   0.000064  -0.002748   0.363481  -0.038521   0.006007
     8  H    0.000064   0.568871   0.005277   0.000018   0.000061  -0.000017
     9  H   -0.002748   0.005277   0.612137   0.005718  -0.000062   0.000000
    10  H    0.363481   0.000018   0.005718   0.617849  -0.002263   0.000573
    11  C   -0.038521   0.000061  -0.000062  -0.002263   4.996558   0.342318
    12  H    0.006007  -0.000017   0.000000   0.000573   0.342318   0.669820
    13  H   -0.009900   0.000179   0.000546   0.002280   0.363580  -0.051542
    14  O   -0.000253  -0.038167   0.003600  -0.000027   0.002568  -0.000184
    15  H    0.000010  -0.006326   0.000094   0.000006   0.000512  -0.000219
    16  H   -0.042019   0.000706   0.006890   0.007017   0.000149   0.000007
    17  O    0.006816   0.000001  -0.000001   0.002854   0.189602  -0.034856
    18  H   -0.000190  -0.000000   0.000000  -0.000153  -0.020797  -0.004753
    19  O    0.004461   0.005737  -0.042167  -0.000054   0.000004  -0.000000
    20  H    0.000105  -0.000191  -0.002041  -0.000017  -0.000001   0.000000
    21  O   -0.029844  -0.000067  -0.001464   0.000154  -0.000029   0.000000
    22  H   -0.011666   0.000004  -0.000173  -0.000002  -0.000021   0.000000
    23  O    0.194234   0.000003  -0.000069  -0.046265   0.001950  -0.000139
    24  H   -0.021427  -0.000000   0.000007  -0.002969  -0.001524   0.000026
    25  O   -0.000037   0.000669   0.000004   0.000001  -0.000843   0.005979
    26  H    0.000531  -0.001360  -0.000035  -0.000022  -0.001651   0.003769
    27  H    0.000023  -0.000008  -0.000000  -0.000001  -0.000967   0.009367
    28  O   -0.000008  -0.000000   0.000019  -0.000000  -0.000000   0.000000
    29  H    0.000533  -0.000001   0.000079  -0.000002   0.000000  -0.000000
    30  H    0.000006   0.000000   0.000001   0.000000   0.000000  -0.000000
              13         14         15         16         17         18
     1  H    0.005800  -0.000171   0.000008   0.000745   0.004294  -0.000242
     2  C   -0.030232   0.000938  -0.000553  -0.001581  -0.043635   0.005245
     3  C   -0.000247   0.001658  -0.000202   0.348715   0.000238  -0.000003
     4  C    0.000698   0.232962  -0.019520  -0.003421  -0.000007  -0.000003
     5  C   -0.000469  -0.032435   0.005352  -0.038854  -0.000004   0.000000
     6  O    0.000799  -0.070668   0.004434   0.003332   0.000957  -0.000086
     7  C   -0.009900  -0.000253   0.000010  -0.042019   0.006816  -0.000190
     8  H    0.000179  -0.038167  -0.006326   0.000706   0.000001  -0.000000
     9  H    0.000546   0.003600   0.000094   0.006890  -0.000001   0.000000
    10  H    0.002280  -0.000027   0.000006   0.007017   0.002854  -0.000153
    11  C    0.363580   0.002568   0.000512   0.000149   0.189602  -0.020797
    12  H   -0.051542  -0.000184  -0.000219   0.000007  -0.034856  -0.004753
    13  H    0.579122   0.012357  -0.000679   0.000002  -0.037017  -0.003568
    14  O    0.012357   8.345022   0.214764   0.000049   0.000063   0.000002
    15  H   -0.000679   0.214764   0.326693   0.000005  -0.000006  -0.000000
    16  H    0.000002   0.000049   0.000005   0.615323  -0.000004   0.000000
    17  O   -0.037017   0.000063  -0.000006  -0.000004   8.304052   0.238223
    18  H   -0.003568   0.000002  -0.000000   0.000000   0.238223   0.379758
    19  O    0.000001   0.000701  -0.000131   0.001737  -0.000000  -0.000000
    20  H   -0.000000  -0.000096   0.000006  -0.000309   0.000000  -0.000000
    21  O   -0.000014  -0.000006   0.000001  -0.048440  -0.000000   0.000000
    22  H    0.000000   0.000001  -0.000000  -0.001197   0.000000  -0.000000
    23  O    0.000053   0.000000  -0.000000   0.000197  -0.001282   0.000053
    24  H    0.000202  -0.000001   0.000000  -0.000161   0.008749  -0.000232
    25  O    0.000095  -0.027091   0.058033   0.000001   0.000024   0.000003
    26  H   -0.000313   0.003918  -0.006511  -0.000017  -0.000034  -0.000001
    27  H   -0.000144   0.002230  -0.003207  -0.000000  -0.000026  -0.000012
    28  O   -0.000000   0.000000  -0.000000   0.000163  -0.000000   0.000000
    29  H    0.000000  -0.000000   0.000000   0.000080   0.000000   0.000000
    30  H    0.000000  -0.000000   0.000000   0.000043  -0.000000  -0.000000
              19         20         21         22         23         24
     1  H    0.000001  -0.000001  -0.000064  -0.000001   0.003191   0.002468
     2  C    0.000013  -0.000003   0.003312   0.000669  -0.033580  -0.003917
     3  C   -0.030540  -0.007655   0.191582  -0.025723  -0.030690   0.005334
     4  C   -0.031061   0.004044   0.002293  -0.000222   0.000079   0.000012
     5  C    0.235225  -0.019476  -0.031189   0.005560   0.001788  -0.000188
     6  O    0.000809  -0.000090   0.000107  -0.000015   0.001351  -0.000010
     7  C    0.004461   0.000105  -0.029844  -0.011666   0.194234  -0.021427
     8  H    0.005737  -0.000191  -0.000067   0.000004   0.000003  -0.000000
     9  H   -0.042167  -0.002041  -0.001464  -0.000173  -0.000069   0.000007
    10  H   -0.000054  -0.000017   0.000154  -0.000002  -0.046265  -0.002969
    11  C    0.000004  -0.000001  -0.000029  -0.000021   0.001950  -0.001524
    12  H   -0.000000   0.000000   0.000000   0.000000  -0.000139   0.000026
    13  H    0.000001  -0.000000  -0.000014   0.000000   0.000053   0.000202
    14  O    0.000701  -0.000096  -0.000006   0.000001   0.000000  -0.000001
    15  H   -0.000131   0.000006   0.000001  -0.000000  -0.000000   0.000000
    16  H    0.001737  -0.000309  -0.048440  -0.001197   0.000197  -0.000161
    17  O   -0.000000   0.000000  -0.000000   0.000000  -0.001282   0.008749
    18  H   -0.000000  -0.000000   0.000000  -0.000000   0.000053  -0.000232
    19  O    8.361634   0.192685  -0.001823  -0.000035  -0.000012   0.000001
    20  H    0.192685   0.341979   0.006292  -0.000195  -0.000002   0.000000
    21  O   -0.001823   0.006292   8.325580   0.233034  -0.003844   0.000055
    22  H   -0.000035  -0.000195   0.233034   0.359264   0.020959  -0.000790
    23  O   -0.000012  -0.000002  -0.003844   0.020959   8.320366   0.233030
    24  H    0.000001   0.000000   0.000055  -0.000790   0.233030   0.369867
    25  O    0.000000  -0.000000   0.000000   0.000000   0.000000  -0.000000
    26  H   -0.000005   0.000000   0.000000   0.000000  -0.000003  -0.000000
    27  H   -0.000000   0.000000   0.000000   0.000000  -0.000000   0.000000
    28  O   -0.021208   0.074646  -0.022699   0.001006  -0.000000  -0.000000
    29  H    0.003482  -0.012246   0.051008  -0.002367  -0.000007   0.000001
    30  H    0.001353  -0.003746   0.001216  -0.000032  -0.000000   0.000000
              25         26         27         28         29         30
     1  H    0.000026  -0.000771  -0.000022  -0.000000   0.000000   0.000000
     2  C   -0.000125  -0.001467  -0.000042   0.000000  -0.000012  -0.000000
     3  C    0.000014   0.000023  -0.000001   0.001506  -0.002504   0.000212
     4  C    0.004405  -0.004822  -0.000212  -0.000026   0.000053   0.000002
     5  C   -0.000040   0.000579  -0.000003  -0.000843  -0.000321  -0.000105
     6  O   -0.027372   0.047217   0.001656   0.000000   0.000000  -0.000000
     7  C   -0.000037   0.000531   0.000023  -0.000008   0.000533   0.000006
     8  H    0.000669  -0.001360  -0.000008  -0.000000  -0.000001   0.000000
     9  H    0.000004  -0.000035  -0.000000   0.000019   0.000079   0.000001
    10  H    0.000001  -0.000022  -0.000001  -0.000000  -0.000002   0.000000
    11  C   -0.000843  -0.001651  -0.000967  -0.000000   0.000000   0.000000
    12  H    0.005979   0.003769   0.009367   0.000000  -0.000000  -0.000000
    13  H    0.000095  -0.000313  -0.000144  -0.000000   0.000000   0.000000
    14  O   -0.027091   0.003918   0.002230   0.000000  -0.000000  -0.000000
    15  H    0.058033  -0.006511  -0.003207  -0.000000   0.000000   0.000000
    16  H    0.000001  -0.000017  -0.000000   0.000163   0.000080   0.000043
    17  O    0.000024  -0.000034  -0.000026  -0.000000   0.000000  -0.000000
    18  H    0.000003  -0.000001  -0.000012   0.000000   0.000000  -0.000000
    19  O    0.000000  -0.000005  -0.000000  -0.021208   0.003482   0.001353
    20  H   -0.000000   0.000000   0.000000   0.074646  -0.012246  -0.003746
    21  O    0.000000   0.000000   0.000000  -0.022699   0.051008   0.001216
    22  H    0.000000   0.000000   0.000000   0.001006  -0.002367  -0.000032
    23  O    0.000000  -0.000003  -0.000000  -0.000000  -0.000007  -0.000000
    24  H   -0.000000  -0.000000   0.000000  -0.000000   0.000001   0.000000
    25  O    8.330308   0.216392   0.241238   0.000000   0.000000  -0.000000
    26  H    0.216392   0.338823  -0.017763  -0.000000  -0.000000   0.000000
    27  H    0.241238  -0.017763   0.371229  -0.000000  -0.000000   0.000000
    28  O    0.000000  -0.000000  -0.000000   8.312636   0.210117   0.240896
    29  H    0.000000  -0.000000  -0.000000   0.210117   0.346739  -0.015456
    30  H   -0.000000   0.000000   0.000000   0.240896  -0.015456   0.386018
 Mulliken charges:
               1
     1  H    0.161666
     2  C    0.118572
     3  C    0.103406
     4  C    0.320936
     5  C    0.103410
     6  O   -0.542935
     7  C    0.085792
     8  H    0.173135
     9  H    0.155355
    10  H    0.151211
    11  C   -0.064282
    12  H    0.095904
    13  H    0.168412
    14  O   -0.651735
    15  H    0.427437
    16  H    0.150843
    17  O   -0.639002
    18  H    0.406756
    19  O   -0.680808
    20  H    0.426313
    21  O   -0.675151
    22  H    0.421944
    23  O   -0.661359
    24  H    0.411466
    25  O   -0.801683
    26  H    0.423524
    27  H    0.396665
    28  O   -0.796205
    29  H    0.420824
    30  H    0.389592
 Sum of Mulliken charges =  -0.00000
 Mulliken charges with hydrogens summed into heavy atoms:
               1
     2  C    0.280238
     3  C    0.254249
     4  C    0.494071
     5  C    0.258764
     6  O   -0.542935
     7  C    0.237003
    11  C    0.200034
    14  O   -0.224298
    17  O   -0.232246
    19  O   -0.254496
    21  O   -0.253208
    23  O   -0.249893
    25  O    0.018506
    28  O    0.014210
 Electronic spatial extent (au):  <R**2>=           3466.2293
 Charge=             -0.0000 electrons
 Dipole moment (field-independent basis, Debye):
    X=              4.1098    Y=              4.7058    Z=             -0.8240  Tot=              6.3019
 Quadrupole moment (field-independent basis, Debye-Ang):
   XX=            -73.4322   YY=            -90.2751   ZZ=            -83.5479
   XY=             -3.4200   XZ=             12.3971   YZ=              2.8983
 Traceless Quadrupole moment (field-independent basis, Debye-Ang):
   XX=              8.9862   YY=             -7.8567   ZZ=             -1.1295
   XY=             -3.4200   XZ=             12.3971   YZ=              2.8983
 Octapole moment (field-independent basis, Debye-Ang**2):
  XXX=             73.2912  YYY=             28.4058  ZZZ=              1.9326  XYY=             -1.5227
  XXY=             47.5364  XXZ=            -20.4712  XZZ=              2.5028  YZZ=              6.8418
  YYZ=              4.0921  XYZ=             -0.4045
 Hexadecapole moment (field-independent basis, Debye-Ang**3):
 XXXX=          -2200.0388 YYYY=          -1233.0834 ZZZZ=           -260.2131 XXXY=            -75.8201
 XXXZ=            311.7873 YYYX=             12.0699 YYYZ=              2.7881 ZZZX=             17.3753
 ZZZY=             17.1424 XXYY=           -651.6195 XXZZ=           -402.9624 YYZZ=           -259.0497
 XXYZ=             18.9893 YYXZ=             32.6994 ZZXY=             26.6898
 N-N= 1.094266498172D+03 E-N=-4.160849479462D+03  KE= 8.328668169475D+02
 Calling FoFJK, ICntrl=      2127 FMM=F ISym2X=0 I1Cent= 0 IOpClX= 0 NMat=1 NMatS=1 NMatT=0.
 ***** Axes restored to original set *****
 -------------------------------------------------------------------
 Center     Atomic                   Forces (Hartrees/Bohr)
 Number     Number              X              Y              Z
 -------------------------------------------------------------------
      1        1           0.004895299    0.000122917    0.000908527
      2        6           0.005317116   -0.011013010   -0.002963675
      3        6          -0.005295288    0.007582040    0.001998737
      4        6          -0.014805966   -0.016108370   -0.017712658
      5        6           0.023917900    0.006208570   -0.004102133
      6        8           0.000148691    0.018168960    0.008850811
      7        6          -0.002997879    0.009972392   -0.001976878
      8        1          -0.002657304    0.008653011    0.007098062
      9        1          -0.012310124   -0.001059294   -0.000389582
     10        1           0.003285814   -0.007792731   -0.002217152
     11        6          -0.005217373   -0.007153884   -0.010409762
     12        1           0.002694810   -0.002555547    0.003807847
     13        1           0.006715987   -0.003061459    0.002533002
     14        8           0.017557240    0.019689232   -0.007056956
     15        1          -0.007010092   -0.003163551    0.004750812
     16        1          -0.004448127   -0.008565488    0.003015925
     17        8          -0.002708481    0.005868967    0.003958026
     18        1           0.003464253    0.005551327    0.002327578
     19        8          -0.019101577   -0.005737619    0.006512300
     20        1           0.013538269   -0.007458626    0.003080600
     21        8          -0.011587862    0.005313508   -0.002836979
     22        1           0.003499867   -0.003603668   -0.003095838
     23        8          -0.001563586   -0.002033193    0.004017057
     24        1           0.006176623    0.002236065   -0.001077730
     25        8          -0.005825427   -0.014166248    0.008034549
     26        1           0.002635484   -0.000827260   -0.005052156
     27        1           0.000765469   -0.000941275    0.000795619
     28        8          -0.002216288    0.004060189   -0.003828113
     29        1           0.003458323    0.004271204    0.000055296
     30        1          -0.000325771   -0.002457159    0.000974864
 -------------------------------------------------------------------
 Cartesian Forces:  Max     0.023917900 RMS     0.007641296

 GradGradGradGradGradGradGradGradGradGradGradGradGradGradGradGradGradGrad
 Berny optimization.
 FormGI is forming the generalized inverse of G from B-inverse, IUseBI=4.
 Internal  Forces:  Max     0.021510841 RMS     0.004086599
 Search for a local minimum.
 Step number   1 out of a maximum of  180
 All quantities printed in internal units (Hartrees-Bohrs-Radians)
 Mixed Optimization -- RFO/linear search
 Second derivative matrix not updated -- first step.
 ITU=  0
     Eigenvalues ---    0.00349   0.00529   0.00667   0.01028   0.01108
     Eigenvalues ---    0.01211   0.01224   0.01238   0.01348   0.01581
     Eigenvalues ---    0.01651   0.01778   0.02676   0.02800   0.03251
     Eigenvalues ---    0.03624   0.04477   0.04594   0.04637   0.04647
     Eigenvalues ---    0.04933   0.05063   0.05305   0.05510   0.05678
     Eigenvalues ---    0.05832   0.05881   0.06006   0.06148   0.06499
     Eigenvalues ---    0.06671   0.07082   0.07340   0.08036   0.08802
     Eigenvalues ---    0.09271   0.10267   0.10948   0.11439   0.11467
     Eigenvalues ---    0.11628   0.12734   0.13781   0.14454   0.15630
     Eigenvalues ---    0.16000   0.16000   0.16029   0.16714   0.17134
     Eigenvalues ---    0.17456   0.18656   0.19727   0.21988   0.24650
     Eigenvalues ---    0.26272   0.27929   0.28780   0.29283   0.33551
     Eigenvalues ---    0.33983   0.33991   0.33995   0.34012   0.34153
     Eigenvalues ---    0.34221   0.34341   0.35386   0.37221   0.38280
     Eigenvalues ---    0.40087   0.40836   0.41573   0.48039   0.49439
     Eigenvalues ---    0.49711   0.51048   0.51481   0.51801   0.52466
     Eigenvalues ---    0.53541   0.536611000.000001000.000001000.00000
     Eigenvalues --- 1000.000001000.000001000.000001000.000001000.00000
     Eigenvalues --- 1000.000001000.000001000.000001000.000001000.00000
     Eigenvalues --- 1000.000001000.000001000.000001000.000001000.00000
     Eigenvalues --- 1000.000001000.000001000.000001000.000001000.00000
     Eigenvalues --- 1000.000001000.000001000.000001000.000001000.00000
     Eigenvalues --- 1000.000001000.000001000.000001000.000001000.00000
     Eigenvalues --- 1000.000001000.000001000.000001000.000001000.00000
     Eigenvalues --- 1000.000001000.000001000.000001000.000001000.00000
     Eigenvalues --- 1000.000001000.000001000.000001000.000001000.00000
     Eigenvalues --- 1000.000001000.000001000.000001000.000001000.00000
     Eigenvalues --- 1000.000001000.000001000.000001000.000001000.00000
     Eigenvalues --- 1000.000001000.000001000.000001000.000001000.00000
     Eigenvalues --- 1000.000001000.000001000.000001000.000001000.00000
     Eigenvalues --- 1000.000001000.000001000.000001000.000001000.00000
     Eigenvalues --- 1000.000001000.000001000.000001000.000001000.00000
     Eigenvalues --- 1000.000001000.000001000.000001000.000001000.00000
     Eigenvalues --- 1000.000001000.000001000.000001000.000001000.00000
     Eigenvalues --- 1000.000001000.000001000.000001000.000001000.00000
     Eigenvalues --- 1000.000001000.000001000.000001000.000001000.00000
     Eigenvalues --- 1000.000001000.00000
 RFO step:  Lambda=-1.94712294D-02 EMin= 3.48866430D-03
 Linear search not attempted -- first point.
 Maximum step size (   0.300) exceeded in Quadratic search.
    -- Step size scaled by   0.996
 Iteration  1 RMS(Cart)=  0.06357505 RMS(Int)=  0.00216543
 Iteration  2 RMS(Cart)=  0.00275130 RMS(Int)=  0.00052674
 Iteration  3 RMS(Cart)=  0.00000441 RMS(Int)=  0.00052673
 Iteration  4 RMS(Cart)=  0.00000001 RMS(Int)=  0.00052673
 Iteration  1 RMS(Cart)=  0.00000094 RMS(Int)=  0.00000116
 Variable       Old X    -DE/DX   Delta X   Delta X   Delta X     New X
                                 (Linear)    (Quad)   (Total)
    R1        2.07338  -0.00169   0.00000  -0.00469  -0.00469   2.06870
    R2        2.75852  -0.00943   0.00000  -0.03064  -0.03057   2.72795
    R3        2.90465   0.00318   0.00000   0.00881   0.00881   2.91346
    R4        2.89417  -0.00399   0.00000  -0.01273  -0.01273   2.88144
    R5        2.87917  -0.00073   0.00000  -0.00149  -0.00135   2.87782
    R6        2.88409  -0.01110   0.00000  -0.02725  -0.02732   2.85677
    R7        2.07358   0.00045   0.00000   0.00124   0.00124   2.07482
    R8        2.72198   0.00253   0.00000   0.00640   0.00662   2.72860
    R9        2.90465  -0.00513   0.00000  -0.01513  -0.01514   2.88952
   R10        2.73622  -0.00349   0.00000  -0.01184  -0.01184   2.72438
   R11        2.07072  -0.00157   0.00000  -0.00432  -0.00432   2.06640
   R12        2.68556  -0.01149   0.00000  -0.02626  -0.02620   2.65936
   R13        2.07310   0.00160   0.00000   0.00444   0.00444   2.07754
   R14        2.72065  -0.00889   0.00000  -0.02098  -0.02081   2.69984
   R15        3.45820   0.00931   0.00000   0.11449   0.11467   3.57286
   R16        2.07345   0.00142   0.00000   0.00395   0.00395   2.07739
   R17        2.71435  -0.00040   0.00000  -0.00094  -0.00094   2.71341
   R18        2.06959   0.00268   0.00000   0.00737   0.00737   2.07696
   R19        2.06758   0.00177   0.00000   0.00486   0.00486   2.07244
   R20        2.69470   0.00523   0.00000   0.01198   0.01198   2.70668
   R21        1.83738   0.01426   0.00000   0.02678   0.02655   1.86394
   R22        3.46614   0.00515   0.00000   0.07741   0.07725   3.54340
   R23        1.84156  -0.00641   0.00000  -0.01173  -0.01173   1.82983
   R24        1.85016   0.00181   0.00000   0.00330   0.00310   1.85325
   R25        3.49599   0.00125   0.00000   0.01921   0.01941   3.51540
   R26        3.39441   0.00397   0.00000   0.06150   0.06090   3.45531
   R27        1.85100  -0.00555   0.00000  -0.01035  -0.01035   1.84065
   R28        3.42095   0.00524   0.00000   0.06532   0.06524   3.48619
   R29        1.84790  -0.00597   0.00000  -0.01107  -0.01107   1.83683
   R30        1.84825   0.00689   0.00000   0.01317   0.01324   1.86148
   R31        1.83042  -0.00090   0.00000  -0.00161  -0.00161   1.82881
   R32        1.85485  -0.00094   0.00000  -0.00050  -0.00016   1.85470
   R33        1.83152  -0.00042   0.00000  -0.00075  -0.00075   1.83076
    A1        1.83753  -0.00317   0.00000  -0.02358  -0.02376   1.81377
    A2        1.89644  -0.00007   0.00000  -0.01477  -0.01464   1.88180
    A3        1.87248   0.00217   0.00000   0.01371   0.01372   1.88620
    A4        1.96029   0.00311   0.00000   0.00961   0.00961   1.96990
    A5        1.93918   0.00328   0.00000   0.02746   0.02754   1.96672
    A6        1.95164  -0.00527   0.00000  -0.01386  -0.01421   1.93743
    A7        1.93508   0.00035   0.00000  -0.00778  -0.00785   1.92723
    A8        1.93298  -0.00142   0.00000  -0.01792  -0.01824   1.91474
    A9        1.90152  -0.00106   0.00000  -0.01065  -0.01093   1.89059
   A10        1.93565  -0.00227   0.00000  -0.01427  -0.01472   1.92092
   A11        1.91654   0.00035   0.00000  -0.00615  -0.00643   1.91012
   A12        1.83947   0.00424   0.00000   0.05983   0.06029   1.89976
   A13        1.96365   0.00237   0.00000   0.01009   0.00990   1.97355
   A14        1.92826  -0.00127   0.00000  -0.01964  -0.02007   1.90819
   A15        1.92750  -0.00584   0.00000  -0.02441  -0.02453   1.90297
   A16        1.87012  -0.00546   0.00000  -0.05507  -0.05564   1.81448
   A17        1.88705   0.00595   0.00000   0.04302   0.04290   1.92995
   A18        1.88449   0.00456   0.00000   0.04846   0.04909   1.93358
   A19        1.94262  -0.00024   0.00000  -0.00964  -0.00966   1.93296
   A20        1.92250  -0.00048   0.00000  -0.00455  -0.00584   1.91667
   A21        1.89781   0.00351   0.00000   0.01589   0.01460   1.91241
   A22        1.92728  -0.00227   0.00000  -0.02330  -0.02286   1.90442
   A23        1.93467  -0.00604   0.00000  -0.05223  -0.05217   1.88250
   A24        1.83594   0.00589   0.00000   0.07870   0.07860   1.91454
   A25        2.08526  -0.00385   0.00000  -0.01899  -0.01890   2.06635
   A26        1.95938   0.00525   0.00000   0.04553   0.04544   2.00482
   A27        1.82208  -0.00318   0.00000  -0.03575  -0.03547   1.78660
   A28        1.94196  -0.00195   0.00000  -0.01190  -0.01210   1.92986
   A29        1.94056  -0.00089   0.00000  -0.00917  -0.00985   1.93070
   A30        1.94721   0.00350   0.00000   0.01657   0.01614   1.96335
   A31        1.89703   0.00015   0.00000  -0.01430  -0.01431   1.88272
   A32        1.89429  -0.00387   0.00000  -0.03003  -0.02973   1.86455
   A33        1.83908   0.00320   0.00000   0.05064   0.05048   1.88956
   A34        1.92442   0.00174   0.00000  -0.00830  -0.00774   1.91669
   A35        1.94678  -0.00081   0.00000  -0.02158  -0.02065   1.92612
   A36        1.91666  -0.02151   0.00000  -0.09099  -0.09106   1.82560
   A37        1.88080  -0.00070   0.00000   0.00853   0.00674   1.88755
   A38        1.90224   0.00969   0.00000   0.04802   0.04615   1.94840
   A39        1.89190   0.01251   0.00000   0.06937   0.06737   1.95928
   A40        1.83596  -0.00483   0.00000  -0.01330  -0.01340   1.82256
   A41        2.42652   0.00716   0.00000   0.03549   0.03468   2.46120
   A42        1.85935   0.00442   0.00000   0.02451   0.02451   1.88386
   A43        1.82581  -0.00191   0.00000  -0.01006  -0.00988   1.81593
   A44        2.81057   0.00206   0.00000   0.03249   0.03286   2.84343
   A45        2.82530  -0.00112   0.00000  -0.02439  -0.02397   2.80133
   A46        1.82368   0.00281   0.00000   0.01988   0.01984   1.84352
   A47        2.16092  -0.00423   0.00000  -0.02273  -0.02235   2.13857
   A48        2.03667   0.00069   0.00000   0.00571   0.00584   2.04251
   A49        1.84860   0.00201   0.00000   0.01116   0.01116   1.85976
   A50        1.66794  -0.00985   0.00000  -0.03831  -0.03874   1.62920
   A51        1.94756   0.00129   0.00000   0.00198   0.00215   1.94971
   A52        1.83671   0.00138   0.00000   0.00214   0.00233   1.83905
   A53        2.33115   0.00562   0.00000   0.02872   0.02857   2.35972
   A54        2.03299  -0.00216   0.00000  -0.02231  -0.02262   2.01037
   A55        1.81909  -0.00130   0.00000   0.00126   0.00146   1.82055
   A56        1.37558   0.00112   0.00000   0.00992   0.00925   1.38483
   A57        2.71404   0.00025   0.00000  -0.00606  -0.00648   2.70756
    D1       -2.84588   0.00034   0.00000   0.01894   0.01874  -2.82714
    D2        1.29605   0.00324   0.00000   0.04360   0.04372   1.33977
    D3       -0.78504  -0.00004   0.00000  -0.00815  -0.00822  -0.79326
    D4       -2.92630   0.00286   0.00000   0.01651   0.01676  -2.90954
    D5        1.41575  -0.00205   0.00000   0.00255   0.00274   1.41849
    D6       -0.72551   0.00086   0.00000   0.02721   0.02771  -0.69780
    D7        1.90192  -0.00161   0.00000  -0.03253  -0.03259   1.86933
    D8       -2.26400  -0.00338   0.00000  -0.06533  -0.06529  -2.32928
    D9       -0.21646   0.00229   0.00000   0.00274   0.00273  -0.21373
   D10       -0.12373   0.00053   0.00000   0.00000  -0.00001  -0.12374
   D11        1.99354  -0.00124   0.00000  -0.03280  -0.03271   1.96083
   D12       -2.24211   0.00442   0.00000   0.03526   0.03531  -2.20680
   D13       -2.31775  -0.00213   0.00000  -0.03332  -0.03322  -2.35098
   D14       -0.20049  -0.00390   0.00000  -0.06612  -0.06592  -0.26640
   D15        1.84705   0.00176   0.00000   0.00195   0.00210   1.84915
   D16       -1.08854   0.00009   0.00000   0.00709   0.00660  -1.08193
   D17        3.10564   0.00034   0.00000   0.01592   0.01631   3.12195
   D18        1.00786  -0.00049   0.00000   0.00348   0.00327   1.01113
   D19        0.91133  -0.00075   0.00000   0.00103   0.00075   0.91208
   D20       -1.17768  -0.00050   0.00000   0.00986   0.01045  -1.16723
   D21        3.00772  -0.00133   0.00000  -0.00258  -0.00258   3.00514
   D22        3.11690   0.00186   0.00000   0.02452   0.02414   3.14104
   D23        1.02789   0.00211   0.00000   0.03334   0.03384   1.06173
   D24       -1.06989   0.00128   0.00000   0.02091   0.02080  -1.04908
   D25       -0.96996   0.00106   0.00000  -0.01821  -0.01833  -0.98828
   D26        1.17378  -0.00234   0.00000  -0.05774  -0.05753   1.11625
   D27       -3.10602   0.00642   0.00000   0.04280   0.04312  -3.06290
   D28        1.18660  -0.00261   0.00000  -0.05473  -0.05472   1.13188
   D29       -2.95285  -0.00601   0.00000  -0.09426  -0.09392  -3.04677
   D30       -0.94947   0.00274   0.00000   0.00628   0.00673  -0.94274
   D31       -3.08105   0.00109   0.00000   0.00125   0.00132  -3.07973
   D32       -0.93732  -0.00231   0.00000  -0.03827  -0.03788  -0.97519
   D33        1.06607   0.00644   0.00000   0.06226   0.06277   1.12884
   D34        0.96958  -0.00080   0.00000   0.01586   0.01582   0.98540
   D35       -1.17292   0.00150   0.00000   0.04487   0.04503  -1.12789
   D36        3.11858  -0.00032   0.00000   0.00837   0.00859   3.12716
   D37       -1.18544   0.00239   0.00000   0.05452   0.05434  -1.13110
   D38        2.95524   0.00469   0.00000   0.08354   0.08355   3.03879
   D39        0.96355   0.00287   0.00000   0.04703   0.04711   1.01066
   D40        3.07178  -0.00166   0.00000  -0.00646  -0.00674   3.06504
   D41        0.92927   0.00063   0.00000   0.02256   0.02247   0.95174
   D42       -1.06241  -0.00119   0.00000  -0.01394  -0.01397  -1.07639
   D43        2.95943  -0.00003   0.00000  -0.01284  -0.01274   2.94670
   D44       -0.93249  -0.00001   0.00000  -0.00344  -0.00302  -0.93551
   D45        0.83703  -0.00002   0.00000   0.00736   0.00754   0.84457
   D46       -3.05489   0.00001   0.00000   0.01676   0.01726  -3.03763
   D47       -1.24877   0.00008   0.00000  -0.00664  -0.00668  -1.25545
   D48        1.14249   0.00010   0.00000   0.00276   0.00304   1.14553
   D49        0.12114  -0.00331   0.00000   0.00000   0.00000   0.12115
   D50       -2.01985  -0.00093   0.00000   0.02884   0.02919  -1.99065
   D51        2.23579  -0.00315   0.00000  -0.02219  -0.02203   2.21377
   D52       -1.96807   0.00294   0.00000   0.07684   0.07682  -1.89125
   D53        2.17413   0.00532   0.00000   0.10568   0.10600   2.28013
   D54        0.14658   0.00309   0.00000   0.05465   0.05479   0.20137
   D55        2.23142   0.00180   0.00000   0.04469   0.04422   2.27564
   D56        0.09043   0.00418   0.00000   0.07354   0.07341   0.16384
   D57       -1.93712   0.00196   0.00000   0.02250   0.02219  -1.91492
   D58        0.78643   0.00092   0.00000   0.00739   0.00736   0.79379
   D59        2.99376   0.00241   0.00000   0.02362   0.02421   3.01797
   D60        2.90906  -0.00289   0.00000  -0.04811  -0.04758   2.86148
   D61       -1.16679  -0.00140   0.00000  -0.03189  -0.03074  -1.19752
   D62       -1.34687   0.00261   0.00000   0.00171   0.00112  -1.34575
   D63        0.86046   0.00410   0.00000   0.01793   0.01797   0.87843
   D64        3.02466  -0.00252   0.00000  -0.02901  -0.02886   2.99580
   D65       -1.10321   0.00064   0.00000  -0.00352  -0.00397  -1.10718
   D66        0.91466  -0.00033   0.00000  -0.02073  -0.01961   0.89505
   D67       -0.81132  -0.00405   0.00000  -0.05279  -0.05293  -0.86425
   D68       -2.95219  -0.00219   0.00000  -0.01759  -0.01761  -2.96980
   D69        1.24769   0.00022   0.00000  -0.00876  -0.00662   1.24107
   D70        1.80212  -0.00167   0.00000   0.01112   0.01135   1.81348
   D71       -0.48158   0.00206   0.00000   0.03123   0.03215  -0.44944
   D72       -1.00783  -0.00351   0.00000  -0.06922  -0.06977  -1.07760
   D73        3.12952  -0.00069   0.00000  -0.04443  -0.04464   3.08489
   D74        1.10010  -0.00066   0.00000  -0.03954  -0.03879   1.06131
   D75       -3.08503  -0.00115   0.00000  -0.02226  -0.02271  -3.10774
   D76       -0.97520  -0.00621   0.00000  -0.05851  -0.06085  -1.03605
   D77        1.06737   0.00523   0.00000   0.01659   0.01938   1.08675
   D78        0.96886  -0.00237   0.00000  -0.05040  -0.05095   0.91791
   D79       -0.47442   0.00286   0.00000   0.06063   0.06022  -0.41419
   D80        1.42477   0.00025   0.00000   0.04618   0.04603   1.47079
   D81        2.76529  -0.00132   0.00000  -0.02026  -0.02097   2.74431
   D82        0.75158  -0.00215   0.00000  -0.02681  -0.02670   0.72488
   D83       -0.87496   0.00256   0.00000   0.07173   0.07160  -0.80336
   D84       -0.49777   0.00291   0.00000   0.04940   0.04925  -0.44852
   D85        0.43333  -0.00056   0.00000  -0.01223  -0.01268   0.42064
   D86        0.18365   0.00115   0.00000   0.01868   0.01849   0.20214
   D87        2.74343  -0.00012   0.00000   0.00131   0.00128   2.74470
   D88        2.49375   0.00158   0.00000   0.03222   0.03245   2.52620
   D89        0.12698  -0.00191   0.00000  -0.03921  -0.03874   0.08823
   D90       -1.86591  -0.00023   0.00000  -0.02869  -0.02856  -1.89447
   D91        1.98233  -0.00174   0.00000  -0.02081  -0.02092   1.96140
   D92       -1.73135   0.00014   0.00000  -0.00868  -0.00905  -1.74040
         Item               Value     Threshold  Converged?
 Maximum Force            0.021511     0.000450     NO
 RMS     Force            0.004070     0.000300     NO
 Maximum Displacement     0.434337     0.001800     NO
 RMS     Displacement     0.064307     0.001200     NO
 Predicted change in Energy=-1.189840D-02
 GradGradGradGradGradGradGradGradGradGradGradGradGradGradGradGradGradGrad

                          Input orientation:
 ---------------------------------------------------------------------
 Center     Atomic      Atomic             Coordinates (Angstroms)
 Number     Number       Type             X           Y           Z
 ---------------------------------------------------------------------
      1          1           0       -1.713357    0.204938    1.516776
      2          6           0       -1.181706   -0.163819    0.633740
      3          6           0        0.974247    1.029387    0.155774
      4          6           0        0.902861   -1.473534    0.349444
      5          6           0        1.568318   -0.282141   -0.340333
      6          8           0       -0.219485   -1.095818    1.171700
      7          6           0       -0.522077    1.045325   -0.058950
      8          1           0        1.607188   -1.923147    1.054776
      9          1           0        1.424747   -0.368952   -1.426840
     10          1           0       -0.707749    1.019726   -1.142162
     11          6           0       -2.198084   -0.832756   -0.285222
     12          1           0       -2.655279   -1.691042    0.226924
     13          1           0       -1.706866   -1.199588   -1.194543
     14          8           0        0.508781   -2.407530   -0.626655
     15          1           0        0.219456   -3.196074   -0.109564
     16          1           0        1.203175    1.159793    1.221643
     17          8           0       -3.161104    0.190232   -0.563808
     18          1           0       -3.851179   -0.194340   -1.123733
     19          8           0        2.963289   -0.321794   -0.034303
     20          1           0        3.303005    0.538519   -0.360228
     21          8           0        1.577859    2.110722   -0.586689
     22          1           0        1.050533    2.901530   -0.373883
     23          8           0       -1.001845    2.299197    0.450329
     24          1           0       -1.955257    2.327577    0.263235
     25          8           0       -0.928067   -3.678726    1.292644
     26          1           0       -0.933041   -2.772005    1.677566
     27          1           0       -1.831450   -3.829659    0.980101
     28          8           0        4.343547    2.060318   -0.609247
     29          1           0        3.405375    2.330174   -0.710655
     30          1           0        4.632533    2.499822    0.204321
 ---------------------------------------------------------------------
                    Distance matrix (angstroms):
                    1          2          3          4          5
     1  H    0.000000
     2  C    1.094708   0.000000
     3  C    3.123341   2.510045   0.000000
     4  C    3.320321   2.478225   2.511417   0.000000
     5  C    3.802037   2.919838   1.522875   1.529066   0.000000
     6  O    2.010646   1.443569   2.640757   1.441678   2.478821
     7  C    2.146697   1.541739   1.511736   2.922650   2.492207
     8  H    3.970920   3.324220   3.150599   1.093491   2.154238
     9  H    4.340728   3.328914   2.159390   2.155841   1.099385
    10  H    2.957208   2.186148   2.124580   3.321942   2.741946
    11  C    2.135174   1.524792   3.704826   3.229436   3.806836
    12  H    2.479047   2.160862   4.536436   3.566887   4.488380
    13  H    3.053520   2.165924   3.738991   3.044605   3.506881
    14  O    4.044401   3.079055   3.555454   1.407273   2.392045
    15  H    4.236464   3.422035   4.300539   1.909155   3.219268
    16  H    3.083019   2.790204   1.097949   2.790221   2.156913
    17  O    2.534761   2.340403   4.280549   4.485304   4.758204
    18  H    3.420818   3.196205   5.139978   5.138821   5.476529
    19  O    4.955230   4.201455   2.412075   2.391470   1.428695
    20  H    5.366405   4.646922   2.435225   3.211336   1.919119
[...]
 66419,0.00080042,-0.00123030,-0.00338446,-0.03597214,-0.01737288,-0.04
 123206,0.04699932,0.00019613,0.00083801,-0.00083409,-0.00094617,0.0003
 7521,0.00096432,0.00154842,-0.00245923,-0.00112602,-0.00024521,0.00019
 227,0.00044600,0.00071181,0.00017271,0.00081945,0.00064457,-0.00043967
 ,-0.00044397,0.01649994,-0.00608716,0.00442083,0.00006143,-0.00002033,
 -0.00005760,-0.00004110,0.00010643,-0.00010687,0.00141309,-0.00020977,
 0.00058196,0.00116199,-0.00084872,0.00082019,-0.00025915,0.00026187,-0
 .00023352,-0.00011093,-0.00001743,-0.00024649,-0.00005554,-0.00013902,
 -0.00025352,-0.00000236,0.00002012,0.00003074,0.00012203,-0.00009952,0
 .00023739,-0.00002152,0.00187490,-0.00144624,-0.00017645,-0.00028664,-
 0.00010077,0.00035554,-0.00032086,-0.00022155,-0.00005707,-0.00005321,
 0.00008464,0.00064625,-0.00055853,-0.00019055,-0.00093983,-0.00028750,
 0.00020144,-0.19220558,0.00325900,-0.09467374,0.17168124,0.00467381,0.
 09131109,0.00021328,-0.00020995,0.00002330,-0.00183055,0.00017980,-0.0
 0065441,-0.00029352,0.00029685,0.00000922,-0.00108410,0.00420648,0.003
 12110,0.00040879,-0.00018357,-0.00027115,0.00466521,-0.00402993,0.0001
 5107,0.00008876,-0.00001996,0.00030630,0.00054872,-0.00001808,0.000006
 31,-0.00000722,0.00002189,-0.00014382,-0.00005609,-0.00005018,0.000036
 01,-0.00107352,-0.00215752,0.00102118,0.00090378,0.00070655,-0.0003791
 1,0.00002171,0.00021144,-0.00021479,-0.00221016,-0.00881897,0.00581970
 ,-0.00197854,0.00141210,-0.00475793,0.00004018,-0.00003063,-0.00001029
 ,0.00026448,0.00094072,-0.00025197,0.00000079,-0.00011458,0.00016997,-
 0.00022475,-0.00039969,-0.00000776,0.00016832,0.00023336,-0.00009515,0
 .00017618,-0.00036724,0.00004420,-0.00009823,-0.00001433,-0.00000228,0
 .00028200,-0.00017186,-0.00004177,-0.00007280,-0.00007694,-0.00001366,
 0.50322151,0.00023224,-0.00016745,-0.00001405,-0.00414175,0.00202262,-
 0.00081915,0.00036397,0.00079449,-0.00010768,0.00437797,-0.00021612,-0
 .00030973,0.00057266,0.00039261,0.00013663,-0.00309987,-0.01194146,0.0
 0177949,0.00054336,0.00060473,0.00014511,-0.00019898,-0.00008247,-0.00
 016150,-0.00009907,-0.00010907,0.00000877,-0.00011823,-0.00020522,0.00
 018958,-0.00006126,0.00097844,-0.00072106,-0.00045728,-0.00042916,0.00
 021058,-0.00010319,-0.00004413,-0.00006403,-0.00548722,-0.00241411,0.0
 0658330,0.00109870,-0.00595300,-0.00340896,0.00003788,0.00002230,0.000
 06402,0.00100627,-0.00078616,0.00062294,-0.00009571,-0.00003616,-0.000
 08211,-0.00124106,-0.00041633,0.00021132,0.00031404,0.00028312,-0.0003
 0631,-0.00052269,-0.00085674,0.00024142,0.00007836,0.00016978,0.000024
 89,0.00011174,-0.00125757,-0.00002798,-0.00011838,0.00025656,-0.000051
 49,0.07754631,0.51129204,-0.00009494,0.00031426,0.00008173,-0.00049349
 ,-0.00098489,-0.00031848,0.00029172,-0.00019085,-0.00022769,0.00020256
 ,-0.00493281,-0.00842417,-0.00063317,0.00065024,0.00085909,-0.00123607
 ,0.00119712,0.00487656,0.00045121,-0.00030821,0.00001753,0.00060239,0.
 00042305,0.00096649,-0.00011330,-0.00032228,0.00034169,-0.00003713,-0.
 00006739,0.00013338,0.00004174,-0.00125551,0.00006790,0.00074577,0.000
 09243,-0.00052692,0.00000479,-0.00027410,0.00049179,0.00877467,0.00996
 237,-0.00082921,-0.00710589,-0.00193779,-0.00350264,-0.00001210,0.0000
 9466,0.00008911,-0.00060514,0.00094425,0.00005631,0.00021137,-0.000090
 87,0.00004862,0.00063768,0.00036658,0.00020047,-0.00019091,-0.00026359
 ,0.00008615,0.00006587,0.00053181,0.00004664,0.00001825,-0.00003029,-0
 .00005384,-0.00020228,0.00032166,0.00019786,0.00002431,-0.00011751,-0.
 00007624,0.08671774,0.17543434,0.09240212,-0.00024230,0.00030750,0.000
 04977,0.00351623,0.00045169,0.00018467,0.00002516,-0.00034249,0.000042
 17,-0.00216010,-0.00324718,0.00351736,-0.00052942,0.00001218,-0.000047
 23,-0.00576390,0.00289690,-0.00105307,-0.00058363,0.00004415,-0.000336
 30,-0.00092530,-0.00000682,-0.00036970,0.00005635,0.00011065,-0.000084
 49,0.00009596,0.00012782,-0.00013764,0.00077663,0.00220472,-0.00072536
 ,-0.00081223,-0.00069845,0.00001634,-0.00010772,-0.00030078,0.00017529
 ,-0.00054664,-0.00080724,-0.00103746,0.00013363,0.00299357,0.00303520,
 -0.00002314,-0.00002962,-0.00004026,-0.00024077,-0.00093087,0.00014019
 ,-0.00004226,0.00008594,-0.00013815,0.00023335,0.00017720,-0.00012561,
 -0.00014739,-0.00012990,0.00009839,-0.00002720,0.00032606,-0.00009364,
 0.00004614,-0.00001414,0.00000826,-0.00017196,0.00042979,-0.00000516,0
 .00008712,0.00003373,0.00003047,-0.06120760,0.07691646,0.02241444,0.06
 700446,-0.00028489,0.00001591,0.00003370,0.00614776,-0.00328078,0.0013
 8425,-0.00064420,-0.00085665,0.00020592,-0.00824014,0.00624025,0.00651
 015,0.00011315,-0.00099877,-0.00062546,0.00260237,0.00097129,-0.004502
 57,-0.00103336,-0.00048585,-0.00032663,0.00049890,-0.00013301,-0.00009
 083,0.00018767,0.00029970,-0.00028097,0.00019906,0.00032402,-0.0003436
 2,0.00070604,0.00108021,0.00053159,-0.00009761,-0.00014804,0.00035294,
 -0.00003900,0.00005127,-0.00017362,-0.00099673,-0.00512697,-0.00156490
 ,0.00297072,0.00410796,-0.00278581,-0.00004288,-0.00010144,-0.00012171
 ,-0.00091108,-0.00015727,-0.00068911,-0.00005183,0.00013165,-0.0000477
 9,0.00121725,0.00032390,-0.00036968,-0.00019460,-0.00016363,0.00031011
 ,0.00058464,0.00068085,-0.00026479,-0.00010615,-0.00018278,-0.00002131
 ,-0.00004971,0.00132803,-0.00006173,0.00014608,-0.00020921,0.00009892,
 0.02068469,-0.41363501,-0.13777201,-0.03273318,0.42049819,0.00015386,-
 0.00034697,-0.00000081,-0.00056187,0.00208373,-0.00039705,0.00005474,0
 .00021527,0.00013779,0.00419522,0.00400999,0.00106099,0.00055753,-0.00
 006973,-0.00003629,-0.00126790,-0.00366628,-0.00381006,-0.00016285,0.0
 0025354,0.00000800,-0.00034340,-0.00016554,-0.00006718,-0.00001724,0.0
 0003862,-0.00008664,0.00000977,-0.00000963,-0.00003713,0.00014434,0.00
 143101,-0.00051704,-0.00084266,-0.00025924,0.00015804,-0.00006639,0.00
 005693,-0.00022367,-0.00267464,-0.00117961,0.00050161,0.00446981,-0.00
 326617,-0.00520136,0.00000548,-0.00002068,-0.00001130,0.00055853,-0.00
 098225,0.00027113,-0.00010805,0.00002661,-0.00007888,-0.00046272,-0.00
 015027,-0.00008933,0.00013580,0.00013747,-0.00006930,-0.00019392,-0.00
 036641,0.00000768,0.00002836,0.00005744,0.00004067,0.00008362,-0.00043
 430,-0.00013389,-0.00002465,0.00013169,0.00004764,0.00093280,-0.128943
 01,-0.05333181,-0.00815558,0.14259237,0.06576164,-0.00000044,0.0000289
 3,0.00001681,0.00022834,-0.00037248,0.00014314,0.00001848,-0.00003159,
 -0.00000063,-0.00033434,0.00014496,-0.00033320,-0.00006404,-0.00001184
 ,0.00005082,0.00027548,0.00092816,-0.00011451,0.00000336,0.00000847,-0
 .00007212,0.00008076,0.00004706,0.00011316,-0.00000389,-0.00001458,-0.
 00000539,0.00000855,0.00001130,-0.00000674,0.00005479,0.00024921,-0.00
 014607,0.00012300,-0.00003726,-0.00001400,-0.00005185,-0.00010972,0.00
 007820,0.00083406,0.00029388,0.00043907,-0.00219155,-0.00049005,-0.000
 78024,-0.00000551,-0.00000153,-0.00000108,-0.00012612,-0.00001384,0.00
 001887,0.00003914,0.00003617,-0.00004061,0.00004547,0.00002623,0.00000
 174,-0.00000841,-0.00001938,0.00000677,-0.00000500,0.00004461,-0.00000
 528,0.00001022,-0.00000190,-0.00000193,-0.00003125,0.00003135,0.000010
 70,0.00001215,0.00000102,-0.00000292,-0.44081460,-0.14750307,-0.110495
 72,0.00153937,0.00943526,0.00354020,0.44036247,0.00003002,-0.00003532,
 0.00001478,-0.00062045,-0.00046443,-0.00034373,-0.00010570,-0.00008948
 ,-0.00005258,-0.00031200,-0.00002462,-0.00047158,-0.00023249,-0.000000
 28,-0.00000765,0.00116787,-0.00116963,0.00070928,0.00020186,-0.0002624
 5,0.00016491,0.00005254,-0.00005266,0.00008863,0.00000714,0.00000507,0
 .00000857,-0.00002535,-0.00000439,0.00002377,-0.00043840,-0.00185838,0
 .00086500,0.00081262,0.00042832,-0.00020705,0.00011408,0.00016149,-0.0
 0005251,0.00076651,0.00030140,0.00024645,-0.00119170,-0.00067969,0.000
 50874,0.00001382,0.00000446,0.00000585,-0.00038438,0.00110377,-0.00039
 494,0.00008899,-0.00006142,0.00014322,0.00029114,0.00004829,-0.0000184
 5,-0.00009118,-0.00006417,0.00006589,0.00021160,0.00021694,-0.00004422
 ,-0.00005017,-0.00005916,-0.00000988,0.00002865,0.00026293,0.00002772,
 -0.00000368,-0.00014032,-0.00000545,-0.08968617,-0.07814991,-0.0418726
 4,-0.04793661,-0.01065185,-0.01112662,0.13731454,0.09121155,-0.0000198
 2,-0.00009617,-0.00007302,0.00016061,-0.00007340,0.00044477,0.00004229
 ,-0.00000631,0.00005542,0.00000790,-0.00038010,0.00008425,0.00008419,-
 0.00006174,-0.00005346,-0.00012776,-0.00012661,-0.00009665,-0.00004121
 ,0.00008355,-0.00006825,-0.00008185,-0.00005010,-0.00008149,0.00002195
 ,0.00004157,-0.00000310,0.00001961,0.00001648,-0.00003374,0.00003313,0
 .00063065,-0.00033227,-0.00048568,0.00012614,0.00032030,0.00009861,0.0
 0015012,-0.00013398,-0.00000542,0.00177370,-0.00257844,0.00160674,-0.0
 0067253,0.00413837,-0.00001473,-0.00000472,-0.00001501,0.00017412,-0.0
 0047190,-0.00000019,-0.00007565,0.00009388,-0.00003394,-0.00007351,0.0
 0000169,-0.00002775,0.00001414,0.00001658,0.00000222,-0.00007116,-0.00
 005507,-0.00001875,0.00002289,0.00001944,0.00001733,0.00000064,-0.0001
 1653,-0.00005688,-0.00000173,0.00005707,0.00003728,-0.09157887,-0.0506
 9710,-0.03362367,-0.01732044,-0.00193757,-0.00392927,0.10760408,0.0517
 4285,0.03606108,-0.00009054,-0.00008195,0.00005856,-0.00006906,0.00050
 521,-0.00020613,0.00051616,0.00442372,-0.00180353,0.00060764,0.0008799
 3,0.00003718,0.00180247,0.00040858,0.00024260,-0.00049304,-0.00062098,
 0.00010253,0.00012913,-0.00075210,0.00062165,-0.00012747,-0.00007013,-
 0.00001156,0.00009246,0.00025334,0.00001487,0.00010154,0.00003881,0.00
 000847,0.00021455,-0.00003851,0.00019365,-0.00013806,-0.00011604,-0.00
 003218,0.00001476,0.00003711,0.00000714,-0.00031460,-0.00092175,-0.000
 21959,0.00004201,0.00027362,-0.00012914,-0.00034182,-0.00053423,0.0005
 0779,-0.00036450,-0.00002634,-0.00008174,0.00008552,-0.00002313,0.0000
 1467,-0.00043036,-0.00770989,0.00526804,-0.00863987,0.00346216,-0.0026
 2281,-0.01189541,0.00194789,0.00561863,-0.00158697,-0.00244063,0.00114
 385,-0.00089569,0.00000630,0.00017656,0.00013008,-0.00014705,0.0000304
 6,-0.00012154,-0.00044133,0.00021658,0.00012636,0.00036274,-0.00017036
 ,0.00001041,0.00012452,-0.00002776,0.59280595,-0.00011575,0.00011812,-
 0.00003091,0.00087273,-0.00069013,0.00038080,-0.00052019,-0.00356447,0
 .00063866,0.00047132,0.00061987,-0.00073820,0.00798280,-0.00260760,0.0
 0279348,-0.00191936,0.00016691,0.00050624,0.00079242,0.00060608,-0.000
 27234,-0.00003642,0.00032882,-0.00028102,-0.00078607,0.00025147,-0.000
 65308,-0.00005016,-0.00000631,0.00001208,0.00027447,-0.00002295,-0.000
 00407,0.00000128,0.00002862,0.00002627,0.00003633,-0.00000128,0.000069
 13,-0.00090482,-0.00066746,-0.00006120,0.00031492,0.00019333,-0.000176
 89,0.00023352,0.00028225,-0.00028058,-0.00035341,0.00022401,-0.0001600
 4,0.00002954,-0.00003322,0.00002066,-0.01478973,-0.01090581,0.00849098
 ,0.00585054,0.00334023,-0.00188976,0.00359077,0.00590588,-0.00189184,-
 0.00047722,0.00012408,0.00018739,-0.00049943,0.00082910,-0.00003073,-0
 .00006205,-0.00003232,0.00008213,-0.00024001,-0.00031291,0.00021640,0.
 00016712,0.00021521,-0.00012504,0.00001832,0.00006889,-0.00001001,-0.0
 5994616,0.18690560,0.00006996,-0.00000113,-0.00000172,-0.00024752,0.00
 004698,-0.00004529,0.00005659,-0.00069728,0.00060079,-0.00000414,-0.00
 072709,0.00030278,-0.00401779,0.00110608,-0.00267199,0.00091686,0.0002
 3821,-0.00011617,-0.00022726,0.00021753,-0.00042776,-0.00002605,-0.000
 23223,0.00016066,0.00100567,0.00005596,0.00070745,0.00005524,-0.000000
 41,0.00010422,-0.00015638,0.00002966,-0.00015101,0.00005348,0.00003569
 ,0.00002374,-0.00001827,-0.00000283,-0.00001032,0.00046452,0.00072838,
 0.00027186,-0.00011511,-0.00014675,0.00009248,-0.00013962,0.00001101,0
 .00017744,0.00025983,-0.00008018,0.00015011,-0.00001383,0.00003595,-0.
 00003830,0.00766028,0.00831069,0.00015416,-0.00393109,-0.00518016,-0.0
 0687507,0.00396910,-0.00161393,0.00147271,0.00067660,0.00100606,-0.000
 14798,0.00051759,-0.00024941,0.00008618,-0.00000825,0.00007490,-0.0000
 9303,0.00012549,0.00027842,-0.00009733,-0.00011630,-0.00022787,0.00007
 601,-0.00000691,-0.00007018,-0.00000226,0.11114155,0.18985329,0.324140
 20,0.00005904,0.00017654,-0.00009699,0.00058589,-0.00103485,0.00049437
 ,-0.00142495,-0.00920266,0.00304978,-0.00035295,-0.00082367,-0.0003112
 2,0.00401177,-0.00159420,0.00032213,-0.00042889,0.00089238,0.00018150,
 0.00010261,0.00143129,-0.00106718,0.00006566,0.00027945,-0.00016324,-0
 .00035073,-0.00011065,-0.00029980,-0.00018021,-0.00009205,0.00000069,-
 0.00012932,0.00006954,-0.00029371,0.00017855,0.00016001,0.00007011,0.0
 0000227,-0.00004440,0.00003152,-0.00008062,0.00077210,0.00022561,0.000
 10877,-0.00020682,0.00007027,0.00082601,0.00130790,-0.00115232,0.00028
 244,0.00012372,0.00004365,-0.00008332,0.00002755,-0.00001948,-0.005428
 96,-0.00238629,0.00163993,0.00556662,0.00533115,-0.00269576,-0.0044064
 2,0.00311483,-0.00050822,0.00144654,0.00355335,-0.00185537,0.00094163,
 0.00030982,-0.00022624,-0.00018223,0.00021347,-0.00001923,0.00002883,0
 .00035883,-0.00014034,-0.00006870,-0.00032525,0.00013709,-0.00000588,-
 0.00011104,0.00002798,-0.35449919,0.13308764,0.05921112,0.37873944,0.0
 0004204,-0.00005976,0.00001363,-0.00047359,0.00029324,-0.00020330,-0.0
 0218839,0.00219970,0.00031466,-0.00069243,-0.00037940,0.00007369,-0.00
 321136,-0.00038658,0.00044939,0.00078113,-0.00002762,-0.00024235,-0.00
 048220,-0.00071800,0.00041854,0.00006945,0.00000631,0.00002548,0.00006
 464,-0.00029457,-0.00026573,0.00001569,0.00001351,-0.00004041,-0.00013
 731,-0.00000465,0.00003457,0.00000052,-0.00001220,-0.00002293,-0.00001
 729,-0.00000480,-0.00003478,0.00034490,0.00031497,0.00001987,-0.000121
 02,-0.00010470,0.00007628,-0.00013243,-0.00026363,0.00013820,0.0001701
 9,-0.00008990,0.00006283,-0.00002108,0.00001642,-0.00000666,0.00123594
 ,0.00272015,-0.00076426,0.00403223,-0.00874542,0.00184691,0.00051091,-
 0.00964061,0.00152475,0.00190775,0.00089111,-0.00115848,0.00044463,-0.
 00033469,-0.00002817,0.00002966,0.00005663,-0.00005189,0.00010581,0.00
 015253,-0.00010640,-0.00007719,-0.00010573,0.00006474,-0.00000850,-0.0
 0003459,0.00000596,0.16872230,-0.10028199,-0.05559757,-0.15086749,0.10
 805413,-0.00003572,-0.00007737,0.00003138,-0.00027295,0.00038301,-0.00
 020985,0.00051175,0.00320841,-0.00240476,0.00015186,0.00039704,0.00002
 740,0.00064684,0.00079609,0.00151053,-0.00001767,-0.00031070,-0.000114
 72,-0.00022933,-0.00084329,0.00084130,0.00000418,0.00001262,-0.0000157
 6,-0.00031171,-0.00018041,-0.00036892,-0.00000948,-0.00001239,-0.00012
 438,0.00006870,-0.00005857,0.00019619,-0.00007487,-0.00006222,-0.00004
 816,0.00000450,0.00000443,-0.00001729,-0.00011503,-0.00043975,-0.00020
 266,-0.00000747,0.00009297,-0.00003747,0.00009358,-0.00005309,-0.00001
 611,-0.00015614,0.00000355,-0.00010012,0.00000852,-0.00003786,0.000035
 85,0.00039299,-0.00124317,-0.00116033,-0.00195671,0.00245360,0.0017169
 4,0.00178689,0.00040236,-0.00228217,-0.00120565,-0.00174910,0.00037138
 ,-0.00047393,-0.00006726,-0.00008995,0.00002820,-0.00012012,0.00009108
 ,-0.00004004,-0.00017263,0.00004107,0.00005360,0.00015467,-0.00004504,
 0.00000263,0.00004923,-0.00000070,0.10636732,-0.07025588,-0.06358950,-
 0.06825492,0.05298374,0.06101852,0.00002131,0.00001037,-0.00001006,-0.
 00004746,-0.00007167,0.00001507,-0.00030643,-0.00053732,0.00026114,-0.
 00011756,-0.00031844,0.00006172,-0.00078594,0.00009522,-0.00045133,0.0
 0021236,0.00016434,-0.00003738,-0.00009126,0.00007999,-0.00006871,0.00
 000088,-0.00001501,0.00000904,0.00009768,-0.00003916,0.00014883,0.0000
 1610,0.00000060,0.00001709,-0.00006472,0.00000248,-0.00004308,0.000032
 63,0.00002775,0.00000483,-0.00000469,-0.00000791,-0.00000322,0.0001212
 4,0.00027417,0.00006429,-0.00002472,-0.00007904,0.00003964,-0.00005038
 ,0.00001479,0.00002693,0.00010516,0.00000167,0.00002873,-0.00002198,0.
 00000569,-0.00000502,0.00113178,0.00133478,0.00016765,-0.00139675,-0.0
 0282359,-0.00046491,0.00039794,0.00098742,0.00100422,-0.00026813,0.000
 02311,0.00015298,0.00019957,-0.00003776,-0.00002392,-0.00002775,0.0000
 1742,-0.00000666,0.00004068,0.00013029,-0.00006060,-0.00004050,-0.0001
 0572,0.00004509,-0.00000319,-0.00003656,0.00000673,-0.21667090,-0.0730
 2295,-0.17715536,-0.02532370,-0.02004751,-0.03695994,0.24286875,0.0000
 2050,-0.00001003,0.00000135,-0.00012100,0.00007834,-0.00004222,0.00013
 152,0.00014510,-0.00016106,-0.00006779,-0.00015404,0.00009555,-0.00080
 512,0.00040455,-0.00048511,0.00027112,-0.00001827,-0.00004587,-0.00013
 308,0.00000261,0.00000349,-0.00003919,-0.00005905,0.00003398,0.0003325
 0,0.00005350,0.00016467,0.00001679,-0.00000752,0.00000937,-0.00004854,
 0.00001557,-0.00001894,0.00000349,-0.00000260,0.00000155,-0.00000490,-
 0.00000004,-0.00000903,0.00014250,0.00009086,0.00003108,-0.00005782,-0
 .00002097,0.00002176,-0.00004184,0.00003924,0.00004518,0.00006856,-0.0
 0004321,0.00003458,-0.00000506,0.00001012,-0.00000660,0.00155460,-0.00
 019737,0.00207716,-0.00399249,-0.00171392,-0.00468507,0.00036595,-0.00
 059102,-0.00046149,0.00029310,0.00020410,-0.00002597,0.00011330,-0.000
 15422,0.00000475,0.00000774,0.00002397,-0.00001892,0.00004360,0.000043
 79,-0.00002204,-0.00003102,-0.00003144,0.00001232,-0.00000373,-0.00001
 038,0.00000019,-0.10757601,-0.08108203,-0.13720181,0.01558978,0.006770
 15,0.01474209,0.09397254,0.07621420,-0.00000467,0.00000213,0.00000042,
 0.00006093,-0.00000922,0.00002187,0.00014359,-0.00007419,0.00021460,0.
 00004900,0.00009661,0.00002411,0.00024738,-0.00006072,0.00008329,-0.00
 010449,-0.00003304,-0.00001190,0.00007145,0.00000994,-0.00003647,0.000
 01314,0.00002861,-0.00000863,-0.00012314,-0.00003113,-0.00006142,-0.00
 002712,-0.00000100,-0.00001745,0.00003222,-0.00000455,0.00001445,-0.00
 000788,-0.00000428,-0.00000054,0.00000196,0.00000206,0.00000121,-0.000
 05987,-0.00009149,-0.00004532,0.00001773,0.00002617,-0.00000668,0.0000
 6193,0.00003556,-0.00009097,-0.00004568,0.00001342,-0.00002139,0.00000
 604,-0.00000554,0.00000514,-0.00012619,0.00046321,-0.00143556,0.000904
 20,-0.00026967,0.00230565,0.00044896,-0.00000463,-0.00072438,0.0001200
 0,-0.00009443,-0.00003353,-0.00005170,0.00005672,-0.00001561,0.0000050
 6,-0.00001130,0.00001014,-0.00002139,-0.00004399,0.00000750,0.00002026
 ,0.00003335,-0.00000516,0.00000116,0.00001259,0.00000181,-0.22646730,-
 0.12641593,-0.25425308,0.01159825,0.00046966,0.00494625,0.21323619,0.1
 2590509,0.24913166\\0.00000129,0.00000063,-0.00000043,0.00052232,-0.00
 211631,-0.00388556,0.00146628,-0.00128133,-0.00090210,0.00155014,0.000
 16081,0.00225094,-0.00160487,-0.00002707,-0.00204964,-0.00115466,0.001
 12049,0.00097413,-0.00077530,0.00213511,0.00361414,0.00000048,0.000001
 11,0.00000101,0.00000030,-0.00000195,0.00000101,0.00000100,0.00000018,
 0.00000007,-0.00000252,0.00000261,-0.00000325,-0.00000043,0.00000068,-
 0.00000007,0.00000115,-0.00000109,-0.00000004,0.00000761,-0.00000181,-
 0.00000341,-0.00000816,0.00000070,0.00000740,-0.00000109,0.00000258,-0
 .00000121,0.00000140,-0.00000408,-0.00000012,0.00000211,0.00000111,-0.
 00000221,-0.00000493,-0.00001272,-0.00000886,0.00000506,-0.00000378,0.
 00001407,0.00000230,-0.00000350,-0.00000559,0.00000435,0.00000308,-0.0
 0000241,-0.00000588,0.00000335,0.00000022,-0.00000028,0.00000437,-0.00
 000265,0.00000669,0.00000516,-0.00001188,-0.00001106,-0.00000055,0.000
 01065,-0.00000176,-0.00000086,0.00000466,0.00000264,-0.00002485,0.0000
 0703,-0.00000712,0.00003043,0.00000011,0.00000294,0.00000752,-0.000006
 02\\\@


 I DO NOT KNOW WHAT I MAY APPEAR TO THE WORLD; BUT TO MYSELF
 I SEEM TO HAVE BEEN ONLY LIKE A BOY PLAYING ON THE SEASHORE,
 AND DIVERTING MYSELF IN NOW AND THEN FINDING A SMOOTHER PEBBLE
 OR A PRETTIER SHELL THAN ORDINARY, WHILST THE GREAT OCEAN OF
 TRUTH LAY ALL UNDISCOVERED BEFORE ME.
                                          -- NEWTON (1642-1726)
 Job cpu time:       0 days  1 hours  7 minutes 48.1 seconds.
 File lengths (MBytes):  RWF=    335 Int=      0 D2E=      0 Chk=      7 Scr=      2
 Normal termination of Gaussian 09 at Mon Jan 16 22:50:01 2017.
