 Entering Gaussian System, Link 0=g09
 Initial command:
 /global/software/gaussian/g09.e01/l1.exe "//home/aalrawas/scratch/Gau-23816.inp" -scrdir="//home/aalrawas/scratch/"
 Entering Link 1 = /global/software/gaussian/g09.e01/l1.exe PID=     23820.
  
 Copyright (c) 1988,1990,1992,1993,1995,1998,2003,2009,2015,
            Gaussian, Inc.  All Rights Reserved.
  
 This is part of the Gaussian(R) 09 program.  It is based on
 the Gaussian(R) 03 system (copyright 2003, Gaussian, Inc.),
 the Gaussian(R) 98 system (copyright 1998, Gaussian, Inc.),
 the Gaussian(R) 94 system (copyright 1995, Gaussian, Inc.),
 the Gaussian 92(TM) system (copyright 1992, Gaussian, Inc.),
 the Gaussian 90(TM) system (copyright 1990, Gaussian, Inc.),
 the Gaussian 88(TM) system (copyright 1988, Gaussian, Inc.),
 the Gaussian 86(TM) system (copyright 1986, Carnegie Mellon
 University), and the Gaussian 82(TM) system (copyright 1983,
 Carnegie Mellon University). Gaussian is a federally registered
 trademark of Gaussian, Inc.
  
 This software contains proprietary and confidential information,
 including trade secrets, belonging to Gaussian, Inc.
  
 This software is provided under written license and may be
 used, copied, transmitted, or stored only in accord with that
 written license.
  
 The following legend is applicable only to US Government
 contracts under FAR:
  
                    RESTRICTED RIGHTS LEGEND
  
 Use, reproduction and disclosure by the US Government is
 subject to restrictions as set forth in subparagraphs (a)
 and (c) of the Commercial Computer Software - Restricted
 Rights clause in FAR 52.227-19.
  
 Gaussian, Inc.
 340 Quinnipiac St., Bldg. 40, Wallingford CT 06492
  
  
 ---------------------------------------------------------------
 Warning -- This program may not be used in any manner that
 competes with the business of Gaussian, Inc. or will provide
 assistance to any competitor of Gaussian, Inc.  The licensee
 of this program is prohibited from giving any competitor of
 Gaussian, Inc. access to this program.  By using this program,
 the user acknowledges that Gaussian, Inc. is engaged in the
 business of creating and licensing software in the field of
 computational chemistry and represents and warrants to the
 licensee that it is not a competitor of Gaussian, Inc. and that
 it will not use this program in any manner prohibited above.
 ---------------------------------------------------------------
  

 Cite this work as:
 Gaussian 09, Revision E.01,
 M. J. Frisch, G. W. Trucks, H. B. Schlegel, G. E. Scuseria, 
 M. A. Robb, J. R. Cheeseman, G. Scalmani, V. Barone, B. Mennucci, 
 G. A. Petersson, H. Nakatsuji, M. Caricato, X. Li, H. P. Hratchian, 
 A. F. Izmaylov, J. Bloino, G. Zheng, J. L. Sonnenberg, M. Hada, 
 M. Ehara, K. Toyota, R. Fukuda, J. Hasegawa, M. Ishida, T. Nakajima, 
 Y. Honda, O. Kitao, H. Nakai, T. Vreven, J. A. Montgomery, Jr., 
 J. E. Peralta, F. Ogliaro, M. Bearpark, J. J. Heyd, E. Brothers, 
 K. N. Kudin, V. N. Staroverov, T. Keith, R. Kobayashi, J. Normand, 
 K. Raghavachari, A. Rendell, J. C. Burant, S. S. Iyengar, J. Tomasi, 
 M. Cossi, N. Rega, J. M. Millam, M. Klene, J. E. Knox, J. B. Cross, 
 V. Bakken, C. Adamo, J. Jaramillo, R. Gomperts, R. E. Stratmann, 
 O. Yazyev, A. J. Austin, R. Cammi, C. Pomelli, J. W. Ochterski, 
 R. L. Martin, K. Morokuma, V. G. Zakrzewski, G. A. Voth, 
 P. Salvador, J. J. Dannenberg, S. Dapprich, A. D. Daniels, 
 O. Farkas, J. B. Foresman, J. V. Ortiz, J. Cioslowski, 
 and D. J. Fox, Gaussian, Inc., Wallingford CT, 2013.
 
 ******************************************
 Gaussian 09:  ES64L-G09RevE.01 30-Nov-2015
                16-Jan-2017 
 ******************************************
 %NPROCS=8
 Will use up to    8 processors via shared memory.
 ------------------------------------------------------
 # opt=(modredundant,MaxCycle=1000) freq B3LYP/6-31G(d)
 ------------------------------------------------------
 1/6=1000,14=-1,18=120,19=15,26=3,38=1/1,3;
 2/9=110,12=2,17=6,18=5,40=1/2;
 3/5=1,6=6,7=1,11=2,16=1,25=1,30=1,71=1,74=-5/1,2,3;
 4//1;
 5/5=2,38=5/2;
 6/7=2,8=2,9=2,10=2,28=1/1;
 7//1,2,3,16;
 1/6=1000,14=-1,18=20,19=15,26=3/3(2);
 2/9=110/2;
 99//99;
 2/9=110/2;
 3/5=1,6=6,7=1,11=2,16=1,25=1,30=1,71=1,74=-5/1,2,3;
 4/5=5,16=3,69=1/1;
 5/5=2,38=5/2;
 7//1,2,3,16;
 1/6=1000,14=-1,18=20,19=15,26=3/3(-5);
 2/9=110/2;
 6/7=2,8=2,9=2,10=2,19=2,28=1/1;
 99/9=1/99;
 -------------------
 Title Card Required
 -------------------
 Symbolic Z-matrix:
 Charge =  0 Multiplicity = 1
 H                     0.04915   0.51411  -0.67727 
 C                    -0.48727   0.4404    0.277 
 C                    -2.36975   2.09352   0.61918 
 C                    -2.76951  -0.38268   0.9262 
 C                    -3.14901   1.03353   1.38764 
 O                    -1.65898  -0.38397  -0.00293 
 C                    -0.86678   1.85661   0.73844 
 H                    -2.97594   1.14431   2.46526 
 H                    -0.56518   2.02867   1.77927 
 C                     0.44848  -0.25117   1.27283 
 H                     0.68204  -1.2655    0.93222 
 H                    -0.00681  -0.32868   2.26469 
 H                    -2.68003   2.11763  -0.43305 
 O                     1.66131   0.48943   1.39097 
 H                     2.23813  -0.01701   1.99137 
 O                    -4.55711   1.27175   1.20523 
 H                    -4.66616   2.23334   1.35353 
 O                    -2.70252   3.39225   1.1458 
 H                    -2.052     3.99774   0.73393 
 O                    -0.18391   2.86206  -0.02702 
 H                     0.7707    2.68189   0.0847 
 H                    -2.49543  -1.00468   1.78597 
 O                    -3.85803  -0.99737   0.27395 
 H                    -4.17901  -0.34056  -0.34524 
 O                    -3.55357   0.45251  -1.91901 
 H                    -2.59357   0.45251  -1.91901 
 H                    -3.87402   1.35745  -1.91901 
 O                    -1.10814   5.39353   0.01993 
 H                    -0.79748   4.5401   -0.29111 
 H                    -0.62562   6.09264  -0.4273 
 
 Add virtual bond connecting atoms O28        and H19        Dist= 3.46D+00.
 Add virtual bond connecting atoms H29        and H19        Dist= 3.23D+00.
 Add virtual bond connecting atoms H29        and O20        Dist= 3.41D+00.
 Add virtual bond connecting atoms O25        and H24        Dist= 3.53D+00.
 The following ModRedundant input section has been read:
 D       6       4       5       3 F                                           
 D       6       2       7       3 F                                           
 

 GradGradGradGradGradGradGradGradGradGradGradGradGradGradGradGradGradGrad
 Berny optimization.
 Initialization pass.
                           ----------------------------
                           !    Initial Parameters    !
                           ! (Angstroms and Degrees)  !
 --------------------------                            --------------------------
 ! Name  Definition              Value          Derivative Info.                !
 --------------------------------------------------------------------------------
 ! R1    R(1,2)                  1.0972         estimate D2E/DX2                !
 ! R2    R(2,6)                  1.4597         estimate D2E/DX2                !
 ! R3    R(2,7)                  1.5371         estimate D2E/DX2                !
 ! R4    R(2,10)                 1.5315         estimate D2E/DX2                !
 ! R5    R(3,5)                  1.5236         estimate D2E/DX2                !
 ! R6    R(3,7)                  1.5262         estimate D2E/DX2                !
 ! R7    R(3,13)                 1.0973         estimate D2E/DX2                !
 ! R8    R(3,18)                 1.4404         estimate D2E/DX2                !
 ! R9    R(4,5)                  1.5371         estimate D2E/DX2                !
 ! R10   R(4,6)                  1.4479         estimate D2E/DX2                !
 ! R11   R(4,22)                 1.096          estimate D2E/DX2                !
 ! R12   R(4,23)                 1.41           estimate D2E/DX2                !
 ! R13   R(5,8)                  1.097          estimate D2E/DX2                !
 ! R14   R(5,16)                 1.4397         estimate D2E/DX2                !
 ! R15   R(7,9)                  1.0972         estimate D2E/DX2                !
 ! R16   R(7,20)                 1.4364         estimate D2E/DX2                !
 ! R17   R(10,11)                1.0952         estimate D2E/DX2                !
 ! R18   R(10,12)                1.0941         estimate D2E/DX2                !
 ! R19   R(10,14)                1.426          estimate D2E/DX2                !
 ! R20   R(14,15)                0.9745         estimate D2E/DX2                !
 ! R21   R(16,17)                0.9791         estimate D2E/DX2                !
 ! R22   R(18,19)                0.9795         estimate D2E/DX2                !
 ! R23   R(19,28)                1.83           estimate D2E/DX2                !
 ! R24   R(19,29)                1.7084         estimate D2E/DX2                !
 ! R25   R(20,21)                0.9779         estimate D2E/DX2                !
 ! R26   R(20,29)                1.8061         estimate D2E/DX2                !
 ! R27   R(23,24)                0.958          estimate D2E/DX2                !
 ! R28   R(24,25)                1.87           estimate D2E/DX2                !
 ! R29   R(25,26)                0.96           estimate D2E/DX2                !
 ! R30   R(25,27)                0.96           estimate D2E/DX2                !
 ! R31   R(28,29)                0.96           estimate D2E/DX2                !
 ! R32   R(28,30)                0.96           estimate D2E/DX2                !
 ! A1    A(1,2,6)              105.2828         estimate D2E/DX2                !
 ! A2    A(1,2,7)              108.6582         estimate D2E/DX2                !
 ! A3    A(1,2,10)             107.2854         estimate D2E/DX2                !
 ! A4    A(6,2,7)              112.3164         estimate D2E/DX2                !
 ! A5    A(6,2,10)             111.1071         estimate D2E/DX2                !
 ! A6    A(7,2,10)             111.8209         estimate D2E/DX2                !
 ! A7    A(5,3,7)              110.8717         estimate D2E/DX2                !
 ! A8    A(5,3,13)             110.7517         estimate D2E/DX2                !
 ! A9    A(5,3,18)             108.949          estimate D2E/DX2                !
 ! A10   A(7,3,13)             110.9043         estimate D2E/DX2                !
 ! A11   A(7,3,18)             109.8098         estimate D2E/DX2                !
 ! A12   A(13,3,18)            105.3939         estimate D2E/DX2                !
 ! A13   A(5,4,6)              112.5089         estimate D2E/DX2                !
 ! A14   A(5,4,22)             110.4343         estimate D2E/DX2                !
 ! A15   A(5,4,23)             110.4833         estimate D2E/DX2                !
 ! A16   A(6,4,22)             108.1241         estimate D2E/DX2                !
 ! A17   A(6,4,23)             107.1495         estimate D2E/DX2                !
 ! A18   A(22,4,23)            107.9703         estimate D2E/DX2                !
 ! A19   A(3,5,4)              111.3038         estimate D2E/DX2                !
 ! A20   A(3,5,8)              110.1513         estimate D2E/DX2                !
 ! A21   A(3,5,16)             108.7366         estimate D2E/DX2                !
 ! A22   A(4,5,8)              110.425          estimate D2E/DX2                !
 ! A23   A(4,5,16)             110.8482         estimate D2E/DX2                !
 ! A24   A(8,5,16)             105.1913         estimate D2E/DX2                !
 ! A25   A(2,6,4)              119.4764         estimate D2E/DX2                !
 ! A26   A(2,7,3)              111.2664         estimate D2E/DX2                !
 ! A27   A(2,7,9)              111.1856         estimate D2E/DX2                !
 ! A28   A(2,7,20)             111.5668         estimate D2E/DX2                !
 ! A29   A(3,7,9)              108.6919         estimate D2E/DX2                !
 ! A30   A(3,7,20)             108.5347         estimate D2E/DX2                !
 ! A31   A(9,7,20)             105.3715         estimate D2E/DX2                !
 ! A32   A(2,10,11)            110.2613         estimate D2E/DX2                !
 ! A33   A(2,10,12)            111.542          estimate D2E/DX2                !
 ! A34   A(2,10,14)            109.8167         estimate D2E/DX2                !
 ! A35   A(11,10,12)           107.762          estimate D2E/DX2                !
 ! A36   A(11,10,14)           108.9905         estimate D2E/DX2                !
 ! A37   A(12,10,14)           108.3981         estimate D2E/DX2                !
 ! A38   A(10,14,15)           106.5327         estimate D2E/DX2                !
 ! A39   A(5,16,17)            104.6111         estimate D2E/DX2                !
 ! A40   A(3,18,19)            104.4892         estimate D2E/DX2                !
 ! A41   A(18,19,29)           159.4256         estimate D2E/DX2                !
 ! A42   A(7,20,21)            105.9171         estimate D2E/DX2                !
 ! A43   A(7,20,29)            124.5254         estimate D2E/DX2                !
 ! A44   A(21,20,29)           121.3008         estimate D2E/DX2                !
 ! A45   A(4,23,24)            104.9953         estimate D2E/DX2                !
 ! A46   A(23,24,25)           136.2715         estimate D2E/DX2                !
 ! A47   A(24,25,26)           109.5399         estimate D2E/DX2                !
 ! A48   A(24,25,27)           106.7459         estimate D2E/DX2                !
 ! A49   A(26,25,27)           109.5            estimate D2E/DX2                !
 ! A50   A(29,28,30)           109.5            estimate D2E/DX2                !
 ! A51   A(19,29,20)            82.3442         estimate D2E/DX2                !
 ! A52   A(20,29,28)           152.687          estimate D2E/DX2                !
 ! A53   L(18,19,28,1,-1)      191.5491         estimate D2E/DX2                !
 ! A54   L(19,28,30,21,-1)     178.8237         estimate D2E/DX2                !
 ! A55   L(18,19,28,1,-2)      176.6402         estimate D2E/DX2                !
 ! A56   L(19,28,30,21,-2)     175.0386         estimate D2E/DX2                !
 ! D1    D(1,2,6,4)           -163.0567         estimate D2E/DX2                !
 ! D2    D(7,2,6,4)            -44.9796         estimate D2E/DX2                !
 ! D3    D(10,2,6,4)            81.1165         estimate D2E/DX2                !
 ! D4    D(1,2,7,3)            108.9719         estimate D2E/DX2                !
 ! D5    D(1,2,7,9)           -129.7175         estimate D2E/DX2                !
 ! D6    D(1,2,7,20)           -12.4021         estimate D2E/DX2                !
 ! D7    D(6,2,7,3)             -7.0892         Frozen                          !
 ! D8    D(6,2,7,9)            114.2214         estimate D2E/DX2                !
 ! D9    D(6,2,7,20)          -128.4632         estimate D2E/DX2                !
 ! D10   D(10,2,7,3)          -132.7976         estimate D2E/DX2                !
 ! D11   D(10,2,7,9)           -11.487          estimate D2E/DX2                !
 ! D12   D(10,2,7,20)          105.8284         estimate D2E/DX2                !
 ! D13   D(1,2,10,11)          -62.3686         estimate D2E/DX2                !
 ! D14   D(1,2,10,12)          177.9401         estimate D2E/DX2                !
 ! D15   D(1,2,10,14)           57.7461         estimate D2E/DX2                !
 ! D16   D(6,2,10,11)           52.2153         estimate D2E/DX2                !
 ! D17   D(6,2,10,12)          -67.4761         estimate D2E/DX2                !
 ! D18   D(6,2,10,14)          172.3299         estimate D2E/DX2                !
 ! D19   D(7,2,10,11)          178.5855         estimate D2E/DX2                !
 ! D20   D(7,2,10,12)           58.8941         estimate D2E/DX2                !
 ! D21   D(7,2,10,14)          -61.2999         estimate D2E/DX2                !
 ! D22   D(7,3,5,4)            -55.5743         estimate D2E/DX2                !
 ! D23   D(7,3,5,8)             67.2526         estimate D2E/DX2                !
 ! D24   D(7,3,5,16)          -177.9619         estimate D2E/DX2                !
 ! D25   D(13,3,5,4)            67.9872         estimate D2E/DX2                !
 ! D26   D(13,3,5,8)          -169.1859         estimate D2E/DX2                !
 ! D27   D(13,3,5,16)          -54.4004         estimate D2E/DX2                !
 ! D28   D(18,3,5,4)          -176.5311         estimate D2E/DX2                !
 ! D29   D(18,3,5,8)           -53.7042         estimate D2E/DX2                !
 ! D30   D(18,3,5,16)           61.0813         estimate D2E/DX2                !
 ! D31   D(5,3,7,2)             55.5531         estimate D2E/DX2                !
 ! D32   D(5,3,7,9)            -67.2035         estimate D2E/DX2                !
 ! D33   D(5,3,7,20)           178.6812         estimate D2E/DX2                !
 ! D34   D(13,3,7,2)           -67.9208         estimate D2E/DX2                !
 ! D35   D(13,3,7,9)           169.3227         estimate D2E/DX2                !
 ! D36   D(13,3,7,20)           55.2074         estimate D2E/DX2                !
 ! D37   D(18,3,7,2)           175.9999         estimate D2E/DX2                !
 ! D38   D(18,3,7,9)            53.2434         estimate D2E/DX2                !
 ! D39   D(18,3,7,20)          -60.8719         estimate D2E/DX2                !
 ! D40   D(5,3,18,19)          169.5631         estimate D2E/DX2                !
 ! D41   D(7,3,18,19)           47.9583         estimate D2E/DX2                !
 ! D42   D(13,3,18,19)         -71.5495         estimate D2E/DX2                !
 ! D43   D(6,4,5,3)              6.941          Frozen                          !
 ! D44   D(6,4,5,8)           -115.7287         estimate D2E/DX2                !
 ! D45   D(6,4,5,16)           128.1016         estimate D2E/DX2                !
 ! D46   D(22,4,5,3)           127.854          estimate D2E/DX2                !
 ! D47   D(22,4,5,8)             5.1844         estimate D2E/DX2                !
 ! D48   D(22,4,5,16)         -110.9854         estimate D2E/DX2                !
 ! D49   D(23,4,5,3)          -112.7632         estimate D2E/DX2                !
 ! D50   D(23,4,5,8)           124.5672         estimate D2E/DX2                !
 ! D51   D(23,4,5,16)            8.3974         estimate D2E/DX2                !
 ! D52   D(5,4,6,2)             45.059          estimate D2E/DX2                !
 ! D53   D(22,4,6,2)           -77.1691         estimate D2E/DX2                !
 ! D54   D(23,4,6,2)           166.6796         estimate D2E/DX2                !
 ! D55   D(5,4,23,24)           47.5349         estimate D2E/DX2                !
 ! D56   D(6,4,23,24)          -75.35           estimate D2E/DX2                !
 ! D57   D(22,4,23,24)         168.3969         estimate D2E/DX2                !
 ! D58   D(3,5,16,17)          -46.4852         estimate D2E/DX2                !
 ! D59   D(4,5,16,17)         -169.1482         estimate D2E/DX2                !
 ! D60   D(8,5,16,17)           71.4876         estimate D2E/DX2                !
 ! D61   D(2,7,20,21)          -57.7445         estimate D2E/DX2                !
 ! D62   D(2,7,20,29)          153.8342         estimate D2E/DX2                !
 ! D63   D(3,7,20,21)          179.3085         estimate D2E/DX2                !
 ! D64   D(3,7,20,29)           30.8873         estimate D2E/DX2                !
 ! D65   D(9,7,20,21)           63.0309         estimate D2E/DX2                !
 ! D66   D(9,7,20,29)          -85.3903         estimate D2E/DX2                !
 ! D67   D(2,10,14,15)        -176.759          estimate D2E/DX2                !
 ! D68   D(11,10,14,15)        -55.8751         estimate D2E/DX2                !
 ! D69   D(12,10,14,15)         61.1558         estimate D2E/DX2                !
 ! D70   D(3,18,19,29)           7.9146         estimate D2E/DX2                !
 ! D71   D(18,19,28,29)       -157.7919         estimate D2E/DX2                !
 ! D72   D(18,19,29,20)        -34.9527         estimate D2E/DX2                !
 ! D73   D(7,20,29,19)           2.7893         estimate D2E/DX2                !
 ! D74   D(7,20,29,28)          56.6537         estimate D2E/DX2                !
 ! D75   D(21,20,29,19)       -141.098          estimate D2E/DX2                !
 ! D76   D(21,20,29,28)        -87.2336         estimate D2E/DX2                !
 ! D77   D(4,23,24,25)          68.8647         estimate D2E/DX2                !
 ! D78   D(23,24,25,26)        -27.7072         estimate D2E/DX2                !
 ! D79   D(23,24,25,27)       -146.1759         estimate D2E/DX2                !
 ! D80   D(24,25,26,27)       -116.7448         estimate D2E/DX2                !
 ! D81   D(19,28,29,30)        176.0595         estimate D2E/DX2                !
 ! D82   D(30,28,29,20)        129.8876         estimate D2E/DX2                !
 --------------------------------------------------------------------------------
 Trust Radius=3.00D-01 FncErr=1.00D-07 GrdErr=1.00D-06
 Number of steps in this run=    180 maximum allowed number of steps=    180.
 GradGradGradGradGradGradGradGradGradGradGradGradGradGradGradGradGradGrad

                          Input orientation:                          
 ---------------------------------------------------------------------
 Center     Atomic      Atomic             Coordinates (Angstroms)
 Number     Number       Type             X           Y           Z
 ---------------------------------------------------------------------
      1          1           0        0.049154    0.514107   -0.677268
      2          6           0       -0.487273    0.440403    0.277004
      3          6           0       -2.369749    2.093516    0.619185
      4          6           0       -2.769506   -0.382678    0.926196
      5          6           0       -3.149010    1.033532    1.387636
      6          8           0       -1.658981   -0.383973   -0.002933
      7          6           0       -0.866778    1.856612    0.738444
      8          1           0       -2.975943    1.144310    2.465256
      9          1           0       -0.565176    2.028669    1.779274
     10          6           0        0.448485   -0.251172    1.272828
     11          1           0        0.682038   -1.265503    0.932225
     12          1           0       -0.006810   -0.328683    2.264690
     13          1           0       -2.680028    2.117627   -0.433049
     14          8           0        1.661314    0.489432    1.390968
     15          1           0        2.238126   -0.017006    1.991368
     16          8           0       -4.557105    1.271746    1.205227
     17          1           0       -4.666158    2.233345    1.353533
     18          8           0       -2.702520    3.392250    1.145804
     19          1           0       -2.052001    3.997742    0.733933
     20          8           0       -0.183910    2.862062   -0.027017
     21          1           0        0.770699    2.681890    0.084703
     22          1           0       -2.495425   -1.004680    1.785973
     23          8           0       -3.858027   -0.997374    0.273946
     24          1           0       -4.179012   -0.340557   -0.345238
     25          8           0       -3.553567    0.452509   -1.919011
     26          1           0       -2.593567    0.452509   -1.919011
     27          1           0       -3.874021    1.357445   -1.919011
     28          8           0       -1.108142    5.393533    0.019934
     29          1           0       -0.797482    4.540102   -0.291106
     30          1           0       -0.625619    6.092645   -0.427297
 ---------------------------------------------------------------------
                    Distance matrix (angstroms):
                    1          2          3          4          5
     1  H    0.000000
     2  C    1.097188   0.000000
     3  C    3.166451   2.528554   0.000000
     4  C    3.364545   2.511474   2.526974   0.000000
     5  C    3.842120   2.944512   1.523591   1.537075   0.000000
     6  O    2.044260   1.459747   2.651447   1.447946   2.482577
     7  C    2.155340   1.537075   1.526194   2.944494   2.511472
     8  H    4.407247   3.387833   2.162508   2.177846   1.097036
     9  H    2.950576   2.187572   2.146275   3.376597   2.796404
    10  C    2.132602   1.531530   3.723876   3.239277   3.821729
    11  H    2.481536   2.169497   4.549111   3.562664   4.491090
    12  H    3.060808   2.184773   3.762740   3.070337   3.535290
    13  H    3.174800   2.850514   1.097292   2.847293   2.170276
    14  O    2.622455   2.420691   4.406609   4.539687   4.840999
    15  H    3.492177   3.252087   5.250686   5.132707   5.521717
    16  O    5.033431   4.256320   2.408999   2.451630   1.439705
    17  H    5.414250   4.672969   2.415018   3.259368   1.934542
    18  O    4.379384   3.791508   1.440408   3.781904   2.412755
    19  H    4.306048   3.913032   1.933962   4.442956   3.227584
    20  O    2.447455   2.459449   2.405438   4.257025   3.759865
    21  H    2.408425   2.577545   3.239486   4.757388   4.447340
    22  H    3.853460   2.897918   3.313006   1.096003   2.177189
    23  O    4.295980   3.664587   3.447863   1.410021   2.422311
    24  H    4.326440   3.824397   3.182492   1.898690   2.439646
    25  O    3.811209   3.771576   3.246038   3.067163   3.381592
    26  H    2.920563   3.042877   3.030748   2.970471   3.402943
    27  H    4.200529   4.139264   3.040900   3.513287   3.400658
    28  O    5.063026   4.998507   3.583416   6.078328   5.004535
    29  H    4.132137   4.150484   3.047366   5.440999   4.543556
    30  H    5.624757   5.697633   4.486663   6.953992   5.937685
                    6          7          8          9         10
     6  O    0.000000
     7  C    2.489467   0.000000
     8  H    3.187788   2.817416   0.000000
     9  H    3.192728   1.097221   2.657905   0.000000
    10  C    2.467107   2.541306   3.885352   2.545913   0.000000
    11  H    2.670578   3.490556   4.640927   3.622790   1.095183
    12  H    2.806215   2.800801   3.320495   2.470731   1.094117
    13  H    2.735971   2.174489   3.071658   3.061843   4.278881
    14  O    3.705422   2.947239   4.804905   2.734463   1.425975
    15  H    4.393102   3.836755   5.362811   3.476819   1.942665
    16  O    3.549673   3.765431   2.025830   4.103408   5.232569
    17  H    4.211112   3.867241   2.297553   4.128099   5.686731
    18  O    4.082699   2.427772   2.620868   2.613212   4.818661
    19  H    4.460590   2.447287   3.463123   2.679671   4.959446
    20  O    3.565552   1.436374   4.117954   2.025486   3.432455
    21  H    3.912869   1.946739   4.697713   2.254513   3.180930
    22  H    2.070048   3.454967   2.304448   3.595429   3.081834
    23  O    2.299723   4.160356   3.188530   4.718667   4.483372
    24  H    2.543543   4.119807   3.398688   4.815245   4.903045
    25  O    2.821438   4.031427   4.475939   5.009198   5.167148
    26  H    2.290089   3.466319   4.454952   4.502883   4.465096
    27  H    3.407388   4.044100   4.480376   5.007625   5.608881
    28  O    5.803752   3.617227   5.246350   3.835675   5.987949
    29  H    5.007169   2.875047   4.886167   3.263087   5.191785
    30  H    6.572253   4.400123   6.194910   4.624771   6.654933
                   11         12         13         14         15
    11  H    0.000000
    12  H    1.768504   0.000000
    13  H    4.961152   4.517557   0.000000
    14  O    2.061364   2.053129   4.982500   0.000000
    15  H    2.258747   2.282890   5.884105   0.974511   0.000000
    16  O    5.827588   4.938524   2.631137   6.270187   6.960895
    17  H    6.404892   5.394786   2.673944   6.563500   7.289722
    18  O    5.761555   4.729070   2.029272   5.246857   6.062012
    19  H    5.934310   5.024338   2.300239   5.150596   6.008705
    20  O    4.325136   3.932447   2.636219   3.323388   4.269563
    21  H    4.038325   3.797422   3.534682   2.703034   3.615626
    22  H    3.300483   2.622851   3.834963   4.434735   4.839855
    23  O    4.595369   4.386580   3.404520   5.824213   6.408880
    24  H    5.110503   4.921293   2.880509   6.149203   6.836963
    25  O    5.387157   5.540135   2.396616   6.176755   7.003942
    26  H    4.670192   4.980454   2.233422   5.390856   6.233519
    27  H    5.980558   5.941524   2.052213   6.507637   7.385020
    28  O    6.955558   6.244648   3.661637   5.796536   6.660180
    29  H    6.114783   5.555387   3.071240   5.028219   5.932271
    30  H    7.596092   6.990220   4.474528   6.319189   7.167901
                   16         17         18         19         20
    16  O    0.000000
    17  H    0.979061   0.000000
    18  O    2.817721   2.289560   0.000000
    19  H    3.732120   3.214159   0.979507   0.000000
    20  O    4.813768   4.731992   2.828428   2.314860   0.000000
    21  H    5.624018   5.600941   3.700513   3.181289   0.977866
    22  H    3.125685   3.922230   4.448112   5.131047   4.856102
    23  O    2.550471   3.500875   4.622135   5.331463   5.337130
    24  H    2.268571   3.122195   4.282182   4.950719   5.130192
    25  O    3.382174   3.888287   4.331217   4.675626   4.554137
    26  H    3.779880   4.263397   4.248180   4.460950   3.897695
    27  H    3.199189   3.479113   3.860820   4.162815   4.411398
    28  O    5.503581   4.942141   2.795490   1.830000   2.695321
    29  H    5.201532   4.795062   2.647914   1.708414   1.806110
    30  H    6.431391   5.864427   3.752372   2.787766   3.285118
                   21         22         23         24         25
    21  H    0.000000
    22  H    5.210824   0.000000
    23  O    5.915902   2.035427   0.000000
    24  H    5.815468   2.795994   0.958033   0.000000
    25  O    5.261585   4.119462   2.646492   1.870000   0.000000
    26  H    4.505917   3.982454   2.917205   2.370518   0.960000
    27  H    5.229000   4.605113   3.217839   2.335165   0.960000
    28  O    3.299583   6.780899   6.962047   6.514859   5.844085
    29  H    2.460361   6.159698   6.352155   5.937888   5.191772
    30  H    3.720900   7.665948   7.823591   7.349791   6.527574
                   26         27         28         29         30
    26  H    0.000000
    27  H    1.567952   0.000000
    28  O    5.511780   5.263041   0.000000
    29  H    4.752306   4.716405   0.960000   0.000000
    30  H    6.157041   5.932912   0.960000   1.567952   0.000000
 Stoichiometry    C6H16O8
 Framework group  C1[X(C6H16O8)]
 Deg. of freedom    84
 Full point group                 C1      NOp   1
 Largest Abelian subgroup         C1      NOp   1
 Largest concise Abelian subgroup C1      NOp   1
                         Standard orientation:                         
 ---------------------------------------------------------------------
 Center     Atomic      Atomic             Coordinates (Angstroms)
 Number     Number       Type             X           Y           Z
 ---------------------------------------------------------------------
      1          1           0        0.712447    1.615401    1.487193
      2          6           0        0.343245    1.466047    0.464841
      3          6           0        0.102464   -0.936688   -0.285144
      4          6           0       -1.836990    0.669671   -0.494253
      5          6           0       -1.124640   -0.549710   -1.101105
      6          8           0       -1.094859    1.256435    0.601876
      7          6           0        1.055593    0.246667   -0.142011
      8          1           0       -0.838857   -0.347893   -2.140858
      9          1           0        1.474213    0.482322   -1.128479
     10          6           0        0.641599    2.747803   -0.318531
     11          1           0        0.102513    3.594362    0.119818
     12          1           0        0.332332    2.660614   -1.364401
     13          1           0       -0.191127   -1.324157    0.698585
     14          8           0        2.040792    3.020722   -0.284203
     15          1           0        2.169608    3.867655   -0.748726
     16          8           0       -2.012143   -1.681430   -1.166660
     17          1           0       -1.432190   -2.437367   -1.391990
     18          8           0        0.774988   -2.028618   -0.941020
     19          1           0        1.628863   -2.110083   -0.468057
     20          8           0        2.175376   -0.163241    0.658757
     21          1           0        2.763528    0.615864    0.716152
     22          1           0       -1.988176    1.442881   -1.256167
     23          8           0       -3.101633    0.302146    0.009494
     24          1           0       -2.942656   -0.489789    0.524657
     25          8           0       -2.071268   -0.908267    2.125425
     26          1           0       -1.366365   -0.275697    2.282163
     27          1           0       -1.696313   -1.785115    2.015213
     28          8           0        3.207530   -2.627077    0.299687
     29          1           0        2.835870   -1.843428    0.711226
     30          1           0        3.998427   -2.893661    0.774043
 ---------------------------------------------------------------------
 Rotational constants (GHZ):      0.6438351      0.5417837      0.3679077
 Standard basis: 6-31G(d) (6D, 7F)
 There are   242 symmetry adapted cartesian basis functions of A   symmetry.
 There are   242 symmetry adapted basis functions of A   symmetry.
   242 basis functions,   456 primitive gaussians,   242 cartesian basis functions
    58 alpha electrons       58 beta electrons
       nuclear repulsion energy      1105.2811717596 Hartrees.
 NAtoms=   30 NActive=   30 NUniq=   30 SFac= 1.00D+00 NAtFMM=   60 NAOKFM=F Big=F
 Integral buffers will be    131072 words long.
 Raffenetti 2 integral format.
 Two-electron integral symmetry is turned on.
 One-electron integrals computed using PRISM.
 NBasis=   242 RedAO= T EigKep=  1.33D-03  NBF=   242
 NBsUse=   242 1.00D-06 EigRej= -1.00D+00 NBFU=   242
 ExpMin= 1.61D-01 ExpMax= 5.48D+03 ExpMxC= 8.25D+02 IAcc=1 IRadAn=         1 AccDes= 0.00D+00
 Harris functional with IExCor=  402 and IRadAn=       1 diagonalized for initial guess.
 HarFok:  IExCor=  402 AccDes= 0.00D+00 IRadAn=         1 IDoV= 1 UseB2=F ITyADJ=14
 ICtDFT=  3500011 ScaDFX=  1.000000  1.000000  1.000000  1.000000
 FoFCou: FMM=F IPFlag=           0 FMFlag=      100000 FMFlg1=           0
         NFxFlg=           0 DoJE=T BraDBF=F KetDBF=T FulRan=T
         wScrn=  0.000000 ICntrl=     500 IOpCl=  0 I1Cent=   200000004 NGrid=           0
         NMat0=    1 NMatS0=      1 NMatT0=    0 NMatD0=    1 NMtDS0=    0 NMtDT0=    0
 Petite list used in FoFCou.
 Requested convergence on RMS density matrix=1.00D-08 within 128 cycles.
 Requested convergence on MAX density matrix=1.00D-06.
 Requested convergence on             energy=1.00D-06.
 No special actions if energy rises.
 Integral accuracy reduced to 1.0D-05 until final iterations.
 Initial convergence to 1.0D-05 achieved.  Increase integral accuracy.
 SCF Done:  E(RB3LYP) =  -839.955736082     A.U. after   14 cycles
            NFock= 14  Conv=0.32D-08     -V/T= 2.0084

 **********************************************************************

            Population analysis using the SCF density.

 **********************************************************************

 Orbital symmetries:
       Occupied  (A) (A) (A) (A) (A) (A) (A) (A) (A) (A) (A) (A)
                 (A) (A) (A) (A) (A) (A) (A) (A) (A) (A) (A) (A)
                 (A) (A) (A) (A) (A) (A) (A) (A) (A) (A) (A) (A)
                 (A) (A) (A) (A) (A) (A) (A) (A) (A) (A) (A) (A)
                 (A) (A) (A) (A) (A) (A) (A) (A) (A) (A)
       Virtual   (A) (A) (A) (A) (A) (A) (A) (A) (A) (A) (A) (A)
                 (A) (A) (A) (A) (A) (A) (A) (A) (A) (A) (A) (A)
                 (A) (A) (A) (A) (A) (A) (A) (A) (A) (A) (A) (A)
                 (A) (A) (A) (A) (A) (A) (A) (A) (A) (A) (A) (A)
                 (A) (A) (A) (A) (A) (A) (A) (A) (A) (A) (A) (A)
                 (A) (A) (A) (A) (A) (A) (A) (A) (A) (A) (A) (A)
                 (A) (A) (A) (A) (A) (A) (A) (A) (A) (A) (A) (A)
                 (A) (A) (A) (A) (A) (A) (A) (A) (A) (A) (A) (A)
                 (A) (A) (A) (A) (A) (A) (A) (A) (A) (A) (A) (A)
                 (A) (A) (A) (A) (A) (A) (A) (A) (A) (A) (A) (A)
                 (A) (A) (A) (A) (A) (A) (A) (A) (A) (A) (A) (A)
                 (A) (A) (A) (A) (A) (A) (A) (A) (A) (A) (A) (A)
                 (A) (A) (A) (A) (A) (A) (A) (A) (A) (A) (A) (A)
                 (A) (A) (A) (A) (A) (A) (A) (A) (A) (A) (A) (A)
                 (A) (A) (A) (A) (A) (A) (A) (A) (A) (A) (A) (A)
                 (A) (A) (A) (A)
 The electronic state is 1-A.
 Alpha  occ. eigenvalues --  -19.18462 -19.17284 -19.16136 -19.15059 -19.14284
 Alpha  occ. eigenvalues --  -19.13924 -19.13537 -19.12181 -10.28461 -10.25991
 Alpha  occ. eigenvalues --  -10.25668 -10.25142 -10.24414 -10.24032  -1.06395
 Alpha  occ. eigenvalues --   -1.05102  -1.04250  -1.02193  -1.01404  -1.00527
 Alpha  occ. eigenvalues --   -0.99832  -0.98219  -0.79297  -0.76904  -0.70235
 Alpha  occ. eigenvalues --   -0.64559  -0.63202  -0.57385  -0.56739  -0.54725
 Alpha  occ. eigenvalues --   -0.54550  -0.53934  -0.52900  -0.49613  -0.49166
 Alpha  occ. eigenvalues --   -0.47867  -0.47284  -0.45133  -0.44553  -0.44276
 Alpha  occ. eigenvalues --   -0.42430  -0.40453  -0.39502  -0.38314  -0.37525
 Alpha  occ. eigenvalues --   -0.35874  -0.35580  -0.34611  -0.33650  -0.32181
 Alpha  occ. eigenvalues --   -0.30986  -0.30430  -0.29609  -0.29151  -0.27414
 Alpha  occ. eigenvalues --   -0.26960  -0.26621  -0.25862
 Alpha virt. eigenvalues --    0.02699   0.05207   0.05605   0.07477   0.08032
 Alpha virt. eigenvalues --    0.08864   0.10796   0.11353   0.13172   0.14212
 Alpha virt. eigenvalues --    0.14735   0.15801   0.16456   0.16939   0.18179
 Alpha virt. eigenvalues --    0.19554   0.20600   0.21606   0.22468   0.23680
 Alpha virt. eigenvalues --    0.24358   0.25507   0.26804   0.28336   0.28825
 Alpha virt. eigenvalues --    0.31914   0.32873   0.34164   0.49726   0.51532
 Alpha virt. eigenvalues --    0.54282   0.55595   0.56908   0.57754   0.60411
 Alpha virt. eigenvalues --    0.61652   0.63993   0.64317   0.65251   0.67125
 Alpha virt. eigenvalues --    0.68226   0.69899   0.72513   0.75705   0.76245
 Alpha virt. eigenvalues --    0.77665   0.77721   0.79313   0.81113   0.81882
 Alpha virt. eigenvalues --    0.82192   0.82462   0.83118   0.84578   0.84894
 Alpha virt. eigenvalues --    0.85349   0.86931   0.87370   0.88102   0.89351
 Alpha virt. eigenvalues --    0.90140   0.90517   0.92062   0.93447   0.94923
 Alpha virt. eigenvalues --    0.95578   0.97368   0.97911   0.99945   1.02254
 Alpha virt. eigenvalues --    1.04246   1.05321   1.06968   1.07103   1.07750
 Alpha virt. eigenvalues --    1.09965   1.12358   1.13091   1.14387   1.16219
 Alpha virt. eigenvalues --    1.18541   1.19711   1.23534   1.24241   1.25281
 Alpha virt. eigenvalues --    1.26385   1.27666   1.31152   1.32273   1.35796
 Alpha virt. eigenvalues --    1.37840   1.39217   1.41890   1.44763   1.52120
 Alpha virt. eigenvalues --    1.54082   1.54668   1.57072   1.57498   1.60446
 Alpha virt. eigenvalues --    1.64243   1.65573   1.66965   1.68263   1.69500
 Alpha virt. eigenvalues --    1.71836   1.72538   1.73102   1.73494   1.74100
 Alpha virt. eigenvalues --    1.75360   1.76382   1.77760   1.78621   1.79064
 Alpha virt. eigenvalues --    1.80230   1.82454   1.83436   1.84370   1.86609
 Alpha virt. eigenvalues --    1.87831   1.89328   1.92272   1.92582   1.93478
 Alpha virt. eigenvalues --    1.97506   2.00435   2.01169   2.02683   2.04841
 Alpha virt. eigenvalues --    2.07132   2.09762   2.09937   2.12651   2.14974
 Alpha virt. eigenvalues --    2.21595   2.22129   2.24425   2.26462   2.28711
 Alpha virt. eigenvalues --    2.30038   2.31978   2.33969   2.34821   2.37649
 Alpha virt. eigenvalues --    2.39202   2.42174   2.43683   2.45517   2.46496
 Alpha virt. eigenvalues --    2.50133   2.52711   2.54225   2.58171   2.58424
 Alpha virt. eigenvalues --    2.61691   2.63500   2.64775   2.65856   2.68354
 Alpha virt. eigenvalues --    2.72186   2.74300   2.79048   2.86002   2.90507
 Alpha virt. eigenvalues --    2.93019   2.98021   3.00426   3.05107   3.09735
 Alpha virt. eigenvalues --    3.67382   3.71298   3.72874   3.79778   3.89220
 Alpha virt. eigenvalues --    3.99971   4.08309   4.16570   4.29895   4.35711
 Alpha virt. eigenvalues --    4.42062   4.54574   4.65802   4.77507
          Condensed to atoms (all electrons):
               1          2          3          4          5          6
     1  H    0.596560   0.359948  -0.002754   0.003904   0.000303  -0.029963
     2  C    0.359948   5.005356  -0.033585  -0.012593  -0.008490   0.212611
     3  C   -0.002754  -0.033585   5.024194  -0.028339   0.309004   0.000985
     4  C    0.003904  -0.012593  -0.028339   4.651325   0.263093   0.185066
     5  C    0.000303  -0.008490   0.309004   0.263093   5.062765  -0.046853
     6  O   -0.029963   0.212611   0.000985   0.185066  -0.046853   8.350906
     7  C   -0.048532   0.239980   0.278849  -0.013601  -0.017911  -0.037899
     8  H    0.000019   0.000396  -0.048284  -0.043184   0.350238   0.003288
     9  H    0.005897  -0.055977  -0.044444   0.000928  -0.004793   0.002643
    10  C   -0.049755   0.322648   0.002601  -0.004481  -0.001737  -0.036921
    11  H   -0.007338  -0.030558  -0.000050  -0.000181   0.000094   0.003193
    12  H    0.006433  -0.036851  -0.000329   0.002045   0.000100   0.000724
    13  H    0.001207  -0.000909   0.306228  -0.002222  -0.044951  -0.001360
    14  O    0.004734  -0.041406   0.000253   0.000031   0.000012   0.000971
    15  H   -0.000215   0.005313  -0.000003  -0.000008  -0.000001  -0.000084
    16  O    0.000001   0.000075  -0.026028  -0.038133   0.228834   0.000689
    17  H    0.000000  -0.000092  -0.010490   0.005855  -0.028627  -0.000065
    18  O   -0.000067   0.004017   0.219530   0.002147  -0.041636   0.000109
    19  H   -0.000014   0.000288  -0.021293  -0.000122   0.004557   0.000006
    20  O    0.002987  -0.030250  -0.028911   0.000085   0.001827   0.001367
    21  H    0.002817  -0.004360   0.005060   0.000009  -0.000157  -0.000009
    22  H   -0.000355  -0.000869   0.005145   0.388792  -0.069673  -0.052905
    23  O   -0.000076   0.002729  -0.002711   0.323383  -0.028208  -0.052253
    24  H   -0.000002  -0.000231   0.000809  -0.035229  -0.011907   0.002501
    25  O    0.000134   0.000354  -0.009980   0.003272   0.001332  -0.007653
    26  H   -0.000579   0.000415   0.000179  -0.001483  -0.000712   0.020572
    27  H   -0.000036   0.000023  -0.001742  -0.000356  -0.000116   0.000338
    28  O   -0.000001  -0.000013   0.000356   0.000000  -0.000014   0.000000
    29  H    0.000042   0.000342   0.000947  -0.000003   0.000120  -0.000004
    30  H   -0.000000   0.000001  -0.000007  -0.000000   0.000001  -0.000000
               7          8          9         10         11         12
     1  H   -0.048532   0.000019   0.005897  -0.049755  -0.007338   0.006433
     2  C    0.239980   0.000396  -0.055977   0.322648  -0.030558  -0.036851
     3  C    0.278849  -0.048284  -0.044444   0.002601  -0.000050  -0.000329
     4  C   -0.013601  -0.043184   0.000928  -0.004481  -0.000181   0.002045
     5  C   -0.017911   0.350238  -0.004793  -0.001737   0.000094   0.000100
     6  O   -0.037899   0.003288   0.002643  -0.036921   0.003193   0.000724
     7  C    5.123284  -0.003704   0.362280  -0.041444   0.006427  -0.011040
     8  H   -0.003704   0.640279   0.005833   0.000097  -0.000009   0.000338
     9  H    0.362280   0.005833   0.610506  -0.003291   0.000446   0.002720
    10  C   -0.041444   0.000097  -0.003291   4.956058   0.364612   0.362070
    11  H    0.006427  -0.000009   0.000446   0.364612   0.607009  -0.052151
    12  H   -0.011040   0.000338   0.002720   0.362070  -0.052151   0.635815
    13  H   -0.048220   0.007259   0.007310  -0.000040   0.000007   0.000006
    14  O    0.007764  -0.000006   0.002863   0.208296  -0.036419  -0.041007
    15  H   -0.000223   0.000000  -0.000162  -0.019746  -0.004725  -0.003599
    16  O    0.003999  -0.044931  -0.000043   0.000004  -0.000000   0.000001
    17  H    0.000872  -0.001061  -0.000016   0.000000   0.000000  -0.000000
    18  O   -0.034373  -0.000201   0.001335  -0.000046   0.000000  -0.000013
    19  H   -0.009355  -0.000153  -0.000773  -0.000006   0.000000  -0.000001
    20  O    0.173232  -0.000078  -0.045415   0.002165  -0.000140   0.000060
    21  H   -0.019154   0.000008  -0.002610  -0.001505   0.000031   0.000225
    22  H   -0.000419  -0.004875  -0.000133   0.003608  -0.000118   0.000574
    23  O    0.000210   0.003004   0.000006  -0.000057  -0.000007   0.000009
    24  H    0.000080   0.000898   0.000001   0.000012   0.000000   0.000001
    25  O   -0.000098   0.000003  -0.000008  -0.000002   0.000000  -0.000000
    26  H   -0.000513   0.000001   0.000005   0.000182  -0.000001  -0.000000
    27  H    0.000131   0.000034   0.000001   0.000001   0.000000  -0.000000
    28  O    0.000962   0.000000  -0.000041   0.000000  -0.000000   0.000000
    29  H   -0.004344   0.000001   0.000671  -0.000008   0.000000   0.000000
    30  H    0.000009  -0.000000  -0.000005  -0.000000   0.000000   0.000000
              13         14         15         16         17         18
     1  H    0.001207   0.004734  -0.000215   0.000001   0.000000  -0.000067
     2  C   -0.000909  -0.041406   0.005313   0.000075  -0.000092   0.004017
     3  C    0.306228   0.000253  -0.000003  -0.026028  -0.010490   0.219530
     4  C   -0.002222   0.000031  -0.000008  -0.038133   0.005855   0.002147
     5  C   -0.044951   0.000012  -0.000001   0.228834  -0.028627  -0.041636
     6  O   -0.001360   0.000971  -0.000084   0.000689  -0.000065   0.000109
     7  C   -0.048220   0.007764  -0.000223   0.003999   0.000872  -0.034373
     8  H    0.007259  -0.000006   0.000000  -0.044931  -0.001061  -0.000201
     9  H    0.007310   0.002863  -0.000162  -0.000043  -0.000016   0.001335
    10  C   -0.000040   0.208296  -0.019746   0.000004   0.000000  -0.000046
    11  H    0.000007  -0.036419  -0.004725  -0.000000   0.000000   0.000000
    12  H    0.000006  -0.041007  -0.003599   0.000001  -0.000000  -0.000013
    13  H    0.700813  -0.000002   0.000000  -0.002567   0.000073  -0.045568
    14  O   -0.000002   8.287696   0.237494  -0.000000   0.000000  -0.000000
    15  H    0.000000   0.237494   0.378363  -0.000000  -0.000000   0.000000
    16  O   -0.002567  -0.000000  -0.000000   8.286928   0.232054  -0.004236
    17  H    0.000073   0.000000  -0.000000   0.232054   0.371110   0.019273
    18  O   -0.045568  -0.000000   0.000000  -0.004236   0.019273   8.368434
    19  H   -0.000994   0.000001  -0.000000   0.000038  -0.000385   0.210035
    20  O   -0.000129  -0.001411   0.000051  -0.000011  -0.000004  -0.001702
    21  H   -0.000189   0.009064  -0.000242   0.000001   0.000000  -0.000014
    22  H   -0.000181  -0.000043   0.000006   0.002154  -0.000275  -0.000046
    23  O    0.000292   0.000000  -0.000000  -0.011789   0.000662  -0.000012
    24  H    0.000446  -0.000000   0.000000   0.018136  -0.000658  -0.000031
    25  O    0.019406   0.000000  -0.000000  -0.001194   0.000064   0.000081
    26  H    0.003871  -0.000001   0.000000   0.000083  -0.000011  -0.000024
    27  H    0.008536  -0.000000   0.000000   0.002158  -0.000055  -0.000091
    28  O    0.000056  -0.000000   0.000000  -0.000000   0.000001  -0.014551
    29  H    0.000385  -0.000000  -0.000000  -0.000001  -0.000002   0.003257
    30  H   -0.000009   0.000000  -0.000000   0.000000  -0.000000   0.000695
              19         20         21         22         23         24
     1  H   -0.000014   0.002987   0.002817  -0.000355  -0.000076  -0.000002
     2  C    0.000288  -0.030250  -0.004360  -0.000869   0.002729  -0.000231
     3  C   -0.021293  -0.028911   0.005060   0.005145  -0.002711   0.000809
     4  C   -0.000122   0.000085   0.000009   0.388792   0.323383  -0.035229
     5  C    0.004557   0.001827  -0.000157  -0.069673  -0.028208  -0.011907
     6  O    0.000006   0.001367  -0.000009  -0.052905  -0.052253   0.002501
     7  C   -0.009355   0.173232  -0.019154  -0.000419   0.000210   0.000080
     8  H   -0.000153  -0.000078   0.000008  -0.004875   0.003004   0.000898
     9  H   -0.000773  -0.045415  -0.002610  -0.000133   0.000006   0.000001
    10  C   -0.000006   0.002165  -0.001505   0.003608  -0.000057   0.000012
    11  H    0.000000  -0.000140   0.000031  -0.000118  -0.000007   0.000000
    12  H   -0.000001   0.000060   0.000225   0.000574   0.000009   0.000001
    13  H   -0.000994  -0.000129  -0.000189  -0.000181   0.000292   0.000446
    14  O    0.000001  -0.001411   0.009064  -0.000043   0.000000  -0.000000
    15  H   -0.000000   0.000051  -0.000242   0.000006  -0.000000   0.000000
    16  O    0.000038  -0.000011   0.000001   0.002154  -0.011789   0.018136
    17  H   -0.000385  -0.000004   0.000000  -0.000275   0.000662  -0.000658
    18  O    0.210035  -0.001702  -0.000014  -0.000046  -0.000012  -0.000031
    19  H    0.324884   0.008707  -0.000330   0.000005   0.000001   0.000001
    20  O    0.008707   8.332272   0.233477   0.000006   0.000000   0.000000
    21  H   -0.000330   0.233477   0.358883  -0.000002  -0.000000  -0.000000
    22  H    0.000005   0.000006  -0.000002   0.634409  -0.043692   0.005943
    23  O    0.000001   0.000000  -0.000000  -0.043692   8.223287   0.224741
    24  H    0.000001   0.000000  -0.000000   0.005943   0.224741   0.316404
    25  O   -0.000000  -0.000002   0.000000  -0.000083  -0.024941   0.046848
    26  H   -0.000000   0.000090  -0.000006   0.000284   0.002413  -0.003075
    27  H   -0.000004  -0.000019   0.000000   0.000015   0.001516  -0.002458
    28  O    0.056306  -0.022374   0.001280   0.000000   0.000000   0.000000
    29  H   -0.012411   0.046401  -0.002560  -0.000000  -0.000000  -0.000000
    30  H   -0.002656   0.000792  -0.000050   0.000000   0.000000   0.000000
              25         26         27         28         29         30
     1  H    0.000134  -0.000579  -0.000036  -0.000001   0.000042  -0.000000
     2  C    0.000354   0.000415   0.000023  -0.000013   0.000342   0.000001
     3  C   -0.009980   0.000179  -0.001742   0.000356   0.000947  -0.000007
     4  C    0.003272  -0.001483  -0.000356   0.000000  -0.000003  -0.000000
     5  C    0.001332  -0.000712  -0.000116  -0.000014   0.000120   0.000001
     6  O   -0.007653   0.020572   0.000338   0.000000  -0.000004  -0.000000
     7  C   -0.000098  -0.000513   0.000131   0.000962  -0.004344   0.000009
     8  H    0.000003   0.000001   0.000034   0.000000   0.000001  -0.000000
     9  H   -0.000008   0.000005   0.000001  -0.000041   0.000671  -0.000005
    10  C   -0.000002   0.000182   0.000001   0.000000  -0.000008  -0.000000
    11  H    0.000000  -0.000001   0.000000  -0.000000   0.000000   0.000000
    12  H   -0.000000  -0.000000  -0.000000   0.000000   0.000000   0.000000
    13  H    0.019406   0.003871   0.008536   0.000056   0.000385  -0.000009
    14  O    0.000000  -0.000001  -0.000000  -0.000000  -0.000000   0.000000
    15  H   -0.000000   0.000000   0.000000   0.000000  -0.000000  -0.000000
    16  O   -0.001194   0.000083   0.002158  -0.000000  -0.000001   0.000000
    17  H    0.000064  -0.000011  -0.000055   0.000001  -0.000002  -0.000000
    18  O    0.000081  -0.000024  -0.000091  -0.014551   0.003257   0.000695
    19  H   -0.000000  -0.000000  -0.000004   0.056306  -0.012411  -0.002656
    20  O   -0.000002   0.000090  -0.000019  -0.022374   0.046401   0.000792
    21  H    0.000000  -0.000006   0.000000   0.001280  -0.002560  -0.000050
    22  H   -0.000083   0.000284   0.000015   0.000000  -0.000000   0.000000
    23  O   -0.024941   0.002413   0.001516   0.000000  -0.000000   0.000000
    24  H    0.046848  -0.003075  -0.002458   0.000000  -0.000000   0.000000
    25  O    8.267723   0.236760   0.241662   0.000000  -0.000000   0.000000
    26  H    0.236760   0.345037  -0.018317  -0.000000  -0.000001  -0.000000
    27  H    0.241662  -0.018317   0.360433  -0.000000  -0.000001   0.000000
    28  O    0.000000  -0.000000  -0.000000   8.361524   0.200691   0.242907
    29  H   -0.000000  -0.000001  -0.000001   0.200691   0.351249  -0.007056
    30  H    0.000000  -0.000000   0.000000   0.242907  -0.007056   0.368527
 Mulliken charges:
               1
     1  H    0.154698
     2  C    0.101688
     3  C    0.104810
     4  C    0.349999
     5  C    0.083505
     6  O   -0.519997
     7  C    0.092755
     8  H    0.134787
     9  H    0.154264
    10  C   -0.063319
    11  H    0.149876
    12  H    0.133868
    13  H    0.091447
    14  O   -0.638884
    15  H    0.407780
    16  O   -0.646220
    17  H    0.411777
    18  O   -0.686302
    19  H    0.443668
    20  O   -0.673074
    21  H    0.420333
    22  H    0.132729
    23  O   -0.618507
    24  H    0.436770
    25  O   -0.773678
    26  H    0.414832
    27  H    0.408348
    28  O   -0.827086
    29  H    0.422284
    30  H    0.396850
 Sum of Mulliken charges =  -0.00000
 Mulliken charges with hydrogens summed into heavy atoms:
               1
     2  C    0.256386
     3  C    0.196256
     4  C    0.482728
     5  C    0.218292
     6  O   -0.519997
     7  C    0.247019
    10  C    0.220426
    14  O   -0.231105
    16  O   -0.234443
    18  O   -0.242634
    20  O   -0.252741
    23  O   -0.181737
    25  O    0.049502
    28  O   -0.007952
 Electronic spatial extent (au):  <R**2>=           3219.9784
 Charge=             -0.0000 electrons
 Dipole moment (field-independent basis, Debye):
    X=              5.6820    Y=              2.8233    Z=              0.8794  Tot=              6.4054
 Quadrupole moment (field-independent basis, Debye-Ang):
   XX=            -92.8736   YY=            -72.7779   ZZ=            -80.9930
   XY=              5.6118   XZ=              6.8808   YZ=            -10.9065
 Traceless Quadrupole moment (field-independent basis, Debye-Ang):
   XX=            -10.6588   YY=              9.4369   ZZ=              1.2219
   XY=              5.6118   XZ=              6.8808   YZ=            -10.9065
 Octapole moment (field-independent basis, Debye-Ang**2):
  XXX=            111.2290  YYY=             38.6851  ZZZ=              7.0510  XYY=             16.2012
  XXY=            -17.2648  XXZ=             18.9058  XZZ=             14.2731  YZZ=             -1.0347
  YYZ=              0.0562  XYZ=            -14.5917
 Hexadecapole moment (field-independent basis, Debye-Ang**3):
 XXXX=          -1676.2888 YYYY=          -1225.9830 ZZZZ=           -478.1861 XXXY=            -92.5411
 XXXZ=             86.5803 YYYX=            107.0837 YYYZ=           -100.6817 ZZZX=             21.9450
 ZZZY=             -6.3521 XXYY=           -451.8780 XXZZ=           -383.0480 YYZZ=           -293.1205
 XXYZ=            -78.5518 YYXZ=              3.4028 ZZXY=             -4.6894
 N-N= 1.105281171760D+03 E-N=-4.183032546779D+03  KE= 8.329744977741D+02
 Calling FoFJK, ICntrl=      2127 FMM=F ISym2X=0 I1Cent= 0 IOpClX= 0 NMat=1 NMatS=1 NMatT=0.
 ***** Axes restored to original set *****
 -------------------------------------------------------------------
 Center     Atomic                   Forces (Hartrees/Bohr)
 Number     Number              X              Y              Z
 -------------------------------------------------------------------
      1        1          -0.003431224   -0.000148466   -0.000367508
      2        6          -0.008347328   -0.011383358    0.004609007
      3        6           0.004613406    0.022950813    0.006391267
      4        6          -0.022813928   -0.016390637   -0.011790248
      5        6          -0.013281548    0.019496482    0.002226416
      6        8           0.017583112    0.010108056   -0.001187137
      7        6           0.000298932    0.002940376    0.002554332
      8        1           0.010131917    0.000407544    0.000290989
      9        1          -0.004266248   -0.004688745    0.003105795
     10        6           0.004924726   -0.008912061    0.003421643
     11        1          -0.005110794   -0.002706146   -0.003174946
     12        1          -0.007470781   -0.001044496    0.001920954
     13        1           0.003916097   -0.010021466    0.000542915
     14        8           0.002269323    0.005061031   -0.002347825
     15        1          -0.001968262    0.005305227   -0.003640258
     16        8           0.005588000    0.001726672   -0.004294126
     17        1           0.001749993   -0.004803407   -0.000231719
     18        8           0.006615259   -0.013686128   -0.000706016
     19        1          -0.015556965    0.006280536    0.010859770
     20        8           0.007514371   -0.008671911   -0.007389778
     21        1          -0.005032645    0.004501975    0.000317521
     22        1          -0.002374723   -0.002019234   -0.001504365
     23        8           0.029397025   -0.012031756    0.031366659
     24        1          -0.004814179    0.009065145   -0.016122446
     25        8          -0.018815974   -0.007850173   -0.009964935
     26        1           0.006873730    0.002217890    0.004163505
     27        1           0.003766224    0.008452748   -0.003324083
     28        8          -0.013965346    0.010277214    0.009668884
     29        1           0.018095679   -0.005216506   -0.010740645
     30        1           0.003912152    0.000782782   -0.004653624
 -------------------------------------------------------------------
 Cartesian Forces:  Max     0.031366659 RMS     0.009547261

 GradGradGradGradGradGradGradGradGradGradGradGradGradGradGradGradGradGrad
 Berny optimization.
 FormGI is forming the generalized inverse of G from B-inverse, IUseBI=4.
 Internal  Forces:  Max     0.038522669 RMS     0.006376510
 Search for a local minimum.
 Step number   1 out of a maximum of  180
 All quantities printed in internal units (Hartrees-Bohrs-Radians)
 Mixed Optimization -- RFO/linear search
 Second derivative matrix not updated -- first step.
 ITU=  0
     Eigenvalues ---    0.00230   0.00349   0.00458   0.00670   0.01056
     Eigenvalues ---    0.01167   0.01218   0.01348   0.01379   0.01558
     Eigenvalues ---    0.01559   0.01584   0.01602   0.01767   0.02944
     Eigenvalues ---    0.03290   0.03848   0.04376   0.04622   0.04751
     Eigenvalues ---    0.04996   0.05063   0.05073   0.05185   0.05383
     Eigenvalues ---    0.05678   0.06005   0.06019   0.06249   0.06561
     Eigenvalues ---    0.07024   0.07080   0.07390   0.07806   0.09373
     Eigenvalues ---    0.11467   0.11730   0.11907   0.12872   0.13516
     Eigenvalues ---    0.13781   0.14594   0.15675   0.16000   0.16000
     Eigenvalues ---    0.16000   0.16000   0.16536   0.17146   0.17523
     Eigenvalues ---    0.19373   0.20303   0.21988   0.25000   0.25192
     Eigenvalues ---    0.26344   0.28361   0.28779   0.29283   0.33983
     Eigenvalues ---    0.33991   0.33991   0.34012   0.34128   0.34221
     Eigenvalues ---    0.34341   0.34952   0.36757   0.37381   0.37976
     Eigenvalues ---    0.39626   0.41573   0.43999   0.49146   0.51252
     Eigenvalues ---    0.51568   0.51801   0.52466   0.55473   0.55473
     Eigenvalues ---    0.55473   0.558991000.000001000.000001000.00000
     Eigenvalues --- 1000.000001000.000001000.000001000.000001000.00000
     Eigenvalues --- 1000.000001000.000001000.000001000.000001000.00000
     Eigenvalues --- 1000.000001000.000001000.000001000.000001000.00000
     Eigenvalues --- 1000.000001000.000001000.000001000.000001000.00000
     Eigenvalues --- 1000.000001000.000001000.000001000.000001000.00000
     Eigenvalues --- 1000.000001000.000001000.000001000.000001000.00000
     Eigenvalues --- 1000.000001000.000001000.000001000.000001000.00000
     Eigenvalues --- 1000.000001000.000001000.000001000.000001000.00000
     Eigenvalues --- 1000.000001000.000001000.000001000.000001000.00000
     Eigenvalues --- 1000.000001000.000001000.000001000.000001000.00000
     Eigenvalues --- 1000.000001000.000001000.000001000.000001000.00000
     Eigenvalues --- 1000.000001000.000001000.000001000.000001000.00000
     Eigenvalues --- 1000.000001000.000001000.000001000.000001000.00000
     Eigenvalues --- 1000.000001000.000001000.000001000.000001000.00000
     Eigenvalues --- 1000.000001000.000001000.000001000.000001000.00000
     Eigenvalues --- 1000.000001000.000001000.000001000.000001000.00000
     Eigenvalues --- 1000.000001000.000001000.000001000.000001000.00000
 RFO step:  Lambda=-3.64865027D-02 EMin= 2.30000000D-03
 Linear search not attempted -- first point.
 Maximum step size (   0.300) exceeded in Quadratic search.
    -- Step size scaled by   0.843
 Iteration  1 RMS(Cart)=  0.19068772 RMS(Int)=  0.01416095
 Iteration  2 RMS(Cart)=  0.07985422 RMS(Int)=  0.00211850
 Iteration  3 RMS(Cart)=  0.00354945 RMS(Int)=  0.00051052
 Iteration  4 RMS(Cart)=  0.00001173 RMS(Int)=  0.00051050
 Iteration  5 RMS(Cart)=  0.00000000 RMS(Int)=  0.00051050
 Iteration  1 RMS(Cart)=  0.00000774 RMS(Int)=  0.00000881
 Iteration  2 RMS(Cart)=  0.00000594 RMS(Int)=  0.00000949
 Iteration  3 RMS(Cart)=  0.00000457 RMS(Int)=  0.00001086
 Iteration  4 RMS(Cart)=  0.00000353 RMS(Int)=  0.00001231
 Iteration  5 RMS(Cart)=  0.00000274 RMS(Int)=  0.00001361
 Iteration  6 RMS(Cart)=  0.00000213 RMS(Int)=  0.00001472
 Iteration  7 RMS(Cart)=  0.00000166 RMS(Int)=  0.00001565
 Iteration  8 RMS(Cart)=  0.00000130 RMS(Int)=  0.00001640
 Iteration  9 RMS(Cart)=  0.00000102 RMS(Int)=  0.00001702
 Iteration 10 RMS(Cart)=  0.00000080 RMS(Int)=  0.00001751
 Variable       Old X    -DE/DX   Delta X   Delta X   Delta X     New X
                                 (Linear)    (Quad)   (Total)
    R1        2.07338  -0.00137   0.00000  -0.00308  -0.00307   2.07032
    R2        2.75852  -0.01477   0.00000  -0.03481  -0.03492   2.72360
    R3        2.90465   0.00406   0.00000   0.01178   0.01144   2.91609
    R4        2.89417  -0.00593   0.00000  -0.01519  -0.01519   2.87898
    R5        2.87917  -0.00539   0.00000  -0.01009  -0.01030   2.86887
    R6        2.88409  -0.00645   0.00000  -0.01065  -0.01067   2.87342
    R7        2.07358  -0.00185   0.00000  -0.00414  -0.00414   2.06944
    R8        2.72198  -0.00538   0.00000  -0.01143  -0.01125   2.71073
    R9        2.90465   0.01629   0.00000   0.04113   0.04147   2.94612
   R10        2.73622   0.00396   0.00000   0.00415   0.00458   2.74081
   R11        2.07115  -0.00063   0.00000  -0.00140  -0.00140   2.06975
   R12        2.66455  -0.01543   0.00000  -0.02731  -0.02731   2.63725
   R13        2.07310   0.00192   0.00000   0.00431   0.00431   2.07741
   R14        2.72065  -0.00711   0.00000  -0.01385  -0.01385   2.70680
   R15        2.07345   0.00104   0.00000   0.00233   0.00233   2.07577
   R16        2.71435   0.00592   0.00000   0.01199   0.01199   2.72634
   R17        2.06960   0.00240   0.00000   0.00535   0.00535   2.07494
   R18        2.06758   0.00493   0.00000   0.01094   0.01094   2.07852
   R19        2.69470   0.00514   0.00000   0.00959   0.00959   2.70429
   R20        1.84156  -0.00616   0.00000  -0.00926  -0.00926   1.83230
   R21        1.85016  -0.00495   0.00000  -0.00755  -0.00755   1.84261
   R22        1.85100  -0.00316   0.00000  -0.00523  -0.00523   1.84577
   R23        3.45820   0.00258   0.00000   0.02457   0.02444   3.48263
   R24        3.22843   0.00681   0.00000   0.06993   0.06986   3.29829
   R25        1.84790  -0.00569   0.00000  -0.00867  -0.00867   1.83923
   R26        3.41305   0.00549   0.00000   0.05185   0.05171   3.46477
   R27        1.81042   0.02881   0.00000   0.04080   0.04080   1.85122
   R28        3.53379   0.00614   0.00000   0.05732   0.05732   3.59111
   R29        1.81414   0.00688   0.00000   0.00980   0.00980   1.82394
   R30        1.81414   0.00671   0.00000   0.00957   0.00957   1.82370
   R31        1.81414   0.01486   0.00000   0.02139   0.02164   1.83577
   R32        1.81414   0.00471   0.00000   0.00671   0.00671   1.82085
    A1        1.83753  -0.00170   0.00000  -0.01356  -0.01338   1.82415
    A2        1.89644  -0.00138   0.00000  -0.00930  -0.00947   1.88697
    A3        1.87248   0.00215   0.00000   0.00420   0.00416   1.87664
    A4        1.96029   0.00718   0.00000   0.02504   0.02506   1.98535
    A5        1.93919  -0.00349   0.00000  -0.00515  -0.00545   1.93373
    A6        1.95164  -0.00284   0.00000  -0.00298  -0.00273   1.94892
    A7        1.93508  -0.00340   0.00000  -0.01636  -0.01641   1.91866
    A8        1.93298  -0.00023   0.00000  -0.01284  -0.01325   1.91973
    A9        1.90152  -0.00353   0.00000  -0.01961  -0.01932   1.88220
   A10        1.93565  -0.00163   0.00000  -0.01154  -0.01203   1.92361
   A11        1.91654   0.00552   0.00000   0.02251   0.02217   1.93871
   A12        1.83947   0.00368   0.00000   0.04077   0.04069   1.88015
   A13        1.96365  -0.00627   0.00000  -0.01226  -0.01362   1.95003
   A14        1.92744  -0.00139   0.00000  -0.02267  -0.02217   1.90527
   A15        1.92830   0.01666   0.00000   0.08307   0.08196   2.01025
   A16        1.88712   0.00150   0.00000  -0.01484  -0.01532   1.87180
   A17        1.87011   0.00091   0.00000   0.03453   0.03212   1.90223
   A18        1.88444  -0.01196   0.00000  -0.07092  -0.06958   1.81486
   A19        1.94262   0.00592   0.00000   0.02011   0.02076   1.96338
   A20        1.92250  -0.00651   0.00000  -0.04087  -0.04109   1.88141
   A21        1.89781   0.00022   0.00000   0.00255   0.00246   1.90027
   A22        1.92728  -0.00160   0.00000  -0.01123  -0.01128   1.91600
   A23        1.93467  -0.00380   0.00000  -0.01122  -0.01163   1.92304
   A24        1.83594   0.00562   0.00000   0.04113   0.04137   1.87731
   A25        2.08526  -0.00136   0.00000  -0.01289  -0.01221   2.07305
   A26        1.94196   0.00006   0.00000   0.00032   0.00017   1.94213
   A27        1.94056  -0.00146   0.00000  -0.00986  -0.00998   1.93057
   A28        1.94721   0.00138   0.00000   0.00376   0.00377   1.95097
   A29        1.89703  -0.00068   0.00000  -0.01353  -0.01360   1.88343
   A30        1.89429  -0.00175   0.00000  -0.00434  -0.00404   1.89025
   A31        1.83908   0.00251   0.00000   0.02440   0.02426   1.86334
   A32        1.92442   0.00008   0.00000  -0.01028  -0.00979   1.91463
   A33        1.94678  -0.00030   0.00000  -0.01446  -0.01419   1.93258
   A34        1.91666  -0.01963   0.00000  -0.06558  -0.06566   1.85101
   A35        1.88080  -0.00028   0.00000   0.00699   0.00598   1.88678
   A36        1.90224   0.01080   0.00000   0.04712   0.04623   1.94847
   A37        1.89190   0.01021   0.00000   0.04011   0.03890   1.93081
   A38        1.85935   0.00486   0.00000   0.02087   0.02087   1.88022
   A39        1.82581  -0.00235   0.00000  -0.01008  -0.01008   1.81573
   A40        1.82368   0.00201   0.00000   0.00741   0.00742   1.83110
   A41        2.78250  -0.00642   0.00000  -0.03535  -0.03469   2.74781
   A42        1.84860   0.00338   0.00000   0.01013   0.00969   1.85830
   A43        2.17338  -0.00388   0.00000  -0.01429  -0.01437   2.15900
   A44        2.11710  -0.00072   0.00000  -0.01004  -0.01003   2.10707
   A45        1.83251   0.03852   0.00000   0.16530   0.16530   1.99781
   A46        2.37839   0.01789   0.00000   0.05264   0.05264   2.43102
   A47        1.91183  -0.00766   0.00000  -0.03492  -0.03505   1.87678
   A48        1.86307   0.00717   0.00000   0.03175   0.03119   1.89426
   A49        1.91114  -0.00514   0.00000  -0.03037  -0.03027   1.88087
   A50        1.91114  -0.00415   0.00000  -0.02918  -0.02905   1.88208
   A51        1.43718   0.00290   0.00000   0.01107   0.01085   1.44803
   A52        2.66489  -0.00311   0.00000  -0.00400  -0.00421   2.66068
   A53        3.34316  -0.00253   0.00000  -0.03722  -0.03684   3.30632
   A54        3.12106  -0.00245   0.00000  -0.00476  -0.00483   3.11624
   A55        3.08295   0.00068   0.00000   0.00027   0.00181   3.08476
   A56        3.05500  -0.00148   0.00000   0.00110   0.00096   3.05596
    D1       -2.84588   0.00006   0.00000   0.00579   0.00536  -2.84052
    D2       -0.78504   0.00115   0.00000  -0.00046  -0.00122  -0.78626
    D3        1.41575   0.00019   0.00000   0.01097   0.01049   1.42624
    D4        1.90192  -0.00057   0.00000  -0.00797  -0.00805   1.89387
    D5       -2.26400  -0.00241   0.00000  -0.03183  -0.03194  -2.29594
    D6       -0.21646   0.00067   0.00000  -0.00525  -0.00561  -0.22207
    D7       -0.12373  -0.00176   0.00000   0.00000  -0.00001  -0.12374
    D8        1.99354  -0.00360   0.00000  -0.02386  -0.02391   1.96963
    D9       -2.24211  -0.00052   0.00000   0.00272   0.00243  -2.23968
   D10       -2.31776  -0.00050   0.00000  -0.01048  -0.01052  -2.32828
   D11       -0.20049  -0.00234   0.00000  -0.03435  -0.03442  -0.23491
   D12        1.84705   0.00074   0.00000  -0.00777  -0.00808   1.83897
   D13       -1.08854   0.00001   0.00000   0.00195   0.00169  -1.08685
   D14        3.10564   0.00050   0.00000   0.00939   0.00962   3.11526
   D15        1.00786   0.00096   0.00000   0.01213   0.01201   1.01987
   D16        0.91133  -0.00261   0.00000  -0.01450  -0.01469   0.89664
   D17       -1.17768  -0.00212   0.00000  -0.00705  -0.00676  -1.18444
   D18        3.00772  -0.00166   0.00000  -0.00431  -0.00437   3.00336
   D19        3.11690   0.00199   0.00000   0.01239   0.01222   3.12913
   D20        1.02790   0.00248   0.00000   0.01984   0.02015   1.04805
   D21       -1.06989   0.00294   0.00000   0.02258   0.02254  -1.04735
   D22       -0.96995   0.00245   0.00000   0.00768   0.00746  -0.96249
   D23        1.17378  -0.00008   0.00000  -0.02145  -0.02146   1.15232
   D24       -3.10602   0.00323   0.00000   0.00697   0.00677  -3.09925
   D25        1.18660  -0.00221   0.00000  -0.02780  -0.02787   1.15873
   D26       -2.95285  -0.00475   0.00000  -0.05693  -0.05679  -3.00964
   D27       -0.94947  -0.00144   0.00000  -0.02852  -0.02856  -0.97802
   D28       -3.08105   0.00004   0.00000   0.00278   0.00251  -3.07854
   D29       -0.93732  -0.00250   0.00000  -0.02635  -0.02641  -0.96372
   D30        1.06607   0.00081   0.00000   0.00207   0.00182   1.06789
   D31        0.96958  -0.00145   0.00000  -0.01016  -0.01015   0.95943
   D32       -1.17292   0.00081   0.00000   0.01122   0.01127  -1.16165
   D33        3.11858  -0.00087   0.00000  -0.00819  -0.00807   3.11050
   D34       -1.18544   0.00243   0.00000   0.02614   0.02596  -1.15948
   D35        2.95524   0.00468   0.00000   0.04752   0.04739   3.00262
   D36        0.96355   0.00300   0.00000   0.02810   0.02804   0.99159
   D37        3.07178  -0.00443   0.00000  -0.03041  -0.03054   3.04124
   D38        0.92927  -0.00217   0.00000  -0.00903  -0.00912   0.92016
   D39       -1.06242  -0.00385   0.00000  -0.02844  -0.02846  -1.09087
   D40        2.95943  -0.00007   0.00000   0.00518   0.00578   2.96522
   D41        0.83703   0.00292   0.00000   0.02372   0.02468   0.86171
   D42       -1.24878  -0.00012   0.00000   0.00243   0.00220  -1.24658
   D43        0.12114  -0.00003   0.00000   0.00000   0.00001   0.12115
   D44       -2.01985   0.00531   0.00000   0.04617   0.04608  -1.97377
   D45        2.23580   0.00168   0.00000   0.00924   0.00922   2.24501
   D46        2.23147  -0.00337   0.00000  -0.04337  -0.04300   2.18848
   D47        0.09048   0.00197   0.00000   0.00280   0.00307   0.09356
   D48       -1.93706  -0.00166   0.00000  -0.03413  -0.03378  -1.97084
   D49       -1.96809  -0.00850   0.00000  -0.09305  -0.09346  -2.06155
   D50        2.17411  -0.00316   0.00000  -0.04688  -0.04739   2.12672
   D51        0.14656  -0.00680   0.00000  -0.08381  -0.08424   0.06232
   D52        0.78643  -0.00257   0.00000  -0.00656  -0.00621   0.78022
   D53       -1.34686   0.00220   0.00000   0.04033   0.03990  -1.30696
   D54        2.90911   0.01493   0.00000   0.11275   0.11255   3.02166
   D55        0.82964   0.00176   0.00000   0.04317   0.04580   0.87544
   D56       -1.31511  -0.00126   0.00000  -0.01459  -0.01678  -1.33188
   D57        2.93908   0.00255   0.00000   0.02072   0.02027   2.95935
   D58       -0.81132   0.00301   0.00000   0.01153   0.01175  -0.79958
   D59       -2.95219  -0.00208   0.00000  -0.00807  -0.00830  -2.96049
   D60        1.24769  -0.00148   0.00000  -0.01304  -0.01303   1.23467
   D61       -1.00783  -0.00193   0.00000  -0.02223  -0.02248  -1.03031
   D62        2.68491   0.00001   0.00000   0.00421   0.00418   2.68910
   D63        3.12952  -0.00170   0.00000  -0.02212  -0.02237   3.10715
   D64        0.53908   0.00024   0.00000   0.00433   0.00429   0.54338
   D65        1.10010  -0.00136   0.00000  -0.01687  -0.01706   1.08303
   D66       -1.49034   0.00058   0.00000   0.00958   0.00960  -1.48074
   D67       -3.08503  -0.00057   0.00000  -0.00840  -0.00832  -3.09334
   D68       -0.97520  -0.00582   0.00000  -0.03199  -0.03347  -1.00868
   D69        1.06737   0.00546   0.00000   0.02452   0.02592   1.09329
   D70        0.13814  -0.00149   0.00000  -0.03994  -0.03994   0.09819
   D71       -2.75399   0.00271   0.00000   0.04418   0.04477  -2.70922
   D72       -0.61004   0.00315   0.00000   0.04137   0.04138  -0.56866
   D73        0.04868  -0.00027   0.00000  -0.00237  -0.00314   0.04554
   D74        0.98879  -0.00253   0.00000  -0.03826  -0.03840   0.95040
   D75       -2.46262   0.00101   0.00000   0.02246   0.02177  -2.44085
   D76       -1.52251  -0.00125   0.00000  -0.01344  -0.01348  -1.53600
   D77        1.20192   0.01599   0.00000   0.25772   0.25772   1.45964
   D78       -0.48358  -0.00288   0.00000  -0.01416  -0.01453  -0.49811
   D79       -2.55125   0.00327   0.00000   0.02259   0.02296  -2.52829
   D80       -2.03758  -0.00128   0.00000  -0.00074  -0.00138  -2.03896
   D81        3.07282  -0.00012   0.00000   0.00339   0.00323   3.07604
   D82        2.26697   0.00074   0.00000   0.02528   0.02502   2.29199
         Item               Value     Threshold  Converged?
 Maximum Force            0.038523     0.000450     NO 
 RMS     Force            0.006408     0.000300     NO 
 Maximum Displacement     1.107453     0.001800     NO 
 RMS     Displacement     0.261575     0.001200     NO 
 Predicted change in Energy=-2.194262D-02
 GradGradGradGradGradGradGradGradGradGradGradGradGradGradGradGradGradGrad

                          Input orientation:                          
 ---------------------------------------------------------------------
 Center     Atomic      Atomic             Coordinates (Angstroms)
 Number     Number       Type             X           Y           Z
 ---------------------------------------------------------------------
      1          1           0        0.106766    0.595889   -0.625819
      2          6           0       -0.446228    0.499588    0.315025
      3          6           0       -2.280257    2.204855    0.667939
      4          6           0       -2.732140   -0.304359    0.882214
      5          6           0       -3.087076    1.131226    1.375832
      6          8           0       -1.599365   -0.295973   -0.023507
      7          6           0       -0.794279    1.917621    0.814313
      8          1           0       -2.885100    1.214689    2.453207
      9          1           0       -0.531419    2.029530    1.874963
     10          6           0        0.450310   -0.239395    1.300494
     11          1           0        0.666941   -1.246498    0.920432
     12          1           0       -0.045779   -0.341894    2.276804
     13          1           0       -2.555764    2.242951   -0.391256
     14          8           0        1.640026    0.546915    1.419619
     15          1           0        2.248025    0.075000    2.009347
     16          8           0       -4.481287    1.391888    1.176013
     17          1           0       -4.570447    2.347252    1.349448
     18          8           0       -2.621531    3.469009    1.253697
     19          1           0       -1.969678    4.098843    0.889810
     20          8           0       -0.063611    2.932750    0.095233
     21          1           0        0.880938    2.742383    0.232555
     22          1           0       -2.455064   -0.922295    1.743018
     23          8           0       -3.783076   -1.004858    0.288537
     24          1           0       -4.258432   -0.508409   -0.409484
     25          8           0       -4.098172   -0.117735   -2.262309
     26          1           0       -3.158584   -0.133530   -2.482568
     27          1           0       -4.421611    0.778440   -2.415938
     28          8           0       -0.971175    5.505417    0.241016
     29          1           0       -0.651653    4.657337   -0.108812
     30          1           0       -0.457274    6.207717   -0.172645
 ---------------------------------------------------------------------
                    Distance matrix (angstroms):
                    1          2          3          4          5
     1  H    0.000000
     2  C    1.095565   0.000000
     3  C    3.156019   2.529060   0.000000
     4  C    3.338262   2.488660   2.558568   0.000000
     5  C    3.807075   2.915194   1.518141   1.559020   0.000000
     6  O    2.017196   1.441265   2.682508   1.450372   2.491652
     7  C    2.152403   1.543129   1.520546   2.949087   2.488100
     8  H    4.337577   3.321338   2.129189   2.190645   1.099317
     9  H    2.952374   2.186638   2.132153   3.357940   2.754536
    10  C    2.127535   1.523492   3.718935   3.210478   3.794388
    11  H    2.469631   2.157424   4.545499   3.527441   4.466946
    12  H    3.054165   2.171872   3.750636   3.027016   3.497330
    13  H    3.139569   2.826355   1.095103   2.853353   2.154258
    14  O    2.556776   2.361107   4.322315   4.486570   4.763280
    15  H    3.435174   3.210920   5.180829   5.120194   5.475423
    16  O    4.993039   4.221279   2.400748   2.454198   1.432374
    17  H    5.370779   4.636062   2.393680   3.260172   1.918282
    18  O    4.385316   3.798750   1.434456   3.793223   2.386814
    19  H    4.345047   3.950432   1.932065   4.468735   3.208045
    20  O    2.451501   2.472848   2.402362   4.268403   3.745233
    21  H    2.437947   2.607355   3.235993   4.770642   4.432612
    22  H    3.805160   2.845406   3.311407   1.095262   2.179727
    23  O    4.304568   3.660411   3.564361   1.395571   2.495892
    24  H    4.507907   4.009223   3.526446   2.009897   2.692180
    25  O    4.568244   4.512253   4.157595   3.433496   3.977221
    26  H    3.826497   3.947688   4.020597   3.395997   4.061031
    27  H    4.872786   4.831106   4.016262   3.860644   4.035215
    28  O    5.100669   5.033823   3.576265   6.104559   4.989830
    29  H    4.163875   4.184341   3.044727   5.470739   4.535297
    30  H    5.658278   5.728933   4.478029   6.978171   5.923209
                    6          7          8          9         10
     6  O    0.000000
     7  C    2.500021   0.000000
     8  H    3.173220   2.748021   0.000000
     9  H    3.186324   1.098452   2.556980   0.000000
    10  C    2.440768   2.537340   3.816814   2.538076   0.000000
    11  H    2.632615   3.486843   4.585176   3.616567   1.098013
    12  H    2.776178   2.793661   3.242809   2.453768   1.099905
    13  H    2.737895   2.159182   3.042492   3.046189   4.249770
    14  O    3.645097   2.858509   4.689456   2.668457   1.431048
    15  H    4.367211   3.752195   5.276824   3.400523   1.957829
    16  O    3.548689   3.741825   2.051935   4.061598   5.195886
[...]
 43,0.00000482,0.00092346,-0.00041410,0.00139894,0.00019372,-0.00041856
 ,0.00054347,0.00060882,0.00012455,0.00034570,-0.00018398,-0.00026366,0
 .00002250,0.00027159,-0.00035186,0.00000686,0.00001594,0.00013400,-0.0
 0000404,-0.00453353,-0.00047717,-0.00215852,0.09785664,-0.20873337,0.1
 9879907,-0.08222720,0.19742535,0.00044885,0.00013227,0.00006465,0.0004
 2173,0.00027219,-0.00065095,-0.00062239,-0.00029063,0.00251405,-0.0183
 8784,0.00830735,-0.01773792,-0.00051567,0.00121441,-0.00076516,0.00352
 749,0.00084003,-0.00133791,-0.00049716,0.00001487,-0.00003107,0.000450
 90,0.00062468,0.00044394,-0.00013041,0.00000054,-0.00012192,-0.0002434
 5,0.00003424,-0.00003546,0.00003020,-0.00004417,0.00000510,-0.00005255
 ,0.00001640,-0.00010088,0.00023820,0.00050083,-0.00039553,0.00024932,0
 .00000932,-0.00004290,-0.00005430,0.00001059,0.00004253,0.00066808,0.0
 0162126,-0.00032925,0.00070876,-0.00030095,0.00129164,0.00065030,0.001
 21566,-0.00114487,-0.00006859,-0.00023942,0.00050841,0.00055471,0.0002
 6057,-0.00037374,-0.00001345,0.00003636,0.00001736,-0.00255620,-0.0019
 6351,0.00080230,-0.12015858,0.16664801,-0.21438007,0.13394489,-0.17560
 969,0.23017972,0.00027269,-0.00000911,0.00011068,0.00169304,0.00148885
 ,-0.00016019,-0.00000794,0.00054616,0.00122092,-0.00605160,-0.00171596
 ,0.00081299,-0.00118400,0.00040511,-0.00026666,-0.00133522,0.00087395,
 -0.00677592,0.00000699,0.00045927,0.00010249,0.00027690,-0.00001149,0.
 00000253,-0.00008223,-0.00011563,-0.00014405,-0.00002715,-0.00046774,0
 .00019911,0.00000614,-0.00001501,0.00002931,-0.00001602,0.00001945,-0.
 00013277,-0.00089359,-0.00004943,-0.00075238,-0.00044426,0.00001296,-0
 .00032754,-0.00003510,-0.00001777,0.00003429,0.00134046,-0.00022297,0.
 00097374,-0.00027307,-0.00011969,-0.00023169,0.00053082,-0.00078298,-0
 .00064460,-0.00007130,0.00021121,-0.00008065,0.00000081,-0.00052457,-0
 .00016183,0.00010009,0.00013113,0.00007062,0.00098149,0.00020115,-0.00
 026669,0.00384259,-0.00074247,0.00297347,-0.00410917,0.00303340,-0.000
 80776,0.45093309,0.00018866,0.00000147,-0.00000401,-0.00072315,-0.0013
 3022,0.00047990,0.00024376,0.00019836,0.00331882,-0.00230165,-0.003335
 08,-0.00092734,0.00069841,-0.00073561,0.00069212,0.00247589,0.00305625
 ,0.00137594,0.00048723,-0.00024811,-0.00059600,-0.00005209,0.00035768,
 -0.00025969,-0.00034840,0.00010641,-0.00008024,0.00000742,0.00013239,-
 0.00004710,-0.00008823,0.00010837,-0.00003119,-0.00000060,-0.00000275,
 -0.00001110,-0.00006679,0.00023790,-0.00172961,0.00021218,0.00020401,0
 .00016144,0.00003980,0.00000644,-0.00002387,-0.00023708,0.00068805,-0.
 00129909,-0.00018032,0.00008348,0.00052087,-0.00040505,-0.00066370,-0.
 00139123,0.00038047,0.00045331,0.00009810,-0.00022675,0.00032181,-0.00
 001272,0.00004201,-0.00012853,-0.00002684,0.00046304,0.00031452,0.0003
 2306,0.00066573,-0.00032302,0.01020506,0.00214098,-0.00383719,-0.00450
 415,-0.04588169,0.54742231,-0.00057076,-0.00018966,0.00012216,0.002658
 44,0.00191691,-0.00054344,0.00003072,0.00075115,0.00188417,0.00423152,
 0.00127136,0.00273123,0.00027746,0.00021672,0.00182705,-0.00701072,0.0
 0045753,-0.00303032,0.00079113,0.00057944,-0.00090528,-0.00001776,-0.0
 0013931,-0.00041944,-0.00027193,-0.00009367,-0.00007224,0.00014783,-0.
 00062852,0.00009739,-0.00004663,0.00007798,0.00001742,0.00001778,-0.00
 002223,0.00013276,-0.00009690,0.00030715,-0.00182098,-0.00100346,0.000
 04180,-0.00023733,0.00002835,-0.00005621,-0.00003878,0.00036844,-0.000
 78550,-0.00175627,-0.00029783,0.00028747,0.00008030,-0.00044535,-0.002
 18699,-0.00076326,0.00045615,0.00087835,-0.00056181,-0.00080880,-0.000
 88542,0.00065011,0.00015755,0.00006331,-0.00006867,-0.00078531,-0.0001
 3457,-0.00064998,-0.00106621,0.00670576,-0.01050411,-0.00264127,-0.004
 25691,-0.00018925,0.15408176,-0.17092389,0.11725055,-0.00042030,-0.000
 07832,-0.00014345,-0.00239510,-0.00144430,-0.00055525,0.00043646,-0.00
 031487,0.00052278,0.00880063,0.00125698,0.00157465,0.00013994,-0.00045
 243,0.00072807,-0.00436757,0.00072646,0.00414457,0.00023150,-0.0004980
 5,-0.00039419,-0.00003150,0.00005739,-0.00011397,-0.00011244,0.0001689
 8,0.00008479,-0.00007352,0.00037373,-0.00015632,-0.00002707,0.00003970
 ,-0.00002839,0.00003385,-0.00002295,0.00014737,0.00037370,0.00034685,-
 0.00027759,0.00040267,0.00006247,0.00030237,0.00002926,0.00001831,-0.0
 0003176,-0.00052578,0.00023569,-0.00044222,-0.00003399,0.00005091,0.00
 010420,-0.00046879,-0.00002355,-0.00020541,0.00016662,0.00004850,0.000
 05599,-0.00008697,0.00058513,0.00012966,-0.00007503,-0.00016069,-0.000
 06881,-0.00131026,-0.00006642,0.00061236,-0.00165402,0.00009874,-0.004
 52918,-0.00401774,-0.00130666,0.00483622,-0.39455426,0.11455158,-0.155
 84651,0.39552816,-0.00025575,0.00014136,0.00004433,0.00055082,0.001055
 98,-0.00147917,-0.00052658,-0.00036312,-0.00231960,-0.00025775,0.00151
 741,0.00133148,0.00011910,0.00040721,-0.00051764,-0.00024918,-0.004103
 15,0.00052542,-0.00056333,0.00011704,0.00002045,-0.00008372,-0.0002291
 7,0.00020367,0.00025811,-0.00008650,0.00005941,-0.00006520,-0.00015666
 ,0.00014226,0.00008740,-0.00010721,0.00003316,0.00001956,-0.00002099,-
 0.00000685,0.00041165,-0.00091409,0.00047959,-0.00019426,-0.00016548,-
 0.00016622,-0.00004080,-0.00000242,0.00003228,-0.00002081,-0.00036237,
 0.00046354,0.00018101,-0.00000584,-0.00020636,0.00018721,0.00059110,0.
 00109314,-0.00021055,-0.00031868,-0.00004622,0.00017802,-0.00028264,0.
 00015045,-0.00004086,0.00010716,0.00001043,0.00006058,-0.00005610,-0.0
 0008132,0.00055435,-0.00178735,-0.00099423,-0.00170049,0.00266143,-0.0
 0038230,0.05801187,-0.07369753,0.03961992,-0.10308556,0.08955803,0.000
 56542,0.00023919,-0.00013802,-0.00441890,-0.00342253,0.00119844,0.0001
 0420,-0.00092923,-0.00022459,0.00413386,0.00080573,-0.00624972,0.00047
 590,-0.00082487,-0.00067699,0.00293204,0.00139425,0.00227891,-0.000198
 08,-0.00083893,0.00017151,-0.00009547,0.00026173,0.00015970,0.00001692
 ,0.00021071,0.00008645,0.00013448,0.00109610,-0.00024646,-0.00000362,-
 0.00003688,-0.00003129,-0.00004286,0.00000264,-0.00002679,0.00019652,-
 0.00041590,-0.00004162,0.00118085,-0.00003472,0.00049954,0.00006748,0.
 00008889,0.00001691,-0.00081041,0.00066434,-0.00003207,0.00012052,-0.0
 0009825,0.00013449,-0.00013510,0.00120389,0.00007994,-0.00012253,-0.00
 039968,0.00040038,0.00046917,0.00110172,-0.00045575,-0.00014571,-0.000
 16707,0.00003463,-0.00059758,-0.00023544,0.00082532,-0.00205553,-0.000
 06768,0.00013244,0.00569998,-0.00050508,-0.00019700,-0.14176383,0.0565
 2376,-0.06893454,0.14516801,-0.05558739,0.07530404,-0.00017224,0.00004
 363,0.00003734,0.00000389,0.00017866,-0.00042542,-0.00025726,-0.000565
 09,-0.00097114,-0.00014905,-0.00030346,0.00002819,0.00091514,-0.000087
 01,0.00016273,-0.00058863,-0.00049833,-0.00035994,-0.00009521,-0.00007
 735,-0.00013328,-0.00018826,-0.00002131,0.00003434,0.00008103,0.000010
 76,0.00007706,-0.00013926,-0.00001958,0.00001093,0.00001672,-0.0000131
 6,0.00000190,0.00002742,-0.00001544,0.00004113,0.00050282,-0.00003570,
 -0.00001722,0.00007532,0.00000232,0.00003416,-0.00002165,-0.00001187,-
 0.00000843,-0.00073706,0.00027351,-0.00058401,0.00023844,0.00005526,0.
 00027407,-0.00029331,0.00061469,0.00047611,0.00006395,-0.00015469,0.00
 001807,0.00002799,0.00013153,0.00019520,-0.00005738,-0.00003040,-0.000
 03564,0.00010945,0.00006004,0.00008523,0.00043115,-0.00011121,0.001394
 16,0.00043807,-0.00067395,-0.00275599,-0.05093712,-0.07205424,0.007872
 08,0.00402475,0.04668342,-0.01100313,0.04674714,0.00006363,0.00000943,
 -0.00000196,0.00024876,0.00019425,0.00013471,-0.00019215,-0.00004944,-
 0.00029566,-0.00029573,-0.00003267,0.00054010,0.00005053,0.00014079,0.
 00016894,-0.00015201,0.00018518,-0.00067966,0.00001690,0.00012246,0.00
 008312,0.00000584,-0.00006434,-0.00000717,0.00001354,-0.00004562,-0.00
 001025,0.00003032,-0.00002571,0.00001420,0.00000830,-0.00001769,0.0000
 0742,-0.00000910,0.00000309,-0.00002084,-0.00021408,0.00013020,-0.0003
 8369,-0.00006439,-0.00003747,-0.00004657,-0.00000697,0.00000004,0.0000
 0550,0.00008270,-0.00016476,-0.00002786,0.00000118,0.00005272,-0.00013
 561,0.00012575,-0.00025410,0.00003818,-0.00009611,0.00003323,-0.000198
 37,0.00000981,-0.00018100,0.00001788,-0.00000018,0.00003056,0.00002779
 ,0.00004462,0.00000768,-0.00004209,-0.00022750,0.00086076,-0.00095218,
 -0.00025477,-0.00130250,0.00149605,-0.01482788,-0.46923738,0.12719596,
 -0.01101640,-0.01358543,0.00003667,0.02664846,0.48313100,0.00000488,-0
 .00001102,-0.00002133,-0.00038166,0.00035449,-0.00005544,-0.00023195,-
 0.00068358,-0.00296729,0.00088149,0.00161348,0.00006486,-0.00028586,0.
 00042946,-0.00061174,-0.00024467,-0.00094493,0.00012053,-0.00059332,-0
 .00006853,0.00075500,0.00000349,-0.00019623,0.00030097,0.00032662,-0.0
 0002148,0.00007887,-0.00012136,0.00001586,-0.00003700,0.00005658,-0.00
 006599,0.00001590,0.00000469,0.00001766,-0.00001478,-0.00066272,-0.000
 78490,0.00039177,0.00019483,-0.00007598,-0.00001935,-0.00004467,-0.000
 00032,0.00001454,-0.00000527,-0.00033969,0.00115130,0.00020351,-0.0001
 2285,-0.00047090,0.00035403,0.00112769,0.00109396,-0.00043947,-0.00062
 451,0.00013220,0.00042115,0.00017398,-0.00026176,-0.00008527,0.0000375
 9,0.00005054,-0.00011898,-0.00020806,-0.00005336,-0.00009767,-0.000027
 93,-0.00302131,-0.00107525,0.00157054,0.00213982,-0.00812289,0.1081099
 2,-0.03450336,0.00435990,0.01763657,-0.00399350,0.00558806,-0.12701857
 ,0.03983876,0.00018503,-0.00023863,-0.00016211,0.00015697,0.00018345,-
 0.00060193,-0.00299199,0.00508687,0.00311362,-0.00123131,0.00055565,0.
 00089349,0.00008418,-0.00115462,-0.00059836,0.00119170,0.00041658,-0.0
 0017299,-0.00425197,-0.00192362,0.00195172,0.00008005,0.00007640,0.000
 01830,0.00024792,0.00047667,-0.00041797,-0.00031920,-0.00015378,0.0000
 4794,0.00002293,0.00007477,0.00000898,0.00004135,0.00004515,-0.0000724
 4,0.00019430,-0.00037999,-0.00048278,0.00022759,0.00032156,-0.00010200
 ,0.00000387,0.00003672,0.00001135,0.00042567,-0.00067264,0.00003694,0.
 00078793,0.00067646,-0.00014662,-0.00179005,-0.01429666,0.00706307,-0.
 00185076,0.00720314,-0.00191294,0.00187698,0.00922604,-0.00355455,0.00
 085099,0.00041378,0.00011177,0.00012208,-0.00019707,-0.00006017,0.0002
 5917,-0.00044767,-0.00034535,-0.00005930,0.00017678,0.00018827,0.00014
 893,-0.00022048,-0.00029113,-0.00016315,0.00012216,0.00006062,-0.00009
 136,0.00009124,0.00023699,0.34379970,-0.00006938,0.00009612,0.00005338
 ,-0.00015078,0.00052367,0.00060771,-0.00114572,0.00365683,0.00152235,0
 .00043774,0.00097892,0.00013172,0.00054855,-0.00024228,-0.00043501,-0.
 00046859,-0.00102339,-0.00003901,0.00271943,0.00143881,-0.00201579,-0.
 00002946,-0.00002857,0.00000160,-0.00026254,-0.00038409,0.00046891,-0.
 00021195,0.00001041,-0.00026517,0.00013944,-0.00019742,0.00005477,-0.0
 0000348,0.00001188,0.00003805,0.00024486,0.00006066,-0.00019962,0.0005
 6000,-0.00028192,0.00021048,-0.00016147,-0.00014768,0.00000324,-0.0009
 9957,-0.00056832,0.00019892,0.00115175,0.00029911,-0.00016882,-0.00816
 920,-0.00873715,0.01012561,0.00543744,-0.00564936,-0.00459619,0.007470
 31,-0.00910686,0.00421448,-0.00130779,-0.00287597,0.00044366,0.0000428
 0,-0.00017191,0.00004067,-0.00057909,-0.00063935,-0.00048645,0.0001918
 9,0.00010398,0.00028379,-0.00027819,-0.00020738,-0.00066870,0.00008828
 ,0.00018613,0.00040568,0.00022780,-0.00000076,0.00040038,-0.10176191,0
 .54823867,-0.00009323,0.00013203,0.00006211,-0.00002426,-0.00026563,-0
 .00023199,0.00204328,-0.00467197,-0.00437060,0.00040743,-0.00080810,-0
 .00074642,-0.00021073,0.00126163,0.00092875,-0.00017892,0.00043377,0.0
 0030751,0.00032545,0.00020459,0.00030159,-0.00010214,-0.00021146,0.000
 14684,0.00004219,-0.00028304,0.00026539,0.00017166,0.00007206,0.000122
 17,-0.00008979,0.00010132,-0.00003966,-0.00000073,-0.00004109,0.000039
 38,0.00004697,0.00095583,0.00107311,-0.00030813,0.00007672,0.00006753,
 0.00008788,-0.00000574,-0.00004184,0.00028582,0.00072186,0.00004928,-0
 .00114218,-0.00062087,-0.00001174,0.00700016,0.01403587,-0.00258395,-0
 .00527054,-0.00740326,-0.00626854,-0.00204218,0.00177863,0.00255202,0.
 00042930,0.00023576,0.00009593,-0.00008666,0.00019690,0.00004451,0.000
 24830,0.00059760,0.00064238,-0.00004073,-0.00006360,-0.00045296,0.0000
 4888,0.00003428,0.00070690,-0.00002420,-0.00000760,-0.00043772,0.00002
 513,0.00013656,-0.00033521,0.14334387,0.18838505,0.21401251,-0.0001344
 6,0.00022393,0.00010842,-0.00033364,-0.00020473,0.00092944,0.00137611,
 -0.00382393,0.00017331,0.00089636,-0.00025380,-0.00054038,-0.00020897,
 0.00026918,-0.00007792,-0.00102406,-0.00056917,0.00001503,0.00555333,-
 0.00004791,-0.00195787,0.00004115,0.00008613,-0.00013602,-0.00046955,-
 0.00062282,0.00056657,0.00017018,0.00006090,-0.00012949,0.00003117,-0.
 00009731,0.00001542,-0.00003219,-0.00002319,0.00004687,-0.00042309,0.0
 0000094,-0.00026985,-0.00006549,-0.00022681,0.00008197,-0.00002806,-0.
 00003901,-0.00001270,-0.00022603,0.00034367,-0.00001304,-0.00041810,-0
 .00031385,0.00010718,0.00186856,0.00365686,-0.00167281,-0.00855584,-0.
 00086703,0.00487182,-0.01007642,-0.00202128,0.00275883,-0.00094700,0.0
 0122706,-0.00022201,-0.00007320,0.00010173,0.00004625,-0.00029333,0.00
 017895,0.00009310,0.00004701,-0.00012927,-0.00001872,-0.00007757,0.000
 19130,0.00005224,0.00013826,-0.00013656,0.00008093,-0.00000913,-0.0001
 0117,-0.00012031,-0.24478734,0.22444286,-0.02914503,0.24660611,0.00021
 881,-0.00036031,-0.00017479,0.00019650,-0.00052892,-0.00106765,-0.0021
 5968,0.00243298,0.00102998,-0.00144858,-0.00048821,0.00060221,-0.00046
 953,-0.00083806,0.00003581,0.00141905,0.00134238,-0.00008896,-0.006671
 36,-0.00463375,0.00393538,0.00008057,0.00010071,-0.00003743,0.00072152
 ,0.00116772,-0.00118822,0.00001134,-0.00015935,0.00028243,-0.00012894,
 0.00025357,-0.00004868,0.00001765,0.00002637,-0.00008778,-0.00006684,-
 0.00033657,-0.00030590,-0.00049836,0.00053269,-0.00033203,0.00019023,0
 .00023989,-0.00000008,0.00124951,-0.00015545,-0.00020510,-0.00011960,0
 .00031690,0.00007127,0.00011058,-0.00539624,0.00139217,0.00037680,0.00
 773772,-0.00250442,0.00065985,-0.00405392,-0.00203646,0.00230551,0.004
 36481,-0.00147113,0.00005962,0.00000157,-0.00008667,0.00074055,0.00021
 295,0.00016771,-0.00020569,0.00004390,-0.00012738,0.00033129,0.0000134
 3,0.00043738,-0.00021812,-0.00006610,-0.00036879,-0.00021948,0.0000929
 1,-0.00020531,0.17791043,-0.24159562,-0.00158336,-0.20243492,0.2639327
 4,-0.00001494,-0.00001589,0.00003986,-0.00018747,-0.00001791,0.0005475
 8,0.00065588,0.00167834,0.00154184,0.00029447,0.00034027,0.00004847,0.
 00003488,0.00002469,-0.00025559,-0.00042127,-0.00063343,-0.00017936,0.
 00135033,0.00174023,-0.00234192,0.00002349,0.00005651,-0.00007801,0.00
 003907,0.00022746,-0.00016194,0.00001386,0.00002462,-0.00014322,0.0000
 6196,-0.00011988,0.00004120,-0.00001938,0.00001128,-0.00000006,-0.0001
 6126,-0.00027784,-0.00042403,0.00019758,-0.00022369,-0.00001057,-0.000
 07906,-0.00003128,0.00003802,-0.00044395,-0.00020441,0.00001940,0.0003
 6511,0.00011516,-0.00000944,-0.00209910,-0.00081910,-0.00046097,0.0056
 2862,-0.00116232,-0.00019815,0.00066418,-0.00017428,-0.00163267,-0.000
 81763,-0.00078083,-0.00021813,0.00000476,-0.00004611,-0.00000014,-0.00
 026710,-0.00020208,-0.00026752,0.00003939,-0.00001406,0.00022908,-0.00
 000811,0.00004286,-0.00041237,0.00004470,-0.00006497,0.00031260,-0.000
 07621,-0.00008627,0.00016933,-0.05460051,0.02643967,-0.02958754,0.0279
 6178,-0.00117881,0.03328933,-0.00001252,0.00001200,0.00001734,0.000032
 45,-0.00001450,0.00002213,0.00020271,-0.00010828,-0.00038541,0.0001331
 3,-0.00002562,-0.00010503,0.00004472,0.00011929,0.00009510,-0.00012951
 ,-0.00002768,0.00003873,0.00007294,0.00021786,-0.00013938,-0.00002289,
 -0.00003419,0.00000483,0.00004472,-0.00000086,0.00000234,0.00007319,0.
 00003169,0.00000450,-0.00000915,-0.00000913,-0.00000316,-0.00001143,-0
 .00000760,0.00001180,0.00004232,0.00022452,0.00010464,-0.00009045,-0.0
 0005693,-0.00001410,0.00001012,0.00002379,-0.00000470,-0.00012714,0.00
 004741,0.00002924,0.00001963,-0.00009133,-0.00002560,-0.00045529,0.000
 37978,0.00193775,-0.00054999,-0.00281031,-0.00396357,-0.00125996,0.000
 30884,-0.00071765,0.00001294,0.00058796,-0.00010708,-0.00000929,0.0000
 1703,0.00000928,-0.00005097,0.00002286,0.00003418,0.00002391,-0.000010
 74,-0.00003486,-0.00003444,-0.00000193,0.00002911,0.00001169,0.0000061
 6,-0.00001417,0.00003364,0.00001685,-0.00000492,-0.09317090,-0.1281040
 4,-0.11574689,0.01145524,0.02804127,0.02181593,0.08372059,-0.00000176,
 0.00001261,0.00000113,-0.00002823,-0.00013337,-0.00009135,0.00023419,-
 0.00063843,-0.00067051,-0.00009611,-0.00022663,-0.00006584,-0.00014503
 ,0.00012151,0.00017539,0.00012237,0.00022553,0.00003076,-0.00036187,-0
 .00032605,0.00022182,-0.00000735,-0.00002747,0.00001490,0.00005184,-0.
 00004261,0.00001606,0.00002618,-0.00001321,0.00004169,-0.00002950,0.00
 004818,-0.00000900,0.00000360,-0.00000692,-0.00000490,-0.00000724,0.00
 008213,0.00020729,-0.00007822,0.00008527,0.00000989,0.00003698,-0.0000
 0160,-0.00000857,0.00021653,0.00012100,-0.00004139,-0.00023955,-0.0000
 9170,0.00004513,0.00079216,0.00160910,0.00059379,-0.00248350,-0.003289
 52,-0.00103138,0.00106250,0.00091806,0.00077470,0.00012241,-0.00046819
 ,0.00000771,-0.00001231,0.00004085,-0.00000460,0.00013780,0.00015044,0
 .00012756,-0.00004175,-0.00002347,-0.00007719,0.00005679,0.00004032,0.
 00016340,-0.00002139,-0.00003202,-0.00010287,-0.00003782,0.00000454,-0
 .00008773,-0.08164680,-0.28374713,-0.19339475,-0.01887075,-0.02420075,
 -0.02464792,0.10124584,0.30980954,0.00001215,-0.00002057,-0.00001545,0
 .00001522,0.00006174,-0.00000745,-0.00014913,0.00014021,0.00021167,-0.
 00000905,0.00009885,0.00007180,0.00003906,-0.00010775,-0.00002397,0.00
 001680,-0.00006269,-0.00004074,-0.00005885,0.00003751,0.00023088,0.000
 00212,0.00003335,-0.00002418,-0.00001351,0.00007286,-0.00008561,-0.000
 02600,0.00000321,0.00000767,0.00001042,-0.00001649,-0.00000037,0.00000
 474,0.00000961,-0.00000944,-0.00002535,-0.00014182,-0.00008998,0.00004
 110,-0.00002974,-0.00004926,-0.00002118,0.00001976,0.00002024,-0.00003
 696,-0.00003761,-0.00002360,0.00006873,0.00005027,0.00001806,0.0004685
 5,0.00024241,-0.00235792,-0.00001803,0.00157824,0.00375443,-0.00011889
 ,0.00022279,-0.00055358,-0.00013681,0.00011522,0.00011470,0.00000675,-
 0.00001482,-0.00000491,-0.00003417,-0.00006211,-0.00006900,0.00000783,
 0.00001220,0.00004822,-0.00001321,-0.00001805,-0.00008861,0.00000161,0
 .00001378,0.00005075,0.00001453,0.00000366,0.00004798,-0.09356508,-0.2
 2515536,-0.17630975,-0.00359302,0.00514461,0.00010489,0.09710962,0.217
 80677,0.17507253\\0.00000004,-0.00000371,0.00000205,-0.00026145,-0.001
 30970,0.00346422,-0.00169921,-0.00060483,0.00062328,-0.00210239,0.0003
 6654,-0.00229651,0.00223105,-0.00027109,0.00210211,0.00132730,0.000544
 14,-0.00067670,0.00050648,0.00125645,-0.00320947,-0.00000246,0.0000012
 8,-0.00000104,-0.00000339,0.00000461,0.00000041,-0.00000512,-0.0000007
 9,0.00000330,-0.00000202,0.00000076,0.00000225,-0.00000025,-0.00000104
 ,0.00000207,0.00000034,0.00000189,0.00000012,0.00000059,-0.00000755,-0
 .00000317,-0.00000499,0.00000176,0.00001103,0.00000484,0.00000355,-0.0
 0000487,-0.00000162,0.00000057,-0.00000150,0.00002369,0.00001823,-0.00
 000079,-0.00004738,-0.00002629,0.00001174,0.00000207,0.00001274,-0.000
 00367,0.00000273,-0.00000454,0.00000180,-0.00000210,0.00000363,0.00000
 553,-0.00001357,0.00001013,0.00000146,-0.00000113,-0.00001012,-0.00000
 213,0.00000010,0.00000493,-0.00000711,0.00000563,-0.00000151,-0.000000
 77,0.00000126,0.00000022,-0.00000238,0.00001855,0.00001397,0.00001187,
 0.00002670,-0.00000832,-0.00002797,-0.00000428,0.00000410,-0.00000518\
 \\@


 "TIGER, TIGER BURNING BRIGHT
 IN THE FOREST OF THE NIGHT.
 WHAT IMMORTAL HAND OR EYE
 CAN FRAME THY FEARFUL SYMMETRYE?"
                     - WILLIAM BLAKE
 Job cpu time:       0 days  0 hours 59 minutes  8.9 seconds.
 File lengths (MBytes):  RWF=    335 Int=      0 D2E=      0 Chk=      7 Scr=      2
 Normal termination of Gaussian 09 at Mon Jan 16 22:09:52 2017.
