 Entering Gaussian System, Link 0=g09
 Initial command:
 /global/software/gaussian/g09.e01/l1.exe "//home/aalrawas/scratch/Gau-27186.inp" -scrdir="//home/aalrawas/scratch/"
 Entering Link 1 = /global/software/gaussian/g09.e01/l1.exe PID=     27187.

 Copyright (c) 1988,1990,1992,1993,1995,1998,2003,2009,2015,
            Gaussian, Inc.  All Rights Reserved.

 This is part of the Gaussian(R) 09 program.  It is based on
 the Gaussian(R) 03 system (copyright 2003, Gaussian, Inc.),
 the Gaussian(R) 98 system (copyright 1998, Gaussian, Inc.),
 the Gaussian(R) 94 system (copyright 1995, Gaussian, Inc.),
 the Gaussian 92(TM) system (copyright 1992, Gaussian, Inc.),
 the Gaussian 90(TM) system (copyright 1990, Gaussian, Inc.),
 the Gaussian 88(TM) system (copyright 1988, Gaussian, Inc.),
 the Gaussian 86(TM) system (copyright 1986, Carnegie Mellon
 University), and the Gaussian 82(TM) system (copyright 1983,
 Carnegie Mellon University). Gaussian is a federally registered
 trademark of Gaussian, Inc.

 This software contains proprietary and confidential information,
 including trade secrets, belonging to Gaussian, Inc.

 This software is provided under written license and may be
 used, copied, transmitted, or stored only in accord with that
 written license.

 The following legend is applicable only to US Government
 contracts under FAR:

                    RESTRICTED RIGHTS LEGEND

 Use, reproduction and disclosure by the US Government is
 subject to restrictions as set forth in subparagraphs (a)
 and (c) of the Commercial Computer Software - Restricted
 Rights clause in FAR 52.227-19.

 Gaussian, Inc.
 340 Quinnipiac St., Bldg. 40, Wallingford CT 06492


 ---------------------------------------------------------------
 Warning -- This program may not be used in any manner that
 competes with the business of Gaussian, Inc. or will provide
 assistance to any competitor of Gaussian, Inc.  The licensee
 of this program is prohibited from giving any competitor of
 Gaussian, Inc. access to this program.  By using this program,
 the user acknowledges that Gaussian, Inc. is engaged in the
 business of creating and licensing software in the field of
 computational chemistry and represents and warrants to the
 licensee that it is not a competitor of Gaussian, Inc. and that
 it will not use this program in any manner prohibited above.
 ---------------------------------------------------------------


 Cite this work as:
 Gaussian 09, Revision E.01,
 M. J. Frisch, G. W. Trucks, H. B. Schlegel, G. E. Scuseria,
 M. A. Robb, J. R. Cheeseman, G. Scalmani, V. Barone, B. Mennucci,
 G. A. Petersson, H. Nakatsuji, M. Caricato, X. Li, H. P. Hratchian,
 A. F. Izmaylov, J. Bloino, G. Zheng, J. L. Sonnenberg, M. Hada,
 M. Ehara, K. Toyota, R. Fukuda, J. Hasegawa, M. Ishida, T. Nakajima,
 Y. Honda, O. Kitao, H. Nakai, T. Vreven, J. A. Montgomery, Jr.,
 J. E. Peralta, F. Ogliaro, M. Bearpark, J. J. Heyd, E. Brothers,
 K. N. Kudin, V. N. Staroverov, T. Keith, R. Kobayashi, J. Normand,
 K. Raghavachari, A. Rendell, J. C. Burant, S. S. Iyengar, J. Tomasi,
 M. Cossi, N. Rega, J. M. Millam, M. Klene, J. E. Knox, J. B. Cross,
 V. Bakken, C. Adamo, J. Jaramillo, R. Gomperts, R. E. Stratmann,
 O. Yazyev, A. J. Austin, R. Cammi, C. Pomelli, J. W. Ochterski,
 R. L. Martin, K. Morokuma, V. G. Zakrzewski, G. A. Voth,
 P. Salvador, J. J. Dannenberg, S. Dapprich, A. D. Daniels,
 O. Farkas, J. B. Foresman, J. V. Ortiz, J. Cioslowski,
 and D. J. Fox, Gaussian, Inc., Wallingford CT, 2013.

 ******************************************
 Gaussian 09:  ES64L-G09RevE.01 30-Nov-2015
                16-Jan-2017
 ******************************************
 %NPROCS=8
 Will use up to    8 processors via shared memory.
 ------------------------------------------------------
 # opt=(modredundant,MaxCycle=1000) freq B3LYP/6-31G(d)
 ------------------------------------------------------
 1/6=1000,14=-1,18=120,19=15,26=3,38=1/1,3;
 2/9=110,12=2,17=6,18=5,40=1/2;
 3/5=1,6=6,7=1,11=2,16=1,25=1,30=1,71=1,74=-5/1,2,3;
 4//1;
 5/5=2,38=5/2;
 6/7=2,8=2,9=2,10=2,28=1/1;
 7//1,2,3,16;
 1/6=1000,14=-1,18=20,19=15,26=3/3(2);
 2/9=110/2;
 99//99;
 2/9=110/2;
 3/5=1,6=6,7=1,11=2,16=1,25=1,30=1,71=1,74=-5/1,2,3;
 4/5=5,16=3,69=1/1;
 5/5=2,38=5/2;
 7//1,2,3,16;
 1/6=1000,14=-1,18=20,19=15,26=3/3(-5);
 2/9=110/2;
 6/7=2,8=2,9=2,10=2,19=2,28=1/1;
 99/9=1/99;
 -------------------
 Title Card Required
 -------------------
 Symbolic Z-matrix:
 Charge =  0 Multiplicity = 1
 H                     0.04915   0.51411  -0.67727
 C                    -0.48727   0.4404    0.277
 C                    -2.36975   2.09352   0.61918
 C                    -2.76951  -0.38268   0.9262
 C                    -3.14901   1.03353   1.38764
 O                    -1.65898  -0.38397  -0.00293
 C                    -0.86678   1.85661   0.73844
 H                    -2.97594   1.14431   2.46526
 H                    -0.56518   2.02867   1.77927
 C                     0.44848  -0.25117   1.27283
 H                     0.68204  -1.2655    0.93222
 H                    -0.00681  -0.32868   2.26469
 H                    -2.68003   2.11763  -0.43305
 O                     1.66131   0.48943   1.39097
 H                     2.23813  -0.01701   1.99137
 O                    -4.55711   1.27175   1.20523
 H                    -4.66616   2.23334   1.35353
 O                    -2.70252   3.39225   1.1458
 H                    -2.052     3.99774   0.73393
 O                    -0.18391   2.86206  -0.02702
 H                     0.7707    2.68189   0.0847
 H                    -2.49543  -1.00468   1.78597
 O                    -3.85803  -0.99737   0.27395
 H                    -4.17901  -0.34056  -0.34524
 O                    -4.62423   0.09216  -1.97037
 H                    -3.66423   0.09216  -1.97037
 H                    -4.94469   0.99709  -1.97037
 O                    -2.00246   0.34616  -2.55554
 H                    -1.75001  -0.10948  -1.74915
 H                    -1.54828   0.59321  -3.36441

 Add virtual bond connecting atoms O25        and H24        Dist= 3.29D+00.
 Add virtual bond connecting atoms H26        and H24        Dist= 3.32D+00.
 Add virtual bond connecting atoms O28        and H26        Dist= 3.36D+00.
 Add virtual bond connecting atoms H29        and O6         Dist= 3.34D+00.
 The following ModRedundant input section has been read:
 D       6       4       5       3 F
 D       6       2       7       3 F
 D      27      25      26      28 K
 D      25      26      28      29 K
 D      25      26      28      30 K


 GradGradGradGradGradGradGradGradGradGradGradGradGradGradGradGradGradGrad
 Berny optimization.
 Initialization pass.
                           ----------------------------
                           !    Initial Parameters    !
                           ! (Angstroms and Degrees)  !
 --------------------------                            --------------------------
 ! Name  Definition              Value          Derivative Info.                !
 --------------------------------------------------------------------------------
 ! R1    R(1,2)                  1.0972         estimate D2E/DX2                !
 ! R2    R(2,6)                  1.4597         estimate D2E/DX2                !
 ! R3    R(2,7)                  1.5371         estimate D2E/DX2                !
 ! R4    R(2,10)                 1.5315         estimate D2E/DX2                !
 ! R5    R(3,5)                  1.5236         estimate D2E/DX2                !
 ! R6    R(3,7)                  1.5262         estimate D2E/DX2                !
 ! R7    R(3,13)                 1.0973         estimate D2E/DX2                !
 ! R8    R(3,18)                 1.4404         estimate D2E/DX2                !
 ! R9    R(4,5)                  1.5371         estimate D2E/DX2                !
 ! R10   R(4,6)                  1.4479         estimate D2E/DX2                !
 ! R11   R(4,22)                 1.096          estimate D2E/DX2                !
 ! R12   R(4,23)                 1.41           estimate D2E/DX2                !
 ! R13   R(5,8)                  1.097          estimate D2E/DX2                !
 ! R14   R(5,16)                 1.4397         estimate D2E/DX2                !
 ! R15   R(6,29)                 1.77           estimate D2E/DX2                !
 ! R16   R(7,9)                  1.0972         estimate D2E/DX2                !
 ! R17   R(7,20)                 1.4364         estimate D2E/DX2                !
 ! R18   R(10,11)                1.0952         estimate D2E/DX2                !
 ! R19   R(10,12)                1.0941         estimate D2E/DX2                !
 ! R20   R(10,14)                1.426          estimate D2E/DX2                !
 ! R21   R(14,15)                0.9745         estimate D2E/DX2                !
 ! R22   R(16,17)                0.9791         estimate D2E/DX2                !
 ! R23   R(18,19)                0.9795         estimate D2E/DX2                !
 ! R24   R(20,21)                0.9779         estimate D2E/DX2                !
 ! R25   R(23,24)                0.958          estimate D2E/DX2                !
 ! R26   R(24,25)                1.7397         estimate D2E/DX2                !
 ! R27   R(24,26)                1.7588         estimate D2E/DX2                !
 ! R28   R(25,26)                0.96           estimate D2E/DX2                !
 ! R29   R(25,27)                0.96           estimate D2E/DX2                !
 ! R30   R(26,28)                1.78           estimate D2E/DX2                !
 ! R31   R(28,29)                0.96           estimate D2E/DX2                !
 ! R32   R(28,30)                0.96           estimate D2E/DX2                !
 ! A1    A(1,2,6)              105.2828         estimate D2E/DX2                !
 ! A2    A(1,2,7)              108.6582         estimate D2E/DX2                !
 ! A3    A(1,2,10)             107.2854         estimate D2E/DX2                !
 ! A4    A(6,2,7)              112.3164         estimate D2E/DX2                !
 ! A5    A(6,2,10)             111.1071         estimate D2E/DX2                !
 ! A6    A(7,2,10)             111.8209         estimate D2E/DX2                !
 ! A7    A(5,3,7)              110.8717         estimate D2E/DX2                !
 ! A8    A(5,3,13)             110.7517         estimate D2E/DX2                !
 ! A9    A(5,3,18)             108.949          estimate D2E/DX2                !
 ! A10   A(7,3,13)             110.9043         estimate D2E/DX2                !
 ! A11   A(7,3,18)             109.8098         estimate D2E/DX2                !
 ! A12   A(13,3,18)            105.3939         estimate D2E/DX2                !
 ! A13   A(5,4,6)              112.5089         estimate D2E/DX2                !
 ! A14   A(5,4,22)             110.4343         estimate D2E/DX2                !
 ! A15   A(5,4,23)             110.4833         estimate D2E/DX2                !
 ! A16   A(6,4,22)             108.1241         estimate D2E/DX2                !
 ! A17   A(6,4,23)             107.1495         estimate D2E/DX2                !
 ! A18   A(22,4,23)            107.9703         estimate D2E/DX2                !
 ! A19   A(3,5,4)              111.3038         estimate D2E/DX2                !
 ! A20   A(3,5,8)              110.1513         estimate D2E/DX2                !
 ! A21   A(3,5,16)             108.7366         estimate D2E/DX2                !
 ! A22   A(4,5,8)              110.425          estimate D2E/DX2                !
 ! A23   A(4,5,16)             110.8482         estimate D2E/DX2                !
 ! A24   A(8,5,16)             105.1913         estimate D2E/DX2                !
 ! A25   A(2,6,4)              119.4764         estimate D2E/DX2                !
 ! A26   A(2,6,29)              98.2153         estimate D2E/DX2                !
 ! A27   A(4,6,29)             126.4045         estimate D2E/DX2                !
 ! A28   A(2,7,3)              111.2664         estimate D2E/DX2                !
 ! A29   A(2,7,9)              111.1856         estimate D2E/DX2                !
 ! A30   A(2,7,20)             111.5668         estimate D2E/DX2                !
 ! A31   A(3,7,9)              108.6919         estimate D2E/DX2                !
 ! A32   A(3,7,20)             108.5347         estimate D2E/DX2                !
 ! A33   A(9,7,20)             105.3715         estimate D2E/DX2                !
 ! A34   A(2,10,11)            110.2613         estimate D2E/DX2                !
 ! A35   A(2,10,12)            111.542          estimate D2E/DX2                !
 ! A36   A(2,10,14)            109.8167         estimate D2E/DX2                !
 ! A37   A(11,10,12)           107.762          estimate D2E/DX2                !
 ! A38   A(11,10,14)           108.9905         estimate D2E/DX2                !
 ! A39   A(12,10,14)           108.3981         estimate D2E/DX2                !
 ! A40   A(10,14,15)           106.5327         estimate D2E/DX2                !
 ! A41   A(5,16,17)            104.6111         estimate D2E/DX2                !
 ! A42   A(3,18,19)            104.4892         estimate D2E/DX2                !
 ! A43   A(7,20,21)            105.9171         estimate D2E/DX2                !
 ! A44   A(4,23,24)            104.9953         estimate D2E/DX2                !
 ! A45   A(23,24,25)           149.3187         estimate D2E/DX2                !
 ! A46   A(23,24,26)           131.898          estimate D2E/DX2                !
 ! A47   A(24,25,27)           108.6563         estimate D2E/DX2                !
 ! A48   A(26,25,27)           109.5            estimate D2E/DX2                !
 ! A49   A(24,26,28)           127.743          estimate D2E/DX2                !
 ! A50   A(25,26,28)           158.9994         estimate D2E/DX2                !
 ! A51   A(26,28,29)            84.3552         estimate D2E/DX2                !
 ! A52   A(26,28,30)           139.0602         estimate D2E/DX2                !
 ! A53   A(29,28,30)           134.8683         estimate D2E/DX2                !
 ! A54   A(6,29,28)            156.3237         estimate D2E/DX2                !
 ! D1    D(1,2,6,4)           -163.0567         estimate D2E/DX2                !
 ! D2    D(1,2,6,29)           -22.667          estimate D2E/DX2                !
 ! D3    D(7,2,6,4)            -44.9796         estimate D2E/DX2                !
 ! D4    D(7,2,6,29)            95.4101         estimate D2E/DX2                !
 ! D5    D(10,2,6,4)            81.1165         estimate D2E/DX2                !
 ! D6    D(10,2,6,29)         -138.4938         estimate D2E/DX2                !
 ! D7    D(1,2,7,3)            108.9719         estimate D2E/DX2                !
 ! D8    D(1,2,7,9)           -129.7175         estimate D2E/DX2                !
 ! D9    D(1,2,7,20)           -12.4021         estimate D2E/DX2                !
 ! D10   D(6,2,7,3)             -7.0892         Frozen                          !
 ! D11   D(6,2,7,9)            114.2214         estimate D2E/DX2                !
 ! D12   D(6,2,7,20)          -128.4632         estimate D2E/DX2                !
 ! D13   D(10,2,7,3)          -132.7976         estimate D2E/DX2                !
 ! D14   D(10,2,7,9)           -11.487          estimate D2E/DX2                !
 ! D15   D(10,2,7,20)          105.8284         estimate D2E/DX2                !
 ! D16   D(1,2,10,11)          -62.3686         estimate D2E/DX2                !
 ! D17   D(1,2,10,12)          177.9401         estimate D2E/DX2                !
 ! D18   D(1,2,10,14)           57.7461         estimate D2E/DX2                !
 ! D19   D(6,2,10,11)           52.2153         estimate D2E/DX2                !
 ! D20   D(6,2,10,12)          -67.4761         estimate D2E/DX2                !
 ! D21   D(6,2,10,14)          172.3299         estimate D2E/DX2                !
 ! D22   D(7,2,10,11)          178.5855         estimate D2E/DX2                !
 ! D23   D(7,2,10,12)           58.8941         estimate D2E/DX2                !
 ! D24   D(7,2,10,14)          -61.2999         estimate D2E/DX2                !
 ! D25   D(7,3,5,4)            -55.5743         estimate D2E/DX2                !
 ! D26   D(7,3,5,8)             67.2526         estimate D2E/DX2                !
 ! D27   D(7,3,5,16)          -177.9619         estimate D2E/DX2                !
 ! D28   D(13,3,5,4)            67.9872         estimate D2E/DX2                !
 ! D29   D(13,3,5,8)          -169.1859         estimate D2E/DX2                !
 ! D30   D(13,3,5,16)          -54.4004         estimate D2E/DX2                !
 ! D31   D(18,3,5,4)          -176.5311         estimate D2E/DX2                !
 ! D32   D(18,3,5,8)           -53.7042         estimate D2E/DX2                !
 ! D33   D(18,3,5,16)           61.0813         estimate D2E/DX2                !
 ! D34   D(5,3,7,2)             55.5531         estimate D2E/DX2                !
 ! D35   D(5,3,7,9)            -67.2035         estimate D2E/DX2                !
 ! D36   D(5,3,7,20)           178.6812         estimate D2E/DX2                !
 ! D37   D(13,3,7,2)           -67.9208         estimate D2E/DX2                !
 ! D38   D(13,3,7,9)           169.3227         estimate D2E/DX2                !
 ! D39   D(13,3,7,20)           55.2074         estimate D2E/DX2                !
 ! D40   D(18,3,7,2)           175.9999         estimate D2E/DX2                !
 ! D41   D(18,3,7,9)            53.2434         estimate D2E/DX2                !
 ! D42   D(18,3,7,20)          -60.8719         estimate D2E/DX2                !
 ! D43   D(5,3,18,19)          169.5631         estimate D2E/DX2                !
 ! D44   D(7,3,18,19)           47.9583         estimate D2E/DX2                !
 ! D45   D(13,3,18,19)         -71.5495         estimate D2E/DX2                !
 ! D46   D(6,4,5,3)              6.941          Frozen                          !
 ! D47   D(6,4,5,8)           -115.7287         estimate D2E/DX2                !
 ! D48   D(6,4,5,16)           128.1016         estimate D2E/DX2                !
 ! D49   D(22,4,5,3)           127.854          estimate D2E/DX2                !
 ! D50   D(22,4,5,8)             5.1844         estimate D2E/DX2                !
 ! D51   D(22,4,5,16)         -110.9854         estimate D2E/DX2                !
 ! D52   D(23,4,5,3)          -112.7632         estimate D2E/DX2                !
 ! D53   D(23,4,5,8)           124.5672         estimate D2E/DX2                !
 ! D54   D(23,4,5,16)            8.3974         estimate D2E/DX2                !
 ! D55   D(5,4,6,2)             45.059          estimate D2E/DX2                !
 ! D56   D(5,4,6,29)           -83.3104         estimate D2E/DX2                !
 ! D57   D(22,4,6,2)           -77.1691         estimate D2E/DX2                !
 ! D58   D(22,4,6,29)          154.4615         estimate D2E/DX2                !
 ! D59   D(23,4,6,2)           166.6796         estimate D2E/DX2                !
 ! D60   D(23,4,6,29)           38.3102         estimate D2E/DX2                !
 ! D61   D(5,4,23,24)           47.5349         estimate D2E/DX2                !
 ! D62   D(6,4,23,24)          -75.35           estimate D2E/DX2                !
 ! D63   D(22,4,23,24)         168.3969         estimate D2E/DX2                !
 ! D64   D(3,5,16,17)          -46.4852         estimate D2E/DX2                !
 ! D65   D(4,5,16,17)         -169.1482         estimate D2E/DX2                !
 ! D66   D(8,5,16,17)           71.4876         estimate D2E/DX2                !
 ! D67   D(2,6,29,28)          -86.1432         estimate D2E/DX2                !
 ! D68   D(4,6,29,28)           50.2571         estimate D2E/DX2                !
 ! D69   D(2,7,20,21)          -57.7445         estimate D2E/DX2                !
 ! D70   D(3,7,20,21)          179.3085         estimate D2E/DX2                !
 ! D71   D(9,7,20,21)           63.0309         estimate D2E/DX2                !
 ! D72   D(2,10,14,15)        -176.759          estimate D2E/DX2                !
 ! D73   D(11,10,14,15)        -55.8751         estimate D2E/DX2                !
 ! D74   D(12,10,14,15)         61.1558         estimate D2E/DX2                !
 ! D75   D(4,23,24,25)         127.3073         estimate D2E/DX2                !
 ! D76   D(4,23,24,26)          83.7264         estimate D2E/DX2                !
 ! D77   D(23,24,25,27)        177.5096         estimate D2E/DX2                !
 ! D78   D(23,24,26,28)        -45.6749         estimate D2E/DX2                !
 ! D79   D(24,25,26,27)       -104.9098         estimate D2E/DX2                !
 ! D80   D(24,26,28,29)         16.1823         estimate D2E/DX2                !
 ! D81   D(24,26,28,30)       -178.3665         estimate D2E/DX2                !
 ! D82   D(26,28,29,6)         -58.574          estimate D2E/DX2                !
 ! D83   D(30,28,29,6)         134.8559         estimate D2E/DX2                !
 --------------------------------------------------------------------------------
 Trust Radius=3.00D-01 FncErr=1.00D-07 GrdErr=1.00D-06
 Number of steps in this run=    180 maximum allowed number of steps=    180.
 GradGradGradGradGradGradGradGradGradGradGradGradGradGradGradGradGradGrad

                          Input orientation:
 ---------------------------------------------------------------------
 Center     Atomic      Atomic             Coordinates (Angstroms)
 Number     Number       Type             X           Y           Z
 ---------------------------------------------------------------------
      1          1           0        0.049154    0.514107   -0.677268
      2          6           0       -0.487273    0.440403    0.277004
      3          6           0       -2.369749    2.093516    0.619185
      4          6           0       -2.769506   -0.382678    0.926196
      5          6           0       -3.149010    1.033532    1.387636
      6          8           0       -1.658981   -0.383973   -0.002933
      7          6           0       -0.866778    1.856612    0.738444
      8          1           0       -2.975943    1.144310    2.465256
      9          1           0       -0.565176    2.028669    1.779274
     10          6           0        0.448485   -0.251172    1.272828
     11          1           0        0.682038   -1.265503    0.932225
     12          1           0       -0.006810   -0.328683    2.264690
     13          1           0       -2.680028    2.117627   -0.433049
     14          8           0        1.661314    0.489432    1.390968
     15          1           0        2.238126   -0.017006    1.991368
     16          8           0       -4.557105    1.271746    1.205227
     17          1           0       -4.666158    2.233345    1.353533
     18          8           0       -2.702520    3.392250    1.145804
     19          1           0       -2.052001    3.997742    0.733933
     20          8           0       -0.183910    2.862062   -0.027017
     21          1           0        0.770699    2.681890    0.084703
     22          1           0       -2.495425   -1.004680    1.785973
     23          8           0       -3.858027   -0.997374    0.273946
     24          1           0       -4.179012   -0.340557   -0.345238
     25          8           0       -4.624231    0.092156   -1.970374
     26          1           0       -3.664231    0.092156   -1.970374
     27          1           0       -4.944686    0.997092   -1.970374
     28          8           0       -2.002465    0.346162   -2.555535
     29          1           0       -1.750009   -0.109476   -1.749148
     30          1           0       -1.548279    0.593205   -3.364414
 ---------------------------------------------------------------------
                    Distance matrix (angstroms):
                    1          2          3          4          5
     1  H    0.000000
     2  C    1.097188   0.000000
     3  C    3.166451   2.528554   0.000000
     4  C    3.364545   2.511474   2.526974   0.000000
     5  C    3.842120   2.944512   1.523591   1.537075   0.000000
     6  O    2.044260   1.459747   2.651447   1.447946   2.482577
     7  C    2.155340   1.537075   1.526194   2.944494   2.511472
     8  H    4.407247   3.387833   2.162508   2.177846   1.097036
     9  H    2.950576   2.187572   2.146275   3.376597   2.796404
    10  C    2.132602   1.531530   3.723876   3.239277   3.821729
    11  H    2.481536   2.169497   4.549111   3.562664   4.491090
    12  H    3.060808   2.184773   3.762740   3.070337   3.535290
    13  H    3.174800   2.850514   1.097292   2.847293   2.170276
    14  O    2.622455   2.420691   4.406609   4.539687   4.840999
    15  H    3.492177   3.252087   5.250686   5.132707   5.521717
    16  O    5.033431   4.256320   2.408999   2.451630   1.439705
    17  H    5.414250   4.672969   2.415018   3.259368   1.934542
    18  O    4.379384   3.791508   1.440408   3.781904   2.412755
    19  H    4.306048   3.913032   1.933962   4.442956   3.227584
    20  O    2.447455   2.459449   2.405438   4.257025   3.759865
    21  H    2.408425   2.577545   3.239486   4.757388   4.447340
    22  H    3.853460   2.897918   3.313006   1.096003   2.177189
    23  O    4.295980   3.664587   3.447863   1.410021   2.422311
    24  H    4.326440   3.824397   3.182492   1.898690   2.439646
    25  O    4.867309   4.720848   3.974160   3.472116   3.786647
    26  H    3.954667   3.907051   3.519508   3.068569   3.525319
    27  H    5.181103   5.022861   3.812907   3.876247   3.808150
    28  O    2.786616   3.213715   3.642387   3.638957   4.163609
    29  H    2.185124   2.449930   3.293364   2.876018   3.619818
    30  H    3.127107   3.795919   4.335297   4.566517   5.033706
                    6          7          8          9         10
     6  O    0.000000
     7  C    2.489467   0.000000
     8  H    3.187788   2.817416   0.000000
     9  H    3.192728   1.097221   2.657905   0.000000
    10  C    2.467107   2.541306   3.885352   2.545913   0.000000
    11  H    2.670578   3.490556   4.640927   3.622790   1.095183
    12  H    2.806215   2.800801   3.320495   2.470731   1.094117
    13  H    2.735971   2.174489   3.071658   3.061843   4.278881
    14  O    3.705422   2.947239   4.804905   2.734463   1.425975
    15  H    4.393102   3.836755   5.362811   3.476819   1.942665
    16  O    3.549673   3.765431   2.025830   4.103408   5.232569
    17  H    4.211112   3.867241   2.297553   4.128099   5.686731
    18  O    4.082699   2.427772   2.620868   2.613212   4.818661
    19  H    4.460590   2.447287   3.463123   2.679671   4.959446
    20  O    3.565552   1.436374   4.117954   2.025486   3.432455
    21  H    3.912869   1.946739   4.697713   2.254513   3.180930
    22  H    2.070048   3.454967   2.304448   3.595429   3.081834
    23  O    2.299723   4.160356   3.188530   4.718667   4.483372
    24  H    2.543543   4.119807   3.398688   4.815245   4.903045
    25  O    3.590297   4.956758   4.847545   5.855414   6.030645
    26  H    2.849307   4.275131   4.610377   5.235846   5.248873
    27  H    4.071120   4.970493   4.855145   5.856971   6.415825
    28  O    2.677098   3.797570   5.176199   4.866949   4.584792
    29  H    1.770000   3.291460   4.564657   4.292464   3.739758
    30  H    3.502383   4.346732   6.027187   5.429969   5.118989
                   11         12         13         14         15
    11  H    0.000000
    12  H    1.768504   0.000000
    13  H    4.961152   4.517557   0.000000
    14  O    2.061364   2.053129   4.982500   0.000000
    15  H    2.258747   2.282890   5.884105   0.974511   0.000000
    16  O    5.827588   4.938524   2.631137   6.270187   6.960895
    17  H    6.404892   5.394786   2.673944   6.563500   7.289722
    18  O    5.761555   4.729070   2.029272   5.246857   6.062012
    19  H    5.934310   5.024338   2.300239   5.150596   6.008705
    20  O    4.325136   3.932447   2.636219   3.323388   4.269563
    21  H    4.038325   3.797422   3.534682   2.703034   3.615626
    22  H    3.300483   2.622851   3.834963   4.434735   4.839855
    23  O    4.595369   4.386580   3.404520   5.824213   6.408880
    24  H    5.110503   4.921293   2.880509   6.149203   6.836963
    25  O    6.198775   6.279606   3.200910   7.138944   7.924598
    26  H    5.399849   5.611560   2.726638   6.310141   7.109510
    27  H    6.723424   6.638980   2.957641   7.429372   8.265384
    28  O    4.687055   5.260477   2.846423   5.386899   6.228067
    29  H    3.800133   4.381516   2.749006   4.675055   5.468567
    30  H    5.185577   5.908706   3.492508   5.738110   6.587383
                   16         17         18         19         20
    16  O    0.000000
    17  H    0.979061   0.000000
    18  O    2.817721   2.289560   0.000000
    19  H    3.732120   3.214159   0.979507   0.000000
    20  O    4.813768   4.731992   2.828428   2.314860   0.000000
    21  H    5.624018   5.600941   3.700513   3.181289   0.977866
    22  H    3.125685   3.922230   4.448112   5.131047   4.856102
    23  O    2.550471   3.500875   4.622135   5.331463   5.337130
    24  H    2.268571   3.122195   4.282182   4.950719   5.130192
    25  O    3.388271   3.954087   4.928910   5.402152   5.582604
    26  H    3.503298   4.078836   4.639620   5.016588   4.854034
    27  H    3.210934   3.557282   4.524892   4.968380   5.469893
    28  O    4.639636   5.092890   4.844444   4.914986   4.003785
    29  H    4.303010   4.859975   4.642209   4.808963   3.774710
    30  H    5.513172   5.888145   5.432217   5.351733   4.259979
                   21         22         23         24         25
    21  H    0.000000
    22  H    5.210824   0.000000
    23  O    5.915902   2.035427   0.000000
    24  H    5.815468   2.795994   0.958033   0.000000
    25  O    6.327348   4.454774   2.609812   1.739693   0.000000
    26  H    5.531606   4.084030   2.502320   1.758781   0.960000
    27  H    6.302976   4.910816   3.193070   2.239784   0.960000
    28  O    4.485188   4.573453   3.640627   3.177162   2.698257
    29  H    4.184339   3.722111   3.053688   2.815034   2.889767
    30  H    4.651523   5.475108   4.593750   4.111945   3.414071
                   26         27         28         29         30
    26  H    0.000000
    27  H    1.567952   0.000000
    28  O    1.780000   3.069656   0.000000
    29  H    1.937484   3.388125   0.960000   0.000000
    30  H    2.582954   3.693515   0.960000   1.773003   0.000000
 Stoichiometry    C6H16O8
 Framework group  C1[X(C6H16O8)]
 Deg. of freedom    84
 Full point group                 C1      NOp   1
 Largest Abelian subgroup         C1      NOp   1
 Largest concise Abelian subgroup C1      NOp   1
                         Standard orientation:
 ---------------------------------------------------------------------
 Center     Atomic      Atomic             Coordinates (Angstroms)
 Number     Number       Type             X           Y           Z
 ---------------------------------------------------------------------
      1          1           0       -1.564876   -1.286622    0.940791
      2          6           0       -1.341301   -0.715572    0.030990
      3          6           0        0.139330    1.311847    0.332466
      4          6           0        0.712785   -0.447021   -1.388908
      5          6           0        0.764556    1.047017   -1.031457
      6          8           0       -0.052147   -1.219597   -0.432585
      7          6           0       -1.289530    0.778465    0.388439
      8          1           0        0.258451    1.642607   -1.801274
      9          1           0       -1.912997    1.371004   -0.292796
     10          6           0       -2.449165   -1.020619   -0.981516
     11          1           0       -2.447005   -2.085658   -1.236687
     12          1           0       -2.313302   -0.455090   -1.908236
     13          1           0        0.751537    0.876019    1.132033
     14          8           0       -3.717883   -0.678757   -0.427539
     15          1           0       -4.387299   -0.939125   -1.086146
     16          8           0        2.122934    1.523857   -1.017957
     17          1           0        2.068127    2.414245   -0.614515
     18          8           0        0.140749    2.730809    0.580093
     19          1           0       -0.418741    2.841163    1.376476
     20          8           0       -1.818214    1.025993    1.700839
     21          1           0       -2.733280    0.681357    1.690725
     22          1           0        0.263587   -0.588348   -2.378590
     23          8           0        2.012696   -0.992429   -1.419268
     24          1           0        2.428546   -0.687077   -0.612016
     25          8           0        3.295696   -1.046242    0.852765
     26          1           0        2.388634   -1.302303    1.035168
     27          1           0        3.492626   -0.221617    1.303112
     28          8           0        0.967781   -1.837420    1.964267
     29          1           0        0.535886   -1.864405    1.107331
     30          1           0        0.757163   -2.170572    2.839624
 ---------------------------------------------------------------------
 Rotational constants (GHZ):      0.7692748      0.4736727      0.4234954
 Standard basis: 6-31G(d) (6D, 7F)
 There are   242 symmetry adapted cartesian basis functions of A   symmetry.
 There are   242 symmetry adapted basis functions of A   symmetry.
   242 basis functions,   456 primitive gaussians,   242 cartesian basis functions
    58 alpha electrons       58 beta electrons
       nuclear repulsion energy      1114.5474228806 Hartrees.
 NAtoms=   30 NActive=   30 NUniq=   30 SFac= 1.00D+00 NAtFMM=   60 NAOKFM=F Big=F
 Integral buffers will be    131072 words long.
 Raffenetti 2 integral format.
 Two-electron integral symmetry is turned on.
 One-electron integrals computed using PRISM.
 NBasis=   242 RedAO= T EigKep=  1.35D-03  NBF=   242
 NBsUse=   242 1.00D-06 EigRej= -1.00D+00 NBFU=   242
 ExpMin= 1.61D-01 ExpMax= 5.48D+03 ExpMxC= 8.25D+02 IAcc=1 IRadAn=         1 AccDes= 0.00D+00
 Harris functional with IExCor=  402 and IRadAn=       1 diagonalized for initial guess.
 HarFok:  IExCor=  402 AccDes= 0.00D+00 IRadAn=         1 IDoV= 1 UseB2=F ITyADJ=14
 ICtDFT=  3500011 ScaDFX=  1.000000  1.000000  1.000000  1.000000
 FoFCou: FMM=F IPFlag=           0 FMFlag=      100000 FMFlg1=           0
         NFxFlg=           0 DoJE=T BraDBF=F KetDBF=T FulRan=T
         wScrn=  0.000000 ICntrl=     500 IOpCl=  0 I1Cent=   200000004 NGrid=           0
         NMat0=    1 NMatS0=      1 NMatT0=    0 NMatD0=    1 NMtDS0=    0 NMtDT0=    0
 Petite list used in FoFCou.
 Requested convergence on RMS density matrix=1.00D-08 within 128 cycles.
 Requested convergence on MAX density matrix=1.00D-06.
 Requested convergence on             energy=1.00D-06.
 No special actions if energy rises.
 Integral accuracy reduced to 1.0D-05 until final iterations.
 Initial convergence to 1.0D-05 achieved.  Increase integral accuracy.
 SCF Done:  E(RB3LYP) =  -839.947578219     A.U. after   14 cycles
            NFock= 14  Conv=0.41D-08     -V/T= 2.0084

 **********************************************************************

            Population analysis using the SCF density.

 **********************************************************************

 Orbital symmetries:
       Occupied  (A) (A) (A) (A) (A) (A) (A) (A) (A) (A) (A) (A)
                 (A) (A) (A) (A) (A) (A) (A) (A) (A) (A) (A) (A)
                 (A) (A) (A) (A) (A) (A) (A) (A) (A) (A) (A) (A)
                 (A) (A) (A) (A) (A) (A) (A) (A) (A) (A) (A) (A)
                 (A) (A) (A) (A) (A) (A) (A) (A) (A) (A)
       Virtual   (A) (A) (A) (A) (A) (A) (A) (A) (A) (A) (A) (A)
                 (A) (A) (A) (A) (A) (A) (A) (A) (A) (A) (A) (A)
                 (A) (A) (A) (A) (A) (A) (A) (A) (A) (A) (A) (A)
                 (A) (A) (A) (A) (A) (A) (A) (A) (A) (A) (A) (A)
                 (A) (A) (A) (A) (A) (A) (A) (A) (A) (A) (A) (A)
                 (A) (A) (A) (A) (A) (A) (A) (A) (A) (A) (A) (A)
                 (A) (A) (A) (A) (A) (A) (A) (A) (A) (A) (A) (A)
                 (A) (A) (A) (A) (A) (A) (A) (A) (A) (A) (A) (A)
                 (A) (A) (A) (A) (A) (A) (A) (A) (A) (A) (A) (A)
                 (A) (A) (A) (A) (A) (A) (A) (A) (A) (A) (A) (A)
                 (A) (A) (A) (A) (A) (A) (A) (A) (A) (A) (A) (A)
                 (A) (A) (A) (A) (A) (A) (A) (A) (A) (A) (A) (A)
                 (A) (A) (A) (A) (A) (A) (A) (A) (A) (A) (A) (A)
                 (A) (A) (A) (A) (A) (A) (A) (A) (A) (A) (A) (A)
                 (A) (A) (A) (A) (A) (A) (A) (A) (A) (A) (A) (A)
                 (A) (A) (A) (A)
 The electronic state is 1-A.
 Alpha  occ. eigenvalues --  -19.17975 -19.17438 -19.16434 -19.15508 -19.14590
 Alpha  occ. eigenvalues --  -19.13320 -19.12545 -19.11881 -10.29250 -10.26347
 Alpha  occ. eigenvalues --  -10.25468 -10.25257 -10.24555 -10.24485  -1.07122
 Alpha  occ. eigenvalues --   -1.04530  -1.04111  -1.02644  -1.00878  -0.99936
 Alpha  occ. eigenvalues --   -0.99453  -0.97732  -0.79419  -0.77421  -0.70507
 Alpha  occ. eigenvalues --   -0.64882  -0.63599  -0.58362  -0.57371  -0.55764
 Alpha  occ. eigenvalues --   -0.54681  -0.53359  -0.51914  -0.50213  -0.49377
 Alpha  occ. eigenvalues --   -0.47946  -0.47501  -0.46061  -0.44742  -0.43474
 Alpha  occ. eigenvalues --   -0.43015  -0.40833  -0.38537  -0.37087  -0.36710
 Alpha  occ. eigenvalues --   -0.35912  -0.35357  -0.34168  -0.32310  -0.32162
 Alpha  occ. eigenvalues --   -0.30919  -0.30058  -0.29381  -0.28210  -0.28110
 Alpha  occ. eigenvalues --   -0.27423  -0.26990  -0.26717
 Alpha virt. eigenvalues --    0.02793   0.05413   0.05767   0.07335   0.08343
 Alpha virt. eigenvalues --    0.09684   0.10963   0.11441   0.11800   0.14006
 Alpha virt. eigenvalues --    0.14567   0.15151   0.16267   0.17302   0.17731
 Alpha virt. eigenvalues --    0.18642   0.19966   0.21339   0.22910   0.23661
 Alpha virt. eigenvalues --    0.25118   0.27031   0.27545   0.28203   0.31037
 Alpha virt. eigenvalues --    0.32194   0.32560   0.34181   0.49406   0.51119
 Alpha virt. eigenvalues --    0.54226   0.55669   0.56688   0.57810   0.60377
 Alpha virt. eigenvalues --    0.61806   0.63737   0.64268   0.64769   0.67385
 Alpha virt. eigenvalues --    0.67998   0.69579   0.71806   0.74246   0.75507
 Alpha virt. eigenvalues --    0.76925   0.77376   0.78812   0.79853   0.80867
 Alpha virt. eigenvalues --    0.81588   0.82480   0.83358   0.84223   0.85231
 Alpha virt. eigenvalues --    0.86157   0.87183   0.87641   0.88182   0.89046
 Alpha virt. eigenvalues --    0.89482   0.91451   0.92535   0.93662   0.95601
 Alpha virt. eigenvalues --    0.96192   0.97307   0.99092   1.00767   1.03260
 Alpha virt. eigenvalues --    1.03693   1.05795   1.06675   1.07566   1.07895
 Alpha virt. eigenvalues --    1.09481   1.11658   1.11853   1.14676   1.16792
 Alpha virt. eigenvalues --    1.18153   1.19151   1.21948   1.23658   1.25111
 Alpha virt. eigenvalues --    1.27004   1.29820   1.32798   1.35372   1.36148
 Alpha virt. eigenvalues --    1.37494   1.38617   1.45537   1.46535   1.50830
 Alpha virt. eigenvalues --    1.53694   1.55239   1.56499   1.57621   1.62070
 Alpha virt. eigenvalues --    1.62379   1.64893   1.66693   1.67805   1.69594
 Alpha virt. eigenvalues --    1.70747   1.73270   1.73860   1.74716   1.76011
 Alpha virt. eigenvalues --    1.76473   1.78366   1.78652   1.79588   1.80015
 Alpha virt. eigenvalues --    1.82256   1.83027   1.84419   1.85902   1.86693
 Alpha virt. eigenvalues --    1.87145   1.90577   1.91827   1.92965   1.93507
 Alpha virt. eigenvalues --    1.97083   2.00127   2.00676   2.02209   2.04493
 Alpha virt. eigenvalues --    2.06497   2.08680   2.09472   2.11950   2.14578
 Alpha virt. eigenvalues --    2.20450   2.21980   2.23992   2.25854   2.29599
 Alpha virt. eigenvalues --    2.31303   2.34671   2.37066   2.38279   2.40021
 Alpha virt. eigenvalues --    2.40224   2.41199   2.43020   2.44966   2.46403
 Alpha virt. eigenvalues --    2.49628   2.50978   2.52597   2.54605   2.56909
 Alpha virt. eigenvalues --    2.59838   2.62989   2.64650   2.65653   2.70190
 Alpha virt. eigenvalues --    2.71742   2.73938   2.78526   2.85988   2.90536
 Alpha virt. eigenvalues --    2.90957   2.96823   2.99352   3.03376   3.07992
 Alpha virt. eigenvalues --    3.71054   3.75451   3.78455   3.86432   3.88793
 Alpha virt. eigenvalues --    3.93726   4.05433   4.16528   4.29386   4.35178
 Alpha virt. eigenvalues --    4.40936   4.53763   4.64886   4.77112
          Condensed to atoms (all electrons):
               1          2          3          4          5          6
     1  H    0.592285   0.352139  -0.002198   0.003887   0.000345  -0.033771
     2  C    0.352139   5.058129  -0.034320  -0.009225  -0.008025   0.174165
     3  C   -0.002198  -0.034320   5.021599  -0.028301   0.306943  -0.001039
     4  C    0.003887  -0.009225  -0.028301   4.674944   0.263711   0.161024
     5  C    0.000345  -0.008025   0.306943   0.263711   5.060916  -0.044802
     6  O   -0.033771   0.174165  -0.001039   0.161024  -0.044802   8.412963
     7  C   -0.046364   0.247751   0.279720  -0.014239  -0.016386  -0.034351
     8  H    0.000024   0.000204  -0.045927  -0.043588   0.346886   0.003257
     9  H    0.005703  -0.060673  -0.047437   0.000697  -0.004487   0.002607
    10  C   -0.044844   0.322273   0.002475  -0.002981  -0.002043  -0.034073
    11  H   -0.006984  -0.030773  -0.000073  -0.000153   0.000101   0.003139
    12  H    0.006212  -0.037256  -0.000269   0.002021   0.000082   0.000577
    13  H    0.001058  -0.000323   0.332654  -0.001299  -0.044965   0.000896
    14  O    0.004729  -0.044043   0.000257   0.000017   0.000012   0.000922
    15  H   -0.000212   0.005514  -0.000002  -0.000006  -0.000001  -0.000081
    16  O    0.000001   0.000085  -0.029180  -0.040285   0.231996   0.000647
    17  H    0.000000  -0.000081  -0.010803   0.006002  -0.027828  -0.000067
    18  O   -0.000070   0.003781   0.208259   0.001943  -0.037267   0.000100
    19  H   -0.000005   0.000655  -0.028401  -0.000200   0.006395  -0.000009
    20  O    0.003728  -0.032753  -0.031542   0.000102   0.001865   0.001462
    21  H    0.002431  -0.004027   0.005597   0.000010  -0.000193  -0.000009
    22  H   -0.000395  -0.001343   0.005094   0.389665  -0.070355  -0.053305
    23  O   -0.000076   0.002671  -0.002171   0.328825  -0.030126  -0.053898
    24  H   -0.000023  -0.000340   0.000690  -0.024583  -0.015084   0.004693
    25  O    0.000011  -0.000024  -0.000570   0.002494  -0.000163  -0.000582
    26  H   -0.000179   0.000031   0.000113   0.002501  -0.000461   0.001647
    27  H   -0.000001  -0.000003  -0.000274  -0.000249   0.000007  -0.000001
    28  O    0.008016   0.004795  -0.002673   0.000790  -0.000207  -0.024598
    29  H   -0.003700  -0.005132   0.001062  -0.002162   0.000582   0.055275
    30  H    0.000300  -0.000237   0.000049  -0.000013  -0.000004   0.000811
               7          8          9         10         11         12
     1  H   -0.046364   0.000024   0.005703  -0.044844  -0.006984   0.006212
     2  C    0.247751   0.000204  -0.060673   0.322273  -0.030773  -0.037256
     3  C    0.279720  -0.045927  -0.047437   0.002475  -0.000073  -0.000269
     4  C   -0.014239  -0.043588   0.000697  -0.002981  -0.000153   0.002021
     5  C   -0.016386   0.346886  -0.004487  -0.002043   0.000101   0.000082
     6  O   -0.034351   0.003257   0.002607  -0.034073   0.003139   0.000577
     7  C    5.075254  -0.003165   0.363907  -0.045595   0.006323  -0.010440
     8  H   -0.003165   0.641591   0.006026   0.000121  -0.000007   0.000347
     9  H    0.363907   0.006026   0.627603  -0.001663   0.000500   0.002471
    10  C   -0.045595   0.000121  -0.001663   4.939476   0.362555   0.362188
    11  H    0.006323  -0.000007   0.000500   0.362555   0.611498  -0.052434
    12  H   -0.010440   0.000347   0.002471   0.362188  -0.052434   0.636381
    13  H   -0.042073   0.006902   0.006911   0.000153   0.000006   0.000001
    14  O    0.007784  -0.000006   0.002582   0.217085  -0.036379  -0.041123
    15  H   -0.000240   0.000000  -0.000136  -0.020275  -0.004890  -0.003576
    16  O    0.003950  -0.045240  -0.000052   0.000004  -0.000000   0.000001
    17  H    0.000843  -0.001111  -0.000019   0.000000   0.000000  -0.000000
    18  O   -0.032681  -0.000395   0.001068  -0.000044   0.000000  -0.000013
    19  H   -0.011664  -0.000167  -0.000207  -0.000017   0.000000  -0.000000
    20  O    0.196925  -0.000086  -0.045693   0.002118  -0.000145   0.000059
    21  H   -0.021710   0.000007  -0.003163  -0.001529   0.000026   0.000217
    22  H   -0.000413  -0.004427  -0.000063   0.003181  -0.000148   0.000676
    23  O    0.000195   0.002927   0.000003  -0.000048  -0.000006   0.000008
    24  H    0.000055   0.001005   0.000002   0.000019  -0.000001  -0.000000
    25  O    0.000018  -0.000009  -0.000000  -0.000000   0.000000  -0.000000
    26  H   -0.000011  -0.000007   0.000000   0.000002  -0.000000   0.000000
    27  H    0.000016   0.000016   0.000000  -0.000000   0.000000   0.000000
    28  O   -0.001383  -0.000000  -0.000005   0.000110  -0.000001  -0.000001
    29  H    0.001577  -0.000020  -0.000031   0.000301   0.000071  -0.000020
    30  H    0.000009   0.000000   0.000001   0.000010  -0.000000  -0.000000
              13         14         15         16         17         18
     1  H    0.001058   0.004729  -0.000212   0.000001   0.000000  -0.000070
     2  C   -0.000323  -0.044043   0.005514   0.000085  -0.000081   0.003781
     3  C    0.332654   0.000257  -0.000002  -0.029180  -0.010803   0.208259
     4  C   -0.001299   0.000017  -0.000006  -0.040285   0.006002   0.001943
     5  C   -0.044965   0.000012  -0.000001   0.231996  -0.027828  -0.037267
     6  O    0.000896   0.000922  -0.000081   0.000647  -0.000067   0.000100
     7  C   -0.042073   0.007784  -0.000240   0.003950   0.000843  -0.032681
     8  H    0.006902  -0.000006   0.000000  -0.045240  -0.001111  -0.000395
     9  H    0.006911   0.002582  -0.000136  -0.000052  -0.000019   0.001068
    10  C    0.000153   0.217085  -0.020275   0.000004   0.000000  -0.000044
    11  H    0.000006  -0.036379  -0.004890  -0.000000   0.000000   0.000000
    12  H    0.000001  -0.041123  -0.003576   0.000001  -0.000000  -0.000013
    13  H    0.624616  -0.000004   0.000000  -0.000055  -0.000109  -0.044096
    14  O   -0.000004   8.278486   0.237996  -0.000000   0.000000  -0.000000
    15  H    0.000000   0.237996   0.377904  -0.000000  -0.000000   0.000000
    16  O   -0.000055  -0.000000  -0.000000   8.278067   0.231801  -0.003952
    17  H   -0.000109   0.000000  -0.000000   0.231801   0.373651   0.018414
    18  O   -0.044096  -0.000000   0.000000  -0.003952   0.018414   8.320047
    19  H   -0.001156   0.000000  -0.000000   0.000006  -0.000584   0.235649
    20  O   -0.000122  -0.001316   0.000053  -0.000011  -0.000004  -0.003947
    21  H   -0.000161   0.008631  -0.000222   0.000001   0.000000   0.000044
    22  H   -0.000036  -0.000035   0.000005   0.002096  -0.000279  -0.000046
    23  O    0.000085   0.000000  -0.000000  -0.011058   0.000631  -0.000011
    24  H    0.001694  -0.000000   0.000000   0.018268  -0.000675  -0.000031
    25  O    0.002198   0.000000  -0.000000  -0.001337   0.000087   0.000002
    26  H    0.001361  -0.000000   0.000000  -0.000203  -0.000022   0.000002
    27  H    0.001750   0.000000  -0.000000   0.002256  -0.000034  -0.000008
    28  O    0.011497   0.000000  -0.000000   0.000001   0.000000   0.000006
    29  H   -0.002706  -0.000008   0.000001  -0.000009   0.000001  -0.000004
    30  H   -0.000044  -0.000000   0.000000   0.000000  -0.000000  -0.000000
              19         20         21         22         23         24
     1  H   -0.000005   0.003728   0.002431  -0.000395  -0.000076  -0.000023
     2  C    0.000655  -0.032753  -0.004027  -0.001343   0.002671  -0.000340
     3  C   -0.028401  -0.031542   0.005597   0.005094  -0.002171   0.000690
     4  C   -0.000200   0.000102   0.000010   0.389665   0.328825  -0.024583
     5  C    0.006395   0.001865  -0.000193  -0.070355  -0.030126  -0.015084
     6  O   -0.000009   0.001462  -0.000009  -0.053305  -0.053898   0.004693
     7  C   -0.011664   0.196925  -0.021710  -0.000413   0.000195   0.000055
     8  H   -0.000167  -0.000086   0.000007  -0.004427   0.002927   0.001005
     9  H   -0.000207  -0.045693  -0.003163  -0.000063   0.000003   0.000002
    10  C   -0.000017   0.002118  -0.001529   0.003181  -0.000048   0.000019
    11  H    0.000000  -0.000145   0.000026  -0.000148  -0.000006  -0.000001
    12  H   -0.000000   0.000059   0.000217   0.000676   0.000008  -0.000000
    13  H   -0.001156  -0.000122  -0.000161  -0.000036   0.000085   0.001694
    14  O    0.000000  -0.001316   0.008631  -0.000035   0.000000  -0.000000
    15  H   -0.000000   0.000053  -0.000222   0.000005  -0.000000   0.000000
    16  O    0.000006  -0.000011   0.000001   0.002096  -0.011058   0.018268
    17  H   -0.000584  -0.000004   0.000000  -0.000279   0.000631  -0.000675
    18  O    0.235649  -0.003947   0.000044  -0.000046  -0.000011  -0.000031
    19  H    0.366197   0.020034  -0.000725   0.000005   0.000001   0.000002
    20  O    0.020034   8.314477   0.232700   0.000006   0.000000   0.000000
    21  H   -0.000725   0.232700   0.372696  -0.000001  -0.000000   0.000000
    22  H    0.000005   0.000006  -0.000001   0.629432  -0.042879   0.005438
    23  O    0.000001   0.000000  -0.000000  -0.042879   8.279763   0.169012
    24  H    0.000002   0.000000   0.000000   0.005438   0.169012   0.337497
    25  O    0.000000  -0.000000   0.000000  -0.000060  -0.039186   0.084933
    26  H   -0.000001  -0.000001   0.000000   0.000127   0.010945  -0.006489
    27  H   -0.000001  -0.000000   0.000000   0.000007   0.001242  -0.002938
    28  O   -0.000000  -0.000015  -0.000005  -0.000037  -0.000534   0.000067
    29  H   -0.000001  -0.000013  -0.000017   0.000450   0.001316   0.000356
    30  H   -0.000000   0.000025  -0.000002   0.000002   0.000002  -0.000006
              25         26         27         28         29         30
     1  H    0.000011  -0.000179  -0.000001   0.008016  -0.003700   0.000300
     2  C   -0.000024   0.000031  -0.000003   0.004795  -0.005132  -0.000237
     3  C   -0.000570   0.000113  -0.000274  -0.002673   0.001062   0.000049
     4  C    0.002494   0.002501  -0.000249   0.000790  -0.002162  -0.000013
     5  C   -0.000163  -0.000461   0.000007  -0.000207   0.000582  -0.000004
     6  O   -0.000582   0.001647  -0.000001  -0.024598   0.055275   0.000811
     7  C    0.000018  -0.000011   0.000016  -0.001383   0.001577   0.000009
     8  H   -0.000009  -0.000007   0.000016  -0.000000  -0.000020   0.000000
     9  H   -0.000000   0.000000   0.000000  -0.000005  -0.000031   0.000001
    10  C   -0.000000   0.000002  -0.000000   0.000110   0.000301   0.000010
    11  H    0.000000  -0.000000   0.000000  -0.000001   0.000071  -0.000000
    12  H   -0.000000   0.000000   0.000000  -0.000001  -0.000020  -0.000000
    13  H    0.002198   0.001361   0.001750   0.011497  -0.002706  -0.000044
    14  O    0.000000  -0.000000   0.000000   0.000000  -0.000008  -0.000000
    15  H   -0.000000   0.000000  -0.000000  -0.000000   0.000001   0.000000
    16  O   -0.001337  -0.000203   0.002256   0.000001  -0.000009   0.000000
    17  H    0.000087  -0.000022  -0.000034   0.000000   0.000001  -0.000000
    18  O    0.000002   0.000002  -0.000008   0.000006  -0.000004  -0.000000
    19  H    0.000000  -0.000001  -0.000001  -0.000000  -0.000001  -0.000000
    20  O   -0.000000  -0.000001  -0.000000  -0.000015  -0.000013   0.000025
    21  H    0.000000   0.000000   0.000000  -0.000005  -0.000017  -0.000002
    22  H   -0.000060   0.000127   0.000007  -0.000037   0.000450   0.000002
    23  O   -0.039186   0.010945   0.001242  -0.000534   0.001316   0.000002
    24  H    0.084933  -0.006489  -0.002938   0.000067   0.000356  -0.000006
    25  O    8.332356   0.205239   0.245494  -0.027404   0.002625   0.001323
    26  H    0.205239   0.313549  -0.016000   0.062778  -0.002579  -0.002537
    27  H    0.245494  -0.016000   0.374675   0.001344  -0.000137  -0.000041
    28  O   -0.027404   0.062778   0.001344   8.387720   0.192052   0.253478
    29  H    0.002625  -0.002579  -0.000137   0.192052   0.297830  -0.006332
    30  H    0.001323  -0.002537  -0.000041   0.253478  -0.006332   0.328225
 Mulliken charges:
               1
     1  H    0.157952
     2  C    0.096385
     3  C    0.100666
     4  C    0.328650
     5  C    0.082556
     6  O   -0.543599
     7  C    0.096386
     8  H    0.134841
     9  H    0.143547
    10  C   -0.058959
    11  H    0.147777
    12  H    0.133893
    13  H    0.145367
    14  O   -0.635589
    15  H    0.408169
    16  O   -0.637798
    17  H    0.410183
    18  O   -0.666751
    19  H    0.414192
    20  O   -0.657906
    21  H    0.409404
    22  H    0.137639
    23  O   -0.617633
    24  H    0.426440
    25  O   -0.807445
    26  H    0.430194
    27  H    0.392879
    28  O   -0.865793
    29  H    0.469373
    30  H    0.424981
 Sum of Mulliken charges =  -0.00000
 Mulliken charges with hydrogens summed into heavy atoms:
               1
     2  C    0.254337
     3  C    0.246032
     4  C    0.466289
     5  C    0.217398
     6  O   -0.543599
     7  C    0.239933
    10  C    0.222710
    14  O   -0.227420
    16  O   -0.227615
    18  O   -0.252559
    20  O   -0.248502
    23  O   -0.191193
    25  O    0.015628
    28  O    0.028561
 Electronic spatial extent (au):  <R**2>=           3047.5672
 Charge=             -0.0000 electrons
 Dipole moment (field-independent basis, Debye):
    X=             -6.5592    Y=              0.5664    Z=              1.2513  Tot=              6.7014
 Quadrupole moment (field-independent basis, Debye-Ang):
   XX=            -84.7441   YY=            -84.6061   ZZ=            -76.3991
   XY=             12.0490   XZ=             11.9257   YZ=             -1.8568
 Traceless Quadrupole moment (field-independent basis, Debye-Ang):
   XX=             -2.8277   YY=             -2.6897   ZZ=              5.5173
   XY=             12.0490   XZ=             11.9257   YZ=             -1.8568
 Octapole moment (field-independent basis, Debye-Ang**2):
  XXX=            -77.0936  YYY=             -5.4434  ZZZ=             31.5434  XYY=            -11.2009
  XXY=             15.4641  XXZ=              0.4078  XZZ=            -13.6148  YZZ=            -13.1815
  YYZ=             17.6169  XYZ=             -5.4764
 Hexadecapole moment (field-independent basis, Debye-Ang**3):
 XXXX=          -1722.6786 YYYY=           -943.3491 ZZZZ=           -604.5954 XXXY=            153.1469
 XXXZ=            141.1312 YYYX=             28.4185 YYYZ=            -16.4389 ZZZX=             49.1977
 ZZZY=            -58.1174 XXYY=           -475.7799 XXZZ=           -387.9169 YYZZ=           -225.7311
 XXYZ=             53.4912 YYXZ=              3.7392 ZZXY=             10.5174
 N-N= 1.114547422881D+03 E-N=-4.201519471824D+03  KE= 8.329436507213D+02
 Calling FoFJK, ICntrl=      2127 FMM=F ISym2X=0 I1Cent= 0 IOpClX= 0 NMat=1 NMatS=1 NMatT=0.
 ***** Axes restored to original set *****
 -------------------------------------------------------------------
 Center     Atomic                   Forces (Hartrees/Bohr)
 Number     Number              X              Y              Z
 -------------------------------------------------------------------
      1        1          -0.004416343    0.000738358    0.000197710
      2        6          -0.002739988   -0.007190985    0.006219694
      3        6           0.006265841    0.017438556    0.000475853
      4        6          -0.029120326   -0.019607812   -0.007113846
      5        6          -0.013083549    0.022213513    0.003880074
      6        8           0.017599155    0.006770176   -0.001478317
      7        6           0.005557762    0.008065016   -0.002506188
      8        1           0.010025876   -0.000360828    0.000510549
      9        1          -0.004486245   -0.006084992    0.004303462
     10        6           0.004643585   -0.009550171    0.003783378
     11        1          -0.004898828   -0.003018439   -0.003035016
     12        1          -0.007414098   -0.001212460    0.001958338
     13        1           0.003708045   -0.010976093   -0.002208708
     14        8           0.001344174    0.004709074   -0.002758967
     15        1          -0.002148574    0.005111619   -0.003653659
     16        8           0.005817240    0.001461815   -0.003731612
     17        1           0.001507334   -0.005278612   -0.000452596
     18        8           0.005502609   -0.003620333    0.001193829
     19        1          -0.005495740   -0.002627867    0.003071813
     20        8           0.000875511   -0.003522466   -0.002910200
     21        1          -0.005648134    0.003497965    0.000944974
     22        1          -0.000665820   -0.001218613   -0.002061487
     23        8           0.042667294   -0.010083792    0.033970879
     24        1          -0.024328040    0.008782547   -0.016416559
     25        8          -0.025049369   -0.013336017    0.006401327
     26        1           0.013658482    0.012448346   -0.021834608
     27        1           0.005140168    0.008389421   -0.000345876
     28        8          -0.045430329    0.022020132   -0.008927349
     29        1           0.031487103   -0.010004200   -0.000430131
     30        1           0.019125204   -0.013952859    0.012953242
 -------------------------------------------------------------------
 Cartesian Forces:  Max     0.045430329 RMS     0.012460789

 GradGradGradGradGradGradGradGradGradGradGradGradGradGradGradGradGradGrad
 Berny optimization.
 FormGI is forming the generalized inverse of G from B-inverse, IUseBI=4.
 Internal  Forces:  Max     0.035505000 RMS     0.006362386
 Search for a local minimum.
 Step number   1 out of a maximum of  180
 All quantities printed in internal units (Hartrees-Bohrs-Radians)
 Mixed Optimization -- RFO/linear search
 Second derivative matrix not updated -- first step.
 ITU=  0
     Eigenvalues ---    0.00349   0.00430   0.00887   0.01004   0.01157
     Eigenvalues ---    0.01167   0.01211   0.01213   0.01348   0.01428
     Eigenvalues ---    0.01531   0.01608   0.01921   0.02573   0.03289
     Eigenvalues ---    0.03711   0.04595   0.04733   0.04863   0.05063
     Eigenvalues ---    0.05079   0.05532   0.05647   0.05678   0.05983
     Eigenvalues ---    0.06189   0.06647   0.07014   0.07206   0.07374
     Eigenvalues ---    0.07419   0.08010   0.08115   0.10029   0.10208
     Eigenvalues ---    0.10464   0.11467   0.11561   0.13060   0.13781
     Eigenvalues ---    0.14903   0.16000   0.16000   0.16000   0.16000
     Eigenvalues ---    0.16001   0.16197   0.17305   0.17528   0.17752
     Eigenvalues ---    0.18164   0.19120   0.20440   0.21988   0.26216
     Eigenvalues ---    0.27281   0.28639   0.28780   0.29283   0.33983
     Eigenvalues ---    0.33991   0.33995   0.34012   0.34128   0.34221
     Eigenvalues ---    0.34341   0.34654   0.35575   0.39530   0.39626
     Eigenvalues ---    0.40087   0.41573   0.42216   0.48639   0.51481
     Eigenvalues ---    0.51568   0.51802   0.52393   0.52466   0.55473
     Eigenvalues ---    0.55473   0.556051000.000001000.000001000.00000
     Eigenvalues --- 1000.000001000.000001000.000001000.000001000.00000
     Eigenvalues --- 1000.000001000.000001000.000001000.000001000.00000
     Eigenvalues --- 1000.000001000.000001000.000001000.000001000.00000
     Eigenvalues --- 1000.000001000.000001000.000001000.000001000.00000
     Eigenvalues --- 1000.000001000.000001000.000001000.000001000.00000
     Eigenvalues --- 1000.000001000.000001000.000001000.000001000.00000
     Eigenvalues --- 1000.000001000.000001000.000001000.000001000.00000
     Eigenvalues --- 1000.000001000.000001000.000001000.000001000.00000
     Eigenvalues --- 1000.000001000.000001000.000001000.000001000.00000
     Eigenvalues --- 1000.000001000.000001000.000001000.000001000.00000
     Eigenvalues --- 1000.000001000.000001000.000001000.000001000.00000
     Eigenvalues --- 1000.000001000.000001000.000001000.000001000.00000
     Eigenvalues --- 1000.000001000.000001000.000001000.000001000.00000
     Eigenvalues --- 1000.000001000.000001000.000001000.000001000.00000
     Eigenvalues --- 1000.000001000.000001000.000001000.000001000.00000
     Eigenvalues --- 1000.000001000.000001000.000001000.000001000.00000
     Eigenvalues --- 1000.000001000.000001000.000001000.00000
 RFO step:  Lambda=-2.98964470D-02 EMin= 3.48864631D-03
 Linear search not attempted -- first point.
 Maximum step size (   0.300) exceeded in Quadratic search.
    -- Step size scaled by   0.884
 Iteration  1 RMS(Cart)=  0.05739333 RMS(Int)=  0.00251455
 Iteration  2 RMS(Cart)=  0.00269011 RMS(Int)=  0.00132566
 Iteration  3 RMS(Cart)=  0.00002349 RMS(Int)=  0.00132555
 Iteration  4 RMS(Cart)=  0.00000048 RMS(Int)=  0.00132555
 Iteration  1 RMS(Cart)=  0.00001055 RMS(Int)=  0.00001052
 Iteration  2 RMS(Cart)=  0.00000794 RMS(Int)=  0.00001139
 Iteration  3 RMS(Cart)=  0.00000599 RMS(Int)=  0.00001305
 Iteration  4 RMS(Cart)=  0.00000452 RMS(Int)=  0.00001476
 Iteration  5 RMS(Cart)=  0.00000342 RMS(Int)=  0.00001625
 Iteration  6 RMS(Cart)=  0.00000260 RMS(Int)=  0.00001750
 Iteration  7 RMS(Cart)=  0.00000198 RMS(Int)=  0.00001852
 Iteration  8 RMS(Cart)=  0.00000151 RMS(Int)=  0.00001934
 Iteration  9 RMS(Cart)=  0.00000115 RMS(Int)=  0.00001999
 Iteration 10 RMS(Cart)=  0.00000089 RMS(Int)=  0.00002052
 Variable       Old X    -DE/DX   Delta X   Delta X   Delta X     New X
                                 (Linear)    (Quad)   (Total)
    R1        2.07338  -0.00228   0.00000  -0.00545  -0.00545   2.06793
    R2        2.75852  -0.01048   0.00000  -0.02642  -0.02625   2.73228
    R3        2.90465   0.00292   0.00000   0.00717   0.00706   2.91172
    R4        2.89417  -0.00580   0.00000  -0.01589  -0.01589   2.87829
    R5        2.87917  -0.00349   0.00000  -0.00687  -0.00705   2.87212
    R6        2.88409  -0.00892   0.00000  -0.02073  -0.02097   2.86312
    R7        2.07358   0.00083   0.00000   0.00199   0.00199   2.07557
    R8        2.72198  -0.00408   0.00000  -0.00848  -0.00848   2.71350
    R9        2.90465   0.01387   0.00000   0.03955   0.03965   2.94430
   R10        2.73622   0.00744   0.00000   0.01410   0.01409   2.75031
   R11        2.07115  -0.00109   0.00000  -0.00260  -0.00260   2.06855
   R12        2.66455  -0.01915   0.00000  -0.03687  -0.03839   2.62616
   R13        2.07310   0.00205   0.00000   0.00489   0.00489   2.07799
   R14        2.72065  -0.00726   0.00000  -0.01507  -0.01507   2.70558
   R15        3.34482   0.00243   0.00000   0.02855   0.02891   3.37373
   R16        2.07345   0.00189   0.00000   0.00453   0.00453   2.07797
   R17        2.71435  -0.00124   0.00000  -0.00253  -0.00253   2.71182
   R18        2.06960   0.00269   0.00000   0.00639   0.00639   2.07599
   R19        2.06758   0.00495   0.00000   0.01172   0.01172   2.07930
   R20        2.69470   0.00389   0.00000   0.00772   0.00772   2.70242
   R21        1.84156  -0.00618   0.00000  -0.00985  -0.00985   1.83171
   R22        1.85016  -0.00542   0.00000  -0.00878  -0.00878   1.84137
   R23        1.85100  -0.00656   0.00000  -0.01065  -0.01065   1.84035
   R24        1.84790  -0.00605   0.00000  -0.00976  -0.00976   1.83813
   R25        1.81042   0.03551   0.00000   0.05210   0.05234   1.86276
   R26        3.28754   0.00314   0.00000   0.03943   0.03705   3.32460
   R27        3.32361   0.00756   0.00000   0.06009   0.06198   3.38559
   R28        1.81414   0.01888   0.00000   0.03198   0.03287   1.84700
   R29        1.81414   0.00619   0.00000   0.00936   0.00936   1.82349
   R30        3.36371   0.00269   0.00000   0.02757   0.02845   3.39216
   R31        1.81414   0.01457   0.00000   0.02321   0.02320   1.83734
   R32        1.81414  -0.00546   0.00000  -0.00825  -0.00825   1.80588
    A1        1.83753  -0.00135   0.00000  -0.01413  -0.01413   1.82340
    A2        1.89644  -0.00246   0.00000  -0.01556  -0.01556   1.88089
    A3        1.87248   0.00227   0.00000   0.01063   0.01069   1.88317
    A4        1.96029   0.00510   0.00000   0.01759   0.01793   1.97822
    A5        1.93919  -0.00382   0.00000  -0.00887  -0.00915   1.93004
    A6        1.95164   0.00007   0.00000   0.00838   0.00820   1.95984
    A7        1.93508  -0.00057   0.00000  -0.00463  -0.00503   1.93005
    A8        1.93298   0.00001   0.00000  -0.01343  -0.01341   1.91957
    A9        1.90152  -0.00510   0.00000  -0.02740  -0.02717   1.87435
   A10        1.93565  -0.00238   0.00000  -0.01584  -0.01617   1.91948
   A11        1.91654   0.00325   0.00000   0.01031   0.01008   1.92662
   A12        1.83947   0.00502   0.00000   0.05348   0.05347   1.89294
   A13        1.96365  -0.00690   0.00000  -0.02313  -0.02298   1.94067
   A14        1.92744   0.00132   0.00000   0.00372   0.00349   1.93094
   A15        1.92830   0.00852   0.00000   0.05421   0.05341   1.98170
   A16        1.88712   0.00125   0.00000  -0.00917  -0.00938   1.87775
   A17        1.87011   0.00038   0.00000   0.00048   0.00073   1.87084
   A18        1.88444  -0.00471   0.00000  -0.02790  -0.02765   1.85679
   A19        1.94262   0.00390   0.00000   0.01059   0.01071   1.95332
   A20        1.92250  -0.00462   0.00000  -0.02852  -0.02858   1.89392
   A21        1.89781   0.00061   0.00000   0.00027   0.00022   1.89803
   A22        1.92728  -0.00114   0.00000  -0.00931  -0.00931   1.91797
   A23        1.93467  -0.00394   0.00000  -0.01713  -0.01721   1.91746
   A24        1.83594   0.00517   0.00000   0.04545   0.04559   1.88153
   A25        2.08526  -0.00069   0.00000  -0.00501  -0.00554   2.07971
   A26        1.71418   0.00553   0.00000   0.03836   0.03848   1.75266
   A27        2.20617  -0.00433   0.00000  -0.02705  -0.02669   2.17948
   A28        1.94196  -0.00052   0.00000  -0.00908  -0.00911   1.93286
   A29        1.94056  -0.00128   0.00000  -0.00847  -0.00897   1.93159
   A30        1.94721   0.00306   0.00000   0.01570   0.01551   1.96271
   A31        1.89703  -0.00038   0.00000  -0.01366  -0.01373   1.88330
   A32        1.89429  -0.00412   0.00000  -0.02060  -0.02045   1.87383
   A33        1.83908   0.00329   0.00000   0.03738   0.03729   1.87637
   A34        1.92442   0.00039   0.00000  -0.01011  -0.00953   1.91490
   A35        1.94678  -0.00011   0.00000  -0.01517  -0.01483   1.93195
   A36        1.91666  -0.02000   0.00000  -0.07190  -0.07197   1.84469
   A37        1.88080  -0.00048   0.00000   0.00691   0.00573   1.88653
   A38        1.90224   0.01072   0.00000   0.05033   0.04929   1.95153
   A39        1.89190   0.01037   0.00000   0.04413   0.04272   1.93463
   A40        1.85935   0.00439   0.00000   0.02045   0.02045   1.87980
   A41        1.82581  -0.00176   0.00000  -0.00820  -0.00820   1.81761
   A42        1.82368   0.00318   0.00000   0.01482   0.01482   1.83850
   A43        1.84860   0.00177   0.00000   0.00824   0.00824   1.85685
   A44        1.83251   0.01222   0.00000   0.06163   0.06056   1.89308
   A45        2.60610   0.00559   0.00000   0.02753   0.02576   2.63187
   A46        2.30205   0.00008   0.00000  -0.01005  -0.00988   2.29218
   A47        1.89641  -0.00081   0.00000  -0.00275  -0.00288   1.89353
   A48        1.91114  -0.00617   0.00000  -0.04216  -0.04302   1.86812
   A49        2.22954  -0.01300   0.00000  -0.06076  -0.06115   2.16839
   A50        2.77506   0.01689   0.00000   0.06165   0.05694   2.83201
   A51        1.47228   0.01171   0.00000   0.05143   0.05207   1.52435
   A52        2.42706   0.01566   0.00000   0.06880   0.06224   2.48930
   A53        2.35390  -0.02963   0.00000  -0.15007  -0.15006   2.20384
   A54        2.72836  -0.00272   0.00000  -0.01554  -0.01827   2.71009
    D1       -2.84588   0.00102   0.00000   0.00643   0.00634  -2.83954
    D2       -0.39561  -0.00009   0.00000   0.00294   0.00313  -0.39248
    D3       -0.78504  -0.00007   0.00000  -0.01163  -0.01173  -0.79677
    D4        1.66522  -0.00118   0.00000  -0.01512  -0.01494   1.65028
    D5        1.41575   0.00097   0.00000   0.00618   0.00599   1.42174
    D6       -2.41717  -0.00013   0.00000   0.00269   0.00278  -2.41440
    D7        1.90192  -0.00161   0.00000  -0.01685  -0.01685   1.88507
    D8       -2.26400  -0.00334   0.00000  -0.04641  -0.04630  -2.31030
    D9       -0.21646   0.00191   0.00000   0.00496   0.00502  -0.21143
   D10       -0.12373  -0.00136   0.00000   0.00000   0.00001  -0.12372
   D11        1.99354  -0.00310   0.00000  -0.02956  -0.02945   1.96409
   D12       -2.24211   0.00215   0.00000   0.02181   0.02188  -2.22023
   D13       -2.31776  -0.00033   0.00000  -0.00864  -0.00876  -2.32651
   D14       -0.20049  -0.00207   0.00000  -0.03820  -0.03821  -0.23870
   D15        1.84705   0.00318   0.00000   0.01318   0.01311   1.86017
   D16       -1.08854   0.00010   0.00000   0.00319   0.00300  -1.08554
   D17        3.10564   0.00051   0.00000   0.01110   0.01147   3.11711
   D18        1.00786   0.00091   0.00000   0.01345   0.01341   1.02127
   D19        0.91133  -0.00221   0.00000  -0.01222  -0.01256   0.89877
   D20       -1.17768  -0.00179   0.00000  -0.00431  -0.00409  -1.18177
   D21        3.00772  -0.00140   0.00000  -0.00196  -0.00215   3.00558
   D22        3.11690   0.00163   0.00000   0.01067   0.01049   3.12739
   D23        1.02790   0.00205   0.00000   0.01857   0.01896   1.04685
   D24       -1.06989   0.00244   0.00000   0.02093   0.02090  -1.04898
   D25       -0.96995   0.00067   0.00000  -0.00858  -0.00873  -0.97868
   D26        1.17378  -0.00135   0.00000  -0.03315  -0.03307   1.14071
   D27       -3.10602   0.00267   0.00000   0.00585   0.00580  -3.10022
   D28        1.18660  -0.00278   0.00000  -0.04170  -0.04188   1.14472
   D29       -2.95285  -0.00480   0.00000  -0.06627  -0.06622  -3.01907
   D30       -0.94947  -0.00078   0.00000  -0.02727  -0.02736  -0.97683
   D31       -3.08105   0.00031   0.00000  -0.00064  -0.00081  -3.08186
   D32       -0.93732  -0.00171   0.00000  -0.02521  -0.02515  -0.96246
   D33        1.06607   0.00230   0.00000   0.01378   0.01372   1.07979
   D34        0.96958   0.00062   0.00000   0.00518   0.00520   0.97479
   D35       -1.17292   0.00283   0.00000   0.03105   0.03114  -1.14178
   D36        3.11858   0.00131   0.00000   0.00490   0.00502   3.12360
   D37       -1.18544   0.00270   0.00000   0.03697   0.03677  -1.14867
   D38        2.95524   0.00491   0.00000   0.06283   0.06271   3.01795
   D39        0.96355   0.00339   0.00000   0.03668   0.03659   1.00015
   D40        3.07178  -0.00398   0.00000  -0.02524  -0.02531   3.04647
   D41        0.92927  -0.00177   0.00000   0.00062   0.00063   0.92990
   D42       -1.06242  -0.00329   0.00000  -0.02553  -0.02549  -1.08790
   D43        2.95943  -0.00028   0.00000   0.00341   0.00350   2.96294
   D44        0.83703   0.00162   0.00000   0.02006   0.02057   0.85760
   D45       -1.24878  -0.00011   0.00000   0.00296   0.00236  -1.24641
   D46        0.12114  -0.00094   0.00000   0.00000  -0.00001   0.12113
   D47       -2.01985   0.00307   0.00000   0.03564   0.03550  -1.98435
   D48        2.23580  -0.00022   0.00000  -0.00420  -0.00434   2.23145
   D49        2.23147  -0.00312   0.00000  -0.02488  -0.02484   2.20664
   D50        0.09048   0.00089   0.00000   0.01076   0.01067   0.10116
   D51       -1.93706  -0.00239   0.00000  -0.02908  -0.02917  -1.96623
   D52       -1.96809  -0.00270   0.00000  -0.02261  -0.02225  -1.99034
   D53        2.17411   0.00131   0.00000   0.01302   0.01326   2.18737
   D54        0.14656  -0.00197   0.00000  -0.02681  -0.02658   0.11998
   D55        0.78643  -0.00126   0.00000   0.00226   0.00212   0.78855
   D56       -1.45404  -0.00461   0.00000  -0.02461  -0.02442  -1.47846
   D57       -1.34686   0.00067   0.00000   0.01894   0.01847  -1.32839
   D58        2.69586  -0.00268   0.00000  -0.00793  -0.00807   2.68779
   D59        2.90911   0.00535   0.00000   0.05586   0.05480   2.96390
   D60        0.66864   0.00199   0.00000   0.02899   0.02826   0.69690
   D61        0.82964  -0.00432   0.00000  -0.02390  -0.02316   0.80648
   D62       -1.31511  -0.00126   0.00000  -0.02880  -0.02865  -1.34376
   D63        2.93908  -0.00054   0.00000  -0.00430  -0.00461   2.93447
   D64       -0.81132   0.00157   0.00000   0.00113   0.00111  -0.81021
   D65       -2.95219  -0.00116   0.00000  -0.00121  -0.00132  -2.95351
   D66        1.24769  -0.00078   0.00000  -0.00790  -0.00776   1.23993
   D67       -1.50348  -0.00481   0.00000  -0.04881  -0.05153  -1.55501
   D68        0.87715  -0.00342   0.00000  -0.03652  -0.04008   0.83707
   D69       -1.00783  -0.00285   0.00000  -0.04651  -0.04683  -1.05466
   D70        3.12952  -0.00136   0.00000  -0.03119  -0.03132   3.09820
   D71        1.10010  -0.00065   0.00000  -0.02473  -0.02429   1.07581
   D72       -3.08503  -0.00055   0.00000  -0.00922  -0.00914  -3.09417
   D73       -0.97520  -0.00570   0.00000  -0.03447  -0.03620  -1.01140
   D74        1.06737   0.00538   0.00000   0.02593   0.02757   1.09494
   D75        2.22193   0.00485   0.00000  -0.04023  -0.04107   2.18087
   D76        1.46130  -0.00271   0.00000  -0.01494  -0.01399   1.44731
   D77        3.09813   0.00727   0.00000   0.12429   0.12345  -3.06161
   D78       -0.79718   0.00524   0.00000   0.00197   0.00196  -0.79522
   D79       -1.83102  -0.00013   0.00000  -0.00756  -0.00782  -1.83884
   D80        0.28243   0.00893   0.00000   0.06458   0.06518   0.34762
   D81       -3.11308  -0.00658   0.00000  -0.08974  -0.09664   3.07346
   D82       -1.02231  -0.00324   0.00000  -0.03258  -0.03037  -1.05268
   D83        2.35368  -0.00032   0.00000   0.05480   0.04421   2.39788
         Item               Value     Threshold  Converged?
 Maximum Force            0.035505     0.000450     NO
 RMS     Force            0.006395     0.000300     NO
 Maximum Displacement     0.211063     0.001800     NO
 RMS     Displacement     0.058110     0.001200     NO
 Predicted change in Energy=-1.731224D-02
 GradGradGradGradGradGradGradGradGradGradGradGradGradGradGradGradGradGrad

                          Input orientation:
 ---------------------------------------------------------------------
 Center     Atomic      Atomic             Coordinates (Angstroms)
 Number     Number       Type             X           Y           Z
 ---------------------------------------------------------------------
      1          1           0        0.051408    0.531281   -0.651360
      2          6           0       -0.482039    0.443926    0.300113
      3          6           0       -2.322522    2.125071    0.631392
      4          6           0       -2.766196   -0.370485    0.915440
      5          6           0       -3.121503    1.072794    1.382605
      6          8           0       -1.641715   -0.362557   -0.008504
      7          6           0       -0.836292    1.866980    0.772900
      8          1           0       -2.915562    1.179457    2.457493
      9          1           0       -0.568878    2.002357    1.830879
     10          6           0        0.428515   -0.281286    1.282389
     11          1           0        0.641824   -1.293335    0.912116
     12          1           0       -0.055260   -0.372405    2.266440
     13          1           0       -2.604296    2.123312   -0.430191
     14          8           0        1.614177    0.513464    1.369847
     15          1           0        2.234088    0.054447    1.956831
     16          8           0       -4.516569    1.320892    1.177437
     17          1           0       -4.612173    2.279284    1.325170
     18          8           0       -2.663746    3.403026    1.190203
     19          1           0       -2.022968    4.029952    0.809691
     20          8           0       -0.152221    2.880358    0.021616
     21          1           0        0.798837    2.725598    0.154590
     22          1           0       -2.487567   -0.994986    1.770178
     23          8           0       -3.815885   -1.022251    0.279333
     24          1           0       -4.216978   -0.403513   -0.374850
     25          8           0       -4.722664   -0.019534   -2.015576
     26          1           0       -3.746503    0.012427   -2.052764
     27          1           0       -5.036268    0.892858   -2.033557
     28          8           0       -2.066193    0.374224   -2.570340
     29          1           0       -1.767997   -0.086614   -1.767824
     30          1           0       -1.534356    0.572166   -3.339237
 ---------------------------------------------------------------------
                    Distance matrix (angstroms):
                    1          2          3          4          5
     1  H    0.000000
     2  C    1.094302   0.000000
     3  C    3.133873   2.514632   0.000000
     4  C    3.347676   2.501852   2.550555   0.000000
     5  C    3.807573   2.921307   1.519862   1.558057   0.000000
     6  O    2.019622   1.445858   2.657303   1.455401   2.487004
     7  C    2.144905   1.540813   1.515096   2.958225   2.494927
     8  H    4.346033   3.334266   2.140217   2.191474   1.099624
     9  H    2.951327   2.186206   2.128167   3.361044   2.753349
    10  C    2.131164   1.523124   3.712486   3.216952   3.800816
    11  H    2.474323   2.157706   4.533394   3.530760   4.470186
    12  H    3.056400   2.171400   3.748500   3.028924   3.503086
    13  H    3.104230   2.803151   1.098343   2.838302   2.158083
    14  O    2.554964   2.354418   4.317428   4.491716   4.768614
    15  H    3.434257   3.205270   5.177544   5.125222   5.481708
    16  O    4.983412   4.220925   2.399732   2.448103   1.431732
    17  H    5.358281   4.634360   2.397418   3.255271   1.918597
    18  O    4.360084   3.782642   1.435922   3.784889   2.382550
    19  H    4.321852   3.936206   1.936515   4.464013   3.206211
    20  O    2.452045   2.474377   2.377497   4.266119   3.733124
    21  H    2.454228   2.620658   3.214164   4.782686   4.428188
    22  H    3.826189   2.872925   3.325482   1.094629   2.197226
    23  O    4.270316   3.642065   3.501388   1.389704   2.467507
    24  H    4.378289   3.888894   3.315905   1.941831   2.543265
    25  O    4.995622   4.853876   4.167308   3.541439   3.912101
    26  H    4.081331   4.047091   3.700768   3.149263   3.649214
    27  H    5.284472   5.136979   3.998089   3.930120   3.920314
    28  O    2.862059   3.279314   3.658176   3.632527   4.150596
    29  H    2.222278   2.492293   3.309877   2.876958   3.619587
    30  H    3.121058   3.790604   4.335736   4.528608   5.006541
                    6          7          8          9         10
     6  O    0.000000
     7  C    2.496023   0.000000
     8  H    3.175158   2.762952   0.000000
     9  H    3.182314   1.099616   2.564515   0.000000
    10  C    2.441077   2.544476   3.833730   2.551599   0.000000
    11  H    2.632193   3.491676   4.599770   3.629258   1.098566
    12  H    2.773500   2.802769   3.259771   2.468403   1.100316
    13  H    2.698875   2.153828   3.053926   3.044667   4.232371
    14  O    3.642539   2.862367   4.705853   2.682365   1.430060
    15  H    4.365579   3.756887   5.294828   3.415675   1.956447
    16  O    3.536276   3.742500   2.054695   4.059021   5.199216
    17  H    4.193046   3.838265   2.317383   4.084197   5.653926
    18  O    4.081796   2.423462   2.571711   2.600156   4.810897
    19  H    4.484298   2.467388   3.411348   2.695987   4.981965
    20  O    3.568752   1.435032   4.057415   2.053758   3.452940
    21  H    3.939491   1.947609   4.635803   2.281155   3.232711
[...]
 00008492,-0.00038070,-0.00101778,-0.00117039,-0.00043919,0.00256079,-0
 .02057955,-0.00286864,-0.01848722,0.00305813,0.00095238,-0.00059565,0.
 00596330,0.00258422,-0.00107142,-0.00037018,-0.00042719,-0.00004649,-0
 .00030621,0.00075571,0.00023066,-0.00012961,0.00005434,-0.00009610,-0.
 00042232,0.00013015,-0.00009826,0.00000763,-0.00001607,-0.00001174,-0.
 00002473,0.00000092,-0.00015274,0.00039084,0.00044329,-0.00037885,0.00
 059389,0.00014833,0.00013812,-0.00006687,0.00000773,0.00003323,-0.0019
 9273,0.00152066,-0.00341196,0.00076816,0.00003085,0.00108061,0.0002810
 6,0.00151988,-0.00088843,0.00010460,0.00016555,0.00014417,0.00048669,0
 .00060345,-0.00029770,-0.00006264,-0.00009724,0.00000849,-0.00163041,-
 0.00133752,0.00156630,-0.11913818,0.11814263,-0.17783414,0.12502913,-0
 .11466629,0.19424677,0.00005549,-0.00004915,0.00005891,0.00118841,0.00
 085962,0.00045628,-0.00005629,0.00091892,0.00167007,0.00275930,0.00268
 263,0.00313505,-0.00197834,0.00071854,0.00169604,-0.00143058,-0.000440
 05,-0.00175839,0.00021704,0.00047770,-0.00019206,0.00067912,-0.0001969
 7,-0.00006471,-0.00010923,-0.00009536,-0.00018063,0.00027269,-0.000187
 97,0.00014517,-0.00000241,-0.00001294,0.00002330,-0.00003066,0.0000092
 9,-0.00003672,0.00018453,0.00042194,-0.00063986,-0.00051685,-0.0001167
 6,-0.00028626,0.00002283,0.00000960,0.00002562,0.00522457,-0.00146401,
 -0.00015661,-0.00061936,0.00011889,-0.00062260,0.00047203,-0.00126964,
 -0.00060368,-0.00004432,0.00017058,0.00000501,-0.00008930,-0.00057217,
 -0.00008166,0.00009098,0.00016599,0.00004943,-0.00061085,-0.00040693,-
 0.00073437,-0.00202874,0.00716037,-0.01241944,-0.01175963,-0.00406025,
 0.00652687,0.37923201,0.00025673,0.00017299,0.00006468,-0.00057821,-0.
 00102046,-0.00042172,-0.00036405,-0.00014769,0.00199615,-0.00698261,-0
 .00868082,-0.00111058,0.00325310,-0.00083342,-0.00031226,0.00271760,0.
 00202614,-0.00097267,0.00025732,-0.00050940,-0.00025951,-0.00064679,0.
 00043702,-0.00022427,-0.00017652,0.00007610,-0.00005401,-0.00023643,0.
 00004452,0.00002941,-0.00006295,0.00007183,-0.00003397,0.00002958,-0.0
 0001441,-0.00010304,0.00042934,-0.00006050,-0.00055231,0.00037392,0.00
 024001,0.00014540,-0.00000817,-0.00000081,-0.00000286,-0.00194830,0.00
 205893,-0.00505741,-0.00008597,0.00033608,0.00087265,-0.00038970,0.000
 60214,-0.00074358,0.00023312,0.00011442,0.00022858,-0.00011433,0.00047
 374,-0.00006145,-0.00001396,-0.00011965,-0.00001539,0.00161923,0.00112
 698,0.00119015,0.01432836,-0.00349766,0.01943680,-0.00368527,-0.001138
 15,-0.01126907,0.07503599,0.31681355,-0.00052240,-0.00018316,-0.000116
 25,0.00067209,0.00042261,0.00027651,0.00016038,0.00077274,-0.00102464,
 0.00953507,0.00598071,0.00145634,0.00344694,-0.00060676,0.00093991,-0.
 00384305,-0.00103834,0.00306316,0.00067406,0.00007166,-0.00017978,-0.0
 0104726,-0.00006449,-0.00040065,0.00003057,-0.00002580,0.00010783,0.00
 041838,-0.00005075,-0.00007950,-0.00004751,0.00004865,0.00001662,-0.00
 002718,-0.00003138,0.00021544,0.00020147,-0.00000317,-0.00027107,-0.00
 062230,-0.00011427,-0.00005340,0.00009520,-0.00000996,-0.00003327,-0.0
 0253204,-0.00409767,-0.00901118,-0.00076432,0.00091978,-0.00164143,-0.
 00042195,-0.00123321,0.00040101,-0.00010997,0.00012813,-0.00017229,-0.
 00081835,-0.00054052,0.00044058,0.00006345,0.00005130,-0.00002900,-0.0
 0165071,-0.00072512,-0.00096833,-0.01699915,0.01226027,-0.01593183,0.0
 0856353,-0.01270899,0.00067094,-0.21006002,0.19298199,0.39456737,-0.00
 043111,-0.00007328,-0.00016629,-0.00080132,-0.00056479,-0.00031668,0.0
 0006760,-0.00052033,-0.00130836,0.00469807,0.00185032,-0.00130996,0.00
 214954,-0.00043925,0.00023418,-0.00089486,-0.00050624,0.00414656,0.000
 17023,-0.00032687,-0.00016412,-0.00053623,0.00002254,-0.00006342,0.000
 05557,0.00008074,0.00017552,-0.00005539,0.00016881,-0.00017272,-0.0000
 1029,0.00002969,-0.00001617,0.00001488,-0.00001914,0.00015940,0.000229
 37,-0.00065017,-0.00030163,0.00016502,0.00003485,0.00023814,0.00002229
 ,-0.00001061,-0.00003527,-0.00220985,0.00013814,-0.00256739,0.00017776
 ,0.00014265,0.00019851,-0.00062333,0.00054145,0.00054354,0.00007204,-0
 .00012381,-0.00002826,-0.00023608,0.00027108,0.00030923,-0.00004921,-0
 .00012046,-0.00006739,-0.00067502,-0.00017927,0.00005868,-0.00558522,0
 .00183865,-0.00359128,0.00792364,-0.00499809,0.00439722,-0.31477666,-0
 .07447999,0.17884244,0.31271591,0.00001470,-0.00002076,0.00002933,0.00
 038900,0.00050165,0.00010573,0.00001328,-0.00001731,-0.00115485,0.0007
 1059,0.00087661,0.00111107,-0.00006586,0.00021698,-0.00012788,-0.00058
 819,-0.00049085,-0.00056818,-0.00017366,0.00016870,0.00026230,-0.00007
 652,-0.00012633,0.00006712,0.00012344,-0.00004372,0.00003536,0.0000375
 5,-0.00005004,0.00003349,0.00003173,-0.00004109,0.00001719,-0.00000582
 ,0.00000418,-0.00000748,-0.00032443,0.00002181,0.00001917,-0.00010835,
 -0.00008798,-0.00009165,-0.00001220,-0.00000013,0.00000785,-0.00059692
 ,-0.00026486,-0.00026605,0.00011612,0.00008154,-0.00020496,0.00014674,
 -0.00011131,0.00046742,-0.00015900,-0.00004132,-0.00015147,0.00006901,
 -0.00019928,-0.00000186,-0.00000812,0.00004664,0.00002582,-0.00004559,
 -0.00004663,-0.00011441,0.00125374,-0.00061359,-0.00137548,-0.00549973
 ,-0.00090054,0.00414201,-0.10916117,-0.06908013,0.04546173,0.08049440,
 0.07058494,0.00028075,0.00006853,0.00006655,-0.00035186,-0.00005423,0.
 00006471,0.00003055,-0.00046965,-0.00087112,-0.00323586,-0.00051822,-0
 .00132615,-0.00069545,0.00003848,-0.00132889,0.00145929,0.00012994,-0.
 00156906,-0.00044241,-0.00002880,0.00043143,0.00004253,0.00002676,0.00
 021435,0.00013374,0.00000236,0.00000861,-0.00010735,0.00004003,0.00000
 908,0.00003170,-0.00004040,0.00000688,0.00000377,0.00001736,-0.0000833
 3,-0.00069650,-0.00034903,0.00050134,0.00023740,-0.00000311,0.00000558
 ,-0.00003729,0.00000525,0.00001733,-0.00023553,-0.00028718,0.00090333,
 0.00011511,-0.00020849,-0.00022088,0.00020296,0.00064344,0.00034158,-0
 .00007516,-0.00009268,0.00002772,0.00038983,0.00018352,-0.00025022,-0.
 00004095,-0.00000430,0.00003888,0.00046587,-0.00001291,0.00012942,0.00
 127660,-0.00105629,0.00278834,0.00194228,0.00514944,-0.00643420,0.1490
 3127,0.01465323,-0.11998776,-0.17279246,-0.02866394,0.14946702,0.00006
 531,0.00001043,0.00000379,-0.00040668,-0.00001370,-0.00006990,0.000015
 46,-0.00078700,-0.00177720,-0.00116806,0.00063791,-0.00091666,-0.00143
 836,-0.00001414,-0.00298809,0.00056832,-0.00019796,-0.00006239,-0.0004
 6310,-0.00000950,0.00040372,-0.00011800,0.00003433,0.00025617,0.000185
 60,0.00000073,0.00009796,-0.00012393,0.00004516,-0.00005509,0.00003535
 ,-0.00003393,0.00000473,0.00000687,0.00001113,-0.00001307,-0.00073398,
 -0.00030630,0.00073093,0.00023072,-0.00000508,0.00006783,-0.00003210,-
 0.00000632,-0.00000375,-0.00413370,0.00117514,0.00321925,0.00118285,-0
 .00042455,0.00066646,-0.00004491,0.00079464,0.00053914,-0.00003370,-0.
 00017036,-0.00003219,0.00031490,0.00021127,-0.00008348,-0.00004922,-0.
 00003609,0.00000131,0.00017714,-0.00012136,0.00012286,0.00042843,-0.00
 121933,0.00057376,-0.00037474,0.00571026,-0.00041903,-0.04081134,-0.00
 783141,0.02494303,-0.00158780,0.03155574,0.02859433,0.05084031,-0.0000
 6874,-0.00006354,-0.00001846,0.00030489,0.00043548,0.00021456,-0.00027
 874,0.00039477,-0.00063541,0.00294398,0.00180900,0.00162145,-0.0011902
 3,0.00047736,0.00113363,-0.00103788,-0.00061512,-0.00002935,-0.0001012
 7,0.00015660,0.00012329,0.00042068,-0.00019972,0.00005504,0.00006726,-
 0.00004015,-0.00000158,0.00007547,-0.00005202,0.00000701,0.00002396,-0
 .00002836,0.00001415,-0.00001026,0.00000797,0.00001917,-0.00019621,0.0
 0021248,0.00007794,-0.00013852,-0.00008115,-0.00007392,-0.00000297,-0.
 00000091,0.00000107,0.00195436,-0.00503061,0.00051599,-0.00058859,-0.0
 0036306,-0.00328122,0.00038308,-0.00053445,0.00030392,-0.00015762,-0.0
 0003509,-0.00011184,0.00005573,-0.00020791,-0.00000704,0.00000173,0.00
 004623,0.00001650,-0.00028249,-0.00015895,-0.00028009,-0.00300083,0.00
 142520,-0.00194715,0.00552553,-0.01057114,0.00048980,0.02850536,-0.244
 16068,-0.23785996,-0.00363349,0.00743805,0.01133492,-0.02824637,0.2499
 1971,0.00012791,-0.00000760,0.00000530,-0.00019967,0.00024286,0.000041
 89,0.00010101,-0.00056032,0.00148937,-0.00083025,0.00252709,0.00140793
 ,-0.00772338,0.00181980,0.00062333,0.00071748,-0.00059264,-0.00131148,
 -0.00048097,0.00043394,-0.00017045,0.00223973,-0.00024679,0.00067280,-
 0.00007160,-0.00002044,-0.00014955,-0.00017184,-0.00003484,0.00004848,
 0.00005964,-0.00005300,-0.00000360,0.00000690,0.00003815,-0.00007859,-
 0.00007854,-0.00011574,-0.00022046,0.00019331,-0.00001823,-0.00004115,
 -0.00006056,0.00000352,0.00001854,0.00551971,-0.00214766,0.00014119,0.
 00081913,-0.00148030,-0.00019189,0.00054113,0.00042152,-0.00058081,0.0
 0018558,-0.00015500,0.00015846,0.00074009,0.00015677,-0.00026159,-0.00
 000074,0.00004359,-0.00000466,-0.00003122,-0.00039424,-0.00026710,-0.0
 0108441,-0.00019641,-0.00447668,-0.00026487,0.00220096,0.00788275,0.05
 577505,-0.21195642,-0.25143366,-0.00146496,-0.01853608,-0.01573879,-0.
 05353329,0.22824029,0.26120118,0.00112881,0.00032013,0.00045213,0.0001
 0258,0.00044942,0.00111848,-0.00031880,0.00017939,0.00005391,-0.007326
 77,-0.00190177,-0.00124036,-0.00149140,0.00040865,-0.00059452,0.004816
 71,0.00061434,-0.00702745,-0.00047190,0.00039112,0.00057002,0.00035896
 ,-0.00003475,0.00016881,0.00010671,-0.00011611,-0.00018944,0.00022716,
 -0.00005554,0.00013264,0.00001627,-0.00006666,0.00004526,-0.00005931,0
 .00004740,-0.00029764,-0.00041624,0.00012177,0.00018552,-0.00006288,-0
 .00008955,-0.00027912,-0.00000707,0.00002947,0.00006363,0.00182102,-0.
 00019227,0.00186207,-0.00010227,-0.00016640,-0.00013334,0.00073305,-0.
 00012572,-0.00002527,-0.00022032,0.00011599,-0.00000933,0.00052125,-0.
 00035428,-0.00067226,0.00004314,0.00020292,0.00019742,0.00107961,0.000
 09325,-0.00022551,0.00370334,-0.00036872,0.00461374,-0.00251825,0.0033
 4635,-0.00539914,-0.01566276,0.00195489,0.01323876,0.00329648,-0.00619
 789,-0.00494609,-0.00274748,-0.00188072,-0.00200504,0.07599525,0.00038
 167,-0.00019110,-0.00005336,-0.00132599,-0.00162422,0.00096152,0.00023
 108,0.00007025,0.00155441,0.00133927,-0.00117134,-0.00067000,-0.000153
 50,-0.00044844,0.00002882,0.00052264,0.00423596,0.00344338,0.00022756,
 -0.00038152,0.00023770,0.00008350,0.00021736,-0.00012697,-0.00018078,0
 .00009392,-0.00010345,0.00013054,0.00025673,-0.00015339,-0.00008003,0.
 00010341,-0.00005014,-0.00003980,0.00002616,-0.00002688,-0.00029052,-0
 .00011680,-0.00087324,0.00032625,0.00017703,0.00025880,0.00004208,0.00
 001696,-0.00002518,0.00000657,0.00039472,-0.00016265,-0.00014261,-0.00
 006586,0.00015142,-0.00001820,-0.00017200,-0.00092125,0.00013206,0.000
 09697,0.00020819,-0.00001971,0.00041295,-0.00038217,0.00001645,-0.0000
 8610,0.00000131,-0.00027407,0.00007043,0.00029649,-0.00105730,0.001022
 28,0.00116392,0.00147153,-0.00129002,-0.00042165,0.00197918,0.00550744
 ,-0.00063765,-0.00134634,-0.00710597,0.00010683,-0.00103169,-0.0001097
 7,0.00042494,-0.08147732,0.42552539,-0.00017432,-0.00019441,0.00019293
 ,0.00407265,0.00327642,-0.00039477,-0.00004168,0.00101689,0.00133297,-
 0.00596285,-0.00065599,0.00124047,-0.00059696,0.00047895,0.00016007,-0
 .00371543,0.00139831,-0.01594021,0.00039130,0.00086007,-0.00021810,0.0
 0013758,-0.00011688,-0.00022337,-0.00012318,-0.00019922,-0.00017021,0.
 00008139,-0.00098405,0.00030617,-0.00002433,0.00005952,0.00002668,0.00
 001954,-0.00000365,0.00002435,-0.00039164,0.00004413,-0.00095064,-0.00
 116138,-0.00001734,-0.00058278,-0.00001192,-0.00007073,-0.00002598,0.0
 0086246,-0.00043574,-0.00013116,-0.00019932,0.00010787,0.00004984,0.00
 034003,-0.00150997,-0.00081265,0.00001485,0.00029048,-0.00007672,-0.00
 059993,-0.00104752,0.00029583,0.00017702,0.00021350,-0.00008107,0.0010
 2646,0.00012568,-0.00091957,0.00218656,0.00060865,0.00049295,-0.001445
 43,0.00019978,-0.00030383,0.00769227,0.00007017,0.00349673,-0.00075864
 ,0.00008269,-0.01130011,-0.00089291,0.00021310,0.00012814,0.10690326,0
 .07741535,0.59852376,-0.00131981,-0.00040848,-0.00037852,-0.00141121,-
 0.00032258,-0.00326316,0.00038167,-0.00001456,0.00073326,0.00774962,0.
 00134073,0.00438930,0.00012570,-0.00034528,0.00072255,-0.00926305,-0.0
 0047366,0.00299383,0.00034527,-0.00057114,-0.00048188,-0.00003902,0.00
 004684,-0.00015600,-0.00015378,0.00017281,0.00010390,-0.00047726,-0.00
 019346,-0.00008449,-0.00001687,0.00005455,-0.00001442,0.00009734,-0.00
 003760,0.00024617,0.00034653,0.00057100,-0.00021978,0.00012726,0.00015
 639,0.00016862,-0.00003296,-0.00002510,-0.00003425,-0.00069275,0.00024
 958,-0.00057639,-0.00004316,0.00006333,0.00004808,-0.00045910,-0.00013
 207,-0.00033849,0.00017523,-0.00006749,0.00004764,-0.00025239,0.000469
 30,0.00028523,-0.00005974,-0.00017549,-0.00009435,-0.00128280,-0.00005
 754,0.00056245,-0.00128136,-0.00052795,-0.00393615,-0.00150097,-0.0011
 8846,0.00264253,0.00234664,-0.00077267,0.00021862,-0.00481081,0.003593
 15,-0.00464843,-0.00043698,0.00038655,0.00082334,-0.05169510,0.0573382
 1,-0.10859384,0.06253620,-0.00077896,0.00016723,-0.00001322,0.00109997
 ,0.00179242,-0.00292712,-0.00020043,-0.00028260,-0.00213365,-0.0013153
 6,0.00107198,0.00078260,0.00043112,0.00057793,-0.00039983,0.00015640,-
 0.00614555,0.00147516,-0.00063965,0.00000121,-0.00060527,-0.00011678,-
 0.00025349,0.00015586,0.00023813,-0.00003595,0.00011684,-0.00031891,-0
 .00040029,0.00021675,0.00010470,-0.00011735,0.00006411,0.00007540,-0.0
 0005323,0.00007181,0.00072382,-0.00140664,0.00029455,-0.00029787,-0.00
 013574,-0.00027007,-0.00007003,-0.00002546,0.00002346,-0.00010409,-0.0
 0040513,0.00019854,0.00019066,0.00003085,-0.00011330,-0.00011036,0.000
 54705,0.00112699,-0.00010192,-0.00016010,-0.00011051,0.00009070,-0.000
 26010,0.00035974,-0.00004040,0.00005756,0.00000314,0.00017854,-0.00006
 251,-0.00018853,0.00093263,-0.00116098,-0.00117373,-0.00134265,0.00129
 974,-0.00006426,-0.00079180,-0.00076021,0.00024861,0.00172954,-0.00001
 189,0.00048957,0.00037413,0.00001870,-0.00005453,0.07198531,-0.1354756
 0,0.17509073,-0.05972855,0.12862983,0.00081515,0.00039158,0.00013743,-
 0.00780689,-0.00561381,0.00000373,0.00040864,-0.00122345,0.00009834,0.
 01290332,0.00211844,-0.00372665,0.00085985,-0.00130802,-0.00005242,-0.
 00086769,0.00155129,0.00417888,0.00014772,-0.00135763,0.00002065,-0.00
 019097,0.00036671,0.00007868,-0.00009462,0.00034061,0.00015607,0.00014
 575,0.00159635,-0.00034044,-0.00001008,-0.00004118,-0.00004769,-0.0000
 6389,-0.00002376,-0.00001368,0.00004296,-0.00044498,0.00049599,0.00168
 407,0.00005291,0.00098658,0.00009822,0.00013269,0.00003141,-0.00153226
 ,0.00090930,-0.00066665,0.00004912,-0.00008468,0.00008629,-0.00049877,
 0.00124350,0.00006207,0.00012888,-0.00019434,0.00022276,0.00048594,0.0
 0160809,-0.00051763,-0.00018696,-0.00030529,0.00004836,-0.00201591,-0.
 00029076,0.00156897,-0.00417096,-0.00051606,-0.00274266,0.00270039,-0.
 00162714,0.00305257,0.00266470,0.00089567,-0.00506335,-0.00656925,0.00
 079038,0.00492387,0.00074665,-0.00003791,0.00132269,-0.09614649,0.1174
 4864,-0.32246916,0.10587289,-0.13475154,0.34319970,0.00002016,-0.00016
 579,0.00004840,0.00044508,0.00021591,0.00002409,0.00015716,0.00001149,
 -0.00019315,0.00078371,0.00052787,0.00010306,0.00016639,-0.00002054,0.
 00000729,-0.00079388,0.00027369,-0.00067764,0.00001928,-0.00000274,0.0
 0011853,-0.00004975,-0.00001159,-0.00001119,0.00000673,0.00000400,0.00
 002404,0.00003091,-0.00011522,-0.00002254,-0.00001072,0.00004483,-0.00
 002330,-0.00000684,0.00000626,0.00005982,-0.00015481,-0.00001818,0.000
 08762,-0.00008410,0.00003578,0.00004094,0.00000325,-0.00001748,-0.0000
 3073,-0.00025978,-0.00001264,-0.00020023,0.00004215,0.00002474,0.00000
 354,-0.00010494,0.00005211,0.00007662,0.00002198,-0.00002321,-0.000004
 61,-0.00012482,-0.00001178,0.00007427,0.00001790,-0.00002709,-0.000058
 78,-0.00005148,-0.00001707,-0.00007320,-0.00054904,-0.00019730,-0.0007
 6712,0.00023643,-0.00001601,0.00092050,-0.00221833,-0.00211183,-0.0016
 3779,0.00152478,0.00447428,0.00406735,0.00065283,0.00016635,0.00015135
 ,-0.01084979,0.02320925,0.00078841,0.00099765,-0.01235328,-0.00959952,
 0.01013191,-0.00004930,0.00000372,-0.00005482,-0.00010576,-0.00013896,
 -0.00006822,0.00010778,0.00016876,0.00052549,0.00053219,0.00023985,-0.
 00005901,-0.00014734,-0.00008356,-0.00008180,0.00032693,-0.00078312,0.
 00177820,0.00010853,0.00000155,-0.00008763,0.00002981,0.00002600,-0.00
 003079,-0.00004515,0.00000024,-0.00000994,0.00003447,0.00010492,0.0000
 1865,0.00000819,-0.00001327,-0.00000357,0.00000178,-0.00001120,0.00001
 101,-0.00015418,-0.00002176,-0.00009842,-0.00002092,-0.00004230,0.0000
 1533,0.00001567,0.00001163,0.00000689,0.00007815,-0.00000427,0.0000396
 1,-0.00003681,0.00000392,0.00000497,0.00002722,-0.00019150,-0.00017524
 ,0.00002741,0.00004247,0.00001043,-0.00009162,-0.00003871,0.00005139,0
 .00001538,0.00000828,-0.00003716,-0.00007858,-0.00000652,0.00005066,-0
 .00003389,-0.00032117,-0.00025431,-0.00012613,0.00031163,-0.00000644,-
 0.00040943,-0.00007789,0.00058302,0.00064929,-0.00068736,-0.00110040,-
 0.00010580,-0.00008892,0.00001679,0.01276731,-0.28998922,-0.25631677,0
 .00059962,0.01295830,0.01837441,-0.01392483,0.27861845,-0.00006939,-0.
 00006896,-0.00001831,-0.00011036,-0.00009496,-0.00006871,-0.00000764,-
 0.00008310,0.00011451,-0.00051787,-0.00045993,-0.00050871,-0.00001191,
 0.00001130,-0.00003594,-0.00020543,0.00131119,-0.00101487,-0.00007848,
 -0.00010624,0.00003088,0.00001841,0.00003286,0.00003437,-0.00000376,0.
 00003455,0.00001869,-0.00014690,-0.00003175,-0.00005063,-0.00001076,0.
 00002129,-0.00001030,0.00001500,0.00000690,0.00001345,0.00006085,-0.00
 011600,-0.00037050,0.00015159,0.00007616,0.00005452,-0.00002544,-0.000
 00876,-0.00000604,0.00000472,0.00007417,0.00017617,0.00002721,-0.00003
 467,-0.00002096,-0.00000875,0.00015712,-0.00001336,0.00000651,-0.00004
 082,-0.00000261,0.00010262,0.00017265,-0.00003131,-0.00003022,-0.00004
 895,0.00000847,0.00009209,0.00000725,0.00004239,0.00004826,0.00030938,
 0.00094708,0.00030063,-0.00010506,-0.00067579,-0.00111803,0.00058564,0
 .00074493,0.00239083,-0.00139437,-0.00083549,-0.00012488,-0.00009788,-
 0.00021157,-0.01041464,-0.19909376,-0.25167056,0.00296177,-0.03791292,
 -0.02503471,0.00670397,0.23689765,0.27839488\\-0.00000124,-0.00000236,
 -0.00000499,-0.00077002,-0.00180870,0.00483333,-0.00335989,-0.00092575
 ,-0.00031907,-0.00395200,0.00046736,-0.00533325,0.00431404,-0.00026031
 ,0.00497121,0.00268686,0.00072557,0.00036444,0.00108930,0.00181562,-0.
 00453138,0.00000778,0.00000191,0.00000290,-0.00000180,0.00000410,-0.00
 000261,-0.00000238,0.00000066,0.00000025,0.00000565,0.00000435,-0.0000
 0058,0.00000725,0.00000642,-0.00000201,-0.00000114,-0.00000162,0.00000
 100,0.00000561,0.00001079,-0.00000705,0.00000908,0.00000764,-0.0000129
 9,0.00001595,-0.00000074,0.00001978,0.00000256,-0.00000169,0.00000439,
 0.00000683,0.00000167,-0.00000124,-0.00000941,0.00000210,-0.00000641,-
 0.00001278,-0.00000779,0.00000101,-0.00000077,-0.00000080,-0.00001324,
 -0.00000149,0.00000454,0.00001288,-0.00001089,-0.00002019,0.00000286,0
 .00000752,0.00000298,0.00001414,0.00000605,-0.00000764,-0.00001294,-0.
 00004503,0.00000247,0.00002281,0.00000216,-0.00000894,0.00000286,-0.00
 001536,-0.00003314,0.00001842,0.00002105,0.00002824,-0.00003055,-0.000
 00352,-0.00000675,0.00000603\\\@


 TERENCE, THIS IS STUPID STUFF:
 YOU EAT YOUR VICTUALS FAST ENOUGH;
 THERE CAN'T BE MUCH AMISS, 'TIS CLEAR
 TO SEE THE RATE YOU DRINK YOUR BEER.
 BUT OH, GOOD LORD, THE VERSE YOU MAKE,
 IT GIVES A CHAP THE BELLY-ACHE.
 THE COW, THE OLD COW, SHE IS DEAD;
 IT SLEEPS WELL, THE HORNED HEAD:
 WE POOR LADS, 'TIS OUR TURN NOW
 TO HEAR SUCH TUNES AS KILLED THE COW.
 PRETTY FRIENDSHIP 'TIS TO RHYME
 YOUR FRIENDS TO DEATH BEFORE THEIR TIME.
 MOPING, MELANCHOLY MAD:
 COME PIPE A TUNE TO DANCE TO, LAD.

     -- A. E. HOUSMAN
 Job cpu time:       0 days  0 hours 38 minutes 39.1 seconds.
 File lengths (MBytes):  RWF=    335 Int=      0 D2E=      0 Chk=      7 Scr=      2
 Normal termination of Gaussian 09 at Mon Jan 16 22:18:06 2017.
