 Entering Gaussian System, Link 0=g09
 Initial command:
 /global/software/gaussian/g09.e01/l1.exe "/scratch/10462924.yak.local/Gau-30137.inp" -scrdir="/scratch/10462924.yak.local/"
 Entering Link 1 = /global/software/gaussian/g09.e01/l1.exe PID=     30144.
  
 Copyright (c) 1988,1990,1992,1993,1995,1998,2003,2009,2015,
            Gaussian, Inc.  All Rights Reserved.
  
 This is part of the Gaussian(R) 09 program.  It is based on
 the Gaussian(R) 03 system (copyright 2003, Gaussian, Inc.),
 the Gaussian(R) 98 system (copyright 1998, Gaussian, Inc.),
 the Gaussian(R) 94 system (copyright 1995, Gaussian, Inc.),
 the Gaussian 92(TM) system (copyright 1992, Gaussian, Inc.),
 the Gaussian 90(TM) system (copyright 1990, Gaussian, Inc.),
 the Gaussian 88(TM) system (copyright 1988, Gaussian, Inc.),
 the Gaussian 86(TM) system (copyright 1986, Carnegie Mellon
 University), and the Gaussian 82(TM) system (copyright 1983,
 Carnegie Mellon University). Gaussian is a federally registered
 trademark of Gaussian, Inc.
  
 This software contains proprietary and confidential information,
 including trade secrets, belonging to Gaussian, Inc.
  
 This software is provided under written license and may be
 used, copied, transmitted, or stored only in accord with that
 written license.
  
 The following legend is applicable only to US Government
 contracts under FAR:
  
                    RESTRICTED RIGHTS LEGEND
  
 Use, reproduction and disclosure by the US Government is
 subject to restrictions as set forth in subparagraphs (a)
 and (c) of the Commercial Computer Software - Restricted
 Rights clause in FAR 52.227-19.
  
 Gaussian, Inc.
 340 Quinnipiac St., Bldg. 40, Wallingford CT 06492
  
  
 ---------------------------------------------------------------
 Warning -- This program may not be used in any manner that
 competes with the business of Gaussian, Inc. or will provide
 assistance to any competitor of Gaussian, Inc.  The licensee
 of this program is prohibited from giving any competitor of
 Gaussian, Inc. access to this program.  By using this program,
 the user acknowledges that Gaussian, Inc. is engaged in the
 business of creating and licensing software in the field of
 computational chemistry and represents and warrants to the
 licensee that it is not a competitor of Gaussian, Inc. and that
 it will not use this program in any manner prohibited above.
 ---------------------------------------------------------------
  

 Cite this work as:
 Gaussian 09, Revision E.01,
 M. J. Frisch, G. W. Trucks, H. B. Schlegel, G. E. Scuseria, 
 M. A. Robb, J. R. Cheeseman, G. Scalmani, V. Barone, B. Mennucci, 
 G. A. Petersson, H. Nakatsuji, M. Caricato, X. Li, H. P. Hratchian, 
 A. F. Izmaylov, J. Bloino, G. Zheng, J. L. Sonnenberg, M. Hada, 
 M. Ehara, K. Toyota, R. Fukuda, J. Hasegawa, M. Ishida, T. Nakajima, 
 Y. Honda, O. Kitao, H. Nakai, T. Vreven, J. A. Montgomery, Jr., 
 J. E. Peralta, F. Ogliaro, M. Bearpark, J. J. Heyd, E. Brothers, 
 K. N. Kudin, V. N. Staroverov, T. Keith, R. Kobayashi, J. Normand, 
 K. Raghavachari, A. Rendell, J. C. Burant, S. S. Iyengar, J. Tomasi, 
 M. Cossi, N. Rega, J. M. Millam, M. Klene, J. E. Knox, J. B. Cross, 
 V. Bakken, C. Adamo, J. Jaramillo, R. Gomperts, R. E. Stratmann, 
 O. Yazyev, A. J. Austin, R. Cammi, C. Pomelli, J. W. Ochterski, 
 R. L. Martin, K. Morokuma, V. G. Zakrzewski, G. A. Voth, 
 P. Salvador, J. J. Dannenberg, S. Dapprich, A. D. Daniels, 
 O. Farkas, J. B. Foresman, J. V. Ortiz, J. Cioslowski, 
 and D. J. Fox, Gaussian, Inc., Wallingford CT, 2013.
 
 ******************************************
 Gaussian 09:  ES64L-G09RevE.01 30-Nov-2015
                15-Jan-2017 
 ******************************************
 %NPROCS=4
 Will use up to    4 processors via shared memory.
 -----------------------------------------
 # opt=(MaxCycle=1000) freq B3LYP/6-31G(d)
 -----------------------------------------
 1/6=1000,14=-1,18=20,19=15,26=3,38=1/1,3;
 2/9=110,12=2,17=6,18=5,40=1/2;
 3/5=1,6=6,7=1,11=2,16=1,25=1,30=1,71=1,74=-5/1,2,3;
 4//1;
 5/5=2,38=5/2;
 6/7=2,8=2,9=2,10=2,28=1/1;
 7//1,2,3,16;
 1/6=1000,14=-1,18=20,19=15,26=3/3(2);
 2/9=110/2;
 99//99;
 2/9=110/2;
 3/5=1,6=6,7=1,11=2,16=1,25=1,30=1,71=1,74=-5/1,2,3;
 4/5=5,16=3,69=1/1;
 5/5=2,38=5/2;
 7//1,2,3,16;
 1/6=1000,14=-1,18=20,19=15,26=3/3(-5);
 2/9=110/2;
 6/7=2,8=2,9=2,10=2,19=2,28=1/1;
 99/9=1/99;
 ----------------------------------------------
 ./boats/4/glo_1w_beta_ts_boat4_B3LYP_631Gd.out
 ----------------------------------------------
 Symbolic Z-matrix:
 Charge =  0 Multiplicity = 1
 O                    -1.70646   0.27821   0.44801 
 C                     0.65757   0.40866  -0.15154 
 C                    -0.25489  -1.79756   0.82246 
 C                     0.98447  -1.02471   0.32349 
 C                    -1.53758  -1.38766   0.11788 
 C                    -0.51207   1.03824   0.6248 
 H                     1.63271  -0.91738   1.20782 
 H                    -0.24915   1.04593   1.69385 
 H                     0.38763   0.35132  -1.21618 
 H                    -2.45139  -1.67896   0.65503 
 C                    -0.80786   2.4923    0.18636 
 H                    -0.99833   2.53129  -0.89128 
 H                    -1.70775   2.8515    0.70213 
 H                    -0.06338  -2.86249   0.62645 
 O                    -1.5546   -1.60256  -1.19738 
 O                     0.29654   3.38618   0.4007 
 H                     0.42501   3.47691   1.35922 
 O                    -0.37073  -1.53012   2.21794 
 H                    -1.20578  -1.90851   2.53527 
 O                     1.59839  -1.79597  -0.68127 
 H                     2.47487  -1.39323  -0.88321 
 O                     1.85114   1.18907   0.02288 
 H                     1.60295   2.13192  -0.06366 
 O                    -2.95671   0.31694  -1.64608 
 H                    -2.49692   0.58444  -0.79248 
 H                    -2.28393  -1.01287  -1.58455 
 H                    -2.55373   0.82634  -2.36449 
 O                     3.92377  -0.29056  -1.00971 
 H                     4.49479  -0.46969  -0.24732 
 H                     3.33807   0.43975  -0.70842 
 
 Add virtual bond connecting atoms O1         and H25        Dist= 2.84D+00.
 Add virtual bond connecting atoms H26        and O24        Dist= 2.82D+00.
 Add virtual bond connecting atoms O28        and H21        Dist= 3.45D+00.
 Add virtual bond connecting atoms H30        and O22        Dist= 3.44D+00.

 GradGradGradGradGradGradGradGradGradGradGradGradGradGradGradGradGradGrad
 Berny optimization.
 Initialization pass.
                           ----------------------------
                           !    Initial Parameters    !
                           ! (Angstroms and Degrees)  !
 --------------------------                            --------------------------
 ! Name  Definition              Value          Derivative Info.                !
 --------------------------------------------------------------------------------
 ! R1    R(1,6)                  1.4267         estimate D2E/DX2                !
 ! R2    R(1,25)                 1.5025         estimate D2E/DX2                !
 ! R3    R(2,4)                  1.545          estimate D2E/DX2                !
 ! R4    R(2,6)                  1.5385         estimate D2E/DX2                !
 ! R5    R(2,9)                  1.0998         estimate D2E/DX2                !
 ! R6    R(2,22)                 1.4367         estimate D2E/DX2                !
 ! R7    R(3,4)                  1.5435         estimate D2E/DX2                !
 ! R8    R(3,5)                  1.5198         estimate D2E/DX2                !
 ! R9    R(3,14)                 1.0996         estimate D2E/DX2                !
 ! R10   R(3,18)                 1.4256         estimate D2E/DX2                !
 ! R11   R(4,7)                  1.1017         estimate D2E/DX2                !
 ! R12   R(4,20)                 1.4076         estimate D2E/DX2                !
 ! R13   R(5,10)                 1.0993         estimate D2E/DX2                !
 ! R14   R(5,15)                 1.3328         estimate D2E/DX2                !
 ! R15   R(6,8)                  1.1009         estimate D2E/DX2                !
 ! R16   R(6,11)                 1.5473         estimate D2E/DX2                !
 ! R17   R(11,12)                1.095          estimate D2E/DX2                !
 ! R18   R(11,13)                1.0977         estimate D2E/DX2                !
 ! R19   R(11,16)                1.4369         estimate D2E/DX2                !
 ! R20   R(15,26)                1.0147         estimate D2E/DX2                !
 ! R21   R(16,17)                0.9713         estimate D2E/DX2                !
 ! R22   R(18,19)                0.9701         estimate D2E/DX2                !
 ! R23   R(20,21)                0.9855         estimate D2E/DX2                !
 ! R24   R(21,28)                1.8252         estimate D2E/DX2                !
 ! R25   R(22,23)                0.9788         estimate D2E/DX2                !
 ! R26   R(22,30)                1.8186         estimate D2E/DX2                !
 ! R27   R(24,25)                1.0058         estimate D2E/DX2                !
 ! R28   R(24,26)                1.4916         estimate D2E/DX2                !
 ! R29   R(24,27)                0.9685         estimate D2E/DX2                !
 ! R30   R(28,29)                0.9692         estimate D2E/DX2                !
 ! R31   R(28,30)                0.9834         estimate D2E/DX2                !
 ! A1    A(6,1,25)             115.7326         estimate D2E/DX2                !
 ! A2    A(4,2,6)              112.6651         estimate D2E/DX2                !
 ! A3    A(4,2,9)              107.5289         estimate D2E/DX2                !
 ! A4    A(4,2,22)             106.9084         estimate D2E/DX2                !
 ! A5    A(6,2,9)              108.8563         estimate D2E/DX2                !
 ! A6    A(6,2,22)             110.3673         estimate D2E/DX2                !
 ! A7    A(9,2,22)             110.4718         estimate D2E/DX2                !
 ! A8    A(4,3,5)              113.1277         estimate D2E/DX2                !
 ! A9    A(4,3,14)             106.7057         estimate D2E/DX2                !
 ! A10   A(4,3,18)             106.7241         estimate D2E/DX2                !
 ! A11   A(5,3,14)             108.999          estimate D2E/DX2                !
 ! A12   A(5,3,18)             109.5503         estimate D2E/DX2                !
 ! A13   A(14,3,18)            111.7353         estimate D2E/DX2                !
 ! A14   A(2,4,3)              113.2062         estimate D2E/DX2                !
 ! A15   A(2,4,7)              106.3143         estimate D2E/DX2                !
 ! A16   A(2,4,20)             112.405          estimate D2E/DX2                !
 ! A17   A(3,4,7)              105.1741         estimate D2E/DX2                !
 ! A18   A(3,4,20)             107.8556         estimate D2E/DX2                !
 ! A19   A(7,4,20)             111.6986         estimate D2E/DX2                !
 ! A20   A(3,5,10)             113.8026         estimate D2E/DX2                !
 ! A21   A(3,5,15)             115.1374         estimate D2E/DX2                !
 ! A22   A(10,5,15)            115.3951         estimate D2E/DX2                !
 ! A23   A(1,6,2)              110.8498         estimate D2E/DX2                !
 ! A24   A(1,6,8)              108.9036         estimate D2E/DX2                !
 ! A25   A(1,6,11)             107.7868         estimate D2E/DX2                !
 ! A26   A(2,6,8)              108.1367         estimate D2E/DX2                !
 ! A27   A(2,6,11)             112.7619         estimate D2E/DX2                !
 ! A28   A(8,6,11)             108.3155         estimate D2E/DX2                !
 ! A29   A(6,11,12)            110.217          estimate D2E/DX2                !
 ! A30   A(6,11,13)            109.3362         estimate D2E/DX2                !
 ! A31   A(6,11,16)            113.292          estimate D2E/DX2                !
 ! A32   A(12,11,13)           107.9487         estimate D2E/DX2                !
 ! A33   A(12,11,16)           104.9715         estimate D2E/DX2                !
 ! A34   A(13,11,16)           110.8827         estimate D2E/DX2                !
 ! A35   A(5,15,26)            106.979          estimate D2E/DX2                !
 ! A36   A(11,16,17)           107.8764         estimate D2E/DX2                !
 ! A37   A(3,18,19)            108.4791         estimate D2E/DX2                !
 ! A38   A(4,20,21)            108.0746         estimate D2E/DX2                !
 ! A39   A(2,22,23)            107.5693         estimate D2E/DX2                !
 ! A40   A(2,22,30)            113.9935         estimate D2E/DX2                !
 ! A41   A(23,22,30)           124.6575         estimate D2E/DX2                !
 ! A42   A(25,24,26)            89.7657         estimate D2E/DX2                !
 ! A43   A(25,24,27)           107.4239         estimate D2E/DX2                !
 ! A44   A(26,24,27)           108.1705         estimate D2E/DX2                !
 ! A45   A(1,25,24)            152.4999         estimate D2E/DX2                !
 ! A46   A(15,26,24)           149.102          estimate D2E/DX2                !
 ! A47   A(21,28,29)           107.5491         estimate D2E/DX2                !
 ! A48   A(21,28,30)            87.3994         estimate D2E/DX2                !
 ! A49   A(29,28,30)           104.3082         estimate D2E/DX2                !
 ! A50   A(22,30,28)           156.3652         estimate D2E/DX2                !
 ! A51   L(20,21,28,11,-1)     166.31           estimate D2E/DX2                !
 ! A52   L(20,21,28,11,-2)     174.4567         estimate D2E/DX2                !
 ! D1    D(25,1,6,2)           -84.015          estimate D2E/DX2                !
 ! D2    D(25,1,6,8)           157.1355         estimate D2E/DX2                !
 ! D3    D(25,1,6,11)           39.8322         estimate D2E/DX2                !
 ! D4    D(6,1,25,24)          125.9915         estimate D2E/DX2                !
 ! D5    D(6,2,4,3)             31.8385         estimate D2E/DX2                !
 ! D6    D(6,2,4,7)            -83.1368         estimate D2E/DX2                !
 ! D7    D(6,2,4,20)           154.3591         estimate D2E/DX2                !
 ! D8    D(9,2,4,3)            -88.1084         estimate D2E/DX2                !
 ! D9    D(9,2,4,7)            156.9163         estimate D2E/DX2                !
 ! D10   D(9,2,4,20)            34.4122         estimate D2E/DX2                !
 ! D11   D(22,2,4,3)           153.2478         estimate D2E/DX2                !
 ! D12   D(22,2,4,7)            38.2724         estimate D2E/DX2                !
 ! D13   D(22,2,4,20)          -84.2317         estimate D2E/DX2                !
 ! D14   D(4,2,6,1)            -61.1465         estimate D2E/DX2                !
 ! D15   D(4,2,6,8)             58.165          estimate D2E/DX2                !
 ! D16   D(4,2,6,11)           177.9036         estimate D2E/DX2                !
 ! D17   D(9,2,6,1)             58.0313         estimate D2E/DX2                !
 ! D18   D(9,2,6,8)            177.3428         estimate D2E/DX2                !
 ! D19   D(9,2,6,11)           -62.9186         estimate D2E/DX2                !
 ! D20   D(22,2,6,1)           179.4319         estimate D2E/DX2                !
 ! D21   D(22,2,6,8)           -61.2566         estimate D2E/DX2                !
 ! D22   D(22,2,6,11)           58.482          estimate D2E/DX2                !
 ! D23   D(4,2,22,23)         -166.4372         estimate D2E/DX2                !
 ! D24   D(4,2,22,30)           51.0169         estimate D2E/DX2                !
 ! D25   D(6,2,22,23)          -43.5855         estimate D2E/DX2                !
 ! D26   D(6,2,22,30)          173.8686         estimate D2E/DX2                !
 ! D27   D(9,2,22,23)           76.8511         estimate D2E/DX2                !
 ! D28   D(9,2,22,30)          -65.6948         estimate D2E/DX2                !
 ! D29   D(5,3,4,2)             30.7879         estimate D2E/DX2                !
 ! D30   D(5,3,4,7)            146.4428         estimate D2E/DX2                !
 ! D31   D(5,3,4,20)           -94.2276         estimate D2E/DX2                !
 ! D32   D(14,3,4,2)           150.6415         estimate D2E/DX2                !
 ! D33   D(14,3,4,7)           -93.7036         estimate D2E/DX2                !
 ! D34   D(14,3,4,20)           25.626          estimate D2E/DX2                !
 ! D35   D(18,3,4,2)           -89.7617         estimate D2E/DX2                !
 ! D36   D(18,3,4,7)            25.8932         estimate D2E/DX2                !
 ! D37   D(18,3,4,20)          145.2228         estimate D2E/DX2                !
 ! D38   D(4,3,5,10)          -161.8669         estimate D2E/DX2                !
 ! D39   D(4,3,5,15)            61.6853         estimate D2E/DX2                !
 ! D40   D(14,3,5,10)           79.6016         estimate D2E/DX2                !
 ! D41   D(14,3,5,15)          -56.8462         estimate D2E/DX2                !
 ! D42   D(18,3,5,10)          -42.938          estimate D2E/DX2                !
 ! D43   D(18,3,5,15)         -179.3858         estimate D2E/DX2                !
 ! D44   D(4,3,18,19)          172.7145         estimate D2E/DX2                !
 ! D45   D(5,3,18,19)           49.9            estimate D2E/DX2                !
 ! D46   D(14,3,18,19)         -70.9957         estimate D2E/DX2                !
 ! D47   D(2,4,20,21)           64.9439         estimate D2E/DX2                !
 ! D48   D(3,4,20,21)         -169.564          estimate D2E/DX2                !
 ! D49   D(7,4,20,21)          -54.4668         estimate D2E/DX2                !
 ! D50   D(3,5,15,26)         -160.5155         estimate D2E/DX2                !
 ! D51   D(10,5,15,26)          63.7385         estimate D2E/DX2                !
 ! D52   D(1,6,11,12)          -66.6492         estimate D2E/DX2                !
 ! D53   D(1,6,11,13)           51.8571         estimate D2E/DX2                !
 ! D54   D(1,6,11,16)          176.0755         estimate D2E/DX2                !
 ! D55   D(2,6,11,12)           56.0317         estimate D2E/DX2                !
 ! D56   D(2,6,11,13)          174.538          estimate D2E/DX2                !
 ! D57   D(2,6,11,16)          -61.2436         estimate D2E/DX2                !
 ! D58   D(8,6,11,12)          175.667          estimate D2E/DX2                !
 ! D59   D(8,6,11,13)          -65.8267         estimate D2E/DX2                !
 ! D60   D(8,6,11,16)           58.3917         estimate D2E/DX2                !
 ! D61   D(6,11,16,17)         -67.2171         estimate D2E/DX2                !
 ! D62   D(12,11,16,17)        172.4792         estimate D2E/DX2                !
 ! D63   D(13,11,16,17)         56.1552         estimate D2E/DX2                !
 ! D64   D(5,15,26,24)          44.9042         estimate D2E/DX2                !
 ! D65   D(4,20,28,29)          74.7154         estimate D2E/DX2                !
 ! D66   D(4,20,28,30)         -27.9717         estimate D2E/DX2                !
 ! D67   D(2,22,30,28)         -29.6449         estimate D2E/DX2                !
 ! D68   D(23,22,30,28)       -164.8302         estimate D2E/DX2                !
 ! D69   D(26,24,25,1)         -13.2554         estimate D2E/DX2                !
 ! D70   D(27,24,25,1)        -122.2551         estimate D2E/DX2                !
 ! D71   D(25,24,26,15)        -15.6993         estimate D2E/DX2                !
 ! D72   D(27,24,26,15)         92.59           estimate D2E/DX2                !
 ! D73   D(21,28,30,22)         15.2184         estimate D2E/DX2                !
 ! D74   D(29,28,30,22)        -92.2339         estimate D2E/DX2                !
 --------------------------------------------------------------------------------
 Trust Radius=3.00D-01 FncErr=1.00D-07 GrdErr=1.00D-06
 Number of steps in this run=    180 maximum allowed number of steps=    180.
 GradGradGradGradGradGradGradGradGradGradGradGradGradGradGradGradGradGrad

                          Input orientation:                          
 ---------------------------------------------------------------------
 Center     Atomic      Atomic             Coordinates (Angstroms)
 Number     Number       Type             X           Y           Z
 ---------------------------------------------------------------------
      1          8           0       -1.706460    0.278210    0.448010
      2          6           0        0.657570    0.408660   -0.151540
      3          6           0       -0.254890   -1.797560    0.822460
      4          6           0        0.984470   -1.024710    0.323490
      5          6           0       -1.537580   -1.387660    0.117880
      6          6           0       -0.512070    1.038240    0.624800
      7          1           0        1.632710   -0.917380    1.207820
      8          1           0       -0.249150    1.045930    1.693850
      9          1           0        0.387630    0.351320   -1.216180
     10          1           0       -2.451390   -1.678960    0.655030
     11          6           0       -0.807860    2.492300    0.186360
     12          1           0       -0.998330    2.531290   -0.891280
     13          1           0       -1.707750    2.851500    0.702130
     14          1           0       -0.063380   -2.862490    0.626450
     15          8           0       -1.554600   -1.602560   -1.197380
     16          8           0        0.296540    3.386180    0.400700
     17          1           0        0.425010    3.476910    1.359220
     18          8           0       -0.370730   -1.530120    2.217940
     19          1           0       -1.205780   -1.908510    2.535270
     20          8           0        1.598390   -1.795970   -0.681270
     21          1           0        2.474870   -1.393230   -0.883210
     22          8           0        1.851140    1.189070    0.022880
     23          1           0        1.602950    2.131920   -0.063660
     24          8           0       -2.956710    0.316940   -1.646080
     25          1           0       -2.496920    0.584440   -0.792480
     26          1           0       -2.283930   -1.012870   -1.584550
     27          1           0       -2.553730    0.826340   -2.364490
     28          8           0        3.923770   -0.290560   -1.009710
     29          1           0        4.494790   -0.469690   -0.247320
     30          1           0        3.338070    0.439750   -0.708420
 ---------------------------------------------------------------------
                    Distance matrix (angstroms):
                    1          2          3          4          5
     1  O    0.000000
     2  C    2.442359   0.000000
     3  C    2.560486   2.578501   0.000000
     4  C    2.992359   1.545013   1.543464   0.000000
     5  C    1.706643   2.849217   1.519784   2.556315   0.000000
     6  C    1.426698   1.538549   2.854290   2.566356   2.682094
     7  H    3.627231   2.134746   2.118078   1.101714   3.385243
     8  H    2.065251   2.152607   2.974019   2.772590   3.172711
     9  H    2.675834   1.099824   3.030936   2.149479   2.917225
    10  H    2.104351   3.830711   2.206062   3.513274   1.099288
    11  C    2.403776   2.569673   4.371876   3.949761   3.948578
    12  H    2.715053   2.791913   4.714716   4.248800   4.082568
    13  H    2.585807   3.505846   4.872273   4.734598   4.282614
    14  H    3.549021   3.438817   1.099624   2.137103   2.146400
    15  O    2.503531   3.167410   2.409777   3.015598   1.332809
    16  O    3.697800   3.049744   5.230021   4.464881   5.121868
    17  H    3.950335   3.427920   5.345129   4.652990   5.390429
    18  O    2.861273   3.229660   1.425590   2.383474   2.406675
    19  H    3.064160   4.007530   1.962198   3.235779   2.495025
    20  O    4.061961   2.454822   2.386599   1.407580   3.261850
    21  H    4.695677   2.661715   3.244130   1.952748   4.135452
    22  O    3.696880   1.436688   3.740942   2.396311   4.258167
    23  H    3.827563   1.967509   4.435943   3.239864   4.720522
    24  O    2.439229   3.912171   4.226657   4.605663   2.833928
    25  H    1.502471   3.223742   3.648103   3.994350   2.374504
    26  H    2.476219   3.567448   3.244447   3.784600   1.896253
    27  H    2.988054   3.922251   4.725057   4.813573   3.478005
    28  O    5.843624   3.448685   4.805111   3.309967   5.683435
    29  H    6.284770   3.937630   5.046497   3.599475   6.112735
    30  H    5.177906   2.737912   4.500946   2.957856   5.272017
                    6          7          8          9         10
     6  C    0.000000
     7  H    2.960480   0.000000
     8  H    1.100933   2.762645   0.000000
     9  H    2.161140   3.005927   3.058798   0.000000
    10  H    3.338421   4.191116   3.654317   3.960240   0.000000
    11  C    1.547259   4.315748   2.162561   2.824909   4.507799
    12  H    2.182692   4.818912   3.074160   2.603596   4.714728
    13  H    2.173371   5.061507   2.524105   3.784367   4.591327
    14  H    3.926451   2.645405   4.055811   3.731926   2.665361
    15  O    3.373579   4.051346   4.132543   2.755042   2.059488
    16  O    2.493370   4.577928   2.728880   3.439909   5.768141
    17  H    2.713780   4.559742   2.544825   4.050111   5.945802
    18  O    3.025648   2.325847   2.631632   3.988497   2.606528
    19  H    3.579730   3.286562   3.217428   4.660382   2.267055
    20  O    3.767308   2.083689   4.138961   2.522483   4.266158
    21  H    4.136176   2.303926   4.473368   2.740601   5.168739
    22  O    2.443321   2.426711   2.687722   2.092596   5.209316
    23  H    2.478593   3.303903   2.774615   2.444553   5.610436
    24  O    3.413713   5.543561   4.360899   3.372033   3.087729
    25  H    2.480775   4.828096   3.383383   2.924807   2.687069
    26  H    3.496822   4.811083   4.373430   3.022241   2.342528
    27  H    3.626173   5.773061   4.672198   3.193095   3.924857
    28  O    4.910602   3.249507   5.148660   3.599851   6.733623
    29  H    5.301235   3.241814   5.345111   4.299013   7.108163
    30  H    4.118160   2.902073   4.359645   2.995119   6.313935
                   11         12         13         14         15
    11  C    0.000000
    12  H    1.095037   0.000000
    13  H    1.097654   1.773349   0.000000
    14  H    5.424178   5.680713   5.946374   0.000000
    15  O    4.386369   4.182326   4.844610   2.671613   0.000000
    16  O    1.436893   2.019093   2.096168   6.263097   5.555907
    17  H    1.965967   2.825747   2.317665   6.400271   6.021302
    18  O    4.527501   5.153269   4.825339   2.098217   3.615412
    19  H    5.004283   5.612139   5.125434   2.420485   3.761377
    20  O    4.993203   5.050964   5.868844   2.368349   3.200800
    21  H    5.197850   5.240710   6.166469   3.298562   4.047116
    22  O    2.965707   3.279744   3.986321   4.521595   4.569606
    23  H    2.450385   2.758824   3.473466   5.310088   5.020138
    24  O    3.564770   3.050954   3.673960   4.862564   2.419034
    25  H    2.729649   2.458812   2.827757   4.451607   2.415550
    26  H    4.195369   3.833335   4.527057   3.638744   1.014671
    27  H    3.511456   2.737968   3.771089   5.362372   2.874015
    28  O    5.618115   5.674851   6.672103   5.018885   5.636409
    29  H    6.089299   6.292450   7.099525   5.221674   6.227450
    30  H    4.711935   4.817919   5.767711   4.925092   5.324315
                   16         17         18         19         20
    16  O    0.000000
    17  H    0.971338   0.000000
    18  O    5.283712   5.142077   0.000000
    19  H    5.903143   5.748506   0.970147   0.000000
    20  O    5.451619   5.774399   3.514759   4.268743   0.000000
    21  H    5.407061   5.740094   4.211094   5.049624   0.985493
    22  O    2.717871   3.008964   4.141134   5.025123   3.077365
    23  H    1.869627   2.284979   4.744644   5.564933   3.976152
    24  O    4.918656   5.518448   5.002957   5.049958   5.113138
    25  H    4.132414   4.640460   4.249079   4.353822   4.738173
    26  H    5.472813   6.013507   4.287985   4.351723   4.062212
    27  H    4.724732   5.455679   5.596165   5.770964   5.191324
    28  O    5.353921   5.661005   5.513344   6.441811   2.789538
    29  H    5.736982   5.892345   5.556555   6.504576   3.215037
    30  H    4.377499   4.688859   5.118512   6.056602   2.832961
                   21         22         23         24         25
    21  H    0.000000
    22  O    2.806833   0.000000
    23  H    3.722713   0.978802   0.000000
    24  O    5.745321   5.163474   5.156424   0.000000
    25  H    5.351458   4.464976   4.442388   1.005781   0.000000
    26  H    4.825218   4.952896   5.225959   1.491581   1.795589
    27  H    5.692759   5.023344   4.927103   0.968501   1.591527
    28  O    1.825156   2.747971   3.485631   6.936500   6.483678
    29  H    2.310273   3.132631   3.894206   7.622347   7.091713
    30  H    2.033588   1.818582   2.507947   6.365418   5.837389
                   26         27         28         29         30
    26  H    0.000000
    27  H    2.015885   0.000000
    28  O    6.275963   6.711252   0.000000
    29  H    6.930676   7.472867   0.969221   0.000000
    30  H    5.872358   6.132318   0.983449   1.541978   0.000000
 Stoichiometry    C6H16O8
 Framework group  C1[X(C6H16O8)]
 Deg. of freedom    84
 Full point group                 C1      NOp   1
 Largest Abelian subgroup         C1      NOp   1
 Largest concise Abelian subgroup C1      NOp   1
                         Standard orientation:                         
 ---------------------------------------------------------------------
 Center     Atomic      Atomic             Coordinates (Angstroms)
 Number     Number       Type             X           Y           Z
 ---------------------------------------------------------------------
      1          8           0       -1.707777    0.254156    0.452618
      2          6           0        0.654208    0.394227   -0.152791
      3          6           0       -0.247496   -1.816639    0.820690
      4          6           0        0.987683   -1.038514    0.319556
      5          6           0       -1.533508   -1.410646    0.119913
      6          6           0       -0.515792    1.018428    0.627340
      7          1           0        1.637775   -0.929888    1.202368
      8          1           0       -0.250171    1.025736    1.695725
      9          1           0        0.381765    0.337238   -1.216812
     10          1           0       -2.444845   -1.706054    0.659016
     11          6           0       -0.818141    2.471929    0.191530
     12          1           0       -1.011509    2.511584   -0.885570
     13          1           0       -1.718049    2.827096    0.710056
     14          1           0       -0.052503   -2.880593    0.622821
     15          8           0       -1.553084   -1.623926   -1.195575
     16          8           0        0.283449    3.369665    0.404203
     17          1           0        0.414028    3.459650    1.362509
     18          8           0       -0.360770   -1.551419    2.216804
     19          1           0       -1.193584   -1.933340    2.535776
     20          8           0        1.601916   -1.806184   -0.687759
     21          1           0        2.476364   -1.399906   -0.891415
     22          8           0        1.845291    1.178879    0.019589
     23          1           0        1.593354    2.120903   -0.065103
     24          8           0       -2.963511    0.290880   -1.638224
     25          1           0       -2.502545    0.559009   -0.785456
     26          1           0       -2.285603   -1.036478   -1.580124
     27          1           0       -2.564277    0.802704   -2.357003
     28          8           0        3.920799   -0.291655   -1.020190
     29          1           0        4.494431   -0.469619   -0.259490
     30          1           0        3.333141    0.436070   -0.716466
 ---------------------------------------------------------------------
 Rotational constants (GHZ):      0.6539449      0.5514558      0.4018674
 Standard basis: 6-31G(d) (6D, 7F)
 There are   242 symmetry adapted cartesian basis functions of A   symmetry.
 There are   242 symmetry adapted basis functions of A   symmetry.
   242 basis functions,   456 primitive gaussians,   242 cartesian basis functions
    58 alpha electrons       58 beta electrons
       nuclear repulsion energy      1116.4930395939 Hartrees.
 NAtoms=   30 NActive=   30 NUniq=   30 SFac= 1.00D+00 NAtFMM=   60 NAOKFM=F Big=F
 Integral buffers will be    131072 words long.
 Raffenetti 2 integral format.
 Two-electron integral symmetry is turned on.
 One-electron integrals computed using PRISM.
 NBasis=   242 RedAO= T EigKep=  1.34D-03  NBF=   242
 NBsUse=   242 1.00D-06 EigRej= -1.00D+00 NBFU=   242
 ExpMin= 1.61D-01 ExpMax= 5.48D+03 ExpMxC= 8.25D+02 IAcc=1 IRadAn=         1 AccDes= 0.00D+00
 Harris functional with IExCor=  402 and IRadAn=       1 diagonalized for initial guess.
 HarFok:  IExCor=  402 AccDes= 0.00D+00 IRadAn=         1 IDoV= 1 UseB2=F ITyADJ=14
 ICtDFT=  3500011 ScaDFX=  1.000000  1.000000  1.000000  1.000000
 FoFCou: FMM=F IPFlag=           0 FMFlag=      100000 FMFlg1=           0
         NFxFlg=           0 DoJE=T BraDBF=F KetDBF=T FulRan=T
         wScrn=  0.000000 ICntrl=     500 IOpCl=  0 I1Cent=   200000004 NGrid=           0
         NMat0=    1 NMatS0=      1 NMatT0=    0 NMatD0=    1 NMtDS0=    0 NMtDT0=    0
 Petite list used in FoFCou.
 Requested convergence on RMS density matrix=1.00D-08 within 128 cycles.
 Requested convergence on MAX density matrix=1.00D-06.
 Requested convergence on             energy=1.00D-06.
 No special actions if energy rises.
 Integral accuracy reduced to 1.0D-05 until final iterations.
 Initial convergence to 1.0D-05 achieved.  Increase integral accuracy.
 SCF Done:  E(RB3LYP) =  -839.968504364     A.U. after   14 cycles
            NFock= 14  Conv=0.57D-08     -V/T= 2.0085

 **********************************************************************

            Population analysis using the SCF density.

 **********************************************************************

 Orbital symmetries:
       Occupied  (A) (A) (A) (A) (A) (A) (A) (A) (A) (A) (A) (A)
                 (A) (A) (A) (A) (A) (A) (A) (A) (A) (A) (A) (A)
                 (A) (A) (A) (A) (A) (A) (A) (A) (A) (A) (A) (A)
                 (A) (A) (A) (A) (A) (A) (A) (A) (A) (A) (A) (A)
                 (A) (A) (A) (A) (A) (A) (A) (A) (A) (A)
       Virtual   (A) (A) (A) (A) (A) (A) (A) (A) (A) (A) (A) (A)
                 (A) (A) (A) (A) (A) (A) (A) (A) (A) (A) (A) (A)
                 (A) (A) (A) (A) (A) (A) (A) (A) (A) (A) (A) (A)
                 (A) (A) (A) (A) (A) (A) (A) (A) (A) (A) (A) (A)
                 (A) (A) (A) (A) (A) (A) (A) (A) (A) (A) (A) (A)
                 (A) (A) (A) (A) (A) (A) (A) (A) (A) (A) (A) (A)
                 (A) (A) (A) (A) (A) (A) (A) (A) (A) (A) (A) (A)
                 (A) (A) (A) (A) (A) (A) (A) (A) (A) (A) (A) (A)
                 (A) (A) (A) (A) (A) (A) (A) (A) (A) (A) (A) (A)
                 (A) (A) (A) (A) (A) (A) (A) (A) (A) (A) (A) (A)
                 (A) (A) (A) (A) (A) (A) (A) (A) (A) (A) (A) (A)
                 (A) (A) (A) (A) (A) (A) (A) (A) (A) (A) (A) (A)
                 (A) (A) (A) (A) (A) (A) (A) (A) (A) (A) (A) (A)
                 (A) (A) (A) (A) (A) (A) (A) (A) (A) (A) (A) (A)
                 (A) (A) (A) (A) (A) (A) (A) (A) (A) (A) (A) (A)
                 (A) (A) (A) (A)
 The electronic state is 1-A.
 Alpha  occ. eigenvalues --  -19.18979 -19.15913 -19.15900 -19.15807 -19.15101
 Alpha  occ. eigenvalues --  -19.14964 -19.14045 -19.11599 -10.30320 -10.25895
 Alpha  occ. eigenvalues --  -10.24824 -10.24595 -10.23979 -10.23311  -1.06935
 Alpha  occ. eigenvalues --   -1.05848  -1.03440  -1.02851  -1.01024  -1.00058
 Alpha  occ. eigenvalues --   -0.99286  -0.99023  -0.77356  -0.76253  -0.70409
 Alpha  occ. eigenvalues --   -0.65021  -0.63035  -0.56752  -0.55771  -0.54992
 Alpha  occ. eigenvalues --   -0.54777  -0.52627  -0.51932  -0.51112  -0.49762
 Alpha  occ. eigenvalues --   -0.47736  -0.46134  -0.44864  -0.44426  -0.42547
 Alpha  occ. eigenvalues --   -0.41133  -0.40878  -0.39980  -0.39224  -0.38523
 Alpha  occ. eigenvalues --   -0.37250  -0.35911  -0.35456  -0.33636  -0.32994
 Alpha  occ. eigenvalues --   -0.31067  -0.30172  -0.29782  -0.28522  -0.27594
 Alpha  occ. eigenvalues --   -0.27426  -0.26880  -0.24617
 Alpha virt. eigenvalues --    0.02536   0.04743   0.05436   0.06181   0.07701
 Alpha virt. eigenvalues --    0.10089   0.11644   0.12908   0.13957   0.14298
 Alpha virt. eigenvalues --    0.15752   0.16422   0.17306   0.18210   0.19353
 Alpha virt. eigenvalues --    0.20076   0.20598   0.21629   0.22984   0.23792
 Alpha virt. eigenvalues --    0.25591   0.25970   0.26885   0.28855   0.29702
 Alpha virt. eigenvalues --    0.31463   0.32097   0.33751   0.51820   0.52828
 Alpha virt. eigenvalues --    0.54771   0.55190   0.55348   0.56506   0.58600
 Alpha virt. eigenvalues --    0.60112   0.62021   0.62260   0.65960   0.66537
 Alpha virt. eigenvalues --    0.68944   0.70760   0.71668   0.73516   0.74411
 Alpha virt. eigenvalues --    0.76865   0.77454   0.77988   0.79417   0.81107
 Alpha virt. eigenvalues --    0.81750   0.82978   0.83669   0.84148   0.85070
 Alpha virt. eigenvalues --    0.85603   0.86568   0.88636   0.88767   0.90197
 Alpha virt. eigenvalues --    0.90566   0.92278   0.92406   0.93704   0.95136
 Alpha virt. eigenvalues --    0.96454   0.97366   1.00136   1.01992   1.03403
 Alpha virt. eigenvalues --    1.03963   1.05465   1.05953   1.07354   1.08780
 Alpha virt. eigenvalues --    1.09424   1.11259   1.11765   1.12705   1.15758
 Alpha virt. eigenvalues --    1.16974   1.21136   1.23335   1.24478   1.26211
 Alpha virt. eigenvalues --    1.28958   1.32492   1.33280   1.38826   1.39216
 Alpha virt. eigenvalues --    1.41884   1.43807   1.45843   1.47808   1.50560
 Alpha virt. eigenvalues --    1.52690   1.53955   1.55246   1.56526   1.59030
 Alpha virt. eigenvalues --    1.60471   1.61948   1.63337   1.65758   1.67052
 Alpha virt. eigenvalues --    1.70390   1.71749   1.72838   1.73343   1.74329
 Alpha virt. eigenvalues --    1.75387   1.76012   1.76477   1.78637   1.80217
 Alpha virt. eigenvalues --    1.82146   1.82743   1.83929   1.86141   1.86996
 Alpha virt. eigenvalues --    1.88035   1.90010   1.91586   1.93898   1.96629
 Alpha virt. eigenvalues --    1.97098   1.99523   2.00819   2.02853   2.03513
 Alpha virt. eigenvalues --    2.05158   2.08267   2.08704   2.11549   2.12590
 Alpha virt. eigenvalues --    2.16387   2.17195   2.22376   2.22957   2.27979
 Alpha virt. eigenvalues --    2.30528   2.33265   2.33502   2.36311   2.41363
 Alpha virt. eigenvalues --    2.42356   2.45507   2.45937   2.48792   2.50042
 Alpha virt. eigenvalues --    2.53161   2.54227   2.56893   2.58180   2.60058
 Alpha virt. eigenvalues --    2.60750   2.63886   2.65214   2.68917   2.70246
 Alpha virt. eigenvalues --    2.71685   2.75408   2.81972   2.83827   2.90097
 Alpha virt. eigenvalues --    2.90641   2.97190   2.97853   3.03263   3.13069
 Alpha virt. eigenvalues --    3.73926   3.76668   3.78621   3.86774   3.90146
 Alpha virt. eigenvalues --    4.00481   4.01910   4.09747   4.25294   4.31872
 Alpha virt. eigenvalues --    4.49137   4.53838   4.64505   4.83101
          Condensed to atoms (all electrons):
               1          2          3          4          5          6
     1  O    8.514082  -0.032481  -0.007749  -0.011451   0.121925   0.159165
     2  C   -0.032481   5.044351  -0.033883   0.335043  -0.009651   0.276075
     3  C   -0.007749  -0.033883   5.030369   0.301160   0.306485  -0.010054
     4  C   -0.011451   0.335043   0.301160   4.860528  -0.023207  -0.020679
     5  C    0.121925  -0.009651   0.306485  -0.023207   4.788142  -0.015870
     6  C    0.159165   0.276075  -0.010054  -0.020679  -0.015870   4.998983
     7  H    0.000303  -0.057328  -0.055514   0.350855   0.005152  -0.001713
     8  H   -0.033789  -0.057721  -0.000448  -0.008348  -0.001983   0.354716
     9  H    0.002214   0.337384  -0.004091  -0.046105   0.002007  -0.044536
    10  H   -0.043266   0.000428  -0.064736   0.004855   0.365229   0.002839
    11  C   -0.036258  -0.021920   0.000234   0.003387   0.001565   0.319846
    12  H    0.001294  -0.008918   0.000006  -0.000028  -0.000047  -0.038116
    13  H    0.004597   0.004911   0.000002  -0.000101  -0.000132  -0.043626
    14  H    0.002239   0.004946   0.356371  -0.041755  -0.048951   0.000431
    15  O   -0.042003  -0.000253  -0.047313   0.003099   0.277068   0.000930
    16  O    0.001295  -0.002087   0.000008  -0.000052  -0.000023  -0.032797
    17  H    0.000004  -0.001274   0.000001  -0.000002  -0.000001  -0.001398
    18  O   -0.001028  -0.000031   0.194431  -0.040122  -0.032304   0.002007
    19  H   -0.000056  -0.000344  -0.027869   0.007059  -0.003346   0.000145
    20  O    0.000038  -0.044413  -0.043389   0.245774  -0.000334   0.003836
    21  H   -0.000002  -0.001625   0.005345  -0.020769  -0.000092   0.000046
    22  O    0.001325   0.188689   0.002950  -0.042913   0.000138  -0.025034
    23  H    0.000041  -0.018854  -0.000206   0.004165  -0.000001  -0.009618
    24  O   -0.070814  -0.001114  -0.000314   0.000018   0.008015   0.006814
    25  H    0.084155   0.000906   0.001038  -0.000006  -0.008832  -0.011790
    26  H    0.004750  -0.000130   0.004709  -0.000261  -0.024434  -0.000218
    27  H    0.003510  -0.000055  -0.000023   0.000001  -0.000274  -0.000397
    28  O    0.000000   0.000099   0.000071   0.004810  -0.000000  -0.000010
    29  H   -0.000000  -0.000295   0.000015   0.000509  -0.000000  -0.000003
    30  H   -0.000005  -0.003797   0.000038  -0.000789  -0.000002   0.000579
               7          8          9         10         11         12
     1  O    0.000303  -0.033789   0.002214  -0.043266  -0.036258   0.001294
     2  C   -0.057328  -0.057721   0.337384   0.000428  -0.021920  -0.008918
     3  C   -0.055514  -0.000448  -0.004091  -0.064736   0.000234   0.000006
     4  C    0.350855  -0.008348  -0.046105   0.004855   0.003387  -0.000028
     5  C    0.005152  -0.001983   0.002007   0.365229   0.001565  -0.000047
     6  C   -0.001713   0.354716  -0.044536   0.002839   0.319846  -0.038116
     7  H    0.642438   0.003741   0.007509  -0.000221  -0.000305   0.000004
     8  H    0.003741   0.637585   0.007184  -0.000037  -0.058759   0.005985
     9  H    0.007509   0.007184   0.637317   0.000191  -0.013040   0.005839
    10  H   -0.000221  -0.000037   0.000191   0.638519  -0.000143  -0.000002
    11  C   -0.000305  -0.058759  -0.013040  -0.000143   4.983155   0.360226
    12  H    0.000004   0.005985   0.005839  -0.000002   0.360226   0.588461
    13  H    0.000007  -0.005801  -0.000124   0.000004   0.365534  -0.039583
    14  H   -0.001550   0.000073  -0.000251  -0.001468   0.000017  -0.000000
    15  O   -0.000016  -0.000145   0.006249  -0.042536  -0.000039  -0.000046
    16  O   -0.000005   0.001260   0.000140   0.000000   0.215147  -0.034599
    17  H    0.000004   0.005621   0.000108  -0.000000  -0.029020   0.007163
    18  O    0.006096   0.008235   0.000083  -0.000162   0.000230  -0.000005
    19  H    0.000069  -0.000254   0.000022   0.008278  -0.000020   0.000000
    20  O   -0.035850   0.000021   0.003626  -0.000089  -0.000047  -0.000003
    21  H   -0.004012   0.000003  -0.000004   0.000006  -0.000001   0.000000
    22  O    0.001686   0.004644  -0.037620   0.000002   0.000541   0.000247
    23  H   -0.000024  -0.000182  -0.001311  -0.000000  -0.005173  -0.001106
    24  O   -0.000000  -0.000119   0.001071   0.000362  -0.000081   0.001227
    25  H    0.000002   0.001240   0.000565   0.000841  -0.002193   0.003716
    26  H    0.000013   0.000024   0.000239  -0.003823  -0.000017  -0.000064
    27  H    0.000000   0.000029   0.000688   0.000013  -0.000285   0.002408
    28  O    0.001121   0.000000   0.000086  -0.000000  -0.000001   0.000000
    29  H    0.000263  -0.000000   0.000004  -0.000000  -0.000000  -0.000000
    30  H    0.000197  -0.000026  -0.000390   0.000000  -0.000009  -0.000005
              13         14         15         16         17         18
     1  O    0.004597   0.002239  -0.042003   0.001295   0.000004  -0.001028
     2  C    0.004911   0.004946  -0.000253  -0.002087  -0.001274  -0.000031
     3  C    0.000002   0.356371  -0.047313   0.000008   0.000001   0.194431
     4  C   -0.000101  -0.041755   0.003099  -0.000052  -0.000002  -0.040122
     5  C   -0.000132  -0.048951   0.277068  -0.000023  -0.000001  -0.032304
     6  C   -0.043626   0.000431   0.000930  -0.032797  -0.001398   0.002007
     7  H    0.000007  -0.001550  -0.000016  -0.000005   0.000004   0.006096
     8  H   -0.005801   0.000073  -0.000145   0.001260   0.005621   0.008235
     9  H   -0.000124  -0.000251   0.006249   0.000140   0.000108   0.000083
    10  H    0.000004  -0.001468  -0.042536   0.000000  -0.000000  -0.000162
    11  C    0.365534   0.000017  -0.000039   0.215147  -0.029020   0.000230
    12  H   -0.039583  -0.000000  -0.000046  -0.034599   0.007163  -0.000005
    13  H    0.585705  -0.000000   0.000010  -0.028010  -0.006851   0.000002
    14  H   -0.000000   0.582732   0.003414  -0.000000  -0.000000  -0.029985
    15  O    0.000010   0.003414   8.305010   0.000000  -0.000000   0.001753
    16  O   -0.028010  -0.000000   0.000000   8.225927   0.235710  -0.000000
    17  H   -0.006851  -0.000000  -0.000000   0.235710   0.382636  -0.000002
    18  O    0.000002  -0.029985   0.001753  -0.000000  -0.000002   8.289353
    19  H    0.000001  -0.003144   0.000034   0.000000   0.000000   0.231503
    20  O    0.000000   0.008312   0.000630   0.000000  -0.000000   0.001004
    21  H   -0.000000   0.000031   0.000045   0.000000  -0.000000  -0.000091
    22  O   -0.000205  -0.000058   0.000023  -0.021306   0.002699  -0.000036
    23  H    0.000993   0.000005   0.000000   0.059709  -0.004078   0.000002
    24  O   -0.000103   0.000008  -0.074387   0.000002  -0.000001   0.000001
    25  H    0.000819  -0.000059   0.011322   0.000072   0.000012   0.000024
    26  H    0.000002  -0.000172   0.185175  -0.000000   0.000000  -0.000068
    27  H   -0.000032  -0.000001   0.004411   0.000004   0.000001  -0.000000
    28  O   -0.000000   0.000001  -0.000000  -0.000000   0.000000   0.000000
    29  H    0.000000  -0.000000  -0.000000   0.000000  -0.000000  -0.000000
    30  H    0.000001  -0.000005   0.000000   0.000031  -0.000006  -0.000000
              19         20         21         22         23         24
     1  O   -0.000056   0.000038  -0.000002   0.001325   0.000041  -0.070814
     2  C   -0.000344  -0.044413  -0.001625   0.188689  -0.018854  -0.001114
     3  C   -0.027869  -0.043389   0.005345   0.002950  -0.000206  -0.000314
     4  C    0.007059   0.245774  -0.020769  -0.042913   0.004165   0.000018
     5  C   -0.003346  -0.000334  -0.000092   0.000138  -0.000001   0.008015
     6  C    0.000145   0.003836   0.000046  -0.025034  -0.009618   0.006814
     7  H    0.000069  -0.035850  -0.004012   0.001686  -0.000024  -0.000000
     8  H   -0.000254   0.000021   0.000003   0.004644  -0.000182  -0.000119
     9  H    0.000022   0.003626  -0.000004  -0.037620  -0.001311   0.001071
    10  H    0.008278  -0.000089   0.000006   0.000002  -0.000000   0.000362
    11  C   -0.000020  -0.000047  -0.000001   0.000541  -0.005173  -0.000081
    12  H    0.000000  -0.000003   0.000000   0.000247  -0.001106   0.001227
    13  H    0.000001   0.000000  -0.000000  -0.000205   0.000993  -0.000103
    14  H   -0.003144   0.008312   0.000031  -0.000058   0.000005   0.000008
    15  O    0.000034   0.000630   0.000045   0.000023   0.000000  -0.074387
    16  O    0.000000   0.000000   0.000000  -0.021306   0.059709   0.000002
    17  H    0.000000  -0.000000  -0.000000   0.002699  -0.004078  -0.000001
    18  O    0.231503   0.001004  -0.000091  -0.000036   0.000002   0.000001
    19  H    0.392490  -0.000126   0.000007   0.000003  -0.000001   0.000001
    20  O   -0.000126   8.345846   0.204590   0.000554  -0.000124  -0.000000
    21  H    0.000007   0.204590   0.326411   0.001415  -0.000020   0.000000
    22  O    0.000003   0.000554   0.001415   8.370330   0.213442   0.000001
    23  H   -0.000001  -0.000124  -0.000020   0.213442   0.336366  -0.000000
    24  O    0.000001  -0.000000   0.000000   0.000001  -0.000000   8.451555
    25  H   -0.000006   0.000001  -0.000000  -0.000013   0.000004   0.169893
    26  H   -0.000013   0.000069  -0.000003  -0.000002  -0.000000   0.103501
    27  H    0.000000  -0.000000   0.000000  -0.000000   0.000000   0.234724
    28  O   -0.000000  -0.025378   0.076746  -0.021576   0.000431   0.000000
    29  H    0.000000   0.001347  -0.004153   0.001190  -0.000017  -0.000000
    30  H    0.000000   0.004530  -0.009004   0.056105  -0.001033  -0.000000
              25         26         27         28         29         30
     1  O    0.084155   0.004750   0.003510   0.000000  -0.000000  -0.000005
     2  C    0.000906  -0.000130  -0.000055   0.000099  -0.000295  -0.003797
     3  C    0.001038   0.004709  -0.000023   0.000071   0.000015   0.000038
     4  C   -0.000006  -0.000261   0.000001   0.004810   0.000509  -0.000789
     5  C   -0.008832  -0.024434  -0.000274  -0.000000  -0.000000  -0.000002
     6  C   -0.011790  -0.000218  -0.000397  -0.000010  -0.000003   0.000579
     7  H    0.000002   0.000013   0.000000   0.001121   0.000263   0.000197
     8  H    0.001240   0.000024   0.000029   0.000000  -0.000000  -0.000026
     9  H    0.000565   0.000239   0.000688   0.000086   0.000004  -0.000390
    10  H    0.000841  -0.003823   0.000013  -0.000000  -0.000000   0.000000
    11  C   -0.002193  -0.000017  -0.000285  -0.000001  -0.000000  -0.000009
    12  H    0.003716  -0.000064   0.002408   0.000000  -0.000000  -0.000005
    13  H    0.000819   0.000002  -0.000032  -0.000000   0.000000   0.000001
    14  H   -0.000059  -0.000172  -0.000001   0.000001  -0.000000  -0.000005
    15  O    0.011322   0.185175   0.004411  -0.000000  -0.000000   0.000000
    16  O    0.000072  -0.000000   0.000004  -0.000000   0.000000   0.000031
    17  H    0.000012   0.000000   0.000001   0.000000  -0.000000  -0.000006
    18  O    0.000024  -0.000068  -0.000000   0.000000  -0.000000  -0.000000
    19  H   -0.000006  -0.000013   0.000000  -0.000000   0.000000   0.000000
    20  O    0.000001   0.000069  -0.000000  -0.025378   0.001347   0.004530
    21  H   -0.000000  -0.000003   0.000000   0.076746  -0.004153  -0.009004
    22  O   -0.000013  -0.000002  -0.000000  -0.021576   0.001190   0.056105
    23  H    0.000004  -0.000000   0.000000   0.000431  -0.000017  -0.001033
    24  O    0.169893   0.103501   0.234724   0.000000  -0.000000  -0.000000
    25  H    0.321086  -0.015151  -0.008201  -0.000000   0.000000   0.000000
    26  H   -0.015151   0.301978  -0.006157   0.000000  -0.000000  -0.000000
    27  H   -0.008201  -0.006157   0.372407  -0.000000   0.000000   0.000000
    28  O   -0.000000   0.000000  -0.000000   8.314052   0.240811   0.213629
    29  H    0.000000  -0.000000   0.000000   0.240811   0.384660  -0.016793
    30  H    0.000000  -0.000000   0.000000   0.213629  -0.016793   0.327012
 Mulliken charges:
               1
     1  O   -0.622037
     2  C    0.103341
     3  C    0.092355
     4  C    0.135325
     5  C    0.293758
     6  C    0.129446
     7  H    0.137078
     8  H    0.137252
     9  H    0.134943
    10  H    0.134916
    11  C   -0.082570
    12  H    0.145946
    13  H    0.161982
    14  H    0.168819
    15  O   -0.592435
    16  O   -0.620425
    17  H    0.408675
    18  O   -0.630890
    19  H    0.395564
    20  O   -0.670426
    21  H    0.425130
    22  O   -0.697221
    23  H    0.426589
    24  O   -0.830261
    25  H    0.450553
    26  H    0.450052
    27  H    0.397228
    28  O   -0.804894
    29  H    0.392462
    30  H    0.429743
 Sum of Mulliken charges =  -0.00000
 Mulliken charges with hydrogens summed into heavy atoms:
               1
     1  O   -0.622037
     2  C    0.238284
     3  C    0.261174
     4  C    0.272403
     5  C    0.428674
     6  C    0.266698
    11  C    0.225358
    15  O   -0.142382
    16  O   -0.211750
    18  O   -0.235326
    20  O   -0.245297
    22  O   -0.270631
    24  O    0.017520
    28  O    0.017311
 Electronic spatial extent (au):  <R**2>=           3083.6687
 Charge=              0.0000 electrons
 Dipole moment (field-independent basis, Debye):
    X=             -1.0455    Y=              2.9606    Z=              3.0439  Tot=              4.3730
 Quadrupole moment (field-independent basis, Debye-Ang):
   XX=            -86.1399   YY=            -80.6457   ZZ=            -81.7921
   XY=              3.6654   XZ=              4.3672   YZ=             -3.7911
 Traceless Quadrupole moment (field-independent basis, Debye-Ang):
   XX=             -3.2807   YY=              2.2136   ZZ=              1.0671
   XY=              3.6654   XZ=              4.3672   YZ=             -3.7911
 Octapole moment (field-independent basis, Debye-Ang**2):
  XXX=             51.7621  YYY=              5.9034  ZZZ=            -10.6807  XYY=            -13.0834
  XXY=             -5.4910  XXZ=             38.5895  XZZ=            -21.9771  YZZ=             19.5446
  YYZ=             30.3226  XYZ=             10.9484
 Hexadecapole moment (field-independent basis, Debye-Ang**3):
 XXXX=          -1629.8557 YYYY=          -1401.5985 ZZZZ=           -510.5976 XXXY=              4.2488
 XXXZ=             77.4836 YYYX=             29.6217 YYYZ=             30.8665 ZZZX=             21.9739
 ZZZY=             -7.6568 XXYY=           -468.4659 XXZZ=           -395.0851 YYZZ=           -271.1025
 XXYZ=            -30.7909 YYXZ=             -7.2247 ZZXY=             17.4002
 N-N= 1.116493039594D+03 E-N=-4.205413813860D+03  KE= 8.328499787318D+02
 Calling FoFJK, ICntrl=      2127 FMM=F ISym2X=0 I1Cent= 0 IOpClX= 0 NMat=1 NMatS=1 NMatT=0.
 ***** Axes restored to original set *****
 -------------------------------------------------------------------
 Center     Atomic                   Forces (Hartrees/Bohr)
 Number     Number              X              Y              Z
 -------------------------------------------------------------------
      1        8           0.009433711   -0.022849571    0.004548204
      2        6           0.001089927   -0.000077294    0.000416745
      3        6          -0.001603247    0.001970496   -0.000246984
      4        6           0.000373114   -0.000472992    0.000141331
      5        6          -0.000193824    0.028954440    0.009989885
      6        6           0.002656204   -0.004169051    0.002018464
      7        1           0.000045498   -0.000028611    0.000012929
      8        1           0.000369531   -0.000001753    0.000118969
      9        1          -0.000087463    0.000052428    0.000082812
     10        1           0.000150237    0.000505518    0.000057500
     11        6          -0.001492826   -0.002920335   -0.000118363
     12        1          -0.000048433   -0.000269254   -0.000012210
     13        1          -0.000097076   -0.000149499   -0.000035238
     14        1          -0.000960114    0.000179754   -0.000568837
     15        8           0.011799916   -0.008073134    0.003533179
     16        8          -0.001297864   -0.002131503    0.000145318
     17        1          -0.000077387   -0.000098828    0.000016897
     18        8           0.001543442   -0.001312121    0.000415263
     19        1           0.000109084   -0.000102676    0.000022352
     20        8          -0.000086482   -0.000184050   -0.000081756
     21        1          -0.000012229   -0.000026871   -0.000023247
     22        8           0.000660124    0.000022200   -0.000277292
     23        1           0.000038335    0.000007134    0.000054810
     24        8          -0.019074567    0.012793766   -0.017063311
     25        1          -0.002531035    0.000906722   -0.001838864
     26        1          -0.000218678   -0.003277010   -0.000725053
     27        1          -0.000334628    0.000784512   -0.000570071
     28        8          -0.000145793   -0.000045178    0.000006993
     29        1          -0.000012791    0.000009882    0.000003661
     30        1           0.000005315    0.000002879   -0.000024086
 -------------------------------------------------------------------
 Cartesian Forces:  Max     0.028954440 RMS     0.005466124

 GradGradGradGradGradGradGradGradGradGradGradGradGradGradGradGradGradGrad
 Berny optimization.
 FormGI is forming the generalized inverse of G from B-inverse, IUseBI=4.
 Internal  Forces:  Max     0.033224624 RMS     0.006572724
 Search for a local minimum.
 Step number   1 out of a maximum of  180
 All quantities printed in internal units (Hartrees-Bohrs-Radians)
 Mixed Optimization -- RFO/linear search
 Second derivative matrix not updated -- first step.
 ITU=  0
     Eigenvalues ---    0.00230   0.00345   0.00443   0.00502   0.00685
     Eigenvalues ---    0.00712   0.00900   0.00936   0.01204   0.01281
     Eigenvalues ---    0.01353   0.02047   0.02084   0.02653   0.02826
     Eigenvalues ---    0.03761   0.04079   0.04361   0.04552   0.04621
     Eigenvalues ---    0.04695   0.05071   0.05155   0.05302   0.05688
     Eigenvalues ---    0.05990   0.06403   0.06676   0.06833   0.07239
     Eigenvalues ---    0.07377   0.07790   0.08344   0.08847   0.09215
     Eigenvalues ---    0.09572   0.09748   0.11617   0.11724   0.11805
     Eigenvalues ---    0.12717   0.13741   0.14001   0.14040   0.15649
     Eigenvalues ---    0.15802   0.16000   0.16000   0.16911   0.17174
     Eigenvalues ---    0.18164   0.19181   0.20078   0.20638   0.21077
     Eigenvalues ---    0.21493   0.22061   0.26886   0.27738   0.27885
     Eigenvalues ---    0.28374   0.29936   0.33493   0.33579   0.33702
     Eigenvalues ---    0.33724   0.33761   0.33943   0.34237   0.38570
     Eigenvalues ---    0.40015   0.40601   0.41629   0.43050   0.43929
     Eigenvalues ---    0.45757   0.48771   0.49731   0.51618   0.53105
     Eigenvalues ---    0.53347   0.53536   0.53684   0.57451
 RFO step:  Lambda=-4.57143776D-02 EMin= 2.30000000D-03
 Linear search not attempted -- first point.
 Maximum step size (   0.300) exceeded in Quadratic search.
    -- Step size scaled by   0.831
 Iteration  1 RMS(Cart)=  0.16792082 RMS(Int)=  0.00673025
 Iteration  2 RMS(Cart)=  0.01217089 RMS(Int)=  0.00115611
 Iteration  3 RMS(Cart)=  0.00012949 RMS(Int)=  0.00115387
 Iteration  4 RMS(Cart)=  0.00000024 RMS(Int)=  0.00115387
 Variable       Old X    -DE/DX   Delta X   Delta X   Delta X     New X
                                 (Linear)    (Quad)   (Total)
    R1        2.69607   0.00786   0.00000   0.01474   0.01464   2.71071
    R2        2.83926   0.02104   0.00000   0.09957   0.09991   2.93916
    R3        2.91965  -0.01432   0.00000  -0.04150  -0.04227   2.87738
    R4        2.90744  -0.00650   0.00000  -0.01322  -0.01487   2.89256
    R5        2.07837  -0.00006   0.00000  -0.00013  -0.00013   2.07823
    R6        2.71495   0.00051   0.00000  -0.00319  -0.00349   2.71145
    R7        2.91672  -0.00838   0.00000  -0.02476  -0.02375   2.89297
    R8        2.87198  -0.00120   0.00000  -0.00023   0.00011   2.87209
    R9        2.07799  -0.00024   0.00000  -0.00052  -0.00052   2.07747
   R10        2.69398   0.00003   0.00000   0.00005   0.00005   2.69402
   R11        2.08194   0.00003   0.00000   0.00007   0.00007   2.08201
   R12        2.65994   0.00020   0.00000  -0.00192  -0.00196   2.65798
   R13        2.07735  -0.00023   0.00000  -0.00050  -0.00050   2.07685
   R14        2.51864   0.00599   0.00000   0.01091   0.00944   2.52809
   R15        2.08046   0.00020   0.00000   0.00045   0.00045   2.08091
   R16        2.92390  -0.00461   0.00000  -0.01190  -0.01189   2.91201
   R17        2.06932   0.00001   0.00000   0.00002   0.00002   2.06934
   R18        2.07427   0.00002   0.00000   0.00003   0.00003   2.07430
   R19        2.71533  -0.00242   0.00000  -0.00451  -0.00451   2.71083
   R20        1.91745   0.00590   0.00000   0.01179   0.01218   1.92963
   R21        1.83556  -0.00000   0.00000  -0.00000  -0.00000   1.83556
   R22        1.83331  -0.00005   0.00000  -0.00007  -0.00007   1.83324
   R23        1.86231   0.00021   0.00000   0.00266   0.00300   1.86531
   R24        3.44905   0.00030   0.00000   0.01794   0.01832   3.46736
   R25        1.84967  -0.00001   0.00000  -0.00001  -0.00001   1.84966
   R26        3.43662   0.00035   0.00000   0.00371   0.00368   3.44031
   R27        1.90065   0.01015   0.00000   0.01354   0.01438   1.91503
   R28        2.81868   0.00220   0.00000   0.01454   0.01543   2.83410
   R29        1.83020   0.00069   0.00000   0.00099   0.00099   1.83119
   R30        1.83156  -0.00001   0.00000  -0.00001  -0.00001   1.83155
   R31        1.85845   0.00080   0.00000   0.00236   0.00252   1.86097
    A1        2.01992  -0.01919   0.00000  -0.05031  -0.04680   1.97312
    A2        1.96638  -0.01718   0.00000  -0.09233  -0.09313   1.87325
    A3        1.87673   0.00761   0.00000   0.02753   0.02659   1.90332
    A4        1.86590  -0.00027   0.00000   0.00070   0.00235   1.86826
    A5        1.89990  -0.00092   0.00000  -0.00255  -0.00402   1.89588
    A6        1.92627   0.01347   0.00000   0.06524   0.06637   1.99265
    A7        1.92810  -0.00291   0.00000   0.00076  -0.00005   1.92804
    A8        1.97445  -0.00202   0.00000  -0.03440  -0.03396   1.94049
    A9        1.86237   0.00159   0.00000   0.02210   0.02182   1.88419
   A10        1.86269  -0.00075   0.00000  -0.00540  -0.00523   1.85746
   A11        1.90239   0.00078   0.00000   0.01211   0.01317   1.91556
   A12        1.91201   0.00114   0.00000   0.00800   0.00645   1.91846
   A13        1.95015  -0.00083   0.00000  -0.00309  -0.00311   1.94704
   A14        1.97582  -0.01869   0.00000  -0.10381  -0.10397   1.87185
   A15        1.85554   0.00605   0.00000   0.02135   0.02101   1.87655
   A16        1.96184   0.00046   0.00000   0.01299   0.01294   1.97478
   A17        1.83563  -0.00096   0.00000  -0.00258  -0.00429   1.83134
   A18        1.88244   0.01444   0.00000   0.06572   0.06701   1.94945
   A19        1.94951  -0.00194   0.00000   0.00308   0.00235   1.95186
   A20        1.98623  -0.00082   0.00000  -0.01837  -0.02077   1.96546
   A21        2.00953  -0.01849   0.00000  -0.06710  -0.06785   1.94168
   A22        2.01403   0.00842   0.00000  -0.00068  -0.00445   2.00957
   A23        1.93469   0.00085   0.00000  -0.00706  -0.00977   1.92493
   A24        1.90073   0.00469   0.00000   0.01694   0.01728   1.91801
   A25        1.88123  -0.00864   0.00000  -0.02392  -0.02230   1.85894
   A26        1.88734  -0.00378   0.00000  -0.01240  -0.01214   1.87520
   A27        1.96807   0.00655   0.00000   0.02088   0.02200   1.99007
   A28        1.89046   0.00046   0.00000   0.00637   0.00590   1.89636
   A29        1.92365   0.00016   0.00000   0.00017   0.00018   1.92383
   A30        1.90828   0.00037   0.00000   0.00067   0.00067   1.90894
   A31        1.97732  -0.00186   0.00000  -0.00599  -0.00599   1.97132
   A32        1.88406  -0.00011   0.00000   0.00053   0.00053   1.88459
   A33        1.83210   0.00085   0.00000   0.00311   0.00311   1.83521
   A34        1.93527   0.00067   0.00000   0.00184   0.00184   1.93711
   A35        1.86714  -0.00126   0.00000   0.00654   0.00649   1.87363
   A36        1.88280  -0.00023   0.00000  -0.00092  -0.00092   1.88188
   A37        1.89332   0.00001   0.00000   0.00006   0.00006   1.89338
   A38        1.88626   0.00038   0.00000  -0.01804  -0.01779   1.86847
   A39        1.87744  -0.00065   0.00000   0.00913   0.00951   1.88694
   A40        1.98956  -0.00014   0.00000  -0.02762  -0.02841   1.96115
   A41        2.17568   0.00186   0.00000   0.01358   0.01411   2.18979
   A42        1.56671  -0.03322   0.00000  -0.17262  -0.16935   1.39736
   A43        1.87490   0.00638   0.00000   0.01008   0.01188   1.88678
   A44        1.88793   0.00860   0.00000   0.02686   0.02397   1.91190
   A45        2.66162  -0.00062   0.00000  -0.02469  -0.02401   2.63762
   A46        2.60232  -0.00250   0.00000  -0.02111  -0.02100   2.58132
   A47        1.87709  -0.00059   0.00000  -0.00106  -0.00100   1.87609
   A48        1.52541   0.00006   0.00000   0.01708   0.01754   1.54295
   A49        1.82052  -0.00086   0.00000  -0.00289  -0.00294   1.81758
   A50        2.72909  -0.00201   0.00000  -0.00153  -0.00190   2.72719
   A51        2.90266  -0.00304   0.00000  -0.02754  -0.02778   2.87488
   A52        3.04484   0.00445   0.00000   0.00768   0.00886   3.05371
    D1       -1.46634  -0.00920   0.00000  -0.10261  -0.10343  -1.56977
    D2        2.74253  -0.00799   0.00000  -0.09372  -0.09330   2.64923
    D3        0.69520  -0.00631   0.00000  -0.09720  -0.09705   0.59816
    D4        2.19897   0.01061   0.00000   0.09276   0.09118   2.29014
    D5        0.55569  -0.01369   0.00000  -0.09675  -0.09946   0.45623
    D6       -1.45101  -0.00645   0.00000  -0.05240  -0.05429  -1.50530
    D7        2.69407  -0.00841   0.00000  -0.07856  -0.08025   2.61382
    D8       -1.53778  -0.00721   0.00000  -0.05600  -0.05673  -1.59451
    D9        2.73871   0.00004   0.00000  -0.01165  -0.01155   2.72715
   D10        0.60061  -0.00192   0.00000  -0.03780  -0.03752   0.56309
   D11        2.67468  -0.00762   0.00000  -0.07155  -0.07213   2.60255
   D12        0.66798  -0.00037   0.00000  -0.02720  -0.02696   0.64102
   D13       -1.47012  -0.00233   0.00000  -0.05335  -0.05292  -1.52304
   D14       -1.06721  -0.00681   0.00000  -0.03827  -0.03811  -1.10532
   D15        1.01517  -0.00293   0.00000  -0.02943  -0.03022   0.98495
   D16        3.10500  -0.00085   0.00000  -0.01691  -0.01747   3.08753
   D17        1.01284  -0.00863   0.00000  -0.06319  -0.06257   0.95027
   D18        3.09522  -0.00475   0.00000  -0.05435  -0.05468   3.04054
   D19       -1.09814  -0.00267   0.00000  -0.04183  -0.04193  -1.14007
   D20        3.13168  -0.00437   0.00000  -0.02300  -0.02135   3.11033
   D21       -1.06913  -0.00049   0.00000  -0.01416  -0.01346  -1.08259
   D22        1.02070   0.00159   0.00000  -0.00164  -0.00071   1.01999
   D23       -2.90488   0.00573   0.00000   0.02416   0.02403  -2.88085
   D24        0.89041   0.00374   0.00000   0.02304   0.02256   0.91298
   D25       -0.76071  -0.00739   0.00000  -0.04922  -0.04976  -0.81047
   D26        3.03458  -0.00937   0.00000  -0.05034  -0.05123   2.98335
   D27        1.34131  -0.00165   0.00000  -0.00943  -0.00912   1.33218
   D28       -1.14659  -0.00364   0.00000  -0.01055  -0.01059  -1.15718
   D29        0.53735  -0.00141   0.00000  -0.01892  -0.02194   0.51541
   D30        2.55591  -0.00421   0.00000  -0.04746  -0.04838   2.50753
   D31       -1.64458   0.00014   0.00000  -0.01290  -0.01307  -1.65765
   D32        2.62919  -0.00058   0.00000  -0.00957  -0.01174   2.61745
   D33       -1.63544  -0.00338   0.00000  -0.03811  -0.03818  -1.67362
   D34        0.44726   0.00098   0.00000  -0.00355  -0.00287   0.44439
   D35       -1.56664  -0.00111   0.00000  -0.00455  -0.00678  -1.57342
   D36        0.45192  -0.00391   0.00000  -0.03309  -0.03322   0.41870
   D37        2.53462   0.00045   0.00000   0.00147   0.00210   2.53671
   D38       -2.82511  -0.00283   0.00000  -0.00599  -0.00496  -2.83007
   D39        1.07661   0.00574   0.00000   0.09218   0.09052   1.16713
   D40        1.38931  -0.00410   0.00000  -0.02039  -0.01960   1.36971
   D41       -0.99215   0.00448   0.00000   0.07778   0.07588  -0.91628
   D42       -0.74941  -0.00429   0.00000  -0.02941  -0.02853  -0.77794
   D43       -3.13087   0.00428   0.00000   0.06876   0.06695  -3.06392
   D44        3.01444  -0.00101   0.00000  -0.01949  -0.01944   2.99500
   D45        0.87092   0.00124   0.00000   0.02085   0.02100   0.89192
   D46       -1.23911   0.00002   0.00000   0.00220   0.00200  -1.23711
   D47        1.13349   0.00367   0.00000   0.02343   0.02279   1.15627
   D48       -2.95945  -0.00937   0.00000  -0.05241  -0.05315  -3.01260
   D49       -0.95062  -0.00306   0.00000  -0.01505  -0.01536  -0.96598
   D50       -2.80152  -0.02231   0.00000  -0.17807  -0.17615  -2.97767
   D51        1.11245  -0.00927   0.00000  -0.06988  -0.06991   1.04254
   D52       -1.16325   0.00048   0.00000   0.00596   0.00688  -1.15637
   D53        0.90508   0.00067   0.00000   0.00712   0.00804   0.91311
   D54        3.07310   0.00049   0.00000   0.00573   0.00665   3.07975
   D55        0.97794  -0.00027   0.00000  -0.00624  -0.00717   0.97077
   D56        3.04626  -0.00008   0.00000  -0.00508  -0.00601   3.04025
   D57       -1.06890  -0.00027   0.00000  -0.00647  -0.00740  -1.07630
   D58        3.06597  -0.00063   0.00000  -0.00451  -0.00450   3.06147
   D59       -1.14889  -0.00044   0.00000  -0.00335  -0.00334  -1.15223
   D60        1.01913  -0.00062   0.00000  -0.00474  -0.00473   1.01440
   D61       -1.17316   0.00005   0.00000   0.00059   0.00058  -1.17258
   D62        3.01033   0.00034   0.00000   0.00170   0.00170   3.01203
   D63        0.98009  -0.00033   0.00000  -0.00156  -0.00156   0.97853
   D64        0.78373  -0.01773   0.00000  -0.13522  -0.13890   0.64483
   D65        1.30403   0.00078   0.00000   0.01128   0.01133   1.31535
   D66       -0.48820   0.00195   0.00000   0.01208   0.01205  -0.47614
   D67       -0.51740  -0.00148   0.00000  -0.01145  -0.01137  -0.52877
   D68       -2.87683  -0.00257   0.00000  -0.00645  -0.00645  -2.88328
   D69       -0.23135   0.00517   0.00000   0.04633   0.04455  -0.18680
   D70       -2.13375   0.00643   0.00000   0.07405   0.07143  -2.06233
   D71       -0.27401  -0.00108   0.00000   0.02248   0.01815  -0.25585
   D72        1.61600  -0.00488   0.00000  -0.02349  -0.02498   1.59102
   D73        0.26561  -0.00124   0.00000  -0.00102  -0.00080   0.26482
   D74       -1.60978  -0.00062   0.00000  -0.00416  -0.00411  -1.61389
         Item               Value     Threshold  Converged?
 Maximum Force            0.033225     0.000450     NO 
 RMS     Force            0.006573     0.000300     NO 
 Maximum Displacement     0.845001     0.001800     NO 
 RMS     Displacement     0.170461     0.001200     NO 
 Predicted change in Energy=-2.833221D-02
 GradGradGradGradGradGradGradGradGradGradGradGradGradGradGradGradGradGrad

                          Input orientation:                          
 ---------------------------------------------------------------------
 Center     Atomic      Atomic             Coordinates (Angstroms)
 Number     Number       Type             X           Y           Z
 ---------------------------------------------------------------------
      1          8           0       -1.637083    0.032863    0.328099
      2          6           0        0.715983    0.368235   -0.195371
      3          6           0       -0.250952   -1.632331    0.856903
      4          6           0        1.044975   -1.031102    0.306693
      5          6           0       -1.465764   -1.072744    0.135090
      6          6           0       -0.497885    0.862616    0.595254
      7          1           0        1.702429   -0.922589    1.184097
      8          1           0       -0.238938    0.810673    1.664282
      9          1           0        0.443408    0.313029   -1.259380
     10          1           0       -2.399202   -1.231805    0.692984
     11          6           0       -0.919405    2.306355    0.259818
     12          1           0       -1.104538    2.406732   -0.814789
     13          1           0       -1.851428    2.545618    0.787994
     14          1           0       -0.205083   -2.721829    0.717407
     15          8           0       -1.493758   -1.465719   -1.143391
     16          8           0        0.101009    3.270098    0.556073
     17          1           0        0.212558    3.298048    1.520579
     18          8           0       -0.302906   -1.282804    2.238030
     19          1           0       -1.173275   -1.532786    2.586000
     20          8           0        1.620781   -1.851410   -0.680174
     21          1           0        2.502851   -1.465940   -0.898548
     22          8           0        1.895701    1.165983   -0.020364
     23          1           0        1.642121    2.107367   -0.107168
     24          8           0       -2.967575    0.362880   -1.752121
     25          1           0       -2.484027    0.531025   -0.877554
     26          1           0       -2.233120   -0.936797   -1.608433
     27          1           0       -2.544259    0.900288   -2.438420
     28          8           0        3.945967   -0.344372   -1.060327
     29          1           0        4.529082   -0.508957   -0.303844
     30          1           0        3.368985    0.396105   -0.762698
 ---------------------------------------------------------------------
                    Distance matrix (angstroms):
                    1          2          3          4          5
     1  O    0.000000
     2  C    2.433807   0.000000
     3  C    2.230216   2.458558   0.000000
     4  C    2.885466   1.522645   1.530894   0.000000
     5  C    1.135328   2.635459   1.519842   2.516941   0.000000
     6  C    1.434445   1.530678   2.520753   2.459644   2.212274
     7  H    3.577424   2.131252   2.103922   1.101753   3.340720
     8  H    2.084510   2.136805   2.572990   2.623665   2.718601
     9  H    2.631925   1.099754   2.957231   2.149687   2.740411
    10  H    1.520970   3.612988   2.191408   3.471579   1.099023
    11  C    2.385056   2.576432   4.039380   3.872932   3.425256
    12  H    2.687945   2.802400   4.453896   4.206760   3.624845
    13  H    2.563471   3.507078   4.474542   4.627496   3.696966
    14  H    3.128980   3.351122   1.099349   2.142402   2.155897
    15  O    2.105130   3.024084   2.360826   2.955808   1.337806
    16  O    3.681389   3.060012   4.924245   4.410622   4.635977
    17  H    3.937590   3.432452   4.996394   4.572525   4.882640
    18  O    2.675602   3.112154   1.425615   2.368586   2.412203
    19  H    2.786484   3.862538   1.962234   3.219869   2.510807
    20  O    3.896252   2.445510   2.431869   1.406543   3.285991
    21  H    4.570573   2.655477   3.269974   1.940900   4.119821
    22  O    3.726386   1.434839   3.634320   2.378631   4.041722
    23  H    3.904639   1.972332   4.300989   3.221468   4.453173
    24  O    2.491272   3.999012   4.262384   4.720430   2.806780
    25  H    1.555339   3.275963   3.560207   4.036896   2.152761
    26  H    2.246253   3.520946   3.238925   3.797697   1.909761
    27  H    3.037931   3.992935   4.746848   4.914114   3.417449
    28  O    5.765456   3.418882   4.790485   3.279649   5.589847
    29  H    6.222099   3.914199   5.045595   3.575527   6.037276
    30  H    5.136390   2.713127   4.454392   2.929426   5.132089
                    6          7          8          9         10
     6  C    0.000000
     7  H    2.893972   0.000000
     8  H    1.101169   2.646448   0.000000
     9  H    2.151219   3.013713   3.043197   0.000000
    10  H    2.830398   4.142485   3.127599   3.778713   0.000000
    11  C    1.540967   4.260797   2.161624   2.852817   3.859535
    12  H    2.177279   4.791554   3.072858   2.641475   4.145899
    13  H    2.168345   4.981491   2.525477   3.800324   3.818115
    14  H    3.598457   2.663393   3.657361   3.679483   2.652344
    15  O    3.071773   3.990965   3.826168   2.632492   2.060781
    16  O    2.481166   4.531842   2.718908   3.486741   5.151401
    17  H    2.700424   4.488510   2.532101   4.085560   5.293937
    18  O    2.709161   2.293882   2.171618   3.916062   2.604655
    19  H    3.187031   3.256891   2.685954   4.561539   2.275302
    20  O    3.671702   2.084438   4.005212   2.531103   4.292987
    21  H    4.081426   2.296371   4.389588   2.745221   5.159256
    22  O    2.490035   2.418722   2.742438   2.090896   4.970357
    23  H    2.573408   3.294183   2.890993   2.446252   5.303075
    24  O    3.443729   5.664163   4.395201   3.446750   2.973988
    25  H    2.494769   4.887721   3.402875   2.960268   2.362489
    26  H    3.332440   4.825657   4.212015   2.974509   2.326184
    27  H    3.659541   5.871957   4.706878   3.265144   3.791115
    28  O    4.893423   3.225715   5.125530   3.569274   6.642500
    29  H    5.287720   3.221029   5.324374   4.275680   7.036853
    30  H    4.124845   2.882078   4.367975   2.968601   6.167745
                   11         12         13         14         15
    11  C    0.000000
    12  H    1.095047   0.000000
    13  H    1.097672   1.773710   0.000000
    14  H    5.099243   5.427594   5.519187   0.000000
    15  O    4.065393   3.905809   4.466430   2.588642   0.000000
    16  O    1.434508   2.019408   2.095392   6.001909   5.278203
    17  H    1.963241   2.825444   2.315787   6.087564   5.718543
    18  O    4.144328   4.855408   4.376909   2.095866   3.589651
    19  H    4.496063   5.204795   4.508447   2.417200   3.743736
    20  O    4.962171   5.057396   5.791856   2.458585   3.172330
    21  H    5.223396   5.293190   6.156035   3.394330   4.004102
    22  O    3.050209   3.342455   4.074041   4.480255   4.435705
    23  H    2.595321   2.852102   3.632941   5.235764   4.865639
    24  O    3.466986   2.920073   3.530200   4.821345   2.426204
    25  H    2.625538   2.329206   2.689389   4.280017   2.244613
    26  H    3.966641   3.617008   4.244497   3.564941   1.021116
    27  H    3.449299   2.641656   3.687394   5.343288   2.894589
    28  O    5.695698   5.756428   6.736328   5.103318   5.554722
    29  H    6.158710   6.363959   7.157754   5.324666   6.155878
    30  H    4.804673   4.904869   5.854721   4.968519   5.220880
                   16         17         18         19         20
    16  O    0.000000
    17  H    0.971337   0.000000
    18  O    4.870425   4.665259   0.000000
    19  H    5.367690   5.137374   0.970111   0.000000
    20  O    5.483417   5.774368   3.541158   4.310007   0.000000
    21  H    5.505891   5.813193   4.212355   5.065614   0.987078
    22  O    2.824978   3.123008   3.991337   4.847174   3.100902
    23  H    2.041289   2.472031   4.558108   5.332009   4.000089
    24  O    4.816211   5.425774   5.072479   5.062841   5.206262
    25  H    4.029915   4.547420   4.213565   4.239527   4.750200
    26  H    5.275529   5.805684   4.317490   4.367120   4.068259
    27  H    4.645475   5.387297   5.626610   5.748412   5.292526
    28  O    5.519135   5.819506   5.460104   6.396457   2.796815
    29  H    5.884603   6.037731   5.514351   6.474279   3.225216
    30  H    4.547380   4.857742   5.030495   5.963767   2.848570
                   21         22         23         24         25
    21  H    0.000000
    22  O    2.840222   0.000000
    23  H    3.759743   0.978796   0.000000
    24  O    5.830844   5.224501   5.195999   0.000000
    25  H    5.371896   4.507767   4.483686   1.013390   0.000000
    26  H    4.818024   4.898041   5.151526   1.499744   1.658806
    27  H    5.783041   5.062691   4.941412   0.969025   1.605081
    28  O    1.834849   2.750688   3.496747   6.983971   6.491883
    29  H    2.318426   3.133764   3.901074   7.684886   7.112974
    30  H    2.058119   1.820532   2.517974   6.413428   5.855693
                   26         27         28         29         30
    26  H    0.000000
    27  H    2.039747   0.000000
    28  O    6.231573   6.750656   0.000000
    29  H    6.900172   7.521605   0.969214   0.000000
    30  H    5.820264   6.166742   0.984783   1.541268   0.000000
[...]
 .00019110,0.00020756,-0.00010473,0.01162772,-0.00434241,0.00691496,-0.
 00079523,0.00032692,-0.00037186,0.00002183,-0.00014937,0.00000247,0.00
 054123,-0.00003853,0.00115648,-0.00000641,0.00006082,-0.00028250,0.000
 42126,0.00023960,0.00006275,-0.00023040,-0.00012551,0.00004623,0.00022
 397,0.00061195,0.00012241,0.00027361,-0.00033959,-0.00004678,0.1547840
 6,0.34983435,-0.00838403,0.00115394,-0.00283193,0.00016304,-0.00041751
 ,-0.00083810,-0.00016748,0.00038485,0.00076985,0.00031136,-0.00024233,
 -0.00030933,0.00163737,-0.00423919,-0.00370361,0.00141981,0.00283040,-
 0.00056320,-0.00005848,-0.00001126,0.00005074,-0.00065218,-0.00045199,
 -0.00010685,-0.00006184,-0.00000047,0.00011749,-0.00031767,-0.00016196
 ,0.00068125,0.00034288,0.00062536,-0.00057812,-0.00005846,-0.00014392,
 0.00008705,-0.00004340,0.00013031,0.00016913,-0.00025129,0.00018616,-0
 .00015847,-0.00225212,0.00088027,0.00588604,-0.00043148,-0.00058628,0.
 00015647,0.00006273,0.00014616,0.00004611,-0.00007056,0.00023647,0.000
 17653,0.00011228,-0.00018937,0.00011937,-0.00030306,0.00022939,0.00035
 836,0.00014984,0.00001612,-0.00007515,-0.00082151,-0.00002879,0.000434
 07,0.00016124,0.00005270,-0.00017796,0.14422634,-0.11643248,0.58385136
 ,0.00210230,-0.00290794,0.00214722,-0.00061591,0.00033288,0.00041400,-
 0.00028558,-0.00075264,-0.00080511,-0.00056225,0.00048790,0.00016831,0
 .00037332,0.00914235,0.00072183,-0.00378740,-0.00349672,-0.00023869,0.
 00008371,-0.00003529,0.00002535,0.00101924,0.00067597,0.00042682,-0.00
 005526,-0.00000078,0.00006808,-0.00026990,-0.00078039,0.00037946,-0.00
 013486,-0.00146047,-0.00094518,-0.00026653,-0.00043832,0.00036016,-0.0
 0006889,0.00006269,0.00015375,0.00036906,-0.00027514,0.00026261,-0.001
 48428,-0.00181389,-0.00210756,0.00029566,0.00118217,0.00020806,0.00013
 569,-0.00030288,-0.00007017,0.00019140,-0.00036532,0.00040960,-0.00000
 708,0.00015297,-0.00023789,0.00050196,-0.00036092,-0.00027644,-0.00030
 000,-0.00000617,0.00005656,0.00125785,0.00021790,-0.00024207,-0.000196
 59,-0.00018847,0.00012618,-0.13248310,-0.08811730,-0.19127953,0.128627
 77,-0.00285935,-0.00597527,-0.00116903,0.00009977,-0.00025547,-0.00000
 019,-0.00004848,-0.00082361,0.00030769,0.00022872,0.00018864,-0.000277
 62,0.00446342,-0.00167616,0.00347148,0.00087690,0.00262593,-0.00071685
 ,-0.00011401,-0.00004904,0.00002391,-0.00043739,-0.00050316,-0.0001034
 7,0.00004391,0.00008664,-0.00002118,-0.00033769,-0.00054249,0.00024471
 ,-0.00165951,0.00026923,-0.00061565,-0.00042840,-0.00002109,0.00060109
 ,0.00025131,-0.00031320,-0.00064184,0.00005819,-0.00002949,0.00002803,
 -0.00089914,0.00102191,-0.00016966,0.00092860,-0.00034902,0.00038094,-
 0.00000664,0.00015276,-0.00002199,-0.00028567,0.00012968,-0.00044981,0
 .00007499,-0.00010805,0.00020747,-0.00026770,-0.00007681,0.00009103,0.
 00014788,0.00007090,-0.00002566,-0.00044958,-0.00041852,0.00007490,-0.
 00020826,0.00032260,0.00000952,-0.10440710,-0.10145860,-0.13584335,0.0
 8669638,0.10298330,0.00336422,-0.00081014,-0.00382100,0.00001049,0.000
 80672,0.00115059,0.00008521,-0.00097041,-0.00065021,-0.00037136,0.0003
 0627,0.00021086,0.00019840,0.00615217,0.00693632,-0.00135451,-0.004109
 50,-0.00004446,0.00001586,0.00001373,-0.00004038,0.00059340,0.00051846
 ,0.00007817,0.00011363,0.00000204,-0.00021332,0.00007717,-0.00003233,-
 0.00037892,-0.00043667,-0.00065755,0.00175452,0.00040688,0.00019965,-0
 .00060208,0.00004815,-0.00034891,-0.00015215,0.00038256,-0.00028950,0.
 00024110,-0.00250928,0.00153191,-0.00465683,0.00033091,0.00067088,-0.0
 0047558,-0.00013274,-0.00017867,-0.00007178,0.00003597,-0.00022622,-0.
 00025851,-0.00009320,0.00019926,-0.00008120,0.00022946,-0.00022970,-0.
 00033323,-0.00011849,-0.00000731,0.00004971,0.00102498,0.00004583,-0.0
 0055680,-0.00011318,-0.00013036,0.00018426,-0.16039227,-0.08571743,-0.
 29526185,0.17501252,0.10662805,0.32262057,-0.00182402,0.00595059,0.003
 25772,-0.00049424,-0.00047876,-0.00061157,0.00026576,0.00123348,0.0006
 2211,-0.00034487,-0.00003456,0.00038212,0.00428431,-0.00714878,-0.0067
 8949,-0.00163225,-0.00060295,-0.00052619,0.00017564,0.00000796,0.00005
 544,0.00014005,0.00020299,0.00012330,-0.00036873,-0.00023491,0.0001725
 1,0.00055098,-0.00048138,0.00303157,0.00051058,-0.00038126,0.00019526,
 0.00021758,-0.00008057,-0.00009577,-0.00008974,0.00010149,0.00020175,-
 0.00028316,0.00024758,0.00022798,-0.33157831,0.13553180,-0.13605691,-0
 .00016846,0.00060188,-0.00008676,0.00003560,-0.00018137,-0.00003095,0.
 00117701,-0.00017093,0.00232732,0.00004909,0.00019150,-0.00042962,0.00
 047469,-0.00009253,-0.00015914,-0.00030684,-0.00006231,-0.00000405,0.0
 0059027,0.00056836,0.00022237,0.00007947,-0.00025867,-0.00002054,-0.00
 230117,-0.00445525,0.00035807,0.00256949,0.00133134,0.00380919,0.32670
 602,0.00062614,-0.00240449,0.00067136,-0.00008681,0.00030201,0.0003847
 9,0.00065819,0.00020892,-0.00050611,0.00079048,0.00049804,0.00016891,-
 0.00627754,0.00660715,0.00014575,-0.00076549,-0.00063988,-0.00006037,-
 0.00008559,-0.00008634,0.00003573,0.00025523,0.00011918,0.00014556,-0.
 00005969,0.00018442,-0.00015172,0.00165240,-0.00028696,-0.00201868,-0.
 00058762,-0.00016096,-0.00082981,-0.00014328,-0.00018689,0.00032407,0.
 00009808,-0.00010707,-0.00005586,-0.00019507,0.00010807,0.00008643,0.1
 3673531,-0.07380162,0.05618251,0.00054855,0.00006060,0.00029175,0.0000
 0161,0.00004589,-0.00000842,-0.00022216,0.00043823,-0.00117471,0.00008
 927,-0.00002630,0.00025041,-0.00028382,-0.00034691,-0.00011186,0.00016
 383,0.00014703,-0.00003638,0.00019320,-0.00051449,-0.00016787,-0.00026
 309,0.00019744,0.00002849,-0.00681304,0.00104439,0.00190356,0.00249610
 ,-0.00467064,-0.00573713,-0.12997455,0.07549833,0.00134348,0.00282258,
 0.00288970,-0.00028875,0.00008507,-0.00001049,0.00375066,-0.00195783,-
 0.00552619,-0.00011137,-0.00010342,-0.00018083,-0.04458467,0.01647519,
 -0.03310702,-0.00159452,-0.00111341,-0.00014433,0.00014902,0.00004035,
 -0.00003448,0.00037191,0.00035424,0.00014265,-0.00004719,-0.00028285,0
 .00018478,0.00013816,0.00003834,0.00205089,0.00018461,-0.00039621,0.00
 030185,0.00001970,-0.00000082,-0.00004745,-0.00002622,-0.00000906,-0.0
 0000117,0.00009112,0.00027349,0.00022462,-0.09237353,0.03625470,-0.091
 96595,0.00008827,0.00047513,-0.00010040,-0.00000788,-0.00012605,-0.000
 03197,-0.00148586,0.00059143,-0.00173074,-0.00026265,0.00000135,-0.000
 03614,0.00054019,-0.00007543,0.00004944,-0.00022296,-0.00005527,0.0001
 8455,0.00060436,0.00022151,-0.00003182,-0.00004616,-0.00012388,0.00008
 666,0.00052250,-0.00055919,-0.00947357,0.00360262,-0.00491358,0.000437
 94,0.13202285,-0.05105444,0.13489345,-0.00097785,-0.00051909,0.0002853
 9,-0.00024989,-0.00015774,-0.00031794,-0.00003738,0.00007920,-0.000047
 21,-0.00007844,0.00016046,0.00001229,0.00045364,-0.00009156,-0.0006108
 5,-0.00022232,0.00029211,-0.00028498,0.00003066,-0.00003228,0.00003460
 ,0.00000758,-0.00008409,0.00009192,-0.00006026,0.00002847,0.00011082,-
 0.00011231,-0.00006212,0.00017981,-0.00019142,-0.00024734,-0.00107262,
 -0.00025506,-0.00027361,0.00030364,-0.00000499,0.00002016,0.00012167,0
 .00000240,-0.00001750,0.00001380,-0.00169526,-0.00021208,0.00110415,0.
 00022575,0.00028534,0.00032728,0.00008280,-0.00005642,-0.00000531,0.00
 005810,-0.00007856,0.00021466,-0.00000853,0.00003164,-0.00006430,0.000
 14704,-0.00012692,0.00000506,-0.00010835,0.00001389,-0.00000754,0.0002
 4626,0.00006195,0.00013860,-0.00008727,-0.00001607,-0.00003412,-0.0265
 1588,-0.07472577,0.05613769,0.00307891,0.01724661,-0.02013896,0.001543
 25,0.00158546,-0.00239808,0.02475247,-0.00081958,-0.00021661,-0.000763
 38,0.00006624,-0.00000929,0.00014847,0.00010362,-0.00004318,-0.0000250
 6,0.00003517,0.00003052,0.00003558,-0.00055786,0.00005749,0.00061929,0
 .00026678,0.00046691,0.00015285,-0.00001133,-0.00000017,-0.00001886,-0
 .00001993,-0.00010434,-0.00002758,0.00002524,0.00002915,-0.00003156,0.
 00008063,0.00005930,-0.00023324,-0.00020730,-0.00001139,-0.00018659,-0
 .00011777,0.00017195,0.00011723,0.00004002,-0.00001748,-0.00014126,-0.
 00000109,-0.00001033,-0.00000424,0.00116261,0.00032317,-0.00129972,0.0
 0021390,-0.00010977,0.00008564,-0.00002046,0.00004583,-0.00000232,-0.0
 0005433,0.00000141,-0.00014052,-0.00000900,-0.00000309,0.00002545,-0.0
 0003201,-0.00004194,-0.00006417,0.00003470,0.00001600,0.00001420,-0.00
 008704,-0.00014796,-0.00005561,-0.00007781,0.00011052,0.00002323,-0.05
 520219,-0.24693545,0.25003756,-0.00025006,0.00946090,-0.01768913,-0.00
 140978,-0.00219147,0.00305357,0.05686725,0.23907521,-0.00063431,-0.000
 83284,0.00028371,-0.00013453,-0.00009743,0.00006415,-0.00008764,0.0000
 3519,-0.00011405,-0.00009347,0.00011596,0.00004569,0.00013857,0.000316
 58,-0.00044745,-0.00027556,0.00022095,-0.00028006,0.00002119,-0.000012
 10,0.00000115,0.00002574,-0.00006116,0.00005583,-0.00001554,0.00000981
 ,0.00003320,-0.00009888,-0.00001222,-0.00000193,-0.00040375,-0.0001153
 4,-0.00050747,-0.00027011,-0.00004553,0.00037934,0.00005776,-0.0000749
 1,-0.00020558,0.00002414,-0.00002481,0.00002230,0.00160884,-0.00098119
 ,0.00028880,0.00046327,0.00017625,0.00022132,0.00001915,-0.00000188,-0
 .00001805,0.00006762,-0.00008007,0.00010587,-0.00001565,0.00004438,-0.
 00004301,0.00014687,-0.00010682,-0.00010979,-0.00007363,-0.00000316,0.
 00003525,0.00020098,-0.00003235,-0.00004274,-0.00013080,0.00006834,0.0
 0005907,0.02414492,0.20091306,-0.27881571,0.01164363,0.03290041,-0.026
 08153,-0.00220127,0.00128114,0.00098283,-0.03410194,-0.23362837,0.3040
 8683,-0.00116958,0.00008860,0.00002945,0.00241971,0.00205448,0.0012233
 0,0.00025949,0.00053969,-0.00039410,0.00283997,-0.00408986,-0.00455286
 ,0.00070053,0.00008248,0.00045406,0.00049263,-0.00022326,-0.00073877,0
 .00010967,0.00059622,0.00029238,0.00000723,0.00005637,0.00003476,-0.00
 017122,-0.00021326,-0.00012143,-0.00030698,-0.00000323,-0.00000757,0.0
 0023401,-0.00042404,0.00031721,0.00003101,-0.00002201,-0.00005413,-0.0
 0019765,0.00020056,0.00000311,0.00006161,0.00014171,0.00007860,-0.0007
 0166,-0.00015782,-0.00056384,-0.00086164,0.00143200,0.00005587,-0.0000
 1104,-0.00046790,-0.00012451,-0.00066632,-0.00021011,0.00105806,-0.000
 11503,0.00002700,-0.00003788,-0.01483867,-0.00851957,0.00260439,-0.001
 50787,0.00617556,0.00242357,-0.00847714,0.01017687,0.00284460,-0.00199
 919,-0.00214992,0.00131362,-0.00060132,0.00021350,-0.00024655,0.000450
 48,-0.00015836,0.00021561,0.00037013,-0.00010804,0.00029003,0.00015675
 ,-0.00002809,0.00011336,0.34327794,0.00108791,0.00112080,-0.00016290,-
 0.00315137,-0.00468359,-0.00111974,-0.00010832,0.00064750,0.00023862,0
 .00290895,-0.00555725,-0.00443512,0.00035297,-0.00151107,-0.00002131,0
 .00007041,0.00116997,0.00036014,0.00021099,0.00036461,0.00041270,-0.00
 002969,-0.00003269,0.00007241,0.00048253,0.00023423,0.00022264,-0.0001
 4392,0.00019631,-0.00002800,-0.00100721,-0.00046926,-0.00002371,-0.000
 00192,0.00002001,0.00003173,0.00012365,0.00013232,-0.00004848,0.000319
 95,0.00037155,-0.00002538,-0.00025049,0.00056853,-0.00002968,0.0012779
 9,-0.00030877,-0.00000002,-0.00016775,0.00013348,0.00009069,-0.0007081
 6,0.00026462,0.00051247,0.00001388,-0.00013292,0.00010234,-0.01467614,
 0.00057191,0.00191505,0.00751398,-0.00484039,0.00466035,0.01274506,-0.
 00118022,-0.00219145,0.00036753,0.00153052,-0.00049330,-0.00005897,0.0
 0018048,0.00003259,-0.00004284,-0.00008429,-0.00004622,0.00007895,-0.0
 0020648,0.00005681,-0.00002070,-0.00003146,-0.00001242,-0.26123315,0.3
 1304446,0.00046815,0.00009249,0.00004135,-0.00049328,-0.00107002,-0.00
 103481,-0.00022191,0.00002521,0.00045639,-0.00102105,-0.00036312,-0.00
 123927,-0.00010960,-0.00009052,-0.00043795,-0.00004270,0.00028235,0.00
 031666,-0.00020080,0.00003911,0.00109808,-0.00007432,0.00002716,0.0000
 7373,0.00052178,-0.00002362,0.00023633,0.00007511,-0.00000607,0.000055
 90,-0.00022515,0.00003574,-0.00015306,0.00003012,-0.00000059,0.0000479
 3,0.00006989,-0.00002786,0.00000759,0.00010379,0.00007252,-0.00002925,
 0.00011972,0.00006548,0.00038404,0.00048842,-0.00047679,0.00002866,-0.
 00007567,0.00014845,0.00002886,0.00007677,0.00002205,-0.00002246,0.000
 01513,0.00000089,0.00003508,-0.00002095,-0.00052287,0.00472318,0.00041
 109,0.00151251,-0.00823569,0.00273790,-0.00315712,0.00406915,0.0014206
 7,0.00074637,-0.00070185,0.00013604,-0.00003173,0.00012480,-0.00013509
 ,0.00004107,-0.00010680,-0.00007535,0.00002003,-0.00010246,-0.00001962
 ,-0.00000967,-0.00005191,0.14356312,0.02930494,0.44183177,0.00022300,-
 0.00004518,0.00003410,-0.00021876,-0.00005657,-0.00023464,-0.00009846,
 -0.00016026,0.00035694,-0.00083442,0.00030906,-0.00050939,-0.00012649,
 0.00010168,-0.00021765,-0.00015156,0.00000324,0.00013641,-0.00017674,-
 0.00001160,0.00060723,-0.00001945,0.00000780,0.00001363,0.00012536,-0.
 00005661,0.00008904,0.00009360,-0.00002376,0.00002452,-0.00000463,0.00
 011349,-0.00006358,-0.00000345,0.00000134,0.00001465,0.00004168,-0.000
 04889,-0.00000208,0.00002604,0.00002435,-0.00001356,0.00015185,0.00001
 808,0.00017713,0.00012720,-0.00025791,-0.00001421,-0.00001553,0.000107
 96,0.00001703,0.00013324,0.00002240,-0.00016023,0.00002369,0.00000778,
 0.00003329,0.00064600,-0.00095685,0.00113489,-0.00212553,0.00096580,-0
 .00358667,-0.00013326,-0.00009472,0.00107841,0.00015205,0.00032543,0.0
 0016253,0.00015198,-0.00005671,0.00006689,-0.00011434,0.00004377,-0.00
 005720,-0.00009735,0.00003314,-0.00006766,-0.00003910,0.00000637,-0.00
 002974,-0.14573050,0.07127247,-0.18411105,0.16218217,-0.00010419,-0.00
 018680,0.00000553,0.00027440,0.00039566,-0.00002788,-0.00004488,0.0000
 6410,0.00002774,-0.00035565,0.00012519,-0.00002811,-0.00002253,0.00018
 924,-0.00001154,0.00008562,-0.00002480,0.00000822,-0.00012131,0.000124
 90,0.00012273,-0.00000554,0.00001279,-0.00001115,-0.00006964,-0.000073
 72,0.00000845,-0.00000183,-0.00002470,0.00000971,0.00012903,0.00009556
 ,0.00001815,-0.00000508,-0.00000749,-0.00000908,-0.00002227,-0.0000160
 4,0.00000709,-0.00003305,-0.00002647,0.00000018,-0.00000162,-0.0000888
 1,0.00000108,-0.00018024,-0.00005100,-0.00001655,0.00007173,-0.0000080
 3,-0.00000849,0.00004824,-0.00010417,0.00003534,-0.00002656,0.00003742
 ,0.00000019,-0.00071471,-0.00188253,0.00134163,0.00021544,0.00331527,-
 0.00371302,0.00004404,-0.00064478,-0.00130132,0.00012275,-0.00000356,0
 .00001784,-0.00001026,-0.00002290,-0.00000752,0.00001555,0.00001205,0.
 00000593,0.00000068,0.00003004,0.00000412,0.00000891,0.00000558,0.0000
 0558,0.05581809,-0.04857849,0.04335998,-0.07443747,0.05322949,-0.00000
 405,-0.00000541,-0.00003675,-0.00012327,-0.00021136,-0.00009522,-0.000
 00334,0.00003189,-0.00001573,0.00004974,0.00017815,0.00066981,0.000004
 93,-0.00002896,0.00006259,0.00002813,0.00003106,0.00005681,0.00001174,
 -0.00002692,-0.00021245,0.00000537,-0.00000871,-0.00001634,-0.00001637
 ,0.00004203,-0.00001413,-0.00001356,0.00000816,-0.00000725,-0.00000463
 ,-0.00001956,-0.00000057,-0.00000273,0.00000079,-0.00000572,-0.0000020
 4,0.00000456,0.00000320,-0.00001305,-0.00001238,-0.00000400,-0.0000205
 4,-0.00000401,-0.00004688,0.00000941,0.00001209,-0.00000893,0.00001622
 ,-0.00001822,0.00000940,-0.00002204,-0.00000068,-0.00005163,-0.0000008
 3,-0.00000269,-0.00000283,0.00108623,0.00042889,-0.00031853,-0.0011201
 5,-0.00071556,-0.00042947,0.00101132,-0.00029224,-0.00078566,-0.000046
 93,-0.00004971,0.00000391,-0.00002469,0.00000700,-0.00001516,0.0000190
 4,-0.00000693,0.00001181,0.00001753,-0.00000289,0.00000946,0.00000699,
 0.00000004,0.00000675,-0.22543338,0.08405552,-0.35847742,0.21467790,-0
 .07584624,0.35279311,0.00202652,0.00091119,-0.00014171,-0.00818539,-0.
 00546804,-0.00112737,-0.00040293,0.00027831,0.00053499,0.00096536,-0.0
 0268424,-0.00013902,-0.00031137,-0.00141794,-0.00040172,-0.00049626,0.
 00099349,0.00085991,-0.00005860,-0.00008018,0.00015695,-0.00001297,-0.
 00009730,0.00002369,0.00068846,0.00051278,0.00031478,0.00012009,0.0001
 6920,-0.00001908,-0.00101054,0.00013822,-0.00033743,-0.00003340,0.0000
 3465,0.00007929,0.00026039,-0.00009931,-0.00003099,0.00024508,0.000284
 44,-0.00009228,0.00039183,0.00063214,0.00047902,0.00175984,-0.00176966
 ,-0.00007168,-0.00005566,0.00058746,0.00018965,-0.00006411,0.00037234,
 -0.00039896,0.00007990,-0.00011607,0.00012941,-0.00422656,0.00163631,0
 .00067163,0.00678116,-0.00316310,-0.00045700,-0.00046393,-0.00212519,-
 0.00018333,0.00238455,0.00396308,-0.00136859,0.00045888,-0.00004372,0.
 00025011,-0.00042487,0.00007548,-0.00023673,-0.00025077,-0.00006121,-0
 .00020199,-0.00014128,0.00000311,-0.00010919,-0.17405533,0.18277342,0.
 03658884,-0.01418829,0.01932233,0.00990704,0.18822021,-0.00142798,-0.0
 0087507,0.00022697,0.00142346,0.00661994,0.00286226,0.00017542,-0.0003
 0472,0.00017425,-0.00341787,0.00252086,0.00201137,-0.00007065,0.001413
 14,0.00011168,-0.00038962,-0.00148986,-0.00078682,0.00007610,-0.000258
 29,0.00028040,0.00009629,0.00002238,-0.00006680,-0.00073786,-0.0002990
 5,-0.00038073,0.00008397,-0.00018677,0.00003039,0.00083312,0.00021686,
 0.00008860,0.00000600,-0.00001176,-0.00003477,-0.00013676,-0.00005623,
 0.00003306,-0.00012909,-0.00021562,0.00002645,0.00006000,-0.00047495,-
 0.00013278,-0.00095713,0.00031033,0.00000889,0.00013806,-0.00019845,-0
 .00010434,0.00034156,-0.00024836,-0.00018641,-0.00001580,0.00010584,-0
 .00006780,0.00442417,0.00117555,-0.00153583,-0.00461420,-0.00883136,-0
 .00168604,-0.00531468,-0.00980372,0.00032372,0.00176380,-0.00196854,-0
 .00100305,-0.00006918,-0.00009991,-0.00008943,0.00013268,0.00003038,0.
 00009959,-0.00000002,0.00014077,0.00002355,0.00004038,0.00001999,0.000
 03492,0.20040550,-0.25293442,-0.07001636,0.00284234,-0.00589299,-0.007
 54774,-0.19556200,0.27157404,-0.00070255,-0.00021710,0.00006816,0.0003
 4623,0.00251416,0.00145060,0.00008582,0.00001411,-0.00030252,-0.000162
 67,0.00093447,0.00153215,0.00006093,0.00031707,0.00039479,0.,-0.000601
 21,-0.00053469,-0.00001897,0.00013693,-0.00062005,0.00008446,-0.000003
 23,-0.00007349,-0.00091684,-0.00017513,-0.00028843,-0.00005047,-0.0000
 2754,-0.00004104,0.00036910,-0.00000629,0.00016517,-0.00004138,0.00000
 017,-0.00005545,-0.00008267,0.00001671,-0.00001136,-0.00010205,-0.0001
 0729,0.00002743,-0.00007730,-0.00012275,-0.00034572,-0.00069862,0.0006
 2102,-0.00001144,0.00009845,-0.00016430,-0.00004131,-0.00000940,-0.000
 08297,0.00001385,-0.00002153,0.00001712,-0.00003452,0.00089563,0.00024
 183,-0.00149447,-0.00048331,-0.00140945,0.00157704,0.00281016,-0.00084
 088,-0.00709304,-0.00240810,-0.00091532,0.00090698,-0.00011715,0.00001
 649,-0.00011958,0.00013192,-0.00003348,0.00011078,0.00006050,-0.000004
 23,0.00008621,0.00001510,0.00000816,0.00004720,0.07535991,-0.11343127,
 -0.08296657,-0.02955694,0.03600139,0.00691781,-0.04486825,0.07730279,0
 .08073554\\0.00000091,-0.00001162,-0.00000482,-0.00001465,-0.00000193,
 -0.00000267,-0.00000575,-0.00000476,-0.00000800,0.00000797,-0.00000188
 ,-0.00000830,0.00001327,0.00000324,0.00001097,0.00000008,-0.00000177,0
 .00000399,-0.00000083,-0.00000039,0.00000127,-0.00000316,-0.00000239,0
 .00000262,0.00000256,0.00000412,0.00000220,0.00000102,0.00000694,-0.00
 000531,-0.00000708,-0.00000521,0.00000187,-0.00000014,0.00000069,0.000
 00260,-0.00000166,-0.00000079,0.00000209,0.00000354,-0.00000123,-0.000
 00363,-0.00001068,0.00001200,-0.00001617,-0.00000146,0.00000626,0.0000
 0383,-0.00000326,-0.00000292,0.00000658,-0.00000265,0.00000160,-0.0000
 0147,0.00000282,-0.00000663,-0.00000371,-0.00000128,0.00000024,0.00000
 564,0.00000436,0.00000655,-0.00000016,0.00001749,-0.00000776,0.0000014
 5,0.00000128,0.00000146,-0.00000056,0.00000712,0.00000602,0.00000424,-
 0.00000887,-0.00001518,-0.00001001,0.00000459,-0.00000392,0.00000341,0
 .00000741,-0.00000298,0.00000006,0.00000732,0.00000114,-0.00000528,-0.
 00000036,0.00000262,0.00000215,-0.00001991,0.00001848,0.00001512\\\@


 IT IS BY LOGIC THAT WE PROVE, BUT BY INTUITION THAT WE DISCOVER.
     -- J.H.POINCARE (1854-1912)
 Job cpu time:       0 days  0 hours 33 minutes 49.3 seconds.
 File lengths (MBytes):  RWF=    221 Int=      0 D2E=      0 Chk=      6 Scr=      1
 Normal termination of Gaussian 09 at Sun Jan 15 12:57:33 2017.
