 Entering Gaussian System, Link 0=g09
 Initial command:
 /global/software/gaussian/g09.e01/l1.exe "/scratch/10462918.yak.local/Gau-14257.inp" -scrdir="/scratch/10462918.yak.local/"
 Entering Link 1 = /global/software/gaussian/g09.e01/l1.exe PID=     14258.
  
 Copyright (c) 1988,1990,1992,1993,1995,1998,2003,2009,2015,
            Gaussian, Inc.  All Rights Reserved.
  
 This is part of the Gaussian(R) 09 program.  It is based on
 the Gaussian(R) 03 system (copyright 2003, Gaussian, Inc.),
 the Gaussian(R) 98 system (copyright 1998, Gaussian, Inc.),
 the Gaussian(R) 94 system (copyright 1995, Gaussian, Inc.),
 the Gaussian 92(TM) system (copyright 1992, Gaussian, Inc.),
 the Gaussian 90(TM) system (copyright 1990, Gaussian, Inc.),
 the Gaussian 88(TM) system (copyright 1988, Gaussian, Inc.),
 the Gaussian 86(TM) system (copyright 1986, Carnegie Mellon
 University), and the Gaussian 82(TM) system (copyright 1983,
 Carnegie Mellon University). Gaussian is a federally registered
 trademark of Gaussian, Inc.
  
 This software contains proprietary and confidential information,
 including trade secrets, belonging to Gaussian, Inc.
  
 This software is provided under written license and may be
 used, copied, transmitted, or stored only in accord with that
 written license.
  
 The following legend is applicable only to US Government
 contracts under FAR:
  
                    RESTRICTED RIGHTS LEGEND
  
 Use, reproduction and disclosure by the US Government is
 subject to restrictions as set forth in subparagraphs (a)
 and (c) of the Commercial Computer Software - Restricted
 Rights clause in FAR 52.227-19.
  
 Gaussian, Inc.
 340 Quinnipiac St., Bldg. 40, Wallingford CT 06492
  
  
 ---------------------------------------------------------------
 Warning -- This program may not be used in any manner that
 competes with the business of Gaussian, Inc. or will provide
 assistance to any competitor of Gaussian, Inc.  The licensee
 of this program is prohibited from giving any competitor of
 Gaussian, Inc. access to this program.  By using this program,
 the user acknowledges that Gaussian, Inc. is engaged in the
 business of creating and licensing software in the field of
 computational chemistry and represents and warrants to the
 licensee that it is not a competitor of Gaussian, Inc. and that
 it will not use this program in any manner prohibited above.
 ---------------------------------------------------------------
  

 Cite this work as:
 Gaussian 09, Revision E.01,
 M. J. Frisch, G. W. Trucks, H. B. Schlegel, G. E. Scuseria, 
 M. A. Robb, J. R. Cheeseman, G. Scalmani, V. Barone, B. Mennucci, 
 G. A. Petersson, H. Nakatsuji, M. Caricato, X. Li, H. P. Hratchian, 
 A. F. Izmaylov, J. Bloino, G. Zheng, J. L. Sonnenberg, M. Hada, 
 M. Ehara, K. Toyota, R. Fukuda, J. Hasegawa, M. Ishida, T. Nakajima, 
 Y. Honda, O. Kitao, H. Nakai, T. Vreven, J. A. Montgomery, Jr., 
 J. E. Peralta, F. Ogliaro, M. Bearpark, J. J. Heyd, E. Brothers, 
 K. N. Kudin, V. N. Staroverov, T. Keith, R. Kobayashi, J. Normand, 
 K. Raghavachari, A. Rendell, J. C. Burant, S. S. Iyengar, J. Tomasi, 
 M. Cossi, N. Rega, J. M. Millam, M. Klene, J. E. Knox, J. B. Cross, 
 V. Bakken, C. Adamo, J. Jaramillo, R. Gomperts, R. E. Stratmann, 
 O. Yazyev, A. J. Austin, R. Cammi, C. Pomelli, J. W. Ochterski, 
 R. L. Martin, K. Morokuma, V. G. Zakrzewski, G. A. Voth, 
 P. Salvador, J. J. Dannenberg, S. Dapprich, A. D. Daniels, 
 O. Farkas, J. B. Foresman, J. V. Ortiz, J. Cioslowski, 
 and D. J. Fox, Gaussian, Inc., Wallingford CT, 2013.
 
 ******************************************
 Gaussian 09:  ES64L-G09RevE.01 30-Nov-2015
                15-Jan-2017 
 ******************************************
 %NPROCS=4
 Will use up to    4 processors via shared memory.
 -----------------------------------------
 # opt=(MaxCycle=1000) freq B3LYP/6-31G(d)
 -----------------------------------------
 1/6=1000,14=-1,18=20,19=15,26=3,38=1/1,3;
 2/9=110,12=2,17=6,18=5,40=1/2;
 3/5=1,6=6,7=1,11=2,16=1,25=1,30=1,71=1,74=-5/1,2,3;
 4//1;
 5/5=2,38=5/2;
 6/7=2,8=2,9=2,10=2,28=1/1;
 7//1,2,3,16;
 1/6=1000,14=-1,18=20,19=15,26=3/3(2);
 2/9=110/2;
 99//99;
 2/9=110/2;
 3/5=1,6=6,7=1,11=2,16=1,25=1,30=1,71=1,74=-5/1,2,3;
 4/5=5,16=3,69=1/1;
 5/5=2,38=5/2;
 7//1,2,3,16;
 1/6=1000,14=-1,18=20,19=15,26=3/3(-5);
 2/9=110/2;
 6/7=2,8=2,9=2,10=2,19=2,28=1/1;
 99/9=1/99;
 -----------------------------------------------
 ./boats/4/glo_2w_alpha_ts_boat4_B3LYP_631Gd.out
 -----------------------------------------------
 Symbolic Z-matrix:
 Charge =  0 Multiplicity = 1
 O                    -0.64344   0.32593   0.54326 
 C                     1.64588   0.21069  -0.2481 
 C                     0.22309  -1.90475  -0.20376 
 C                     1.55842  -1.24839   0.2046 
 C                    -0.87536  -0.8662   -0.4964 
 C                     0.58175   1.06408   0.45119 
 H                     1.608    -1.27409   1.30382 
 H                     0.93187   1.23597   1.48003 
 H                     1.50022   0.24753  -1.34079 
 C                     0.37872   2.42093  -0.24769 
 H                     0.04504   2.26155  -1.27815 
 H                    -0.39155   3.01157   0.26435 
 H                     0.40786  -2.45407  -1.14248 
 O                     1.61419   3.14659  -0.34602 
 H                     1.80867   3.51679   0.52982 
 O                    -0.20329  -2.78096   0.81656 
 H                    -1.17582  -2.79266   0.75382 
 O                     2.62399  -1.98809  -0.3685 
 H                     3.41955  -1.44611  -0.22699 
 O                     2.9532    0.67263   0.07117 
 H                     2.99773   1.58472  -0.26975 
 H                    -0.75311  -0.38055  -1.47242 
 O                    -2.09796  -1.37256  -0.28815 
 O                    -3.80358   0.27389  -0.88135 
 H                    -2.84128  -0.74978  -0.63462 
 H                    -3.51604   0.91095  -0.14144 
 H                    -4.69069  -0.0505   -0.66855 
 O                    -2.7275    1.58303   0.87634 
 H                    -1.84953   1.08764   0.80171 
 H                    -3.0698    1.35713   1.75445 
 
 Add virtual bond connecting atoms H25        and O24        Dist= 2.70D+00.
 Add virtual bond connecting atoms O28        and H26        Dist= 2.74D+00.
 Add virtual bond connecting atoms H29        and O1         Dist= 2.74D+00.

 GradGradGradGradGradGradGradGradGradGradGradGradGradGradGradGradGradGrad
 Berny optimization.
 Initialization pass.
                           ----------------------------
                           !    Initial Parameters    !
                           ! (Angstroms and Degrees)  !
 --------------------------                            --------------------------
 ! Name  Definition              Value          Derivative Info.                !
 --------------------------------------------------------------------------------
 ! R1    R(1,5)                  1.5987         estimate D2E/DX2                !
 ! R2    R(1,6)                  1.4333         estimate D2E/DX2                !
 ! R3    R(1,29)                 1.4497         estimate D2E/DX2                !
 ! R4    R(2,4)                  1.5302         estimate D2E/DX2                !
 ! R5    R(2,6)                  1.5329         estimate D2E/DX2                !
 ! R6    R(2,9)                  1.103          estimate D2E/DX2                !
 ! R7    R(2,20)                 1.4228         estimate D2E/DX2                !
 ! R8    R(3,4)                  1.5429         estimate D2E/DX2                !
 ! R9    R(3,5)                  1.5397         estimate D2E/DX2                !
 ! R10   R(3,13)                 1.1032         estimate D2E/DX2                !
 ! R11   R(3,16)                 1.4109         estimate D2E/DX2                !
 ! R12   R(4,7)                  1.1006         estimate D2E/DX2                !
 ! R13   R(4,18)                 1.4181         estimate D2E/DX2                !
 ! R14   R(5,22)                 1.097          estimate D2E/DX2                !
 ! R15   R(5,23)                 1.3396         estimate D2E/DX2                !
 ! R16   R(6,8)                  1.1003         estimate D2E/DX2                !
 ! R17   R(6,10)                 1.5397         estimate D2E/DX2                !
 ! R18   R(10,11)                1.0948         estimate D2E/DX2                !
 ! R19   R(10,12)                1.0974         estimate D2E/DX2                !
 ! R20   R(10,14)                1.4362         estimate D2E/DX2                !
 ! R21   R(14,15)                0.9705         estimate D2E/DX2                !
 ! R22   R(16,17)                0.9746         estimate D2E/DX2                !
 ! R23   R(18,19)                0.973          estimate D2E/DX2                !
 ! R24   R(20,21)                0.9747         estimate D2E/DX2                !
 ! R25   R(23,25)                1.0298         estimate D2E/DX2                !
 ! R26   R(24,25)                1.4265         estimate D2E/DX2                !
 ! R27   R(24,26)                1.0178         estimate D2E/DX2                !
 ! R28   R(24,27)                0.9682         estimate D2E/DX2                !
 ! R29   R(26,28)                1.4524         estimate D2E/DX2                !
 ! R30   R(28,29)                1.0108         estimate D2E/DX2                !
 ! R31   R(28,30)                0.9692         estimate D2E/DX2                !
 ! A1    A(5,1,6)              117.7911         estimate D2E/DX2                !
 ! A2    A(5,1,29)             112.7709         estimate D2E/DX2                !
 ! A3    A(6,1,29)             116.8725         estimate D2E/DX2                !
 ! A4    A(4,2,6)              110.8679         estimate D2E/DX2                !
 ! A5    A(4,2,9)              108.505          estimate D2E/DX2                !
 ! A6    A(4,2,20)             107.2            estimate D2E/DX2                !
 ! A7    A(6,2,9)              109.9789         estimate D2E/DX2                !
 ! A8    A(6,2,20)             110.7776         estimate D2E/DX2                !
 ! A9    A(9,2,20)             109.4387         estimate D2E/DX2                !
 ! A10   A(4,3,5)              112.382          estimate D2E/DX2                !
 ! A11   A(4,3,13)             106.9818         estimate D2E/DX2                !
 ! A12   A(4,3,16)             109.5318         estimate D2E/DX2                !
 ! A13   A(5,3,13)             107.0743         estimate D2E/DX2                !
 ! A14   A(5,3,16)             109.9217         estimate D2E/DX2                !
 ! A15   A(13,3,16)            110.8996         estimate D2E/DX2                !
 ! A16   A(2,4,3)              112.135          estimate D2E/DX2                !
 ! A17   A(2,4,7)              108.3701         estimate D2E/DX2                !
 ! A18   A(2,4,18)             109.5641         estimate D2E/DX2                !
 ! A19   A(3,4,7)              107.0601         estimate D2E/DX2                !
 ! A20   A(3,4,18)             108.7505         estimate D2E/DX2                !
 ! A21   A(7,4,18)             110.9517         estimate D2E/DX2                !
 ! A22   A(1,5,3)              106.014          estimate D2E/DX2                !
 ! A23   A(1,5,22)             103.433          estimate D2E/DX2                !
 ! A24   A(1,5,23)             108.2502         estimate D2E/DX2                !
 ! A25   A(3,5,22)             112.8425         estimate D2E/DX2                !
 ! A26   A(3,5,23)             111.5055         estimate D2E/DX2                !
 ! A27   A(22,5,23)            114.0391         estimate D2E/DX2                !
 ! A28   A(1,6,2)              109.6332         estimate D2E/DX2                !
 ! A29   A(1,6,8)              107.001          estimate D2E/DX2                !
 ! A30   A(1,6,10)             111.7324         estimate D2E/DX2                !
 ! A31   A(2,6,8)              107.0164         estimate D2E/DX2                !
 ! A32   A(2,6,10)             112.0294         estimate D2E/DX2                !
 ! A33   A(8,6,10)             109.191          estimate D2E/DX2                !
 ! A34   A(6,10,11)            109.8238         estimate D2E/DX2                !
 ! A35   A(6,10,12)            110.7968         estimate D2E/DX2                !
 ! A36   A(6,10,14)            111.2787         estimate D2E/DX2                !
 ! A37   A(11,10,12)           107.6731         estimate D2E/DX2                !
 ! A38   A(11,10,14)           105.7419         estimate D2E/DX2                !
 ! A39   A(12,10,14)           111.3337         estimate D2E/DX2                !
 ! A40   A(10,14,15)           107.657          estimate D2E/DX2                !
 ! A41   A(3,16,17)            105.2161         estimate D2E/DX2                !
 ! A42   A(4,18,19)            105.3703         estimate D2E/DX2                !
 ! A43   A(2,20,21)            105.5032         estimate D2E/DX2                !
 ! A44   A(5,23,25)            112.2026         estimate D2E/DX2                !
 ! A45   A(25,24,26)            97.6341         estimate D2E/DX2                !
 ! A46   A(25,24,27)           109.8549         estimate D2E/DX2                !
 ! A47   A(26,24,27)           107.9844         estimate D2E/DX2                !
 ! A48   A(24,26,28)           162.2576         estimate D2E/DX2                !
 ! A49   A(26,28,29)           101.1307         estimate D2E/DX2                !
 ! A50   A(26,28,30)           109.5917         estimate D2E/DX2                !
 ! A51   A(29,28,30)           105.036          estimate D2E/DX2                !
 ! A52   L(23,25,24,10,-1)     172.7438         estimate D2E/DX2                !
 ! A53   L(1,29,28,12,-1)      181.5252         estimate D2E/DX2                !
 ! A54   L(23,25,24,10,-2)     189.2236         estimate D2E/DX2                !
 ! A55   L(1,29,28,12,-2)      173.4575         estimate D2E/DX2                !
 ! D1    D(6,1,5,3)             63.5415         estimate D2E/DX2                !
 ! D2    D(6,1,5,22)           -55.3912         estimate D2E/DX2                !
 ! D3    D(6,1,5,23)          -176.7074         estimate D2E/DX2                !
 ! D4    D(29,1,5,3)          -155.6204         estimate D2E/DX2                !
 ! D5    D(29,1,5,22)           85.4469         estimate D2E/DX2                !
 ! D6    D(29,1,5,23)          -35.8693         estimate D2E/DX2                !
 ! D7    D(5,1,6,2)            -22.8615         estimate D2E/DX2                !
 ! D8    D(5,1,6,8)           -138.5818         estimate D2E/DX2                !
 ! D9    D(5,1,6,10)           101.9517         estimate D2E/DX2                !
 ! D10   D(29,1,6,2)          -162.1095         estimate D2E/DX2                !
 ! D11   D(29,1,6,8)            82.1701         estimate D2E/DX2                !
 ! D12   D(29,1,6,10)          -37.2964         estimate D2E/DX2                !
 ! D13   D(5,1,28,26)           -6.491          estimate D2E/DX2                !
 ! D14   D(5,1,28,30)          106.8472         estimate D2E/DX2                !
 ! D15   D(6,1,28,26)          132.9979         estimate D2E/DX2                !
 ! D16   D(6,1,28,30)         -113.6638         estimate D2E/DX2                !
 ! D17   D(6,2,4,3)             64.1454         estimate D2E/DX2                !
 ! D18   D(6,2,4,7)            -53.8111         estimate D2E/DX2                !
 ! D19   D(6,2,4,18)          -175.0012         estimate D2E/DX2                !
 ! D20   D(9,2,4,3)            -56.7309         estimate D2E/DX2                !
 ! D21   D(9,2,4,7)           -174.6875         estimate D2E/DX2                !
 ! D22   D(9,2,4,18)            64.1224         estimate D2E/DX2                !
 ! D23   D(20,2,4,3)          -174.8287         estimate D2E/DX2                !
 ! D24   D(20,2,4,7)            67.2147         estimate D2E/DX2                !
 ! D25   D(20,2,4,18)          -53.9754         estimate D2E/DX2                !
 ! D26   D(4,2,6,1)            -39.5501         estimate D2E/DX2                !
 ! D27   D(4,2,6,8)             76.1604         estimate D2E/DX2                !
 ! D28   D(4,2,6,10)          -164.1911         estimate D2E/DX2                !
 ! D29   D(9,2,6,1)             80.4507         estimate D2E/DX2                !
 ! D30   D(9,2,6,8)           -163.8388         estimate D2E/DX2                !
 ! D31   D(9,2,6,10)           -44.1903         estimate D2E/DX2                !
 ! D32   D(20,2,6,1)          -158.4396         estimate D2E/DX2                !
 ! D33   D(20,2,6,8)           -42.729          estimate D2E/DX2                !
 ! D34   D(20,2,6,10)           76.9194         estimate D2E/DX2                !
 ! D35   D(4,2,20,21)          177.0271         estimate D2E/DX2                !
 ! D36   D(6,2,20,21)          -61.89           estimate D2E/DX2                !
 ! D37   D(9,2,20,21)           59.5383         estimate D2E/DX2                !
 ! D38   D(5,3,4,2)            -20.5384         estimate D2E/DX2                !
 ! D39   D(5,3,4,7)             98.1939         estimate D2E/DX2                !
 ! D40   D(5,3,4,18)          -141.8606         estimate D2E/DX2                !
 ! D41   D(13,3,4,2)            96.7047         estimate D2E/DX2                !
 ! D42   D(13,3,4,7)          -144.5631         estimate D2E/DX2                !
 ! D43   D(13,3,4,18)          -24.6175         estimate D2E/DX2                !
 ! D44   D(16,3,4,2)          -143.0236         estimate D2E/DX2                !
 ! D45   D(16,3,4,7)           -24.2913         estimate D2E/DX2                !
 ! D46   D(16,3,4,18)           95.6543         estimate D2E/DX2                !
 ! D47   D(4,3,5,1)            -35.9035         estimate D2E/DX2                !
 ! D48   D(4,3,5,22)            76.6256         estimate D2E/DX2                !
 ! D49   D(4,3,5,23)          -153.5023         estimate D2E/DX2                !
 ! D50   D(13,3,5,1)          -153.0915         estimate D2E/DX2                !
 ! D51   D(13,3,5,22)          -40.5624         estimate D2E/DX2                !
 ! D52   D(13,3,5,23)           89.3097         estimate D2E/DX2                !
 ! D53   D(16,3,5,1)            86.3611         estimate D2E/DX2                !
 ! D54   D(16,3,5,22)         -161.1098         estimate D2E/DX2                !
 ! D55   D(16,3,5,23)          -31.2377         estimate D2E/DX2                !
 ! D56   D(4,3,16,17)          151.3382         estimate D2E/DX2                !
 ! D57   D(5,3,16,17)           27.3989         estimate D2E/DX2                !
 ! D58   D(13,3,16,17)         -90.81           estimate D2E/DX2                !
 ! D59   D(2,4,18,19)           46.6569         estimate D2E/DX2                !
 ! D60   D(3,4,18,19)          169.5399         estimate D2E/DX2                !
 ! D61   D(7,4,18,19)          -72.9612         estimate D2E/DX2                !
 ! D62   D(1,5,23,25)           73.767          estimate D2E/DX2                !
 ! D63   D(3,5,23,25)         -169.9918         estimate D2E/DX2                !
 ! D64   D(22,5,23,25)         -40.7479         estimate D2E/DX2                !
 ! D65   D(1,6,10,11)          -62.7144         estimate D2E/DX2                !
 ! D66   D(1,6,10,12)           56.1093         estimate D2E/DX2                !
 ! D67   D(1,6,10,14)         -179.4509         estimate D2E/DX2                !
 ! D68   D(2,6,10,11)           60.754          estimate D2E/DX2                !
 ! D69   D(2,6,10,12)          179.5777         estimate D2E/DX2                !
 ! D70   D(2,6,10,14)          -55.9825         estimate D2E/DX2                !
 ! D71   D(8,6,10,11)          179.1202         estimate D2E/DX2                !
 ! D72   D(8,6,10,12)          -62.0562         estimate D2E/DX2                !
 ! D73   D(8,6,10,14)           62.3836         estimate D2E/DX2                !
 ! D74   D(6,10,14,15)         -76.3212         estimate D2E/DX2                !
 ! D75   D(11,10,14,15)        164.4761         estimate D2E/DX2                !
 ! D76   D(12,10,14,15)         47.8153         estimate D2E/DX2                !
 ! D77   D(5,23,24,26)         -64.886          estimate D2E/DX2                !
 ! D78   D(5,23,24,27)        -175.3718         estimate D2E/DX2                !
 ! D79   D(25,24,26,28)         21.0275         estimate D2E/DX2                !
 ! D80   D(27,24,26,28)        134.8428         estimate D2E/DX2                !
 ! D81   D(24,26,28,29)          1.4978         estimate D2E/DX2                !
 ! D82   D(24,26,28,30)       -109.0308         estimate D2E/DX2                !
 --------------------------------------------------------------------------------
 Trust Radius=3.00D-01 FncErr=1.00D-07 GrdErr=1.00D-06
 Number of steps in this run=    180 maximum allowed number of steps=    180.
 GradGradGradGradGradGradGradGradGradGradGradGradGradGradGradGradGradGrad

                          Input orientation:                          
 ---------------------------------------------------------------------
 Center     Atomic      Atomic             Coordinates (Angstroms)
 Number     Number       Type             X           Y           Z
 ---------------------------------------------------------------------
      1          8           0       -0.643440    0.325930    0.543260
      2          6           0        1.645880    0.210690   -0.248100
      3          6           0        0.223090   -1.904750   -0.203760
      4          6           0        1.558420   -1.248390    0.204600
      5          6           0       -0.875360   -0.866200   -0.496400
      6          6           0        0.581750    1.064080    0.451190
      7          1           0        1.608000   -1.274090    1.303820
      8          1           0        0.931870    1.235970    1.480030
      9          1           0        1.500220    0.247530   -1.340790
     10          6           0        0.378720    2.420930   -0.247690
     11          1           0        0.045040    2.261550   -1.278150
     12          1           0       -0.391550    3.011570    0.264350
     13          1           0        0.407860   -2.454070   -1.142480
     14          8           0        1.614190    3.146590   -0.346020
     15          1           0        1.808670    3.516790    0.529820
     16          8           0       -0.203290   -2.780960    0.816560
     17          1           0       -1.175820   -2.792660    0.753820
     18          8           0        2.623990   -1.988090   -0.368500
     19          1           0        3.419550   -1.446110   -0.226990
     20          8           0        2.953200    0.672630    0.071170
     21          1           0        2.997730    1.584720   -0.269750
     22          1           0       -0.753110   -0.380550   -1.472420
     23          8           0       -2.097960   -1.372560   -0.288150
     24          8           0       -3.803580    0.273890   -0.881350
     25          1           0       -2.841280   -0.749780   -0.634620
     26          1           0       -3.516040    0.910950   -0.141440
     27          1           0       -4.690690   -0.050500   -0.668550
     28          8           0       -2.727500    1.583030    0.876340
     29          1           0       -1.849530    1.087640    0.801710
     30          1           0       -3.069800    1.357130    1.754450
 ---------------------------------------------------------------------
                    Distance matrix (angstroms):
                    1          2          3          4          5
     1  O    0.000000
     2  C    2.424978   0.000000
     3  C    2.506960   2.549781   0.000000
     4  C    2.727886   1.530196   1.542943   0.000000
     5  C    1.598704   2.752816   1.539746   2.561397   0.000000
     6  C    1.433329   1.532858   3.061298   2.522342   2.597514
     7  H    2.864873   2.148130   2.142080   1.100638   3.094227
     8  H    2.046292   2.132473   3.633406   2.862050   3.404625
     9  H    2.855008   1.102971   2.748856   2.151603   2.756224
    10  C    2.461593   2.547716   4.328702   3.880743   3.527010
    11  H    2.745572   2.798163   4.306283   4.099823   3.352773
    12  H    2.711808   3.501236   4.976657   4.685426   3.981195
    13  H    3.416921   3.071409   1.103217   2.142913   2.141356
    14  O    3.720730   2.937703   5.241320   4.429689   4.724718
    15  H    4.024253   3.400288   5.696078   4.782816   5.240968
    16  O    3.149792   3.674629   1.410885   2.413895   2.416991
    17  H    3.170705   4.240984   1.913712   3.187865   2.316155
    18  O    4.106348   2.409529   2.407988   1.418111   3.677016
    19  H    4.499033   2.427208   3.229280   1.920721   4.342249
    20  O    3.644021   1.422817   3.764568   2.377716   4.165094
    21  H    3.937468   1.927674   4.458630   3.212963   4.589031
    22  H    2.138716   2.757477   2.210351   2.984747   1.097003
    23  O    2.385737   4.065049   2.382776   3.691522   1.339597
    24  O    3.466801   5.486494   4.628139   5.678703   3.165828
    25  H    2.715705   4.605052   3.303023   4.506691   1.974209
    26  H    3.010464   5.210294   4.681148   5.525635   3.202725
    27  H    4.241511   6.355873   5.272524   6.422516   3.905348
    28  O    2.456532   4.719548   4.694380   5.180471   3.363564
    29  H    1.449707   3.753536   3.776390   4.174650   2.539998
    30  H    2.901306   5.249968   5.031657   5.532738   3.850336
                    6          7          8          9         10
     6  C    0.000000
     7  H    2.692064   0.000000
     8  H    1.100292   2.605495   0.000000
     9  H    2.172909   3.053016   3.042542   0.000000
    10  C    1.539707   4.191836   2.166823   2.678861   0.000000
    11  H    2.170854   4.648673   3.073408   2.485508   1.094802
    12  H    2.185163   4.842064   2.526277   3.714187   1.097432
    13  H    3.866187   2.969356   4.557251   2.920825   4.956523
    14  O    2.457300   4.718519   2.729558   3.067100   1.436188
    15  H    2.743593   4.857147   2.621797   3.779204   1.962190
    16  O    3.941334   2.406003   4.226643   4.089970   5.341444
    17  H    4.249127   3.218417   4.604302   4.559752   5.531829
    18  O    3.762762   2.082951   4.083491   2.684437   4.949272
    19  H    3.848908   2.377958   4.036833   2.791558   4.919459
    20  O    2.433398   2.668091   2.527452   2.070143   3.128286
    21  H    2.574447   3.546867   2.729677   2.275465   2.749354
    22  H    2.751197   3.752434   3.764207   2.342927   3.260260
    23  O    3.696577   4.034626   4.371585   4.084072   4.530579
    24  O    4.650933   6.037914   5.378308   5.323727   4.743726
    25  H    4.023208   4.881449   4.759371   4.510202   4.535583
    26  H    4.143253   5.754908   4.745388   5.200138   4.178574
    27  H    5.504065   6.712742   6.155045   6.234428   5.655440
    28  O    3.376566   5.209840   3.725034   4.957100   3.407950
    29  H    2.456530   4.217155   2.866759   4.064101   2.800714
    30  H    3.888211   5.385926   4.012898   5.629992   4.127048
                   11         12         13         14         15
    11  H    0.000000
    12  H    1.769872   0.000000
    13  H    4.731503   5.700127   0.000000
    14  O    2.028397   2.100899   5.784200   0.000000
    15  H    2.820421   2.273035   6.356888   0.970549   0.000000
    16  O    5.465929   5.821837   2.078028   6.307985   6.617542
    17  H    5.582512   5.877393   2.493720   6.653457   6.983303
    18  O    5.053502   5.872868   2.393202   5.233081   5.636970
    19  H    5.122402   5.885305   3.305205   4.936232   5.272388
    20  O    3.578090   4.085990   4.210458   2.843848   3.099928
    21  H    3.192702   3.715963   4.876567   2.087927   2.405425
    22  H    2.766853   3.827999   2.399208   4.394724   5.075524
    23  O    4.333509   4.736844   2.859839   5.848600   6.311622
    24  O    4.349726   4.522109   5.024558   6.155584   6.633638
    25  H    4.220555   4.577890   3.703976   5.925893   6.417287
    26  H    3.974610   3.786781   5.265210   5.599928   5.966031
    27  H    5.305123   5.359961   5.656586   7.076505   7.510215
    28  O    3.576198   2.805694   5.495843   4.773799   4.943313
    29  H    3.048488   2.473048   4.628109   4.189739   4.399673
    30  H    4.440368   3.482900   5.917057   5.436350   5.473876
                   16         17         18         19         20
    16  O    0.000000
    17  H    0.974622   0.000000
    18  O    3.166468   4.042956   0.000000
    19  H    3.999474   4.888007   0.972976   0.000000
    20  O    4.737755   5.433512   2.716822   2.189850   0.000000
    21  H    5.521391   6.134140   3.593662   3.060342   0.974740
    22  H    3.362098   3.309547   3.899696   4.483035   4.150734
    23  O    2.606482   1.988147   4.762578   5.518339   5.461330
    24  O    5.017678   4.356906   6.833244   7.453871   6.835230
    25  H    3.631888   2.979074   5.610117   6.312609   6.008110
    26  H    5.051958   4.471560   6.793818   7.325671   6.477119
    27  H    5.458729   4.679411   7.572901   8.241280   7.713570
    28  O    5.041787   4.644285   6.552936   6.941127   5.809258
    29  H    4.204330   3.938643   5.553547   5.936440   4.875668
    30  H    5.120577   4.670030   6.936617   7.341384   6.291145
                   21         22         23         24         25
    21  H    0.000000
    22  H    4.401988   0.000000
    23  O    5.891681   2.048219   0.000000
    24  O    6.953427   3.175378   2.443731   0.000000
    25  H    6.298973   2.280064   1.029767   1.426463   0.000000
    26  H    6.549781   3.327651   2.692005   1.017837   1.859180
    27  H    7.870501   4.032329   2.935097   0.968234   1.977489
    28  O    5.838817   3.642875   3.238498   2.441571   2.781717
    29  H    4.989093   2.920511   2.702239   2.704291   2.534309
    30  H    6.400321   4.335813   3.545123   2.942666   3.193579
                   26         27         28         29         30
    26  H    0.000000
    27  H    1.606871   0.000000
    28  O    1.452365   2.984832   0.000000
    29  H    1.923020   3.395470   1.010847   0.000000
    30  H    1.998151   3.237227   0.969163   1.571432   0.000000
 Stoichiometry    C6H16O8
 Framework group  C1[X(C6H16O8)]
 Deg. of freedom    84
 Full point group                 C1      NOp   1
 Largest Abelian subgroup         C1      NOp   1
 Largest concise Abelian subgroup C1      NOp   1
                         Standard orientation:                         
 ---------------------------------------------------------------------
 Center     Atomic      Atomic             Coordinates (Angstroms)
 Number     Number       Type             X           Y           Z
 ---------------------------------------------------------------------
      1          8           0       -0.620766    0.298049    0.544189
      2          6           0        1.669409    0.189447   -0.245634
      3          6           0        0.252390   -1.929903   -0.203257
      4          6           0        1.585633   -1.270076    0.206332
      5          6           0       -0.848699   -0.894230   -0.496181
      6          6           0        0.602461    1.039595    0.453310
      7          1           0        1.634521   -1.296149    1.305574
      8          1           0        0.951395    1.211967    1.482472
      9          1           0        1.524406    0.226394   -1.338408
     10          6           0        0.396198    2.396207   -0.245085
     11          1           0        0.063670    2.236391   -1.275850
     12          1           0       -0.376042    2.984498    0.266693
     13          1           0        0.439314   -2.478280   -1.142102
     14          8           0        1.629743    3.125294   -0.342222
     15          1           0        1.822601    3.495620    0.533923
     16          8           0       -0.172295   -2.807750    0.816362
     17          1           0       -1.144746   -2.822085    0.752942
     18          8           0        2.653622   -2.006589   -0.366369
     19          1           0        3.447596   -1.462497   -0.224057
     20          8           0        2.975237    0.654819    0.074756
     21          1           0        3.017504    1.567185   -0.265712
     22          1           0       -0.727103   -0.407795   -1.471892
     23          8           0       -2.070051   -1.404034   -0.289013
     24          8           0       -3.779764    0.238012   -0.882638
     25          1           0       -2.814834   -0.783132   -0.635712
     26          1           0       -3.494483    0.875515   -0.142235
     27          1           0       -4.666129   -0.088905   -0.670604
     28          8           0       -2.708493    1.549281    0.876402
     29          1           0       -1.829117    1.056333    0.802153
     30          1           0       -3.050781    1.322038    1.754170
 ---------------------------------------------------------------------
 Rotational constants (GHZ):      0.7173440      0.5294772      0.3326979
 Standard basis: 6-31G(d) (6D, 7F)
 There are   242 symmetry adapted cartesian basis functions of A   symmetry.
 There are   242 symmetry adapted basis functions of A   symmetry.
   242 basis functions,   456 primitive gaussians,   242 cartesian basis functions
    58 alpha electrons       58 beta electrons
       nuclear repulsion energy      1103.9803948486 Hartrees.
 NAtoms=   30 NActive=   30 NUniq=   30 SFac= 1.00D+00 NAtFMM=   60 NAOKFM=F Big=F
 Integral buffers will be    131072 words long.
 Raffenetti 2 integral format.
 Two-electron integral symmetry is turned on.
 One-electron integrals computed using PRISM.
 NBasis=   242 RedAO= T EigKep=  1.33D-03  NBF=   242
 NBsUse=   242 1.00D-06 EigRej= -1.00D+00 NBFU=   242
 ExpMin= 1.61D-01 ExpMax= 5.48D+03 ExpMxC= 8.25D+02 IAcc=1 IRadAn=         1 AccDes= 0.00D+00
 Harris functional with IExCor=  402 and IRadAn=       1 diagonalized for initial guess.
 HarFok:  IExCor=  402 AccDes= 0.00D+00 IRadAn=         1 IDoV= 1 UseB2=F ITyADJ=14
 ICtDFT=  3500011 ScaDFX=  1.000000  1.000000  1.000000  1.000000
 FoFCou: FMM=F IPFlag=           0 FMFlag=      100000 FMFlg1=           0
         NFxFlg=           0 DoJE=T BraDBF=F KetDBF=T FulRan=T
         wScrn=  0.000000 ICntrl=     500 IOpCl=  0 I1Cent=   200000004 NGrid=           0
         NMat0=    1 NMatS0=      1 NMatT0=    0 NMatD0=    1 NMtDS0=    0 NMtDT0=    0
 Petite list used in FoFCou.
 Requested convergence on RMS density matrix=1.00D-08 within 128 cycles.
 Requested convergence on MAX density matrix=1.00D-06.
 Requested convergence on             energy=1.00D-06.
 No special actions if energy rises.
 Integral accuracy reduced to 1.0D-05 until final iterations.
 Initial convergence to 1.0D-05 achieved.  Increase integral accuracy.
 SCF Done:  E(RB3LYP) =  -839.981779931     A.U. after   14 cycles
            NFock= 14  Conv=0.54D-08     -V/T= 2.0084

 **********************************************************************

            Population analysis using the SCF density.

 **********************************************************************

 Orbital symmetries:
       Occupied  (A) (A) (A) (A) (A) (A) (A) (A) (A) (A) (A) (A)
                 (A) (A) (A) (A) (A) (A) (A) (A) (A) (A) (A) (A)
                 (A) (A) (A) (A) (A) (A) (A) (A) (A) (A) (A) (A)
                 (A) (A) (A) (A) (A) (A) (A) (A) (A) (A) (A) (A)
                 (A) (A) (A) (A) (A) (A) (A) (A) (A) (A)
       Virtual   (A) (A) (A) (A) (A) (A) (A) (A) (A) (A) (A) (A)
                 (A) (A) (A) (A) (A) (A) (A) (A) (A) (A) (A) (A)
                 (A) (A) (A) (A) (A) (A) (A) (A) (A) (A) (A) (A)
                 (A) (A) (A) (A) (A) (A) (A) (A) (A) (A) (A) (A)
                 (A) (A) (A) (A) (A) (A) (A) (A) (A) (A) (A) (A)
                 (A) (A) (A) (A) (A) (A) (A) (A) (A) (A) (A) (A)
                 (A) (A) (A) (A) (A) (A) (A) (A) (A) (A) (A) (A)
                 (A) (A) (A) (A) (A) (A) (A) (A) (A) (A) (A) (A)
                 (A) (A) (A) (A) (A) (A) (A) (A) (A) (A) (A) (A)
                 (A) (A) (A) (A) (A) (A) (A) (A) (A) (A) (A) (A)
                 (A) (A) (A) (A) (A) (A) (A) (A) (A) (A) (A) (A)
                 (A) (A) (A) (A) (A) (A) (A) (A) (A) (A) (A) (A)
                 (A) (A) (A) (A) (A) (A) (A) (A) (A) (A) (A) (A)
                 (A) (A) (A) (A) (A) (A) (A) (A) (A) (A) (A) (A)
                 (A) (A) (A) (A) (A) (A) (A) (A) (A) (A) (A) (A)
                 (A) (A) (A) (A)
 The electronic state is 1-A.
 Alpha  occ. eigenvalues --  -19.17963 -19.16812 -19.15333 -19.15230 -19.15207
 Alpha  occ. eigenvalues --  -19.15072 -19.13202 -19.12861 -10.30033 -10.25083
 Alpha  occ. eigenvalues --  -10.24957 -10.24162 -10.23434 -10.23038  -1.07111
 Alpha  occ. eigenvalues --   -1.04938  -1.03313  -1.02949  -1.01771  -1.00820
 Alpha  occ. eigenvalues --   -0.99701  -0.98926  -0.77749  -0.76166  -0.69670
 Alpha  occ. eigenvalues --   -0.64795  -0.62617  -0.57132  -0.55718  -0.55321
 Alpha  occ. eigenvalues --   -0.54135  -0.53539  -0.52658  -0.51169  -0.50429
 Alpha  occ. eigenvalues --   -0.49092  -0.45907  -0.44856  -0.43534  -0.42597
 Alpha  occ. eigenvalues --   -0.41721  -0.41034  -0.40144  -0.38891  -0.36890
 Alpha  occ. eigenvalues --   -0.36634  -0.36497  -0.34682  -0.33509  -0.32708
 Alpha  occ. eigenvalues --   -0.31671  -0.30974  -0.30113  -0.29902  -0.27878
 Alpha  occ. eigenvalues --   -0.26800  -0.26341  -0.24492
 Alpha virt. eigenvalues --    0.03672   0.05350   0.07546   0.08254   0.09125
 Alpha virt. eigenvalues --    0.09667   0.11288   0.11772   0.13689   0.14656
 Alpha virt. eigenvalues --    0.15601   0.16253   0.16767   0.17810   0.18761
 Alpha virt. eigenvalues --    0.19599   0.20702   0.22874   0.24350   0.25286
 Alpha virt. eigenvalues --    0.26052   0.26946   0.28606   0.30642   0.32058
 Alpha virt. eigenvalues --    0.32443   0.33536   0.37139   0.50801   0.52065
 Alpha virt. eigenvalues --    0.53375   0.56062   0.56382   0.57573   0.60171
 Alpha virt. eigenvalues --    0.61224   0.61577   0.63249   0.65001   0.67186
 Alpha virt. eigenvalues --    0.67875   0.70574   0.72114   0.73039   0.75275
 Alpha virt. eigenvalues --    0.75659   0.77040   0.78082   0.78674   0.79780
 Alpha virt. eigenvalues --    0.80527   0.81205   0.83504   0.83660   0.84637
 Alpha virt. eigenvalues --    0.85741   0.85913   0.86941   0.88657   0.89659
 Alpha virt. eigenvalues --    0.90339   0.91206   0.92055   0.93821   0.96630
 Alpha virt. eigenvalues --    0.96732   0.99034   0.99189   1.00745   1.02130
 Alpha virt. eigenvalues --    1.03142   1.05381   1.07076   1.08032   1.09268
 Alpha virt. eigenvalues --    1.10070   1.10296   1.14699   1.15600   1.16552
 Alpha virt. eigenvalues --    1.18874   1.20158   1.21058   1.24720   1.27154
 Alpha virt. eigenvalues --    1.29861   1.31344   1.33547   1.36404   1.40999
 Alpha virt. eigenvalues --    1.43526   1.46364   1.48262   1.50074   1.51179
 Alpha virt. eigenvalues --    1.53981   1.55786   1.56619   1.59105   1.60485
 Alpha virt. eigenvalues --    1.61835   1.64206   1.66292   1.69282   1.70760
 Alpha virt. eigenvalues --    1.71044   1.71693   1.72120   1.73155   1.73909
 Alpha virt. eigenvalues --    1.74399   1.74777   1.76391   1.77476   1.79880
 Alpha virt. eigenvalues --    1.81047   1.82737   1.83405   1.85119   1.85978
 Alpha virt. eigenvalues --    1.86320   1.90624   1.91635   1.92398   1.94568
 Alpha virt. eigenvalues --    1.96520   1.99452   2.01216   2.03515   2.04061
 Alpha virt. eigenvalues --    2.08343   2.09729   2.11133   2.11632   2.13967
 Alpha virt. eigenvalues --    2.19432   2.23250   2.23487   2.27486   2.28159
 Alpha virt. eigenvalues --    2.30797   2.32655   2.37428   2.38575   2.38988
 Alpha virt. eigenvalues --    2.42890   2.44617   2.47549   2.49578   2.51047
 Alpha virt. eigenvalues --    2.52941   2.53548   2.57104   2.59344   2.60771
 Alpha virt. eigenvalues --    2.63199   2.66999   2.67773   2.71426   2.75442
 Alpha virt. eigenvalues --    2.78894   2.80344   2.83850   2.87960   2.90005
 Alpha virt. eigenvalues --    2.93649   2.98186   2.98335   3.01529   3.08994
 Alpha virt. eigenvalues --    3.74800   3.75301   3.80098   3.85274   3.88732
 Alpha virt. eigenvalues --    3.94267   4.05824   4.16794   4.24174   4.37524
 Alpha virt. eigenvalues --    4.45475   4.48365   4.65960   4.82329
          Condensed to atoms (all electrons):
               1          2          3          4          5          6
     1  O    8.553104  -0.025761  -0.030522  -0.001097   0.119735   0.135156
     2  C   -0.025761   5.006976  -0.023407   0.319069  -0.002124   0.287190
     3  C   -0.030522  -0.023407   4.956970   0.318524   0.287394  -0.011651
     4  C   -0.001097   0.319069   0.318524   4.905718  -0.033309  -0.033300
     5  C    0.119735  -0.002124   0.287394  -0.033309   4.745218  -0.016123
     6  C    0.135156   0.287190  -0.011651  -0.033300  -0.016123   5.037423
     7  H    0.001183  -0.053134  -0.049890   0.346970   0.001034  -0.001341
     8  H   -0.033405  -0.042742   0.000248  -0.008744   0.002674   0.353184
     9  H    0.002106   0.343750  -0.005250  -0.047242   0.000679  -0.056384
    10  C   -0.028350  -0.035463  -0.000276   0.004194  -0.002202   0.326166
    11  H    0.003125  -0.009793   0.000050  -0.000102   0.001080  -0.040557
    12  H    0.001700   0.004977  -0.000008  -0.000098  -0.000102  -0.042418
    13  H    0.002963  -0.000076   0.339980  -0.054796  -0.044777   0.000845
    14  O    0.001473   0.001640   0.000000   0.000081   0.000047  -0.038542
    15  H    0.000012  -0.001712   0.000001  -0.000011   0.000001  -0.001147
    16  O   -0.000475   0.002207   0.248685  -0.044384  -0.019147   0.000624
    17  H    0.000822  -0.000357  -0.040544   0.006244  -0.018400   0.000012
    18  O    0.000038  -0.032753  -0.037080   0.236223   0.001832   0.003617
    19  H   -0.000010  -0.013986   0.006597  -0.031107  -0.000276   0.000826
    20  O    0.001464   0.221750   0.002300  -0.037189   0.000221  -0.041391
    21  H    0.000029  -0.021451  -0.000198   0.005283   0.000010  -0.005093
    22  H   -0.052728  -0.002868  -0.061796   0.001346   0.358196   0.005800
    23  O   -0.045391   0.000188  -0.036645   0.001670   0.307115   0.001806
    24  O   -0.000654   0.000000  -0.000088   0.000001   0.003974   0.000015
    25  H    0.003533   0.000014   0.003059  -0.000010  -0.017086  -0.000198
    26  H    0.002226   0.000002   0.000068  -0.000002  -0.000289  -0.000118
    27  H    0.000023  -0.000000  -0.000001  -0.000000  -0.000142   0.000001
    28  O   -0.073043  -0.000053  -0.000041   0.000003   0.003432   0.004076
    29  H    0.074620   0.001191   0.000433   0.000028  -0.003163  -0.005126
    30  H    0.003470   0.000003  -0.000001  -0.000000  -0.000221  -0.000011
               7          8          9         10         11         12
     1  O    0.001183  -0.033405   0.002106  -0.028350   0.003125   0.001700
     2  C   -0.053134  -0.042742   0.343750  -0.035463  -0.009793   0.004977
     3  C   -0.049890   0.000248  -0.005250  -0.000276   0.000050  -0.000008
     4  C    0.346970  -0.008744  -0.047242   0.004194  -0.000102  -0.000098
     5  C    0.001034   0.002674   0.000679  -0.002202   0.001080  -0.000102
     6  C   -0.001341   0.353184  -0.056384   0.326166  -0.040557  -0.042418
     7  H    0.631097   0.005186   0.007870  -0.000010   0.000003   0.000007
     8  H    0.005186   0.629276   0.007519  -0.059621   0.005871  -0.004648
     9  H    0.007870   0.007519   0.667716  -0.008515   0.005444   0.000084
    10  C   -0.000010  -0.059621  -0.008515   4.975340   0.370049   0.361404
    11  H    0.000003   0.005871   0.005444   0.370049   0.565986  -0.035812
    12  H    0.000007  -0.004648   0.000084   0.361404  -0.035812   0.579791
    13  H    0.006875   0.000010   0.002639   0.000020  -0.000006  -0.000000
    14  O   -0.000011   0.002538   0.000150   0.216212  -0.034150  -0.025927
    15  H    0.000001   0.004497   0.000158  -0.029429   0.006846  -0.008023
    16  O    0.005103   0.000012  -0.000023  -0.000001   0.000000  -0.000000
    17  H   -0.000052   0.000003   0.000009  -0.000001   0.000000   0.000000
    18  O   -0.039842  -0.000072   0.002097  -0.000054  -0.000002   0.000000
    19  H   -0.001870   0.000021   0.000019  -0.000015   0.000000   0.000000
    20  O   -0.001426   0.004508  -0.040688   0.000257   0.000064  -0.000216
    21  H   -0.000237  -0.000249  -0.004449  -0.004207  -0.000056   0.000449
    22  H   -0.000005  -0.000400   0.000921   0.000936   0.000592  -0.000022
    23  O   -0.000083  -0.000068   0.000043  -0.000016  -0.000028   0.000003
    24  O   -0.000000   0.000000  -0.000000  -0.000017   0.000008   0.000013
    25  H   -0.000000   0.000008   0.000000   0.000001   0.000005  -0.000010
    26  H    0.000000   0.000001  -0.000000   0.000088   0.000016   0.000024
    27  H    0.000000  -0.000000   0.000000   0.000000  -0.000000  -0.000001
    28  O    0.000001   0.000071   0.000004  -0.001233   0.000048   0.006087
    29  H   -0.000035  -0.001085  -0.000093  -0.001142  -0.000416   0.002303
    30  H   -0.000000   0.000036  -0.000000  -0.000065   0.000003  -0.000059
              13         14         15         16         17         18
     1  O    0.002963   0.001473   0.000012  -0.000475   0.000822   0.000038
     2  C   -0.000076   0.001640  -0.001712   0.002207  -0.000357  -0.032753
     3  C    0.339980   0.000000   0.000001   0.248685  -0.040544  -0.037080
     4  C   -0.054796   0.000081  -0.000011  -0.044384   0.006244   0.236223
     5  C   -0.044777   0.000047   0.000001  -0.019147  -0.018400   0.001832
     6  C    0.000845  -0.038542  -0.001147   0.000624   0.000012   0.003617
     7  H    0.006875  -0.000011   0.000001   0.005103  -0.000052  -0.039842
     8  H    0.000010   0.002538   0.004497   0.000012   0.000003  -0.000072
     9  H    0.002639   0.000150   0.000158  -0.000023   0.000009   0.002097
    10  C    0.000020   0.216212  -0.029429  -0.000001  -0.000001  -0.000054
    11  H   -0.000006  -0.034150   0.006846   0.000000   0.000000  -0.000002
    12  H   -0.000000  -0.025927  -0.008023  -0.000000   0.000000   0.000000
    13  H    0.634660  -0.000000  -0.000000  -0.039401   0.001754   0.004165
    14  O   -0.000000   8.229982   0.235029   0.000000  -0.000000  -0.000000
    15  H   -0.000000   0.235029   0.390453  -0.000000  -0.000000   0.000000
    16  O   -0.039401   0.000000  -0.000000   8.273132   0.235945   0.001101
    17  H    0.001754  -0.000000  -0.000000   0.235945   0.361705  -0.000134
    18  O    0.004165  -0.000000   0.000000   0.001101  -0.000134   8.280769
    19  H   -0.000248   0.000006  -0.000001  -0.000155   0.000014   0.235139
    20  O   -0.000127  -0.012096   0.001981  -0.000009   0.000001  -0.007457
    21  H    0.000008   0.043160  -0.002301   0.000001  -0.000000   0.000121
    22  H    0.002570  -0.000041  -0.000000   0.003018   0.001633   0.000032
    23  O   -0.000860   0.000000  -0.000000  -0.017276   0.037665  -0.000008
    24  O    0.000002   0.000000  -0.000000  -0.000002   0.000045  -0.000000
    25  H   -0.000222  -0.000000   0.000000   0.000054  -0.000182   0.000000
    26  H   -0.000001   0.000000   0.000000   0.000000  -0.000012   0.000000
    27  H   -0.000000  -0.000000   0.000000   0.000000  -0.000007   0.000000
    28  O    0.000001   0.000008   0.000001   0.000000   0.000002   0.000000
    29  H   -0.000033  -0.000025  -0.000013  -0.000042  -0.000007   0.000000
    30  H   -0.000000  -0.000001  -0.000000   0.000000   0.000001  -0.000000
              19         20         21         22         23         24
     1  O   -0.000010   0.001464   0.000029  -0.052728  -0.045391  -0.000654
     2  C   -0.013986   0.221750  -0.021451  -0.002868   0.000188   0.000000
     3  C    0.006597   0.002300  -0.000198  -0.061796  -0.036645  -0.000088
     4  C   -0.031107  -0.037189   0.005283   0.001346   0.001670   0.000001
     5  C   -0.000276   0.000221   0.000010   0.358196   0.307115   0.003974
     6  C    0.000826  -0.041391  -0.005093   0.005800   0.001806   0.000015
     7  H   -0.001870  -0.001426  -0.000237  -0.000005  -0.000083  -0.000000
     8  H    0.000021   0.004508  -0.000249  -0.000400  -0.000068   0.000000
     9  H    0.000019  -0.040688  -0.004449   0.000921   0.000043  -0.000000
    10  C   -0.000015   0.000257  -0.004207   0.000936  -0.000016  -0.000017
    11  H    0.000000   0.000064  -0.000056   0.000592  -0.000028   0.000008
    12  H    0.000000  -0.000216   0.000449  -0.000022   0.000003   0.000013
    13  H   -0.000248  -0.000127   0.000008   0.002570  -0.000860   0.000002
    14  O    0.000006  -0.012096   0.043160  -0.000041   0.000000   0.000000
    15  H   -0.000001   0.001981  -0.002301  -0.000000  -0.000000  -0.000000
    16  O   -0.000155  -0.000009   0.000001   0.003018  -0.017276  -0.000002
    17  H    0.000014   0.000001  -0.000000   0.001633   0.037665   0.000045
    18  O    0.235139  -0.007457   0.000121   0.000032  -0.000008  -0.000000
    19  H    0.371327   0.025305  -0.000543   0.000003   0.000001   0.000000
    20  O    0.025305   8.329023   0.223453   0.000006  -0.000000   0.000000
    21  H   -0.000543   0.223453   0.354494  -0.000011  -0.000000  -0.000000
    22  H    0.000003   0.000006  -0.000011   0.655560  -0.047307   0.001415
    23  O    0.000001  -0.000000  -0.000000  -0.047307   8.367917  -0.082373
    24  O    0.000000   0.000000  -0.000000   0.001415  -0.082373   8.444892
    25  H   -0.000000  -0.000000   0.000000  -0.004177   0.166737   0.123414
    26  H   -0.000000  -0.000000   0.000000  -0.000193   0.008191   0.173617
    27  H   -0.000000  -0.000000   0.000000  -0.000047   0.004055   0.233326
    28  O   -0.000000   0.000000  -0.000000  -0.000178  -0.001953  -0.081897
    29  H    0.000000  -0.000009   0.000002   0.000957   0.005044   0.006452
    30  H    0.000000  -0.000000   0.000000   0.000007   0.000246   0.004235
              25         26         27         28         29         30
     1  O    0.003533   0.002226   0.000023  -0.073043   0.074620   0.003470
     2  C    0.000014   0.000002  -0.000000  -0.000053   0.001191   0.000003
     3  C    0.003059   0.000068  -0.000001  -0.000041   0.000433  -0.000001
     4  C   -0.000010  -0.000002  -0.000000   0.000003   0.000028  -0.000000
     5  C   -0.017086  -0.000289  -0.000142   0.003432  -0.003163  -0.000221
     6  C   -0.000198  -0.000118   0.000001   0.004076  -0.005126  -0.000011
     7  H   -0.000000   0.000000   0.000000   0.000001  -0.000035  -0.000000
     8  H    0.000008   0.000001  -0.000000   0.000071  -0.001085   0.000036
     9  H    0.000000  -0.000000   0.000000   0.000004  -0.000093  -0.000000
    10  C    0.000001   0.000088   0.000000  -0.001233  -0.001142  -0.000065
    11  H    0.000005   0.000016  -0.000000   0.000048  -0.000416   0.000003
    12  H   -0.000010   0.000024  -0.000001   0.006087   0.002303  -0.000059
    13  H   -0.000222  -0.000001  -0.000000   0.000001  -0.000033  -0.000000
    14  O   -0.000000   0.000000  -0.000000   0.000008  -0.000025  -0.000001
    15  H    0.000000   0.000000   0.000000   0.000001  -0.000013  -0.000000
    16  O    0.000054   0.000000   0.000000   0.000000  -0.000042   0.000000
    17  H   -0.000182  -0.000012  -0.000007   0.000002  -0.000007   0.000001
    18  O    0.000000   0.000000   0.000000   0.000000   0.000000  -0.000000
    19  H   -0.000000  -0.000000  -0.000000  -0.000000   0.000000   0.000000
    20  O   -0.000000  -0.000000  -0.000000   0.000000  -0.000009  -0.000000
    21  H    0.000000   0.000000   0.000000  -0.000000   0.000002   0.000000
    22  H   -0.004177  -0.000193  -0.000047  -0.000178   0.000957   0.000007
    23  O    0.166737   0.008191   0.004055  -0.001953   0.005044   0.000246
    24  O    0.123414   0.173617   0.233326  -0.081897   0.006452   0.004235
    25  H    0.284602  -0.012678  -0.006327   0.004914  -0.000645  -0.000075
    26  H   -0.012678   0.304057  -0.004480   0.099098  -0.008033  -0.006100
    27  H   -0.006327  -0.004480   0.372534   0.003665  -0.000217  -0.000253
    28  O    0.004914   0.099098   0.003665   8.460913   0.174673   0.234160
    29  H   -0.000645  -0.008033  -0.000217   0.174673   0.298684  -0.007175
    30  H   -0.000075  -0.006100  -0.000253   0.234160  -0.007175   0.377100
 Mulliken charges:
               1
     1  O   -0.615348
     2  C    0.076722
     3  C    0.133087
     4  C    0.146038
     5  C    0.324720
     6  C    0.136660
     7  H    0.142606
     8  H    0.135370
     9  H    0.121437
    10  C   -0.084051
    11  H    0.161731
    12  H    0.160497
    13  H    0.144057
    14  O   -0.619534
    15  H    0.403656
    16  O   -0.648970
    17  H    0.413839
    18  O   -0.647732
    19  H    0.408952
    20  O   -0.669728
    21  H    0.411786
    22  H    0.136783
    23  O   -0.668673
    24  O   -0.826377
    25  H    0.455270
    26  H    0.444518
    27  H    0.397870
    28  O   -0.832760
    29  H    0.462872
    30  H    0.394701
 Sum of Mulliken charges =  -0.00000
 Mulliken charges with hydrogens summed into heavy atoms:
               1
     1  O   -0.615348
     2  C    0.198159
     3  C    0.277143
     4  C    0.288644
     5  C    0.461503
     6  C    0.272030
    10  C    0.238178
    14  O   -0.215877
    16  O   -0.235132
    18  O   -0.238780
    20  O   -0.257942
    23  O   -0.213403
    24  O    0.016011
    28  O    0.024813
 Electronic spatial extent (au):  <R**2>=           3297.4717
 Charge=             -0.0000 electrons
 Dipole moment (field-independent basis, Debye):
    X=             -2.6874    Y=              3.8295    Z=              1.4943  Tot=              4.9112
 Quadrupole moment (field-independent basis, Debye-Ang):
   XX=            -72.5999   YY=            -92.0399   ZZ=            -81.5208
   XY=              9.9027   XZ=             -4.1734   YZ=              7.8181
 Traceless Quadrupole moment (field-independent basis, Debye-Ang):
   XX=              9.4537   YY=             -9.9864   ZZ=              0.5327
   XY=              9.9027   XZ=             -4.1734   YZ=              7.8181
 Octapole moment (field-independent basis, Debye-Ang**2):
  XXX=            -89.3706  YYY=             42.3477  ZZZ=             11.8187  XYY=             -5.0656
  XXY=             -0.9388  XXZ=             26.5159  XZZ=             -9.7207  YZZ=              8.6116
  YYZ=             15.2634  XYZ=              1.5945
 Hexadecapole moment (field-independent basis, Debye-Ang**3):
 XXXX=          -1524.2091 YYYY=          -1590.3463 ZZZZ=           -235.8111 XXXY=             66.8725
 XXXZ=            -68.9900 YYYX=            111.0482 YYYZ=             82.9804 ZZZX=            -35.9683
 ZZZY=             15.0076 XXYY=           -607.0471 XXZZ=           -369.1098 YYZZ=           -295.2072
 XXYZ=             23.6717 YYXZ=             31.9013 ZZXY=              0.7166
 N-N= 1.103980394849D+03 E-N=-4.180532384951D+03  KE= 8.329887749093D+02
 Calling FoFJK, ICntrl=      2127 FMM=F ISym2X=0 I1Cent= 0 IOpClX= 0 NMat=1 NMatS=1 NMatT=0.
 ***** Axes restored to original set *****
 -------------------------------------------------------------------
 Center     Atomic                   Forces (Hartrees/Bohr)
 Number     Number              X              Y              Z
 -------------------------------------------------------------------
      1        8           0.003216281   -0.019380967   -0.013205712
      2        6           0.001842530    0.000041414   -0.000522383
      3        6          -0.001366014    0.000688406   -0.001468071
      4        6           0.000114877   -0.000690114   -0.000515271
      5        6           0.013100263    0.019194982    0.011306462
      6        6           0.000067179   -0.004621561   -0.003603087
      7        1          -0.000079388   -0.000033192   -0.000021841
      8        1          -0.000826773   -0.000663121   -0.000031596
      9        1           0.000162846   -0.000024138   -0.000047024
     10        6          -0.001103716   -0.001235599   -0.000134215
     11        1          -0.000072098    0.000097067   -0.000037023
     12        1          -0.000108876   -0.000261189    0.000126863
     13        1          -0.000498125    0.000028638   -0.000109907
     14        8          -0.000304043   -0.001052036    0.000653419
     15        1          -0.000116679    0.000115096   -0.000015042
     16        8           0.000347154    0.000467477    0.001003564
     17        1           0.000130546   -0.001224520    0.000026276
     18        8          -0.000557983   -0.000280234    0.000094660
     19        1          -0.000029599   -0.000015160   -0.000096713
     20        8           0.001147083   -0.000329706   -0.000256504
     21        1           0.000018057    0.000048638    0.000157532
     22        1           0.000013588   -0.000195746   -0.000027749
     23        8           0.009392006   -0.008700297    0.006443868
     24        8          -0.014956665    0.000346038   -0.014748962
     25        1           0.001882116   -0.002021592   -0.000083266
     26        1          -0.002523981    0.000767784   -0.002258871
     27        1          -0.000971593    0.000632924   -0.000149892
     28        8          -0.006525211    0.016553721    0.015482512
     29        1          -0.001402440    0.000475262    0.000870961
     30        1           0.000008657    0.001271723    0.001167011
 -------------------------------------------------------------------
 Cartesian Forces:  Max     0.019380967 RMS     0.005283510

 GradGradGradGradGradGradGradGradGradGradGradGradGradGradGradGradGradGrad
 Berny optimization.
 FormGI is forming the generalized inverse of G from B-inverse, IUseBI=4.
 Internal  Forces:  Max     0.018722012 RMS     0.003576295
 Search for a local minimum.
 Step number   1 out of a maximum of  180
 All quantities printed in internal units (Hartrees-Bohrs-Radians)
 Mixed Optimization -- RFO/linear search
 Second derivative matrix not updated -- first step.
 ITU=  0
     Eigenvalues ---    0.00241   0.00249   0.00315   0.00502   0.00641
     Eigenvalues ---    0.00655   0.00867   0.01213   0.01228   0.01390
     Eigenvalues ---    0.01452   0.01548   0.02140   0.02706   0.03132
     Eigenvalues ---    0.04173   0.04282   0.04393   0.04555   0.04708
     Eigenvalues ---    0.04781   0.04845   0.05070   0.05381   0.05406
     Eigenvalues ---    0.05676   0.05706   0.06248   0.06471   0.06603
     Eigenvalues ---    0.07039   0.07161   0.07397   0.07918   0.10025
     Eigenvalues ---    0.10560   0.11075   0.11539   0.12196   0.12484
     Eigenvalues ---    0.12767   0.13139   0.13875   0.14255   0.14581
     Eigenvalues ---    0.16000   0.16000   0.16000   0.16000   0.16392
     Eigenvalues ---    0.16648   0.17609   0.18958   0.19432   0.20614
     Eigenvalues ---    0.22016   0.22216   0.26425   0.27056   0.28259
     Eigenvalues ---    0.28544   0.28863   0.33329   0.33356   0.33612
     Eigenvalues ---    0.33650   0.33967   0.34016   0.34264   0.38660
     Eigenvalues ---    0.40113   0.40972   0.42039   0.42746   0.43381
     Eigenvalues ---    0.43863   0.44902   0.52420   0.52444   0.52773
     Eigenvalues ---    0.53265   0.53548   0.53739   0.55673
 RFO step:  Lambda=-1.13755886D-02 EMin= 2.40720359D-03
 Linear search not attempted -- first point.
 Iteration  1 RMS(Cart)=  0.04975598 RMS(Int)=  0.00116320
 Iteration  2 RMS(Cart)=  0.00186917 RMS(Int)=  0.00024045
 Iteration  3 RMS(Cart)=  0.00000323 RMS(Int)=  0.00024043
 Iteration  4 RMS(Cart)=  0.00000000 RMS(Int)=  0.00024043
 Variable       Old X    -DE/DX   Delta X   Delta X   Delta X     New X
                                 (Linear)    (Quad)   (Total)
    R1        3.02111  -0.01747   0.00000  -0.08155  -0.08196   2.93915
    R2        2.70860  -0.00156   0.00000  -0.00276  -0.00284   2.70576
    R3        2.73955   0.01872   0.00000   0.13732   0.13750   2.87705
    R4        2.89165  -0.00139   0.00000  -0.00597  -0.00600   2.88565
    R5        2.89668   0.00059   0.00000   0.00817   0.00816   2.90484
    R6        2.08431   0.00003   0.00000   0.00007   0.00007   2.08439
    R7        2.68873   0.00096   0.00000   0.00221   0.00221   2.69095
    R8        2.91574  -0.00345   0.00000  -0.01016  -0.01005   2.90569
    R9        2.90970  -0.00041   0.00000  -0.00188  -0.00179   2.90791
   R10        2.08478  -0.00000   0.00000  -0.00001  -0.00001   2.08477
   R11        2.66619   0.00107   0.00000   0.00238   0.00238   2.66857
   R12        2.07990  -0.00003   0.00000  -0.00007  -0.00007   2.07983
   R13        2.67984  -0.00029   0.00000  -0.00065  -0.00065   2.67919
   R14        2.07304  -0.00006   0.00000  -0.00017  -0.00017   2.07286
   R15        2.53147   0.00168   0.00000   0.00145   0.00120   2.53267
   R16        2.07925  -0.00040   0.00000  -0.00114  -0.00114   2.07811
   R17        2.90962  -0.00211   0.00000  -0.00710  -0.00710   2.90252
   R18        2.06888   0.00004   0.00000   0.00012   0.00012   2.06900
   R19        2.07385  -0.00000   0.00000   0.00003   0.00003   2.07387
   R20        2.71400  -0.00088   0.00000  -0.00213  -0.00213   2.71187
   R21        1.83407   0.00001   0.00000   0.00001   0.00001   1.83408
   R22        1.84177  -0.00012   0.00000  -0.00022  -0.00022   1.84155
   R23        1.83866  -0.00005   0.00000  -0.00009  -0.00009   1.83857
   R24        1.84199  -0.00001   0.00000  -0.00001  -0.00001   1.84198
   R25        1.94598   0.01309   0.00000   0.02853   0.02819   1.97417
   R26        2.69562   0.01533   0.00000   0.10233   0.10203   2.79766
   R27        1.92343   0.01337   0.00000   0.03136   0.03174   1.95518
   R28        1.82970   0.00065   0.00000   0.00118   0.00118   1.83087
   R29        2.74457   0.01543   0.00000   0.12000   0.12046   2.86503
   R30        1.91022   0.01677   0.00000   0.03671   0.03696   1.94719
   R31        1.83145   0.00076   0.00000   0.00139   0.00139   1.83284
    A1        2.05584  -0.00487   0.00000  -0.02981  -0.02964   2.02621
    A2        1.96822   0.00544   0.00000   0.02576   0.02536   1.99358
    A3        2.03981  -0.00056   0.00000   0.00142   0.00176   2.04157
    A4        1.93501  -0.00125   0.00000  -0.00614  -0.00614   1.92887
    A5        1.89377   0.00079   0.00000   0.00022   0.00022   1.89399
    A6        1.87099  -0.00055   0.00000  -0.00067  -0.00069   1.87031
    A7        1.91949  -0.00075   0.00000  -0.00257  -0.00269   1.91680
    A8        1.93343   0.00210   0.00000   0.00933   0.00944   1.94288
    A9        1.91007  -0.00034   0.00000  -0.00023  -0.00023   1.90984
   A10        1.96144  -0.00072   0.00000  -0.00046  -0.00034   1.96109
   A11        1.86718  -0.00089   0.00000  -0.00063  -0.00054   1.86665
   A12        1.91169   0.00065   0.00000  -0.00521  -0.00538   1.90631
   A13        1.86880   0.00086   0.00000  -0.00264  -0.00264   1.86616
   A14        1.91850   0.00023   0.00000   0.00930   0.00925   1.92774
   A15        1.93556  -0.00018   0.00000  -0.00059  -0.00058   1.93498
   A16        1.95713  -0.00312   0.00000  -0.01257  -0.01242   1.94471
   A17        1.89141   0.00188   0.00000   0.00198   0.00192   1.89334
   A18        1.91225   0.00014   0.00000   0.00645   0.00635   1.91860
   A19        1.86855   0.00004   0.00000  -0.00094  -0.00110   1.86745
   A20        1.89805   0.00153   0.00000   0.00182   0.00191   1.89996
   A21        1.93647  -0.00051   0.00000   0.00307   0.00308   1.93956
   A22        1.85029   0.00498   0.00000   0.02778   0.02809   1.87838
   A23        1.80525   0.00030   0.00000   0.00506   0.00493   1.81017
   A24        1.88932  -0.00146   0.00000  -0.01224  -0.01286   1.87646
   A25        1.96947  -0.00098   0.00000  -0.00048  -0.00070   1.96877
   A26        1.94614  -0.00365   0.00000  -0.02091  -0.02071   1.92543
   A27        1.99036   0.00146   0.00000   0.00449   0.00470   1.99505
   A28        1.91346   0.00351   0.00000   0.02744   0.02722   1.94068
   A29        1.86752  -0.00045   0.00000  -0.01045  -0.01048   1.85704
   A30        1.95010  -0.00307   0.00000  -0.01672  -0.01668   1.93342
   A31        1.86779  -0.00106   0.00000  -0.00035  -0.00013   1.86766
   A32        1.95528  -0.00004   0.00000  -0.00186  -0.00180   1.95348
   A33        1.90574   0.00117   0.00000   0.00201   0.00182   1.90756
   A34        1.91679   0.00044   0.00000   0.00296   0.00297   1.91975
   A35        1.93377   0.00003   0.00000  -0.00168  -0.00169   1.93208
   A36        1.94218  -0.00137   0.00000  -0.00629  -0.00629   1.93589
   A37        1.87925  -0.00011   0.00000   0.00085   0.00085   1.88010
   A38        1.84554   0.00051   0.00000   0.00338   0.00338   1.84893
   A39        1.94314   0.00057   0.00000   0.00133   0.00131   1.94445
   A40        1.87897  -0.00008   0.00000  -0.00048  -0.00048   1.87849
   A41        1.83637   0.00147   0.00000   0.00859   0.00859   1.84496
   A42        1.83906   0.00007   0.00000   0.00042   0.00042   1.83948
   A43        1.84138   0.00013   0.00000   0.00077   0.00077   1.84215
   A44        1.95831   0.00260   0.00000   0.00135   0.00067   1.95897
   A45        1.70404  -0.00381   0.00000  -0.02745  -0.02719   1.67685
   A46        1.91733   0.00230   0.00000   0.01159   0.01151   1.92884
   A47        1.88468  -0.00079   0.00000  -0.00223  -0.00185   1.88283
   A48        2.83193  -0.00176   0.00000  -0.00886  -0.00851   2.82341
   A49        1.76506  -0.00616   0.00000  -0.03358  -0.03262   1.73244
   A50        1.91274   0.00187   0.00000   0.01542   0.01635   1.92909
   A51        1.83322   0.00139   0.00000   0.01020   0.01006   1.84328
   A52        3.01495   0.00197   0.00000  -0.00988  -0.01050   3.00444
   A53        3.16821  -0.00107   0.00000  -0.05623  -0.05630   3.11191
   A54        3.30257  -0.00379   0.00000  -0.09231  -0.09191   3.21067
   A55        3.02741   0.00136   0.00000  -0.04545  -0.04527   2.98214
    D1        1.10901   0.00047   0.00000  -0.00494  -0.00478   1.10423
    D2       -0.96676  -0.00071   0.00000  -0.01873  -0.01891  -0.98567
    D3       -3.08413  -0.00186   0.00000  -0.02074  -0.02076  -3.10488
    D4       -2.71609   0.00046   0.00000  -0.00680  -0.00669  -2.72278
    D5        1.49133  -0.00072   0.00000  -0.02059  -0.02082   1.47051
    D6       -0.62604  -0.00187   0.00000  -0.02260  -0.02267  -0.64871
    D7       -0.39901   0.00064   0.00000   0.00984   0.01007  -0.38894
    D8       -2.41871   0.00035   0.00000   0.00190   0.00208  -2.41663
    D9        1.77939   0.00098   0.00000   0.01566   0.01563   1.79502
   D10       -2.82934  -0.00156   0.00000   0.00311   0.00340  -2.82595
   D11        1.43414  -0.00185   0.00000  -0.00483  -0.00459   1.42955
   D12       -0.65094  -0.00122   0.00000   0.00893   0.00896  -0.64199
   D13       -0.11329   0.00101   0.00000   0.00942   0.00901  -0.10428
   D14        1.86484   0.00122   0.00000   0.02421   0.02376   1.88860
   D15        2.32125  -0.00063   0.00000  -0.02849  -0.02894   2.29231
   D16       -1.98381  -0.00042   0.00000  -0.01370  -0.01419  -1.99799
   D17        1.11955  -0.00187   0.00000  -0.02470  -0.02493   1.09462
   D18       -0.93918  -0.00126   0.00000  -0.01736  -0.01750  -0.95669
   D19       -3.05435  -0.00189   0.00000  -0.02623  -0.02636  -3.08071
   D20       -0.99014  -0.00068   0.00000  -0.01787  -0.01798  -1.00812
   D21       -3.04887  -0.00007   0.00000  -0.01054  -0.01056  -3.05943
   D22        1.11915  -0.00069   0.00000  -0.01940  -0.01941   1.09974
   D23       -3.05134  -0.00039   0.00000  -0.01735  -0.01746  -3.06879
   D24        1.17312   0.00022   0.00000  -0.01002  -0.01003   1.16309
   D25       -0.94205  -0.00041   0.00000  -0.01888  -0.01889  -0.96093
   D26       -0.69028  -0.00089   0.00000  -0.00097  -0.00101  -0.69129
   D27        1.32925  -0.00021   0.00000   0.00056   0.00062   1.32987
   D28       -2.86568   0.00052   0.00000   0.00173   0.00171  -2.86396
   D29        1.40413  -0.00119   0.00000  -0.00629  -0.00636   1.39777
   D30       -2.85953  -0.00051   0.00000  -0.00476  -0.00474  -2.86426
   D31       -0.77127   0.00022   0.00000  -0.00360  -0.00364  -0.77491
   D32       -2.76529  -0.00075   0.00000  -0.00219  -0.00225  -2.76754
   D33       -0.74576  -0.00006   0.00000  -0.00066  -0.00063  -0.74639
   D34        1.34250   0.00066   0.00000   0.00050   0.00047   1.34297
   D35        3.08971   0.00045   0.00000   0.00418   0.00416   3.09387
   D36       -1.08018  -0.00019   0.00000   0.00176   0.00180  -1.07839
   D37        1.03914   0.00000   0.00000   0.00442   0.00441   1.04355
   D38       -0.35846  -0.00141   0.00000   0.00451   0.00442  -0.35405
   D39        1.71381  -0.00088   0.00000  -0.00086  -0.00096   1.71285
   D40       -2.47593  -0.00062   0.00000   0.00326   0.00314  -2.47279
   D41        1.68781  -0.00131   0.00000   0.00065   0.00069   1.68850
   D42       -2.52310  -0.00078   0.00000  -0.00472  -0.00469  -2.52779
   D43       -0.42966  -0.00052   0.00000  -0.00059  -0.00059  -0.43024
   D44       -2.49623  -0.00168   0.00000  -0.00335  -0.00333  -2.49956
   D45       -0.42396  -0.00115   0.00000  -0.00872  -0.00870  -0.43266
   D46        1.66948  -0.00089   0.00000  -0.00459  -0.00460   1.66488
   D47       -0.62663  -0.00295   0.00000  -0.02235  -0.02250  -0.64914
   D48        1.33737  -0.00020   0.00000  -0.00059  -0.00046   1.33690
   D49       -2.67912  -0.00223   0.00000  -0.01312  -0.01243  -2.69155
   D50       -2.67195  -0.00200   0.00000  -0.01969  -0.02003  -2.69198
   D51       -0.70795   0.00074   0.00000   0.00207   0.00201  -0.70593
   D52        1.55875  -0.00128   0.00000  -0.01046  -0.00995   1.54879
   D53        1.50729  -0.00244   0.00000  -0.02269  -0.02301   1.48428
   D54       -2.81190   0.00031   0.00000  -0.00093  -0.00097  -2.81287
   D55       -0.54520  -0.00172   0.00000  -0.01346  -0.01294  -0.55814
   D56        2.64135   0.00071   0.00000   0.02269   0.02267   2.66402
   D57        0.47820   0.00102   0.00000   0.02054   0.02054   0.49875
   D58       -1.58493  -0.00008   0.00000   0.01833   0.01834  -1.56659
   D59        0.81432   0.00158   0.00000   0.00434   0.00427   0.81859
   D60        2.95903  -0.00121   0.00000  -0.00593  -0.00584   2.95319
   D61       -1.27341  -0.00052   0.00000  -0.00418  -0.00421  -1.27762
   D62        1.28748   0.00077   0.00000   0.00603   0.00542   1.29290
   D63       -2.96692   0.00388   0.00000   0.02061   0.02024  -2.94668
   D64       -0.71118   0.00051   0.00000   0.00509   0.00497  -0.70621
   D65       -1.09457  -0.00144   0.00000  -0.02132  -0.02118  -1.11576
   D66        0.97929  -0.00128   0.00000  -0.01944  -0.01931   0.95998
   D67       -3.13201  -0.00152   0.00000  -0.02352  -0.02338   3.12779
   D68        1.06036   0.00083   0.00000   0.00075   0.00060   1.06096
   D69        3.13422   0.00099   0.00000   0.00263   0.00247   3.13670
   D70       -0.97708   0.00075   0.00000  -0.00145  -0.00160  -0.97868
   D71        3.12624   0.00024   0.00000   0.00049   0.00051   3.12674
   D72       -1.08308   0.00040   0.00000   0.00236   0.00238  -1.08070
   D73        1.08880   0.00017   0.00000  -0.00172  -0.00170   1.08710
   D74       -1.33206   0.00012   0.00000  -0.00125  -0.00125  -1.33331
   D75        2.87065   0.00003   0.00000  -0.00344  -0.00344   2.86721
   D76        0.83453  -0.00043   0.00000  -0.00709  -0.00709   0.82744
   D77       -1.13247  -0.00228   0.00000  -0.03161  -0.03073  -1.16320
   D78       -3.06082  -0.00094   0.00000  -0.03455  -0.03419  -3.09500
   D79        0.36700  -0.00133   0.00000  -0.01400  -0.01416   0.35284
   D80        2.35345  -0.00063   0.00000  -0.01337  -0.01323   2.34022
   D81        0.02614  -0.00078   0.00000  -0.00074  -0.00086   0.02528
   D82       -1.90295  -0.00018   0.00000  -0.00218  -0.00253  -1.90547
         Item               Value     Threshold  Converged?
 Maximum Force            0.018722     0.000450     NO 
 RMS     Force            0.003576     0.000300     NO 
 Maximum Displacement     0.254468     0.001800     NO 
 RMS     Displacement     0.049990     0.001200     NO 
 Predicted change in Energy=-6.185357D-03
 GradGradGradGradGradGradGradGradGradGradGradGradGradGradGradGradGradGrad

                          Input orientation:                          
 ---------------------------------------------------------------------
 Center     Atomic      Atomic             Coordinates (Angstroms)
 Number     Number       Type             X           Y           Z
 ---------------------------------------------------------------------
      1          8           0       -0.643749    0.305115    0.565489
      2          6           0        1.661238    0.198883   -0.259196
      3          6           0        0.247155   -1.900525   -0.194522
      4          6           0        1.592250   -1.260126    0.186138
      5          6           0       -0.848112   -0.851328   -0.454281
      6          6           0        0.585064    1.031806    0.455648
      7          1           0        1.665372   -1.293675    1.283792
      8          1           0        0.938804    1.200728    1.483095
      9          1           0        1.502868    0.240064   -1.350000
     10          6           0        0.357454    2.386285   -0.231896
     11          1           0        0.019183    2.231268   -1.261592
     12          1           0       -0.417085    2.961523    0.291154
     13          1           0        0.405329   -2.441224   -1.143048
     14          8           0        1.584044    3.125074   -0.327126
     15          1           0        1.775430    3.491478    0.550995
     16          8           0       -0.151936   -2.787306    0.829439
     17          1           0       -1.125157   -2.816430    0.788758
     18          8           0        2.639560   -2.000004   -0.418663
     19          1           0        3.440623   -1.461771   -0.295385
     20          8           0        2.969408    0.670400    0.047572
     21          1           0        3.001857    1.585958   -0.285297
     22          1           0       -0.743314   -0.359837   -1.429304
     23          8           0       -2.059825   -1.377991   -0.229332
     24          8           0       -3.810747    0.282631   -0.948063
     25          1           0       -2.829361   -0.759937   -0.571658
     26          1           0       -3.551133    0.951618   -0.202727
     27          1           0       -4.713667   -0.021977   -0.773036
     28          8           0       -2.770491    1.666345    0.882793
     29          1           0       -1.901101    1.114077    0.852821
     30          1           0       -3.160731    1.491789    1.753392
 ---------------------------------------------------------------------
                    Distance matrix (angstroms):
                    1          2          3          4          5
     1  O    0.000000
     2  C    2.450378   0.000000
     3  C    2.497234   2.532060   0.000000
     4  C    2.755644   1.527020   1.537626   0.000000
     5  C    1.555332   2.727240   1.538798   2.555898   0.000000
     6  C    1.431826   1.537176   3.022494   2.517937   2.535381
     7  H    2.898987   2.146756   2.136591   1.100599   3.087745
     8  H    2.036811   2.135692   3.593126   2.857428   3.340274
     9  H    2.877724   1.103010   2.737530   2.149018   2.742363
    10  C    2.443256   2.546630   4.288392   3.872439   3.461934
    11  H    2.736379   2.798523   4.273445   4.093934   3.302477
    12  H    2.680137   3.500641   4.931187   4.676619   3.908873
    13  H    3.400300   3.054286   1.103211   2.137874   2.138523
    14  O    3.702970   2.927997   5.202067   4.415142   4.662973
    15  H    4.000692   3.392731   5.653770   4.769110   5.172380
    16  O    3.142391   3.659242   1.412144   2.405889   2.424996
    17  H    3.166330   4.237253   1.920667   3.188970   2.341693
    18  O    4.130647   2.411981   2.404940   1.417767   3.672136
    19  H    4.532669   2.434193   3.225045   1.920679   4.334874
    20  O    3.668320   1.423989   3.752190   2.375436   4.140165
    21  H    3.956620   1.929228   4.444344   3.210832   4.559735
    22  H    2.105059   2.731884   2.208944   2.979099   1.096912
    23  O    2.338773   4.041501   2.365673   3.677521   1.340233
    24  O    3.510160   5.515811   4.669108   5.732267   3.210435
    25  H    2.684090   4.602439   3.302745   4.513877   1.986826
    26  H    3.075874   5.266745   4.749924   5.612255   3.258868
    27  H    4.296844   6.399392   5.336045   6.497508   3.966352
    28  O    2.544929   4.806017   4.794722   5.299346   3.438312
    29  H    1.522470   3.842450   3.847046   4.276074   2.584593
    30  H    3.025642   5.382704   5.188049   5.711405   3.963865
                    6          7          8          9         10
     6  C    0.000000
     7  H    2.694578   0.000000
     8  H    1.099689   2.605699   0.000000
     9  H    2.174760   3.052151   3.044252   0.000000
    10  C    1.535948   4.189280   2.164418   2.677386   0.000000
    11  H    2.169757   4.649102   3.072625   2.484760   1.094867
    12  H    2.180635   4.840316   2.521816   3.712943   1.097447
    13  H    3.827540   2.965490   4.521619   2.904604   4.912976
    14  O    2.447951   4.703936   2.719622   3.062048   1.435061
    15  H    2.734236   4.842188   2.610802   3.776210   1.960873
    16  O    3.907494   2.395826   4.185857   4.080846   5.305842
    17  H    4.224303   3.217280   4.569420   4.563218   5.505280
    18  O    3.765268   2.084778   4.093158   2.679061   4.947972
    19  H    3.864737   2.381927   4.063372   2.786279   4.931277
    20  O    2.445861   2.662018   2.542700   2.071023   3.137621
    21  H    2.587851   3.541260   2.744413   2.278594   2.763375
    22  H    2.693382   3.746293   3.707689   2.326265   3.191656
    23  O    3.643042   4.021659   4.309754   4.070231   4.473592
    24  O    4.674915   6.119951   5.414025   5.328966   4.723575
    25  H    3.990489   4.891850   4.718611   4.513760   4.491097
    26  H    4.189035   5.870519   4.802456   5.231202   4.163673
    27  H    5.540458   6.822015   6.207702   6.248749   5.639932
    28  O    3.441634   5.347840   3.786295   5.028045   3.397777
    29  H    2.519034   4.324666   2.910295   4.147690   2.810018
    30  H    3.990828   5.592012   4.118734   5.739950   4.137527
                   11         12         13         14         15
    11  H    0.000000
    12  H    1.770487   0.000000
    13  H    4.689919   5.650041   0.000000
    14  O    2.030001   2.100842   5.747935   0.000000
    15  H    2.820993   2.270570   6.320119   0.970555   0.000000
    16  O    5.439465   5.780059   2.078707   6.269570   6.573842
    17  H    5.567109   5.842406   2.492999   6.624683   6.946915
    18  O    5.047829   5.870576   2.389811   5.233442   5.642990
    19  H    5.126241   5.898429   3.300131   4.948438   5.293761
    20  O    3.585254   4.095962   4.204078   2.843423   3.104432
    21  H    3.204048   3.730099   4.867842   2.093041   2.415474
    22  H    2.706170   3.754708   2.394471   4.333128   5.009819
    23  O    4.291222   4.669141   2.835899   5.793525   6.247384
    24  O    4.308579   4.497673   5.023217   6.129341   6.614321
    25  H    4.187783   4.518051   3.690045   5.884832   6.367023
    26  H    3.937747   3.755781   5.296147   5.577582   5.949054
    27  H    5.264567   5.338013   5.673957   7.054355   7.497052
    28  O    3.563679   2.750644   5.573328   4.749081   4.909846
    29  H    3.066978   2.435330   4.684365   4.193164   4.388623
    30  H    4.443964   3.438874   6.047705   5.432225   5.459872
                   16         17         18         19         20
    16  O    0.000000
    17  H    0.974505   0.000000
    18  O    3.157539   4.037017   0.000000
    19  H    3.991084   4.884343   0.972931   0.000000
    20  O    4.723329   5.428885   2.730794   2.210389   0.000000
[...]
 0.00041621,0.00039103,-0.00002522,0.00008556,-0.00013192,-0.00002195,0
 .00071884,0.00016130,0.00021016,-0.00065418,0.00012751,-0.00099600,0.0
 0021944,0.00018867,-0.00013070,0.00001690,-0.00005452,0.00000953,0.000
 07573,0.00043328,0.00009440,0.00013334,-0.00018825,-0.00007055,0.00038
 246,0.00032823,-0.00058379,0.01783159,0.00134832,0.00520633,0.17547322
 ,0.35648424,-0.00178455,-0.00034107,0.00074553,0.00016968,0.00007005,-
 0.00030951,-0.00082391,-0.00072295,0.00020360,0.00018922,0.00006095,-0
 .00059157,0.00278613,0.00269020,-0.00363529,0.00074085,0.00028449,0.00
 046759,-0.00016291,-0.00003626,0.00007307,-0.00001643,-0.00004405,-0.0
 0000890,-0.00001767,-0.00002053,0.00007687,0.00039981,0.00016348,-0.00
 033169,-0.00008107,0.00000351,0.00008111,0.00006954,0.00023705,0.00006
 373,0.00002645,0.00005548,0.00003202,-0.00043591,-0.00034080,0.0000068
 6,0.00010607,0.00008400,0.00004842,-0.00049001,0.00025373,0.00028755,0
 .00051628,-0.00042522,0.00052203,-0.00028213,0.00020990,0.00041745,0.0
 0003688,-0.00004360,-0.00007116,-0.00045958,-0.00010476,0.00014926,0.0
 0012928,0.00003527,-0.00009013,-0.00071914,-0.00008260,0.00078924,-0.0
 1205350,0.00450232,0.00109500,-0.05831738,0.18990711,0.22102158,0.0033
 3443,0.00628722,0.00193777,-0.00037719,-0.00015674,0.00001580,-0.00298
 036,-0.00115889,0.00318509,-0.00084073,0.00054191,0.00001161,-0.042706
 25,0.00324534,-0.01487669,-0.00210059,-0.00014798,-0.00116543,0.000055
 52,-0.00003342,0.00003279,0.00025436,0.00002790,0.00019417,0.00003645,
 -0.00000273,0.00006989,0.00055815,-0.00092431,0.00012628,0.00004429,-0
 .00000399,-0.00004991,-0.00002467,0.00014811,0.00011379,0.00001211,0.0
 0022544,-0.00011056,0.00025689,0.00104921,0.00012449,-0.00001547,-0.00
 028775,-0.00012533,0.00341164,-0.00081559,0.00154712,-0.00226461,0.001
 14725,-0.00341864,0.00057956,-0.00023700,-0.00039322,-0.00007028,0.000
 09169,0.00008928,0.00094786,0.00049731,0.00001304,-0.00009554,-0.00025
 557,0.00001834,0.00359913,0.00103951,-0.00153112,-0.22303781,0.0802817
 6,-0.12410778,-0.00054518,-0.01191036,0.00467627,0.26187075,-0.0012138
 6,-0.00393636,-0.00014885,0.00025587,0.00038937,0.00030016,-0.00071529
 ,0.00005952,0.00146863,0.00030817,0.00056311,-0.00026378,-0.00902095,0
 .01041842,-0.01121512,0.00019069,-0.00103660,0.00006000,-0.00017759,-0
 .00007168,0.00002549,0.00007370,0.00009102,0.00002175,-0.00003073,-0.0
 0001862,-0.00004143,-0.00052575,0.00032629,-0.00007705,-0.00004326,-0.
 00000555,0.00004032,0.00000453,-0.00017463,-0.00011749,-0.00014821,0.0
 0005777,-0.00008288,0.00016789,-0.00036815,-0.00000302,-0.00003697,0.0
 0010315,0.00003023,-0.00075896,0.00037886,-0.00040911,0.00046082,-0.00
 110977,0.00064985,-0.00032413,-0.00014460,0.00012312,-0.00000583,0.000
 01688,-0.00000249,-0.00009214,-0.00038576,-0.00015368,-0.00008194,0.00
 013735,0.00004867,-0.00126370,-0.00108526,0.00139013,0.10108241,-0.075
 83176,0.09329492,-0.00671449,-0.00980868,-0.00208825,-0.08295260,0.083
 86032,0.00138377,0.00310469,0.00007134,-0.00018526,-0.00031349,0.00033
 001,0.00535823,0.00361295,-0.00288032,0.00039187,-0.00094825,0.0017007
 2,0.01478141,-0.01254818,0.01267199,-0.00090676,0.00005355,-0.00087142
 ,0.00067064,0.00016013,-0.00008565,0.00005202,0.00002826,0.00006697,-0
 .00000036,0.00003927,-0.00008196,0.00020557,-0.00042800,0.00024758,0.0
 0004762,0.00000643,-0.00005344,-0.00002449,0.00002022,0.00002925,-0.00
 022143,0.00020612,-0.00006088,0.00019544,0.00054119,0.00002672,-0.0000
 3433,-0.00013161,-0.00006326,-0.00093840,0.00005056,0.00013547,0.00003
 469,-0.00030523,0.00046905,0.00033194,-0.00014491,-0.00046065,-0.00003
 644,0.00001886,0.00003258,0.00045336,0.00030342,-0.00009499,-0.0000575
 0,-0.00011120,0.00002964,0.00200627,-0.00047031,-0.00027453,-0.1634821
 2,0.09476079,-0.15615073,0.00158557,-0.00043656,-0.00916065,0.13321912
 ,-0.08202263,0.15024131,0.00171369,-0.00118846,-0.00006319,-0.00012526
 ,0.00016768,0.00024696,-0.00017887,-0.00005191,-0.00003966,-0.00013513
 ,0.00025128,0.00006244,0.00017487,0.00282441,0.00038923,-0.00074130,-0
 .00076487,-0.00048042,0.00000935,-0.00002700,0.00000249,0.00014485,0.0
 0008002,0.00010981,-0.00000183,0.00000027,-0.00000315,-0.00048695,-0.0
 0008395,0.00004866,-0.00001924,-0.00002803,0.00001792,-0.00006370,-0.0
 0023247,-0.00009720,0.00007522,-0.00014219,0.00004140,0.00046178,0.000
 20295,0.00009360,-0.00007211,-0.00005124,-0.00004437,0.00000392,-0.000
 28809,0.00005302,0.00004006,0.00021359,-0.00000591,0.00012128,-0.00024
 058,-0.00015522,-0.00004907,0.00006994,0.00003333,0.00043046,-0.000078
 75,-0.00010174,-0.00015290,0.00000633,0.00006706,0.00012264,-0.0001269
 9,-0.00004972,-0.00284340,-0.00152613,-0.00213986,-0.06107122,-0.01570
 245,0.00151670,0.00467269,0.00426249,0.00493954,0.07791049,0.00069140,
 -0.00330575,-0.00124080,0.00001200,0.00016804,0.00015602,-0.00025166,-
 0.00052322,0.00004683,0.00008060,0.00031106,-0.00021955,0.00413052,0.0
 0382264,-0.00035383,0.00016535,-0.00013970,0.00003814,-0.00010444,-0.0
 0004838,0.00002137,-0.00006216,0.00002870,-0.00002893,0.00000260,-0.00
 000649,-0.00002547,-0.00077705,0.00035687,0.00010032,-0.00001715,-0.00
 000735,0.00002029,-0.00000708,-0.00031116,-0.00017697,0.00008152,-0.00
 015270,0.00004111,0.00046375,-0.00023612,0.00001807,-0.00009661,0.0000
 8645,0.00000303,-0.00037874,-0.00010447,-0.00027727,0.00033347,-0.0000
 0260,0.00049893,-0.00008768,-0.00016632,-0.00000212,-0.00001901,0.0000
 4517,0.00000994,0.00001882,-0.00027866,-0.00009732,-0.00012976,0.00014
 257,0.00007484,-0.00017060,-0.00035796,0.00001160,-0.00588557,0.001286
 26,-0.00094917,-0.05882326,-0.25885888,-0.17966469,0.00769940,-0.00858
 587,0.00092939,0.04899827,0.27607088,0.00176867,-0.00224028,-0.0017027
 4,-0.00004390,0.00014367,0.00033151,-0.00008777,-0.00024588,0.00010951
 ,-0.00008237,0.00025037,0.00002451,0.00131555,0.00233700,0.00100013,-0
 .00034985,-0.00040345,-0.00026019,-0.00003457,-0.00002570,-0.00000782,
 -0.00005138,0.00007179,-0.00002843,0.00001605,-0.00000486,-0.00007940,
 -0.00076074,0.00017699,0.00041181,0.00010311,-0.00001179,-0.00009162,-
 0.00013492,-0.00045207,-0.00012801,0.00006829,-0.00014474,0.00001891,0
 .00051713,0.00004603,-0.00005374,-0.00013916,0.00000533,-0.00002298,-0
 .00006808,-0.00022339,-0.00036357,0.00001559,0.00023949,0.00024932,0.0
 0006672,-0.00020097,-0.00018814,-0.00002825,0.00004695,0.00004426,0.00
 027351,-0.00014358,-0.00017215,-0.00015097,0.00006213,0.00010730,0.000
 17227,-0.00029442,-0.00030631,-0.00325401,-0.00063976,-0.00302950,-0.0
 3205318,-0.19853477,-0.16712404,0.00502481,0.00077143,0.00562179,0.021
 04908,0.18095110,0.16182561,0.00026604,0.00015896,-0.00005542,-0.00003
 557,-0.00002866,0.00001093,0.00004037,0.00008829,-0.00006459,-0.000039
 05,-0.00001004,0.00005438,-0.00021058,-0.00044847,0.00037329,-0.000104
 67,-0.00000013,-0.00005632,0.00001799,0.00000339,-0.00000357,-0.000000
 44,0.00000083,0.00000407,0.00000307,0.00000153,-0.00000272,-0.00003457
 ,-0.00003496,0.00002116,0.00000488,-0.00000040,-0.00000520,-0.00001027
 ,-0.00002221,-0.00000575,-0.00000848,0.00000926,-0.00000133,0.00005360
 ,0.00006108,0.00001021,-0.00001049,-0.00001839,-0.00000862,0.00004538,
 -0.00001506,0.00000456,-0.00007675,0.00003471,-0.00003673,0.00004494,-
 0.00001679,-0.00003656,-0.00000725,0.00000636,0.00000673,0.00006720,0.
 00003398,-0.00000361,-0.00001467,-0.00001177,0.00000531,0.00009156,-0.
 00001484,-0.00007852,0.00109896,0.00084234,-0.00091295,-0.44059720,-0.
 15443503,0.07130496,-0.00404808,-0.00151314,0.00148111,-0.00771800,0.0
 0281451,0.00632164,0.45058790,0.00011169,-0.00005390,0.00003179,-0.000
 03041,0.00001487,0.00001212,-0.00003376,0.00011548,0.00001980,-0.00000
 644,0.00002192,0.00004948,-0.00063320,0.00004287,-0.00001191,-0.000087
 31,-0.00004898,-0.00005503,0.00001830,0.00000025,-0.00000448,0.0000172
 5,0.00000739,0.00001520,-0.00000040,-0.00000079,0.00000671,-0.00004192
 ,-0.00000437,-0.00000426,-0.00000541,0.00000026,0.00000581,0.,-0.00001
 556,-0.00001366,0.00001810,-0.00002945,-0.00000952,0.00005422,0.000006
 22,0.00001107,-0.00001167,0.00000355,-0.00000422,0.00011908,-0.0001156
 1,0.00007372,-0.00002115,0.00010902,-0.00012392,0.00002360,-0.00005685
 ,-0.00002962,-0.00000928,0.00001643,0.00000223,0.00004907,-0.00002162,
 -0.00000641,-0.00002186,0.00001012,0.00000744,-0.00010487,0.00007490,0
 .00000639,0.00206155,-0.00270017,0.00257868,-0.11622061,-0.07788057,-0
 .00267943,0.00030325,0.00525982,-0.00380266,-0.03815804,-0.00802467,0.
 01266970,0.15202416,0.08404452,0.00028729,0.00004548,-0.00003322,-0.00
 004990,-0.00001775,0.00002746,-0.00001792,0.00014740,0.00004620,-0.000
 06695,0.00001634,0.00007786,-0.00031483,-0.00024502,0.00008431,-0.0001
 6400,-0.00005435,-0.00006123,0.00001388,-0.00000187,-0.00000823,0.0000
 1059,0.00000718,0.00000678,0.00000101,0.00000208,-0.00000558,-0.000053
 74,-0.00004463,0.00002285,0.00000332,-0.00000436,-0.00000687,-0.000008
 60,-0.00003177,-0.00000894,0.00000256,-0.00002072,-0.00000666,0.000075
 24,0.00006983,0.00000897,-0.00001667,-0.00001932,-0.00000658,0.0000716
 8,-0.00006085,-0.00004515,-0.00009053,0.00006454,0.00000075,0.00006473
 ,-0.00004683,-0.00008481,-0.00000921,0.00001166,0.00001697,0.00009732,
 0.00002498,-0.00002187,-0.00002677,-0.00000945,0.00001750,0.00001038,0
 .00005933,-0.00001838,-0.00021492,0.00130567,-0.00136280,0.10846819,0.
 01697398,-0.03666089,-0.00157502,-0.00184731,0.00094868,-0.02807490,-0
 .00876744,0.00590674,-0.07854603,-0.00673184,0.03336064,-0.01277934,0.
 01143426,0.00604287,0.00010018,-0.00074664,-0.00111371,0.00068421,0.00
 076565,0.00091227,0.00046899,-0.00082370,-0.00008737,-0.00676983,-0.00
 817243,-0.00080964,0.00249403,0.00306191,0.00269176,-0.00003780,0.0000
 7031,-0.00001313,-0.00027938,-0.00029498,-0.00035090,0.00003444,-0.000
 00321,0.00003642,0.00179503,0.00010404,-0.00066209,-0.00018456,0.00012
 023,0.00015877,-0.00038150,0.00071516,0.00030247,-0.00031550,0.0004608
 6,-0.00027433,-0.00149801,-0.00075771,-0.00016071,0.00024420,0.0002016
 1,0.00018798,0.00011098,0.00064015,-0.00044825,-0.00028292,-0.00039493
 ,0.00010619,-0.00031994,0.00067928,0.00038041,0.00014545,-0.00020173,-
 0.00009127,-0.00149522,0.00025617,0.00034347,0.00045203,0.00006992,-0.
 00018342,0.00018752,0.00109060,0.00034062,0.00556660,0.00090650,0.0004
 5928,0.00244977,-0.00984242,-0.01000767,-0.00477095,0.00210705,-0.0018
 9035,-0.00731959,0.00143433,0.00882378,0.00100476,0.00089315,0.0008066
 4,0.43411785,0.00869802,0.00216649,-0.00092718,0.00018696,0.00051387,0
 .00040334,-0.00017429,0.00038521,-0.00023662,-0.00043901,-0.00007999,0
 .00032684,-0.00315374,-0.00011403,0.00126977,-0.00207785,-0.00266365,-
 0.00217521,0.00013755,0.00003458,-0.00002322,0.00030705,0.00012340,0.0
 0032175,-0.00003808,0.00001460,0.00003348,0.00187254,-0.00163415,-0.00
 064410,-0.00006796,0.00004726,0.00003223,-0.00012068,0.00077123,0.0004
 7617,0.00002659,-0.00000990,0.00003980,-0.00100396,0.00096609,0.000120
 82,0.00023048,-0.00034934,-0.00004613,0.00052763,-0.00020254,0.0003981
 5,-0.00041697,0.00036937,-0.00056935,0.00025816,0.00002699,-0.00014234
 ,-0.00002257,0.00000260,0.00001612,0.00086460,0.00038759,-0.00001842,0
 .00011916,-0.00045567,-0.00010937,0.00023101,-0.00002689,-0.00026405,0
 .00356163,-0.00295559,-0.00137350,-0.00610296,-0.00573237,-0.01203761,
 -0.00152748,0.00266384,0.00104577,0.00293448,-0.00722278,0.00581689,0.
 00079839,-0.00077490,-0.00045178,-0.12158117,0.20987306,0.00478117,-0.
 00101879,0.00288013,0.00012198,0.00024327,0.00022063,-0.00012222,-0.00
 007141,-0.00065147,-0.00018453,-0.00003299,0.00009942,-0.00035077,-0.0
 0014282,0.00002032,-0.00037760,-0.00155111,-0.00147599,0.00009863,0.00
 000945,0.00000459,0.00049175,-0.00004417,0.00032074,-0.00006312,0.0000
 2533,0.00010086,0.00053985,-0.00066215,-0.00038331,-0.00031802,0.00004
 154,0.00027714,-0.00017484,0.00052556,-0.00043876,0.00006973,-0.000030
 60,0.00012407,-0.00024374,0.00037893,0.00028574,0.00023826,-0.00013903
 ,-0.00008067,0.00008268,0.00013683,0.00074911,-0.00006467,-0.00018940,
 -0.00050072,0.00008077,0.00000646,0.00004922,-0.00001925,0.00001617,-0
 .00001449,0.00044253,0.00014510,0.00005632,0.00003963,-0.00018566,-0.0
 0009056,-0.00006299,0.00011278,0.00013684,0.00203025,-0.00061291,0.001
 70635,-0.00817545,-0.01411590,-0.00808093,-0.00289856,0.00220873,-0.00
 208269,0.00736036,0.00448289,-0.00104742,0.00037386,-0.00197237,-0.001
 86340,-0.17355334,-0.15799915,0.45335276,-0.00267832,-0.00772624,-0.00
 179199,0.00001194,0.00104086,0.00121234,-0.00104709,-0.00144167,-0.001
 65780,-0.00073372,0.00095376,0.00009839,0.01123694,0.01167574,0.001144
 41,-0.00602245,-0.00409637,-0.00347695,0.00007741,-0.00008099,0.000017
 23,0.00083429,0.00047925,0.00065600,-0.00005787,0.00000417,-0.00000837
 ,-0.00117408,-0.00131321,0.00043613,0.00010801,-0.00008355,-0.00006328
 ,-0.00010924,-0.00077344,-0.00020310,0.00055140,-0.00066249,0.00048586
 ,0.00120020,0.00131357,0.00021319,-0.00008255,-0.00038600,-0.00025520,
 -0.00020341,-0.00062134,0.00091463,0.00045098,0.00021819,-0.00023554,0
 .00037181,-0.00073409,-0.00039769,-0.00016454,0.00021949,0.00009931,0.
 00194397,-0.00014754,-0.00034054,-0.00041687,-0.00025348,0.00015171,-0
 .00048493,-0.00166960,-0.00046946,-0.00700342,0.00065858,0.00126321,0.
 00105226,0.00401820,0.00288086,0.00348649,-0.00323132,0.00038365,-0.00
 779688,-0.00395808,-0.00722973,-0.00026195,0.00016597,0.00002472,-0.34
 637219,0.13442738,0.09322784,0.36181598,-0.00466143,-0.00657757,-0.001
 85553,-0.00050047,-0.00109546,-0.00089299,0.00042557,-0.00031168,0.000
 19884,0.00056032,-0.00017689,-0.00032485,0.00271999,-0.00488139,-0.002
 51542,0.00276892,0.00499518,0.00366517,-0.00011909,-0.00001071,0.00002
 300,-0.00057589,-0.00029764,-0.00055041,0.00007391,-0.00002175,-0.0000
 1278,-0.00295205,0.00229229,0.00080585,0.00003443,-0.00006817,0.000027
 26,-0.00010939,-0.00147770,-0.00097043,-0.00010138,0.00014210,-0.00007
 598,0.00144902,-0.00121225,-0.00008317,-0.00020661,0.00038554,0.000031
 43,-0.00047785,0.00044394,-0.00043485,0.00021776,-0.00046081,0.0005257
 9,-0.00028441,0.00012171,0.00021940,0.00004697,-0.00004329,-0.00003873
 ,-0.00138916,-0.00029195,0.00017340,-0.00007189,0.00057509,0.00008948,
 -0.00006035,0.00037573,0.00036504,-0.00003295,0.00233737,0.00133053,0.
 00138684,-0.00223507,-0.00059327,-0.00220452,-0.00131109,-0.00206559,-
 0.00311416,0.00332518,0.00138351,0.00005899,0.00017107,0.00019723,0.16
 514508,-0.09140688,-0.02809967,-0.13570934,0.08988979,-0.00010136,-0.0
 0155586,-0.00551310,-0.00017536,-0.00056429,-0.00068062,0.00037440,0.0
 0067385,0.00096721,0.00031073,-0.00022407,-0.00008446,-0.00214018,-0.0
 0296800,-0.00084747,0.00007418,0.00322569,0.00226110,-0.00007487,0.000
 01301,-0.00000960,-0.00086744,-0.00002984,-0.00046117,0.00007918,-0.00
 002378,-0.00006577,-0.00014515,0.00098112,0.00066498,0.00037134,-0.000
 00543,-0.00034326,-0.00001599,-0.00068690,0.00020233,-0.00021710,0.000
 23730,-0.00022248,0.00003111,-0.00050521,-0.00035589,-0.00020355,0.000
 13970,0.00008352,0.00013008,-0.00011736,-0.00081671,-0.00011028,0.0002
 5316,0.00033625,-0.00010688,0.00015875,0.00004684,0.00004708,-0.000064
 43,-0.00001287,-0.00080954,-0.00002319,0.00012834,0.00007503,0.0001847
 3,0.00002591,0.00009380,-0.00005140,-0.00014712,0.00117238,0.00027503,
 -0.00118588,0.00162869,-0.00133816,-0.00217153,-0.00062112,-0.00107785
 ,0.00036930,-0.00580895,0.00210226,0.00317416,0.00017863,0.00036480,0.
 00033208,0.04907166,-0.00254686,-0.06248932,-0.08508184,0.01988152,0.0
 7818176,-0.00034860,0.00089912,-0.00113027,-0.00017582,0.00000427,-0.0
 0002778,-0.00006220,0.00012445,0.00023636,-0.00007436,0.00010143,0.000
 06080,-0.00053167,0.00059730,0.00047729,-0.00043422,-0.00003776,0.0002
 7845,0.00000020,-0.00000731,-0.00000368,-0.00015889,0.00008227,-0.0000
 7746,0.00004002,-0.00002099,-0.00003679,-0.00021778,-0.00014779,-0.000
 01848,0.00009694,-0.00000271,-0.00008643,0.00008870,-0.00007363,0.0001
 6940,-0.00000029,-0.00003263,-0.00004756,0.00018166,0.00013715,-0.0000
 2270,-0.00010148,-0.00005567,-0.00000272,0.00015740,-0.00033207,-0.000
 17510,-0.00002770,0.00037193,0.00001324,0.00009582,-0.00012194,-0.0001
 0560,-0.00002824,0.00003455,0.00001793,0.00016897,0.00000786,-0.000038
 65,-0.00007518,0.00000069,0.00004311,0.00003316,-0.00004278,-0.0001082
 9,-0.00013335,-0.00083154,-0.00073446,-0.00158987,-0.00171306,0.000102
 88,0.00075738,-0.00006275,0.00025563,0.00289413,0.00384230,-0.00106730
 ,-0.00014864,-0.00047306,-0.00070758,-0.06704931,-0.01845493,0.0766298
 2,-0.00853217,-0.02231686,0.04284131,0.07517540,0.00007306,-0.00143445
 ,-0.00011806,0.00005451,0.00005421,0.00000604,0.00002129,-0.00019650,-
 0.00012012,0.00011732,0.00006523,-0.00010342,0.00194951,0.00113781,-0.
 00046775,0.00043432,0.00010205,0.00025441,-0.00003809,-0.00000823,0.00
 000899,-0.00004587,0.00003824,-0.00005577,0.00000209,-0.00000961,-0.00
 001700,-0.00022671,0.00020606,0.00000998,0.00006780,-0.00002965,-0.000
 04999,0.00013991,-0.00004631,0.00020508,0.00001347,-0.00002573,0.00003
 070,0.00005255,-0.00023188,-0.00007935,-0.00007808,0.00009342,0.000041
 97,-0.00024916,0.00008518,0.00004209,0.00029128,-0.00024857,0.00011138
 ,-0.00009919,-0.00001824,0.00006072,0.00000545,0.00000333,-0.00000285,
 -0.00014017,-0.00014009,-0.00003515,-0.00002300,0.00008286,0.00002956,
 -0.00023065,-0.00015019,0.00014860,-0.00179048,0.00063852,0.00134356,-
 0.00066191,-0.00183829,0.00066756,0.00003364,-0.00045134,-0.00115299,0
 .00179360,0.00268928,-0.00140671,-0.00036690,-0.00017125,-0.00057044,-
 0.04733736,-0.10471749,0.19853507,0.00771360,0.00682531,-0.01670828,0.
 03852416,0.09769634,-0.00104915,-0.00027450,0.00035247,0.00003343,-0.0
 0001041,-0.00004776,0.00001219,-0.00011520,0.00017223,0.00008011,0.000
 01001,-0.00007505,0.00119626,0.00034413,-0.00042702,0.00055536,0.00019
 438,0.00040745,-0.00004794,-0.00000496,0.00000200,-0.00008181,-0.00001
 066,-0.00009032,0.00000687,-0.00000635,-0.00002556,-0.00001056,0.00008
 478,-0.00007284,0.00001209,0.00000510,-0.00001574,0.00025658,0.0001443
 3,0.00012904,-0.00001073,-0.00000088,-0.00002931,-0.00006502,-0.000175
 06,-0.00005090,-0.00002813,0.00005144,0.00004725,-0.00010992,0.0000511
 2,-0.00026368,0.00010645,-0.00005378,0.00028464,-0.00006606,0.00002940
 ,0.00002388,0.00001288,-0.00001171,-0.00000125,-0.00017640,-0.00006162
 ,-0.00001951,0.00001276,0.00004544,0.00001512,-0.00010260,-0.00003732,
 0.00009248,-0.00140109,0.00088153,0.00056252,-0.00055724,-0.00034067,0
 .00215538,0.00047370,-0.00088250,-0.00067124,0.00103269,0.00229745,-0.
 00421950,-0.00033294,-0.00040563,-0.00066322,0.11898157,0.16926375,-0.
 38118452,-0.00199800,0.00959621,-0.01136654,-0.11673538,-0.18060784,0.
 39497949\\0.00001379,-0.00000146,-0.00000486,0.00000822,0.00000841,-0.
 00001784,0.00000648,-0.00002128,-0.00001372,0.00000384,0.00000402,0.00
 002678,-0.00001845,0.00003207,-0.00000272,-0.00000382,0.00003224,0.000
 02175,-0.00000175,-0.00000015,0.00000547,0.00000460,-0.00000132,-0.000
 00524,-0.00000685,0.00000093,-0.00000072,-0.00000192,-0.00000733,-0.00
 001133,-0.00000494,-0.00000340,-0.00000624,-0.00000010,-0.00000498,-0.
 00000742,-0.00000049,-0.00000154,0.00001073,-0.00001271,-0.00000124,-0
 .00000139,0.00000033,0.00000667,-0.00000485,0.00001646,0.00000116,0.00
 002264,0.00000350,0.00000718,-0.00000499,-0.00000101,-0.00000145,-0.00
 000414,-0.00000789,-0.00000346,0.00000982,-0.00001283,0.00001301,0.000
 00371,-0.00000022,-0.00000848,-0.00000013,-0.00000441,-0.00001969,0.00
 000505,0.00001326,-0.00001480,-0.00002147,0.00003176,0.00001150,0.0000
 3495,-0.00000632,0.00001616,-0.00000175,-0.00001813,-0.00003187,-0.000
 02129,-0.00000159,-0.00000505,-0.00000220,0.00001792,-0.00001040,-0.00
 000147,-0.00002417,-0.00000016,0.00000101,0.00000744,0.00000471,-0.000
 00816\\\@


 AN OPTIMIST IS A GUY
 THAT HAS NEVER HAD
 MUCH EXPERIENCE
   (CERTAIN MAXIMS OF ARCHY  -- DON MARQUIS)
 Job cpu time:       0 days  0 hours 35 minutes  2.1 seconds.
 File lengths (MBytes):  RWF=    221 Int=      0 D2E=      0 Chk=      6 Scr=      1
 Normal termination of Gaussian 09 at Sun Jan 15 14:13:15 2017.
