 Entering Gaussian System, Link 0=g09
 Initial command:
 /global/software/gaussian/g09.e01/l1.exe "/scratch/10462923.yak.local/Gau-9608.inp" -scrdir="/scratch/10462923.yak.local/"
 Entering Link 1 = /global/software/gaussian/g09.e01/l1.exe PID=      9609.
  
 Copyright (c) 1988,1990,1992,1993,1995,1998,2003,2009,2015,
            Gaussian, Inc.  All Rights Reserved.
  
 This is part of the Gaussian(R) 09 program.  It is based on
 the Gaussian(R) 03 system (copyright 2003, Gaussian, Inc.),
 the Gaussian(R) 98 system (copyright 1998, Gaussian, Inc.),
 the Gaussian(R) 94 system (copyright 1995, Gaussian, Inc.),
 the Gaussian 92(TM) system (copyright 1992, Gaussian, Inc.),
 the Gaussian 90(TM) system (copyright 1990, Gaussian, Inc.),
 the Gaussian 88(TM) system (copyright 1988, Gaussian, Inc.),
 the Gaussian 86(TM) system (copyright 1986, Carnegie Mellon
 University), and the Gaussian 82(TM) system (copyright 1983,
 Carnegie Mellon University). Gaussian is a federally registered
 trademark of Gaussian, Inc.
  
 This software contains proprietary and confidential information,
 including trade secrets, belonging to Gaussian, Inc.
  
 This software is provided under written license and may be
 used, copied, transmitted, or stored only in accord with that
 written license.
  
 The following legend is applicable only to US Government
 contracts under FAR:
  
                    RESTRICTED RIGHTS LEGEND
  
 Use, reproduction and disclosure by the US Government is
 subject to restrictions as set forth in subparagraphs (a)
 and (c) of the Commercial Computer Software - Restricted
 Rights clause in FAR 52.227-19.
  
 Gaussian, Inc.
 340 Quinnipiac St., Bldg. 40, Wallingford CT 06492
  
  
 ---------------------------------------------------------------
 Warning -- This program may not be used in any manner that
 competes with the business of Gaussian, Inc. or will provide
 assistance to any competitor of Gaussian, Inc.  The licensee
 of this program is prohibited from giving any competitor of
 Gaussian, Inc. access to this program.  By using this program,
 the user acknowledges that Gaussian, Inc. is engaged in the
 business of creating and licensing software in the field of
 computational chemistry and represents and warrants to the
 licensee that it is not a competitor of Gaussian, Inc. and that
 it will not use this program in any manner prohibited above.
 ---------------------------------------------------------------
  

 Cite this work as:
 Gaussian 09, Revision E.01,
 M. J. Frisch, G. W. Trucks, H. B. Schlegel, G. E. Scuseria, 
 M. A. Robb, J. R. Cheeseman, G. Scalmani, V. Barone, B. Mennucci, 
 G. A. Petersson, H. Nakatsuji, M. Caricato, X. Li, H. P. Hratchian, 
 A. F. Izmaylov, J. Bloino, G. Zheng, J. L. Sonnenberg, M. Hada, 
 M. Ehara, K. Toyota, R. Fukuda, J. Hasegawa, M. Ishida, T. Nakajima, 
 Y. Honda, O. Kitao, H. Nakai, T. Vreven, J. A. Montgomery, Jr., 
 J. E. Peralta, F. Ogliaro, M. Bearpark, J. J. Heyd, E. Brothers, 
 K. N. Kudin, V. N. Staroverov, T. Keith, R. Kobayashi, J. Normand, 
 K. Raghavachari, A. Rendell, J. C. Burant, S. S. Iyengar, J. Tomasi, 
 M. Cossi, N. Rega, J. M. Millam, M. Klene, J. E. Knox, J. B. Cross, 
 V. Bakken, C. Adamo, J. Jaramillo, R. Gomperts, R. E. Stratmann, 
 O. Yazyev, A. J. Austin, R. Cammi, C. Pomelli, J. W. Ochterski, 
 R. L. Martin, K. Morokuma, V. G. Zakrzewski, G. A. Voth, 
 P. Salvador, J. J. Dannenberg, S. Dapprich, A. D. Daniels, 
 O. Farkas, J. B. Foresman, J. V. Ortiz, J. Cioslowski, 
 and D. J. Fox, Gaussian, Inc., Wallingford CT, 2013.
 
 ******************************************
 Gaussian 09:  ES64L-G09RevE.01 30-Nov-2015
                15-Jan-2017 
 ******************************************
 %NPROCS=4
 Will use up to    4 processors via shared memory.
 -----------------------------------------
 # opt=(MaxCycle=1000) freq B3LYP/6-31G(d)
 -----------------------------------------
 1/6=1000,14=-1,18=20,19=15,26=3,38=1/1,3;
 2/9=110,12=2,17=6,18=5,40=1/2;
 3/5=1,6=6,7=1,11=2,16=1,25=1,30=1,71=1,74=-5/1,2,3;
 4//1;
 5/5=2,38=5/2;
 6/7=2,8=2,9=2,10=2,28=1/1;
 7//1,2,3,16;
 1/6=1000,14=-1,18=20,19=15,26=3/3(2);
 2/9=110/2;
 99//99;
 2/9=110/2;
 3/5=1,6=6,7=1,11=2,16=1,25=1,30=1,71=1,74=-5/1,2,3;
 4/5=5,16=3,69=1/1;
 5/5=2,38=5/2;
 7//1,2,3,16;
 1/6=1000,14=-1,18=20,19=15,26=3/3(-5);
 2/9=110/2;
 6/7=2,8=2,9=2,10=2,19=2,28=1/1;
 99/9=1/99;
 ----------------------------------------------
 ./boats/4/glo_2w_beta_ts_boat4_B3LYP_631Gd.out
 ----------------------------------------------
 Symbolic Z-matrix:
 Charge =  0 Multiplicity = 1
 O                     0.62489  -0.17699  -1.0216 
 C                    -1.19966   0.83884   0.23302 
 C                    -1.10693  -1.69265   0.11702 
 C                    -1.9399   -0.436    -0.16907 
 C                     0.40856  -1.45755   0.2298 
 C                     0.02139   1.07368  -0.67603 
 H                    -2.12607  -0.40893  -1.25457 
 H                    -0.36533   1.50723  -1.61027 
 H                    -0.88308   0.7473    1.27874 
 H                     0.99428  -2.1683   -0.38217 
 C                     1.0198    2.04655  -0.03913 
 H                     1.37739   1.63781   0.90922 
 H                     1.88928   2.20132  -0.69512 
 H                    -1.40702  -2.04864   1.11189 
 O                     0.86081  -1.02919   1.32638 
 O                     0.38808   3.292     0.26791 
 H                     0.20287   3.74216  -0.57225 
 O                    -1.41356  -2.6466   -0.88961 
 H                    -1.17956  -3.52441  -0.55209 
 O                    -3.16003  -0.53621   0.54678 
 H                    -3.54836   0.35573   0.51645 
 O                    -2.12035   1.92018   0.08692 
 H                    -1.68029   2.69187   0.48365 
 O                     3.3435   -1.00368   1.15408 
 H                     3.3407   -0.5506   -0.25243 
 H                     2.33746  -1.07215   1.3432 
 H                     3.68202  -0.35527   1.78862 
 O                     3.07869  -0.29573  -1.21019 
 H                     1.65302  -0.12633  -1.16856 
 H                     3.58685   0.48987  -1.45724 
 
 Add virtual bond connecting atoms H29        and O28        Dist= 2.71D+00.
 Add virtual bond connecting atoms O24        and H25        Dist= 2.79D+00.
 Add virtual bond connecting atoms H26        and O15        Dist= 2.79D+00.

 GradGradGradGradGradGradGradGradGradGradGradGradGradGradGradGradGradGrad
 Berny optimization.
 Initialization pass.
                           ----------------------------
                           !    Initial Parameters    !
                           ! (Angstroms and Degrees)  !
 --------------------------                            --------------------------
 ! Name  Definition              Value          Derivative Info.                !
 --------------------------------------------------------------------------------
 ! R1    R(1,6)                  1.431          estimate D2E/DX2                !
 ! R2    R(1,29)                 1.0398         estimate D2E/DX2                !
 ! R3    R(2,4)                  1.528          estimate D2E/DX2                !
 ! R4    R(2,6)                  1.5403         estimate D2E/DX2                !
 ! R5    R(2,9)                  1.0964         estimate D2E/DX2                !
 ! R6    R(2,22)                 1.4277         estimate D2E/DX2                !
 ! R7    R(3,4)                  1.5346         estimate D2E/DX2                !
 ! R8    R(3,5)                  1.5378         estimate D2E/DX2                !
 ! R9    R(3,14)                 1.0984         estimate D2E/DX2                !
 ! R10   R(3,18)                 1.4203         estimate D2E/DX2                !
 ! R11   R(4,7)                  1.1017         estimate D2E/DX2                !
 ! R12   R(4,20)                 1.4182         estimate D2E/DX2                !
 ! R13   R(5,10)                 1.1058         estimate D2E/DX2                !
 ! R14   R(5,15)                 1.2612         estimate D2E/DX2                !
 ! R15   R(6,8)                  1.1001         estimate D2E/DX2                !
 ! R16   R(6,11)                 1.5326         estimate D2E/DX2                !
 ! R17   R(11,12)                1.0928         estimate D2E/DX2                !
 ! R18   R(11,13)                1.1001         estimate D2E/DX2                !
 ! R19   R(11,16)                1.4299         estimate D2E/DX2                !
 ! R20   R(15,26)                1.4774         estimate D2E/DX2                !
 ! R21   R(16,17)                0.971          estimate D2E/DX2                !
 ! R22   R(18,19)                0.9691         estimate D2E/DX2                !
 ! R23   R(20,21)                0.9733         estimate D2E/DX2                !
 ! R24   R(22,23)                0.9729         estimate D2E/DX2                !
 ! R25   R(24,25)                1.4777         estimate D2E/DX2                !
 ! R26   R(24,26)                1.0259         estimate D2E/DX2                !
 ! R27   R(24,27)                0.9683         estimate D2E/DX2                !
 ! R28   R(25,28)                1.0251         estimate D2E/DX2                !
 ! R29   R(28,29)                1.4363         estimate D2E/DX2                !
 ! R30   R(28,30)                0.9677         estimate D2E/DX2                !
 ! A1    A(6,1,29)             114.1131         estimate D2E/DX2                !
 ! A2    A(4,2,6)              110.851          estimate D2E/DX2                !
 ! A3    A(4,2,9)              108.7354         estimate D2E/DX2                !
 ! A4    A(4,2,22)             107.012          estimate D2E/DX2                !
 ! A5    A(6,2,9)              110.2871         estimate D2E/DX2                !
 ! A6    A(6,2,22)             109.5938         estimate D2E/DX2                !
 ! A7    A(9,2,22)             110.3063         estimate D2E/DX2                !
 ! A8    A(4,3,5)              115.0509         estimate D2E/DX2                !
 ! A9    A(4,3,14)             106.6161         estimate D2E/DX2                !
 ! A10   A(4,3,18)             107.4992         estimate D2E/DX2                !
 ! A11   A(5,3,14)             104.6175         estimate D2E/DX2                !
 ! A12   A(5,3,18)             111.5567         estimate D2E/DX2                !
 ! A13   A(14,3,18)            111.4235         estimate D2E/DX2                !
 ! A14   A(2,4,3)              111.7895         estimate D2E/DX2                !
 ! A15   A(2,4,7)              108.7019         estimate D2E/DX2                !
 ! A16   A(2,4,20)             110.0549         estimate D2E/DX2                !
 ! A17   A(3,4,7)              107.1901         estimate D2E/DX2                !
 ! A18   A(3,4,20)             108.3632         estimate D2E/DX2                !
 ! A19   A(7,4,20)             110.714          estimate D2E/DX2                !
 ! A20   A(3,5,10)             112.5298         estimate D2E/DX2                !
 ! A21   A(3,5,15)             117.9762         estimate D2E/DX2                !
 ! A22   A(10,5,15)            120.636          estimate D2E/DX2                !
 ! A23   A(1,6,2)              110.0959         estimate D2E/DX2                !
 ! A24   A(1,6,8)              106.714          estimate D2E/DX2                !
 ! A25   A(1,6,11)             112.3583         estimate D2E/DX2                !
 ! A26   A(2,6,8)              106.4156         estimate D2E/DX2                !
 ! A27   A(2,6,11)             111.589          estimate D2E/DX2                !
 ! A28   A(8,6,11)             109.3738         estimate D2E/DX2                !
 ! A29   A(6,11,12)            109.6552         estimate D2E/DX2                !
 ! A30   A(6,11,13)            110.8775         estimate D2E/DX2                !
 ! A31   A(6,11,16)            110.7526         estimate D2E/DX2                !
 ! A32   A(12,11,13)           108.147          estimate D2E/DX2                !
 ! A33   A(12,11,16)           106.4991         estimate D2E/DX2                !
 ! A34   A(13,11,16)           110.7741         estimate D2E/DX2                !
 ! A35   A(5,15,26)            111.0049         estimate D2E/DX2                !
 ! A36   A(11,16,17)           107.5952         estimate D2E/DX2                !
 ! A37   A(3,18,19)            108.0226         estimate D2E/DX2                !
 ! A38   A(4,20,21)            105.2356         estimate D2E/DX2                !
 ! A39   A(2,22,23)            105.506          estimate D2E/DX2                !
 ! A40   A(25,24,26)           101.19           estimate D2E/DX2                !
 ! A41   A(25,24,27)           114.7762         estimate D2E/DX2                !
 ! A42   A(26,24,27)           105.468          estimate D2E/DX2                !
 ! A43   A(25,28,29)           104.8291         estimate D2E/DX2                !
 ! A44   A(25,28,30)           107.8268         estimate D2E/DX2                !
 ! A45   A(29,28,30)           115.6511         estimate D2E/DX2                !
 ! A46   L(24,25,28,2,-1)      166.9333         estimate D2E/DX2                !
 ! A47   L(15,26,24,12,-1)     172.5082         estimate D2E/DX2                !
 ! A48   L(1,29,28,10,-1)      168.8343         estimate D2E/DX2                !
 ! A49   L(24,25,28,2,-2)      187.3995         estimate D2E/DX2                !
 ! A50   L(15,26,24,12,-2)     190.5659         estimate D2E/DX2                !
 ! A51   L(1,29,28,10,-2)      183.0383         estimate D2E/DX2                !
 ! D1    D(29,1,6,2)          -148.9433         estimate D2E/DX2                !
 ! D2    D(29,1,6,8)            95.9655         estimate D2E/DX2                !
 ! D3    D(29,1,6,11)          -23.9042         estimate D2E/DX2                !
 ! D4    D(6,1,28,25)           90.3823         estimate D2E/DX2                !
 ! D5    D(6,1,28,30)          -28.1121         estimate D2E/DX2                !
 ! D6    D(6,2,4,3)             67.8228         estimate D2E/DX2                !
 ! D7    D(6,2,4,7)            -50.2992         estimate D2E/DX2                !
 ! D8    D(6,2,4,20)          -171.7054         estimate D2E/DX2                !
 ! D9    D(9,2,4,3)            -53.5743         estimate D2E/DX2                !
 ! D10   D(9,2,4,7)           -171.6964         estimate D2E/DX2                !
 ! D11   D(9,2,4,20)            66.8974         estimate D2E/DX2                !
 ! D12   D(22,2,4,3)          -172.7178         estimate D2E/DX2                !
 ! D13   D(22,2,4,7)            69.1602         estimate D2E/DX2                !
 ! D14   D(22,2,4,20)          -52.246          estimate D2E/DX2                !
 ! D15   D(4,2,6,1)            -35.9226         estimate D2E/DX2                !
 ! D16   D(4,2,6,8)             79.3573         estimate D2E/DX2                !
 ! D17   D(4,2,6,11)          -161.4008         estimate D2E/DX2                !
 ! D18   D(9,2,6,1)             84.5573         estimate D2E/DX2                !
 ! D19   D(9,2,6,8)           -160.1628         estimate D2E/DX2                !
 ! D20   D(9,2,6,11)           -40.9209         estimate D2E/DX2                !
 ! D21   D(22,2,6,1)          -153.8205         estimate D2E/DX2                !
 ! D22   D(22,2,6,8)           -38.5406         estimate D2E/DX2                !
 ! D23   D(22,2,6,11)           80.7013         estimate D2E/DX2                !
 ! D24   D(4,2,22,23)          170.9479         estimate D2E/DX2                !
 ! D25   D(6,2,22,23)          -68.7861         estimate D2E/DX2                !
 ! D26   D(9,2,22,23)           52.8246         estimate D2E/DX2                !
 ! D27   D(5,3,4,2)            -21.7254         estimate D2E/DX2                !
 ! D28   D(5,3,4,7)             97.2958         estimate D2E/DX2                !
 ! D29   D(5,3,4,20)          -143.1796         estimate D2E/DX2                !
 ! D30   D(14,3,4,2)            93.7541         estimate D2E/DX2                !
 ! D31   D(14,3,4,7)          -147.2247         estimate D2E/DX2                !
 ! D32   D(14,3,4,20)          -27.7001         estimate D2E/DX2                !
 ! D33   D(18,3,4,2)          -146.658          estimate D2E/DX2                !
 ! D34   D(18,3,4,7)           -27.6369         estimate D2E/DX2                !
 ! D35   D(18,3,4,20)           91.8878         estimate D2E/DX2                !
 ! D36   D(4,3,5,10)          -130.9526         estimate D2E/DX2                !
 ! D37   D(4,3,5,15)            81.3722         estimate D2E/DX2                !
 ! D38   D(14,3,5,10)          112.425          estimate D2E/DX2                !
 ! D39   D(14,3,5,15)          -35.2501         estimate D2E/DX2                !
 ! D40   D(18,3,5,10)           -8.1654         estimate D2E/DX2                !
 ! D41   D(18,3,5,15)         -155.8406         estimate D2E/DX2                !
 ! D42   D(4,3,18,19)         -158.6508         estimate D2E/DX2                !
 ! D43   D(5,3,18,19)           74.3422         estimate D2E/DX2                !
 ! D44   D(14,3,18,19)         -42.1765         estimate D2E/DX2                !
 ! D45   D(2,4,20,21)           43.8875         estimate D2E/DX2                !
 ! D46   D(3,4,20,21)          166.4037         estimate D2E/DX2                !
 ! D47   D(7,4,20,21)          -76.3096         estimate D2E/DX2                !
 ! D48   D(3,5,15,26)          170.5538         estimate D2E/DX2                !
 ! D49   D(10,5,15,26)          25.5857         estimate D2E/DX2                !
 ! D50   D(1,6,11,12)          -63.8921         estimate D2E/DX2                !
 ! D51   D(1,6,11,13)           55.4612         estimate D2E/DX2                !
 ! D52   D(1,6,11,16)          178.8605         estimate D2E/DX2                !
 ! D53   D(2,6,11,12)           60.3238         estimate D2E/DX2                !
 ! D54   D(2,6,11,13)          179.6771         estimate D2E/DX2                !
 ! D55   D(2,6,11,16)          -56.9236         estimate D2E/DX2                !
 ! D56   D(8,6,11,12)          177.7956         estimate D2E/DX2                !
 ! D57   D(8,6,11,13)          -62.851          estimate D2E/DX2                !
 ! D58   D(8,6,11,16)           60.5482         estimate D2E/DX2                !
 ! D59   D(6,11,16,17)         -70.5609         estimate D2E/DX2                !
 ! D60   D(12,11,16,17)        170.2707         estimate D2E/DX2                !
 ! D61   D(13,11,16,17)         52.8979         estimate D2E/DX2                !
 ! D62   D(5,15,24,25)          38.5249         estimate D2E/DX2                !
 ! D63   D(5,15,24,27)         156.1565         estimate D2E/DX2                !
 ! D64   D(26,24,28,29)          7.6474         estimate D2E/DX2                !
 ! D65   D(26,24,28,30)        129.7631         estimate D2E/DX2                !
 ! D66   D(27,24,28,29)       -102.9411         estimate D2E/DX2                !
 ! D67   D(27,24,28,30)         19.1745         estimate D2E/DX2                !
 --------------------------------------------------------------------------------
 Trust Radius=3.00D-01 FncErr=1.00D-07 GrdErr=1.00D-06
 Number of steps in this run=    180 maximum allowed number of steps=    180.
 GradGradGradGradGradGradGradGradGradGradGradGradGradGradGradGradGradGrad

                          Input orientation:                          
 ---------------------------------------------------------------------
 Center     Atomic      Atomic             Coordinates (Angstroms)
 Number     Number       Type             X           Y           Z
 ---------------------------------------------------------------------
      1          8           0        0.624890   -0.176990   -1.021600
      2          6           0       -1.199660    0.838840    0.233020
      3          6           0       -1.106930   -1.692650    0.117020
      4          6           0       -1.939900   -0.436000   -0.169070
      5          6           0        0.408560   -1.457550    0.229800
      6          6           0        0.021390    1.073680   -0.676030
      7          1           0       -2.126070   -0.408930   -1.254570
      8          1           0       -0.365330    1.507230   -1.610270
      9          1           0       -0.883080    0.747300    1.278740
     10          1           0        0.994280   -2.168300   -0.382170
     11          6           0        1.019800    2.046550   -0.039130
     12          1           0        1.377390    1.637810    0.909220
     13          1           0        1.889280    2.201320   -0.695120
     14          1           0       -1.407020   -2.048640    1.111890
     15          8           0        0.860810   -1.029190    1.326380
     16          8           0        0.388080    3.292000    0.267910
     17          1           0        0.202870    3.742160   -0.572250
     18          8           0       -1.413560   -2.646600   -0.889610
     19          1           0       -1.179560   -3.524410   -0.552090
     20          8           0       -3.160030   -0.536210    0.546780
     21          1           0       -3.548360    0.355730    0.516450
     22          8           0       -2.120350    1.920180    0.086920
     23          1           0       -1.680290    2.691870    0.483650
     24          8           0        3.343500   -1.003680    1.154080
     25          1           0        3.340700   -0.550600   -0.252430
     26          1           0        2.337460   -1.072150    1.343200
     27          1           0        3.682020   -0.355270    1.788620
     28          8           0        3.078690   -0.295730   -1.210190
     29          1           0        1.653020   -0.126330   -1.168560
     30          1           0        3.586850    0.489870   -1.457240
 ---------------------------------------------------------------------
                    Distance matrix (angstroms):
                    1          2          3          4          5
     1  O    0.000000
     2  C    2.436178   0.000000
     3  C    2.567661   2.535842   0.000000
     4  C    2.715150   1.528021   1.534554   0.000000
     5  C    1.803506   2.803532   1.537759   2.591896   0.000000
     6  C    1.431016   1.540287   3.091054   2.526421   2.716165
     7  H    2.770533   2.151299   2.137251   1.101682   3.118863
     8  H    2.040506   2.130861   3.711163   2.886602   3.574169
     9  H    2.901698   1.096418   2.711652   2.147841   2.762240
    10  H    2.123826   3.772893   2.211451   3.414043   1.105776
    11  C    2.462789   2.541384   4.304530   3.865199   3.567163
    12  H    2.754600   2.781508   4.229822   4.058055   3.313834
    13  H    2.713232   3.501335   4.979945   4.679188   4.054052
    14  H    3.490489   3.025385   1.098430   2.127305   2.103283
    15  O    2.508967   2.988396   2.403067   3.229895   1.261154
    16  O    3.708478   2.922350   5.206204   4.416834   4.749747
    17  H    3.967336   3.323374   5.632746   4.712859   5.265223
    18  O    3.204945   3.668016   1.420333   2.383897   2.446843
    19  H    3.831671   4.433368   1.951494   3.203607   2.721284
    20  O    4.112721   2.415007   2.395259   1.418168   3.699213
    21  H    4.479442   2.414564   3.211851   1.919353   4.362037
    22  O    3.628124   1.427694   3.752395   2.376905   4.221950
    23  H    3.976178   1.930684   4.437023   3.205778   4.652464
    24  O    3.578804   4.988340   4.621309   5.476066   3.110332
    25  H    2.847250   4.772952   4.606754   5.282501   3.106855
    26  H    3.053930   4.170803   3.708417   4.581207   2.260276
    27  H    4.156340   5.260854   5.245653   5.953575   3.789523
    28  O    2.463899   4.655575   4.607851   5.127363   3.248537
    29  H    1.039815   3.321711   3.423945   3.742185   2.297006
    30  H    3.067196   5.088166   5.410477   5.749920   4.091464
                    6          7          8          9         10
     6  C    0.000000
     7  H    2.672906   0.000000
     8  H    1.100147   2.626480   0.000000
     9  H    2.178466   3.049517   3.031821   0.000000
    10  H    3.397544   3.686875   4.106859   3.844974   0.000000
    11  C    1.532625   4.171711   2.162853   2.654390   4.228864
    12  H    2.161017   4.598409   3.066261   2.457494   4.037442
    13  H    2.181960   4.821766   2.530321   3.700848   4.471302
    14  H    3.871162   2.967459   4.597770   2.849497   2.830685
    15  O    3.022637   3.995933   4.069491   2.489847   2.057797
    16  O    2.438530   4.726074   2.698257   3.018795   5.532175
    17  H    2.676657   4.808437   2.528883   3.684378   5.966238
    18  O    3.993142   2.376559   4.344242   4.062229   2.506783
    19  H    4.753953   3.331002   5.205777   4.656967   2.567779
    20  O    3.769409   2.080898   4.079076   2.714344   4.559052
    21  H    3.831524   2.396691   3.997571   2.799666   5.273881
    22  O    2.426047   2.687821   2.476101   2.080125   5.161069
    23  H    2.618991   3.582609   2.741713   2.247012   5.614643
    24  O    4.324482   6.005957   5.263242   4.576620   3.038954
    25  H    3.719616   5.559670   4.451185   4.676467   2.852976
    26  H    3.747807   5.206858   4.762485   3.699518   2.445931
    27  H    4.638600   6.557270   5.603785   4.723958   3.901712
    28  O    3.392299   5.206180   3.907941   4.793569   2.921797
    29  H    2.084425   3.790618   2.633887   3.631021   2.285167
    30  H    3.696435   5.786741   4.083891   5.247107   3.865626
                   11         12         13         14         15
    11  C    0.000000
    12  H    1.092843   0.000000
    13  H    1.100124   1.775805   0.000000
    14  H    4.897436   4.624276   5.673891   0.000000
    15  O    3.368987   2.748412   3.947203   2.495664   0.000000
    16  O    1.429856   2.031344   2.090601   5.697115   4.473982
    17  H    1.956191   2.828876   2.287633   6.241910   5.177206
    18  O    5.354457   5.420458   5.869319   2.088923   3.563620
    19  H    6.011315   5.943226   6.497863   2.235725   3.730668
    20  O    4.948224   5.044394   5.876386   2.383241   4.125283
    21  H    4.902614   5.104999   5.868734   3.274276   4.691990
    22  O    3.145219   3.604177   4.094845   4.160641   4.372912
    23  H    2.824929   3.262140   3.791038   4.789760   4.584067
    24  O    4.015873   3.301971   3.975716   4.864274   2.488792
    25  H    3.489593   3.161195   3.142556   5.162009   2.978514
    26  H    3.656960   2.907569   3.882167   3.876618   1.477371
    27  H    4.024528   3.171282   3.989866   5.405904   2.937186
    28  O    3.331169   3.335401   2.813406   5.346620   3.448354
    29  H    2.529424   2.739586   2.387031   4.273122   2.769021
    30  H    3.320246   3.435056   2.528168   6.163051   4.181791
                   16         17         18         19         20
    16  O    0.000000
    17  H    0.970987   0.000000
    18  O    6.312902   6.597713   0.000000
    19  H    7.042254   7.396929   0.969137   0.000000
    20  O    5.227049   5.555697   3.093076   3.749549   0.000000
    21  H    4.917216   5.169613   3.943141   4.669955   0.973282
    22  O    2.864763   3.025139   4.723203   5.562102   2.706706
    23  H    2.164452   2.400901   5.518718   6.321837   3.551636
    24  O    5.288920   5.946997   5.431894   5.451896   6.548530
    25  H    4.873838   5.326918   5.234711   5.419049   6.549690
    26  H    4.899198   5.603838   4.640526   4.687764   5.580673
    27  H    5.144432   5.870871   6.195809   6.257582   6.956188
    28  O    4.721861   4.998186   5.080322   5.384251   6.485862
    29  H    3.917716   4.174175   3.979131   4.466597   5.125997
    30  H    4.589140   4.776182   5.929903   6.297016   7.112617
                   21         22         23         24         25
    21  H    0.000000
    22  O    2.161299   0.000000
    23  H    2.991373   0.972910   0.000000
    24  O    7.053531   6.288199   6.272562   0.000000
    25  H    6.990834   6.003581   6.022106   1.477687   0.000000
    26  H    6.112711   5.514014   5.572162   1.025949   1.955643
    27  H    7.375794   6.460724   6.304156   0.968335   2.078590
    28  O    6.879206   5.798514   5.868794   2.482154   1.025140
    29  H    5.488715   4.472444   4.667227   3.003685   1.966612
    30  H    7.404368   6.082956   6.029811   3.018096   1.610818
                   26         27         28         29         30
    26  H    0.000000
    27  H    1.587500   0.000000
    28  O    2.769847   3.059479   0.000000
    29  H    2.769832   3.593629   1.436302   0.000000
    30  H    3.441416   3.355432   0.967692   2.050058   0.000000
 Stoichiometry    C6H16O8
 Framework group  C1[X(C6H16O8)]
 Deg. of freedom    84
 Full point group                 C1      NOp   1
 Largest Abelian subgroup         C1      NOp   1
 Largest concise Abelian subgroup C1      NOp   1
                         Standard orientation:                         
 ---------------------------------------------------------------------
 Center     Atomic      Atomic             Coordinates (Angstroms)
 Number     Number       Type             X           Y           Z
 ---------------------------------------------------------------------
      1          8           0        0.590392   -0.186598   -1.020557
      2          6           0       -1.232027    0.826264    0.239548
      3          6           0       -1.143098   -1.704812    0.112103
      4          6           0       -1.974352   -0.445658   -0.167903
      5          6           0        0.372794   -1.472460    0.225173
      6          6           0       -0.011085    1.063392   -0.669053
      7          1           0       -2.161024   -0.413425   -1.253176
      8          1           0       -0.397631    1.501716   -1.601136
      9          1           0       -0.915060    0.729548    1.284685
     10          1           0        0.957157   -2.181311   -0.390287
     11          6           0        0.989080    2.031909   -0.028285
     12          1           0        1.346539    1.618375    0.918034
     13          1           0        1.858460    2.188348   -0.684011
     14          1           0       -1.443217   -2.064836    1.105512
     15          8           0        0.826225   -1.049711    1.323442
     16          8           0        0.359356    3.276895    0.284680
     17          1           0        0.174392    3.731107   -0.553350
     18          8           0       -1.451641   -2.653765   -0.898657
     19          1           0       -1.218771   -3.533431   -0.565211
     20          8           0       -3.194271   -0.547290    0.548106
     21          1           0       -3.581297    0.345350    0.521989
     22          8           0       -2.151190    1.909609    0.098785
     23          1           0       -1.709791    2.678854    0.498763
     24          8           0        3.308863   -1.027091    1.150002
     25          1           0        3.306031   -0.567677   -0.254452
     26          1           0        2.302818   -1.094927    1.339321
     27          1           0        3.648659   -0.382046    1.787283
     28          8           0        3.043919   -0.308110   -1.210922
     29          1           0        1.618522   -0.136795   -1.167808
     30          1           0        3.553117    0.477844   -1.454689
 ---------------------------------------------------------------------
 Rotational constants (GHZ):      0.7138427      0.5510487      0.3723364
 Standard basis: 6-31G(d) (6D, 7F)
 There are   242 symmetry adapted cartesian basis functions of A   symmetry.
 There are   242 symmetry adapted basis functions of A   symmetry.
   242 basis functions,   456 primitive gaussians,   242 cartesian basis functions
    58 alpha electrons       58 beta electrons
       nuclear repulsion energy      1114.3598250433 Hartrees.
 NAtoms=   30 NActive=   30 NUniq=   30 SFac= 1.00D+00 NAtFMM=   60 NAOKFM=F Big=F
 Integral buffers will be    131072 words long.
 Raffenetti 2 integral format.
 Two-electron integral symmetry is turned on.
 One-electron integrals computed using PRISM.
 NBasis=   242 RedAO= T EigKep=  1.32D-03  NBF=   242
 NBsUse=   242 1.00D-06 EigRej= -1.00D+00 NBFU=   242
 ExpMin= 1.61D-01 ExpMax= 5.48D+03 ExpMxC= 8.25D+02 IAcc=1 IRadAn=         1 AccDes= 0.00D+00
 Harris functional with IExCor=  402 and IRadAn=       1 diagonalized for initial guess.
 HarFok:  IExCor=  402 AccDes= 0.00D+00 IRadAn=         1 IDoV= 1 UseB2=F ITyADJ=14
 ICtDFT=  3500011 ScaDFX=  1.000000  1.000000  1.000000  1.000000
 FoFCou: FMM=F IPFlag=           0 FMFlag=      100000 FMFlg1=           0
         NFxFlg=           0 DoJE=T BraDBF=F KetDBF=T FulRan=T
         wScrn=  0.000000 ICntrl=     500 IOpCl=  0 I1Cent=   200000004 NGrid=           0
         NMat0=    1 NMatS0=      1 NMatT0=    0 NMatD0=    1 NMtDS0=    0 NMtDT0=    0
 Petite list used in FoFCou.
 Requested convergence on RMS density matrix=1.00D-08 within 128 cycles.
 Requested convergence on MAX density matrix=1.00D-06.
 Requested convergence on             energy=1.00D-06.
 No special actions if energy rises.
 Integral accuracy reduced to 1.0D-05 until final iterations.
 Initial convergence to 1.0D-05 achieved.  Increase integral accuracy.
 SCF Done:  E(RB3LYP) =  -839.962973912     A.U. after   14 cycles
            NFock= 14  Conv=0.59D-08     -V/T= 2.0083

 **********************************************************************

            Population analysis using the SCF density.

 **********************************************************************

 Orbital symmetries:
       Occupied  (A) (A) (A) (A) (A) (A) (A) (A) (A) (A) (A) (A)
                 (A) (A) (A) (A) (A) (A) (A) (A) (A) (A) (A) (A)
                 (A) (A) (A) (A) (A) (A) (A) (A) (A) (A) (A) (A)
                 (A) (A) (A) (A) (A) (A) (A) (A) (A) (A) (A) (A)
                 (A) (A) (A) (A) (A) (A) (A) (A) (A) (A)
       Virtual   (A) (A) (A) (A) (A) (A) (A) (A) (A) (A) (A) (A)
                 (A) (A) (A) (A) (A) (A) (A) (A) (A) (A) (A) (A)
                 (A) (A) (A) (A) (A) (A) (A) (A) (A) (A) (A) (A)
                 (A) (A) (A) (A) (A) (A) (A) (A) (A) (A) (A) (A)
                 (A) (A) (A) (A) (A) (A) (A) (A) (A) (A) (A) (A)
                 (A) (A) (A) (A) (A) (A) (A) (A) (A) (A) (A) (A)
                 (A) (A) (A) (A) (A) (A) (A) (A) (A) (A) (A) (A)
                 (A) (A) (A) (A) (A) (A) (A) (A) (A) (A) (A) (A)
                 (A) (A) (A) (A) (A) (A) (A) (A) (A) (A) (A) (A)
                 (A) (A) (A) (A) (A) (A) (A) (A) (A) (A) (A) (A)
                 (A) (A) (A) (A) (A) (A) (A) (A) (A) (A) (A) (A)
                 (A) (A) (A) (A) (A) (A) (A) (A) (A) (A) (A) (A)
                 (A) (A) (A) (A) (A) (A) (A) (A) (A) (A) (A) (A)
                 (A) (A) (A) (A) (A) (A) (A) (A) (A) (A) (A) (A)
                 (A) (A) (A) (A) (A) (A) (A) (A) (A) (A) (A) (A)
                 (A) (A) (A) (A)
 The electronic state is 1-A.
 Alpha  occ. eigenvalues --  -19.18256 -19.17963 -19.15943 -19.15355 -19.14408
 Alpha  occ. eigenvalues --  -19.14112 -19.13080 -19.11347 -10.27984 -10.25650
 Alpha  occ. eigenvalues --  -10.25456 -10.23756 -10.23283 -10.23093  -1.06629
 Alpha  occ. eigenvalues --   -1.05042  -1.03338  -1.02255  -1.02020  -1.01116
 Alpha  occ. eigenvalues --   -0.99865  -0.98453  -0.78517  -0.75481  -0.69241
 Alpha  occ. eigenvalues --   -0.63919  -0.62652  -0.56380  -0.56158  -0.55347
 Alpha  occ. eigenvalues --   -0.53769  -0.53474  -0.52626  -0.51795  -0.48542
 Alpha  occ. eigenvalues --   -0.46892  -0.45905  -0.44855  -0.43426  -0.42565
 Alpha  occ. eigenvalues --   -0.42250  -0.41435  -0.39677  -0.38683  -0.38120
 Alpha  occ. eigenvalues --   -0.36667  -0.36021  -0.34923  -0.34322  -0.32667
 Alpha  occ. eigenvalues --   -0.31601  -0.30397  -0.29976  -0.28484  -0.27651
 Alpha  occ. eigenvalues --   -0.26448  -0.25776  -0.23652
 Alpha virt. eigenvalues --    0.02716   0.04110   0.04414   0.07810   0.08321
 Alpha virt. eigenvalues --    0.09058   0.11094   0.12638   0.13249   0.14154
 Alpha virt. eigenvalues --    0.15183   0.16472   0.17469   0.17785   0.19661
 Alpha virt. eigenvalues --    0.20031   0.20854   0.22576   0.24075   0.25664
 Alpha virt. eigenvalues --    0.26033   0.28130   0.28400   0.30127   0.31619
 Alpha virt. eigenvalues --    0.31676   0.32314   0.37960   0.51440   0.52322
 Alpha virt. eigenvalues --    0.53972   0.55275   0.57680   0.59607   0.59740
 Alpha virt. eigenvalues --    0.60788   0.62345   0.63227   0.66975   0.68087
 Alpha virt. eigenvalues --    0.69815   0.71132   0.72405   0.72953   0.73663
 Alpha virt. eigenvalues --    0.76181   0.77126   0.77888   0.79277   0.80585
 Alpha virt. eigenvalues --    0.81909   0.82279   0.83449   0.83832   0.85111
 Alpha virt. eigenvalues --    0.85135   0.85632   0.86688   0.88683   0.89305
 Alpha virt. eigenvalues --    0.90385   0.91911   0.94444   0.95056   0.97060
 Alpha virt. eigenvalues --    0.97663   0.98366   1.00202   1.01643   1.02592
 Alpha virt. eigenvalues --    1.02734   1.04651   1.06351   1.07392   1.09090
 Alpha virt. eigenvalues --    1.11991   1.12761   1.13822   1.14564   1.15480
 Alpha virt. eigenvalues --    1.17897   1.19863   1.21631   1.24627   1.27732
 Alpha virt. eigenvalues --    1.28654   1.30784   1.31814   1.35763   1.38423
 Alpha virt. eigenvalues --    1.40714   1.43297   1.45712   1.46361   1.52644
 Alpha virt. eigenvalues --    1.54799   1.55358   1.56768   1.58253   1.58603
 Alpha virt. eigenvalues --    1.60881   1.62042   1.66808   1.67783   1.70075
 Alpha virt. eigenvalues --    1.70695   1.72211   1.72922   1.73024   1.73697
 Alpha virt. eigenvalues --    1.76159   1.76876   1.78285   1.79286   1.79710
 Alpha virt. eigenvalues --    1.81605   1.83174   1.84198   1.85605   1.86697
 Alpha virt. eigenvalues --    1.88590   1.90064   1.90842   1.92227   1.95425
 Alpha virt. eigenvalues --    1.99284   2.00639   2.01323   2.04021   2.04468
 Alpha virt. eigenvalues --    2.08135   2.09922   2.10881   2.13996   2.14859
 Alpha virt. eigenvalues --    2.18306   2.20633   2.24288   2.26011   2.28088
 Alpha virt. eigenvalues --    2.32118   2.32816   2.37801   2.39119   2.40830
 Alpha virt. eigenvalues --    2.43722   2.45941   2.48534   2.49883   2.52460
 Alpha virt. eigenvalues --    2.54520   2.55602   2.57170   2.58233   2.61654
 Alpha virt. eigenvalues --    2.62243   2.67004   2.68663   2.70517   2.75590
 Alpha virt. eigenvalues --    2.76006   2.78758   2.82636   2.86474   2.89622
 Alpha virt. eigenvalues --    2.95660   2.96865   3.00600   3.06173   3.09771
 Alpha virt. eigenvalues --    3.73261   3.75891   3.79660   3.86552   3.88967
 Alpha virt. eigenvalues --    3.93868   4.08976   4.13313   4.24847   4.37906
 Alpha virt. eigenvalues --    4.44769   4.50704   4.65487   4.82788
          Condensed to atoms (all electrons):
               1          2          3          4          5          6
     1  O    8.570432  -0.033440  -0.016202  -0.002234   0.030557   0.140963
     2  C   -0.033440   5.036492  -0.026100   0.314070   0.008124   0.287995
     3  C   -0.016202  -0.026100   5.000987   0.328537   0.299201  -0.012489
     4  C   -0.002234   0.314070   0.328537   4.849356  -0.041147  -0.032317
     5  C    0.030557   0.008124   0.299201  -0.041147   4.877039  -0.014574
     6  C    0.140963   0.287995  -0.012489  -0.032317  -0.014574   5.015735
     7  H    0.001243  -0.057392  -0.053765   0.356457   0.000041  -0.001283
     8  H   -0.033116  -0.050101   0.000265  -0.006452   0.001259   0.361311
     9  H    0.002059   0.347141  -0.008893  -0.036971  -0.002451  -0.048878
    10  H   -0.029732   0.000495  -0.077080   0.002969   0.342898   0.003656
    11  C   -0.021763  -0.028999  -0.000158   0.003455  -0.000243   0.332792
    12  H    0.000489  -0.010008  -0.000005  -0.000064   0.001067  -0.035398
    13  H   -0.000103   0.005361  -0.000013  -0.000094  -0.000078  -0.048733
    14  H    0.002227  -0.002948   0.344220  -0.026937  -0.059180   0.000605
    15  O   -0.052316  -0.004376  -0.049699   0.001009   0.326795   0.008505
    16  O    0.001531   0.002059  -0.000004   0.000163   0.000022  -0.042022
    17  H    0.000024  -0.002143   0.000001  -0.000011  -0.000002  -0.000963
    18  O    0.001699   0.002475   0.208386  -0.037856  -0.038807   0.000228
    19  H   -0.000104  -0.000288  -0.023369   0.006884  -0.000770  -0.000004
    20  O    0.000033  -0.030191  -0.039485   0.241392   0.002238   0.003309
    21  H   -0.000018  -0.014451   0.006717  -0.033196  -0.000265   0.000959
    22  O    0.001397   0.210139   0.002488  -0.038105   0.000116  -0.043019
    23  H    0.000005  -0.022179  -0.000238   0.005587   0.000032  -0.003622
    24  O   -0.000676  -0.000008  -0.000077   0.000000   0.007972  -0.000044
    25  H    0.005008   0.000015   0.000079  -0.000002   0.000462  -0.000262
    26  H    0.001866   0.000039   0.001688  -0.000051  -0.011152  -0.000310
    27  H   -0.000000   0.000001  -0.000003   0.000000  -0.000324  -0.000021
    28  O   -0.073763  -0.000062   0.000001   0.000004   0.001821  -0.000402
    29  H    0.148276   0.002764   0.001631   0.000059  -0.001467  -0.010813
    30  H    0.003506   0.000016  -0.000002  -0.000000  -0.000006  -0.000442
               7          8          9         10         11         12
     1  O    0.001243  -0.033116   0.002059  -0.029732  -0.021763   0.000489
     2  C   -0.057392  -0.050101   0.347141   0.000495  -0.028999  -0.010008
     3  C   -0.053765   0.000265  -0.008893  -0.077080  -0.000158  -0.000005
     4  C    0.356457  -0.006452  -0.036971   0.002969   0.003455  -0.000064
     5  C    0.000041   0.001259  -0.002451   0.342898  -0.000243   0.001067
     6  C   -0.001283   0.361311  -0.048878   0.003656   0.332792  -0.035398
     7  H    0.635844   0.004641   0.007097  -0.000233   0.000102   0.000009
     8  H    0.004641   0.624891   0.006828  -0.000182  -0.055920   0.005292
     9  H    0.007097   0.006828   0.601438   0.000441  -0.008365   0.004852
    10  H   -0.000233  -0.000182   0.000441   0.662746  -0.000183   0.000077
    11  C    0.000102  -0.055920  -0.008365  -0.000183   4.968540   0.364067
    12  H    0.000009   0.005292   0.004852   0.000077   0.364067   0.545984
    13  H    0.000008  -0.005857   0.000121   0.000008   0.351274  -0.040216
    14  H    0.006862   0.000019   0.003647   0.004806   0.000016   0.000002
    15  O    0.000025  -0.000151   0.013077  -0.044701  -0.003363   0.007389
    16  O   -0.000012   0.000784   0.000139   0.000000   0.219021  -0.030644
    17  H    0.000001   0.005872   0.000186  -0.000000  -0.029682   0.006579
    18  O    0.002148   0.000019   0.000041   0.010719  -0.000003   0.000000
    19  H   -0.000088   0.000000   0.000010   0.002471  -0.000000  -0.000000
    20  O   -0.041945  -0.000065   0.000944  -0.000071  -0.000048  -0.000002
    21  H   -0.001025   0.000013   0.000342   0.000006  -0.000017  -0.000001
    22  O   -0.001482   0.005450  -0.036299   0.000003  -0.000975   0.000138
    23  H   -0.000269  -0.000473  -0.005169   0.000000  -0.003559  -0.000124
    24  O   -0.000000  -0.000001   0.000009   0.003497  -0.000465   0.002291
    25  H   -0.000000   0.000010  -0.000006  -0.000808   0.000131   0.000354
    26  H    0.000002   0.000005  -0.000082  -0.007092   0.000300  -0.000037
    27  H    0.000000   0.000000  -0.000007  -0.000149   0.000033   0.000600
    28  O    0.000001  -0.000083   0.000002   0.001501   0.002386  -0.000244
    29  H   -0.000077  -0.001727  -0.000285  -0.001402  -0.000720  -0.000180
    30  H   -0.000000   0.000020  -0.000001  -0.000031   0.000083   0.000105
              13         14         15         16         17         18
     1  O   -0.000103   0.002227  -0.052316   0.001531   0.000024   0.001699
     2  C    0.005361  -0.002948  -0.004376   0.002059  -0.002143   0.002475
     3  C   -0.000013   0.344220  -0.049699  -0.000004   0.000001   0.208386
     4  C   -0.000094  -0.026937   0.001009   0.000163  -0.000011  -0.037856
     5  C   -0.000078  -0.059180   0.326795   0.000022  -0.000002  -0.038807
     6  C   -0.048733   0.000605   0.008505  -0.042022  -0.000963   0.000228
     7  H    0.000008   0.006862   0.000025  -0.000012   0.000001   0.002148
     8  H   -0.005857   0.000019  -0.000151   0.000784   0.005872   0.000019
     9  H    0.000121   0.003647   0.013077   0.000139   0.000186   0.000041
    10  H    0.000008   0.004806  -0.044701   0.000000  -0.000000   0.010719
    11  C    0.351274   0.000016  -0.003363   0.219021  -0.029682  -0.000003
    12  H   -0.040216   0.000002   0.007389  -0.030644   0.006579   0.000000
    13  H    0.644399  -0.000000   0.000128  -0.027817  -0.008513  -0.000000
    14  H   -0.000000   0.598426   0.005576  -0.000000   0.000000  -0.031626
    15  O    0.000128   0.005576   8.326019   0.000019  -0.000003   0.001692
    16  O   -0.027817  -0.000000   0.000019   8.231973   0.233536   0.000000
    17  H   -0.008513   0.000000  -0.000003   0.233536   0.393319   0.000000
    18  O   -0.000000  -0.031626   0.001692   0.000000   0.000000   8.275071
    19  H    0.000000  -0.007674  -0.000018   0.000000  -0.000000   0.231936
    20  O    0.000000   0.001199  -0.000035  -0.000000   0.000000   0.001241
    21  H    0.000001  -0.000024   0.000006   0.000006  -0.000001  -0.000175
    22  O   -0.000226  -0.000104   0.000066  -0.009834   0.002521  -0.000007
    23  H    0.000402   0.000006   0.000001   0.036515  -0.002135   0.000001
    24  O   -0.000050   0.000003  -0.071027   0.000001  -0.000000   0.000000
    25  H   -0.000098  -0.000001   0.002437  -0.000000   0.000000  -0.000001
    26  H   -0.000013  -0.000055   0.103929  -0.000000   0.000000  -0.000033
    27  H    0.000000  -0.000001   0.003428   0.000000   0.000000  -0.000000
    28  O    0.004197   0.000001  -0.001068   0.000021   0.000002   0.000000
    29  H    0.004465  -0.000085   0.004271  -0.000005  -0.000030  -0.000084
    30  H    0.003482  -0.000000   0.000025  -0.000002  -0.000001   0.000000
              19         20         21         22         23         24
     1  O   -0.000104   0.000033  -0.000018   0.001397   0.000005  -0.000676
     2  C   -0.000288  -0.030191  -0.014451   0.210139  -0.022179  -0.000008
     3  C   -0.023369  -0.039485   0.006717   0.002488  -0.000238  -0.000077
     4  C    0.006884   0.241392  -0.033196  -0.038105   0.005587   0.000000
     5  C   -0.000770   0.002238  -0.000265   0.000116   0.000032   0.007972
     6  C   -0.000004   0.003309   0.000959  -0.043019  -0.003622  -0.000044
     7  H   -0.000088  -0.041945  -0.001025  -0.001482  -0.000269  -0.000000
     8  H    0.000000  -0.000065   0.000013   0.005450  -0.000473  -0.000001
     9  H    0.000010   0.000944   0.000342  -0.036299  -0.005169   0.000009
    10  H    0.002471  -0.000071   0.000006   0.000003   0.000000   0.003497
    11  C   -0.000000  -0.000048  -0.000017  -0.000975  -0.003559  -0.000465
    12  H   -0.000000  -0.000002  -0.000001   0.000138  -0.000124   0.002291
    13  H    0.000000   0.000000   0.000001  -0.000226   0.000402  -0.000050
    14  H   -0.007674   0.001199  -0.000024  -0.000104   0.000006   0.000003
    15  O   -0.000018  -0.000035   0.000006   0.000066   0.000001  -0.071027
    16  O    0.000000  -0.000000   0.000006  -0.009834   0.036515   0.000001
    17  H   -0.000000   0.000000  -0.000001   0.002521  -0.002135  -0.000000
    18  O    0.231936   0.001241  -0.000175  -0.000007   0.000001   0.000000
    19  H    0.396116  -0.000220   0.000024   0.000001  -0.000000   0.000000
    20  O   -0.000220   8.285182   0.234826  -0.008228   0.000150  -0.000000
    21  H    0.000024   0.234826   0.370754   0.027748  -0.000683   0.000000
    22  O    0.000001  -0.008228   0.027748   8.330052   0.225702   0.000000
    23  H   -0.000000   0.000150  -0.000683   0.225702   0.361175  -0.000000
    24  O    0.000000  -0.000000   0.000000   0.000000  -0.000000   8.460263
    25  H   -0.000000   0.000000   0.000000  -0.000000   0.000000   0.106756
    26  H   -0.000005   0.000000  -0.000000  -0.000000  -0.000000   0.162216
    27  H    0.000000   0.000000  -0.000000  -0.000000   0.000000   0.234263
    28  O   -0.000000   0.000000  -0.000000   0.000000  -0.000000  -0.073644
    29  H    0.000000   0.000001   0.000000  -0.000023   0.000005   0.002451
    30  H    0.000000   0.000000   0.000000  -0.000000   0.000000   0.003250
              25         26         27         28         29         30
     1  O    0.005008   0.001866  -0.000000  -0.073763   0.148276   0.003506
     2  C    0.000015   0.000039   0.000001  -0.000062   0.002764   0.000016
     3  C    0.000079   0.001688  -0.000003   0.000001   0.001631  -0.000002
     4  C   -0.000002  -0.000051   0.000000   0.000004   0.000059  -0.000000
     5  C    0.000462  -0.011152  -0.000324   0.001821  -0.001467  -0.000006
     6  C   -0.000262  -0.000310  -0.000021  -0.000402  -0.010813  -0.000442
     7  H   -0.000000   0.000002   0.000000   0.000001  -0.000077  -0.000000
     8  H    0.000010   0.000005   0.000000  -0.000083  -0.001727   0.000020
     9  H   -0.000006  -0.000082  -0.000007   0.000002  -0.000285  -0.000001
    10  H   -0.000808  -0.007092  -0.000149   0.001501  -0.001402  -0.000031
    11  C    0.000131   0.000300   0.000033   0.002386  -0.000720   0.000083
    12  H    0.000354  -0.000037   0.000600  -0.000244  -0.000180   0.000105
    13  H   -0.000098  -0.000013   0.000000   0.004197   0.004465   0.003482
    14  H   -0.000001  -0.000055  -0.000001   0.000001  -0.000085  -0.000000
    15  O    0.002437   0.103929   0.003428  -0.001068   0.004271   0.000025
    16  O   -0.000000  -0.000000   0.000000   0.000021  -0.000005  -0.000002
    17  H    0.000000   0.000000   0.000000   0.000002  -0.000030  -0.000001
    18  O   -0.000001  -0.000033  -0.000000   0.000000  -0.000084   0.000000
    19  H   -0.000000  -0.000005   0.000000  -0.000000   0.000000   0.000000
    20  O    0.000000   0.000000   0.000000   0.000000   0.000001   0.000000
    21  H    0.000000  -0.000000  -0.000000  -0.000000   0.000000   0.000000
    22  O   -0.000000  -0.000000  -0.000000   0.000000  -0.000023  -0.000000
    23  H    0.000000  -0.000000   0.000000  -0.000000   0.000005   0.000000
    24  O    0.106756   0.162216   0.234263  -0.073644   0.002451   0.003250
    25  H    0.295495  -0.009441  -0.005383   0.165566  -0.007500  -0.003911
    26  H   -0.009441   0.308206  -0.008410   0.005864  -0.000425  -0.000199
    27  H   -0.005383  -0.008410   0.381696   0.003238  -0.000014  -0.000253
    28  O    0.165566   0.005864   0.003238   8.453763   0.111585   0.233593
    29  H   -0.007500  -0.000425  -0.000014   0.111585   0.274882  -0.006920
    30  H   -0.003911  -0.000199  -0.000253   0.233593  -0.006920   0.370068
 Mulliken charges:
               1
     1  O   -0.647847
     2  C    0.065501
     3  C    0.113381
     4  C    0.145495
     5  C    0.270820
     6  C    0.139539
     7  H    0.143092
     8  H    0.137449
     9  H    0.159033
    10  H    0.125370
    11  C   -0.087737
    12  H    0.177627
    13  H    0.117966
    14  H    0.161020
    15  O   -0.577638
    16  O   -0.615449
    17  H    0.401441
    18  O   -0.627065
    19  H    0.395099
    20  O   -0.650226
    21  H    0.408454
    22  O   -0.667519
    23  H    0.408871
    24  O   -0.836980
    25  H    0.451101
    26  H    0.453190
    27  H    0.391304
    28  O   -0.834280
    29  H    0.481366
    30  H    0.397621
 Sum of Mulliken charges =  -0.00000
 Mulliken charges with hydrogens summed into heavy atoms:
               1
     1  O   -0.166480
     2  C    0.224534
     3  C    0.274400
     4  C    0.288586
     5  C    0.396190
     6  C    0.276989
    11  C    0.207857
    15  O   -0.577638
    16  O   -0.214008
    18  O   -0.231966
    20  O   -0.241772
    22  O   -0.258648
    24  O    0.007514
    28  O    0.014442
 Electronic spatial extent (au):  <R**2>=           3110.3103
 Charge=             -0.0000 electrons
 Dipole moment (field-independent basis, Debye):
    X=              3.2581    Y=              3.8613    Z=             -0.7818  Tot=              5.1123
 Quadrupole moment (field-independent basis, Debye-Ang):
   XX=            -85.6667   YY=            -73.6803   ZZ=            -85.9460
   XY=              5.5005   XZ=             -1.0394   YZ=             -5.9501
 Traceless Quadrupole moment (field-independent basis, Debye-Ang):
   XX=             -3.9024   YY=              8.0840   ZZ=             -4.1816
   XY=              5.5005   XZ=             -1.0394   YZ=             -5.9501
 Octapole moment (field-independent basis, Debye-Ang**2):
  XXX=             57.4510  YYY=            -15.1368  ZZZ=              5.8047  XYY=             -8.0702
  XXY=             49.9300  XXZ=              5.8787  XZZ=             13.9531  YZZ=             17.5175
  YYZ=            -16.6845  XYZ=             -3.2737
 Hexadecapole moment (field-independent basis, Debye-Ang**3):
 XXXX=          -1747.5666 YYYY=          -1122.5844 ZZZZ=           -375.5051 XXXY=             58.2987
 XXXZ=             11.3154 YYYX=              0.2779 YYYZ=            -67.3951 ZZZX=             20.4966
 ZZZY=             -5.8647 XXYY=           -586.2924 XXZZ=           -334.3474 YYZZ=           -301.9521
 XXYZ=              3.9289 YYXZ=            -40.1948 ZZXY=              8.6087
 N-N= 1.114359825043D+03 E-N=-4.201535726826D+03  KE= 8.330379355021D+02
 Calling FoFJK, ICntrl=      2127 FMM=F ISym2X=0 I1Cent= 0 IOpClX= 0 NMat=1 NMatS=1 NMatT=0.
 ***** Axes restored to original set *****
 -------------------------------------------------------------------
 Center     Atomic                   Forces (Hartrees/Bohr)
 Number     Number              X              Y              Z
 -------------------------------------------------------------------
      1        8          -0.005983005    0.006462284   -0.010389476
      2        6           0.000338485    0.000458410   -0.000444156
      3        6          -0.002439833   -0.002292861    0.001002815
      4        6           0.000505847    0.000001924   -0.000267352
      5        6          -0.003258105   -0.009207884    0.009213858
      6        6          -0.001246892    0.003248045   -0.001533126
      7        1           0.000057200   -0.000061523   -0.000013947
      8        1          -0.000315619    0.000783254    0.000188310
      9        1           0.000050555    0.000035003   -0.000036683
     10        1           0.000060366   -0.000108085    0.000392820
     11        6           0.000180716    0.000471922   -0.000066555
     12        1          -0.000003870   -0.000004218   -0.000013290
     13        1           0.000032796    0.000011739    0.000017456
     14        1          -0.000744565   -0.000173149   -0.000071003
     15        8          -0.005894788   -0.000665703    0.003436635
     16        8           0.000231217    0.000542799    0.000542691
     17        1           0.000056499    0.000044338    0.000030058
     18        8          -0.000185293   -0.000703585   -0.001244551
     19        1          -0.000131596   -0.000094574   -0.000138618
     20        8           0.000339617    0.000353267   -0.000236877
     21        1           0.000047538    0.000025951   -0.000015869
     22        8          -0.000502276   -0.000094118    0.000478983
     23        1          -0.000005577    0.000002557   -0.000017673
     24        8           0.010161509   -0.001860732    0.008491772
     25        1           0.000611783   -0.000036758   -0.000417445
     26        1           0.000627551   -0.000237996    0.000521254
     27        1           0.000463578   -0.000293459    0.000765537
     28        8           0.007648698    0.003203156   -0.009261750
     29        1          -0.001863216    0.000474723   -0.000432098
     30        1           0.001160679   -0.000284729   -0.000481718
 -------------------------------------------------------------------
 Cartesian Forces:  Max     0.010389476 RMS     0.002956603

 GradGradGradGradGradGradGradGradGradGradGradGradGradGradGradGradGradGrad
 Berny optimization.
 FormGI is forming the generalized inverse of G from B-inverse, IUseBI=4.
 Internal  Forces:  Max     0.014286885 RMS     0.004188953
 Search for a local minimum.
 Step number   1 out of a maximum of  180
 All quantities printed in internal units (Hartrees-Bohrs-Radians)
 Mixed Optimization -- RFO/linear search
 Second derivative matrix not updated -- first step.
 ITU=  0
     Eigenvalues ---    0.00230   0.00239   0.00263   0.00321   0.00334
     Eigenvalues ---    0.00423   0.00469   0.00512   0.00935   0.01297
     Eigenvalues ---    0.01325   0.01398   0.01423   0.01451   0.01975
     Eigenvalues ---    0.02785   0.03348   0.04064   0.04231   0.04362
     Eigenvalues ---    0.04582   0.04771   0.04853   0.04936   0.05134
     Eigenvalues ---    0.05220   0.05599   0.05773   0.06847   0.07120
     Eigenvalues ---    0.07149   0.07372   0.07881   0.09062   0.09976
     Eigenvalues ---    0.10744   0.10917   0.11498   0.12191   0.12405
     Eigenvalues ---    0.13473   0.13839   0.14888   0.15158   0.15826
     Eigenvalues ---    0.16000   0.16000   0.16000   0.16000   0.16372
     Eigenvalues ---    0.16770   0.17594   0.18394   0.19476   0.20073
     Eigenvalues ---    0.20453   0.22029   0.27762   0.28497   0.28750
     Eigenvalues ---    0.29179   0.29325   0.33045   0.33497   0.33666
     Eigenvalues ---    0.33668   0.33856   0.34081   0.34478   0.40080
     Eigenvalues ---    0.40715   0.41010   0.41322   0.42410   0.42737
     Eigenvalues ---    0.42910   0.42965   0.52712   0.52787   0.53176
     Eigenvalues ---    0.53554   0.53719   0.53851   0.77963
 RFO step:  Lambda=-2.66913532D-02 EMin= 2.30275748D-03
 Linear search not attempted -- first point.
 Maximum step size (   0.300) exceeded in Quadratic search.
    -- Step size scaled by   0.710
 Iteration  1 RMS(Cart)=  0.14197091 RMS(Int)=  0.00649385
 Iteration  2 RMS(Cart)=  0.01026271 RMS(Int)=  0.00224158
 Iteration  3 RMS(Cart)=  0.00017559 RMS(Int)=  0.00224129
 Iteration  4 RMS(Cart)=  0.00000203 RMS(Int)=  0.00224129
 Iteration  5 RMS(Cart)=  0.00000003 RMS(Int)=  0.00224129
 Variable       Old X    -DE/DX   Delta X   Delta X   Delta X     New X
                                 (Linear)    (Quad)   (Total)
    R1        2.70423   0.00085   0.00000  -0.00128  -0.00383   2.70040
    R2        1.96497   0.00737   0.00000   0.01321   0.01397   1.97894
    R3        2.88754   0.00461   0.00000   0.01512   0.01819   2.90573
    R4        2.91072   0.00729   0.00000   0.01747   0.01674   2.92746
    R5        2.07193  -0.00002   0.00000  -0.00005  -0.00005   2.07188
    R6        2.69795   0.00021   0.00000   0.00034   0.00034   2.69829
    R7        2.89989   0.00761   0.00000   0.01918   0.02040   2.92028
    R8        2.90594   0.00168   0.00000   0.00113   0.00006   2.90600
    R9        2.07573   0.00020   0.00000   0.00038   0.00038   2.07611
   R10        2.68404   0.00158   0.00000   0.00249   0.00249   2.68653
   R11        2.08188   0.00000   0.00000   0.00000   0.00000   2.08188
   R12        2.67995  -0.00049   0.00000  -0.00076  -0.00076   2.67919
   R13        2.08961  -0.00017   0.00000  -0.00034   0.00005   2.08966
   R14        2.38324   0.00363   0.00000   0.00158  -0.00139   2.38185
   R15        2.07898   0.00026   0.00000   0.00051   0.00051   2.07948
   R16        2.89624   0.00128   0.00000   0.00284   0.00309   2.89933
   R17        2.06517   0.00010   0.00000   0.00015   0.00047   2.06565
   R18        2.07893   0.00002   0.00000   0.00004   0.00004   2.07897
   R19        2.70204   0.00050   0.00000   0.00082   0.00082   2.70286
   R20        2.79183   0.01058   0.00000   0.04776   0.04745   2.83927
   R21        1.83490  -0.00001   0.00000  -0.00002  -0.00002   1.83488
   R22        1.83140   0.00001   0.00000   0.00001   0.00001   1.83141
   R23        1.83924   0.00001   0.00000   0.00001   0.00001   1.83925
   R24        1.83853  -0.00001   0.00000  -0.00001  -0.00001   1.83852
   R25        2.79242   0.01429   0.00000   0.07119   0.07206   2.86448
   R26        1.93876   0.01097   0.00000   0.01573   0.01537   1.95414
   R27        1.82989   0.00047   0.00000   0.00059   0.00059   1.83048
   R28        1.93723   0.01346   0.00000   0.02179   0.02272   1.95995
   R29        2.71422   0.01028   0.00000   0.04853   0.04864   2.76286
   R30        1.82867   0.00050   0.00000   0.00063   0.00063   1.82930
    A1        1.99165   0.01146   0.00000   0.02141   0.02353   2.01518
    A2        1.93471   0.00943   0.00000   0.05865   0.06159   1.99631
    A3        1.89779  -0.00579   0.00000  -0.01910  -0.01937   1.87842
    A4        1.86771   0.00034   0.00000  -0.01173  -0.01406   1.85365
    A5        1.92487   0.00189   0.00000   0.01232   0.00956   1.93444
    A6        1.91277  -0.00742   0.00000  -0.03273  -0.03156   1.88121
    A7        1.92521   0.00157   0.00000  -0.00788  -0.00759   1.91761
    A8        2.00802   0.00250   0.00000   0.02567   0.02610   2.03412
    A9        1.86080   0.00030   0.00000  -0.00537  -0.00605   1.85475
   A10        1.87621  -0.00256   0.00000  -0.00837  -0.00772   1.86850
   A11        1.82592  -0.00249   0.00000  -0.00933  -0.00760   1.81832
   A12        1.94703   0.00173   0.00000  -0.00108  -0.00320   1.94383
   A13        1.94471   0.00055   0.00000  -0.00181  -0.00191   1.94280
   A14        1.95109   0.00779   0.00000   0.05202   0.05671   2.00780
   A15        1.89721  -0.00427   0.00000  -0.00955  -0.01016   1.88704
   A16        1.92082   0.00022   0.00000  -0.01705  -0.02014   1.90068
   A17        1.87082   0.00247   0.00000   0.01778   0.01433   1.88515
   A18        1.89129  -0.00742   0.00000  -0.03585  -0.03521   1.85609
   A19        1.93232   0.00135   0.00000  -0.00627  -0.00549   1.92684
   A20        1.96402   0.00057   0.00000   0.00509   0.00363   1.96765
   A21        2.05907   0.00746   0.00000   0.03745   0.03908   2.09815
   A22        2.10549  -0.00520   0.00000  -0.01003  -0.01102   2.09447
   A23        1.92154   0.00363   0.00000   0.02723   0.02414   1.94567
   A24        1.86251  -0.00303   0.00000  -0.01151  -0.00962   1.85289
   A25        1.96102   0.00179   0.00000  -0.00109  -0.00114   1.95988
   A26        1.85730   0.00104   0.00000   0.00239   0.00283   1.86014
   A27        1.94760  -0.00440   0.00000  -0.01418  -0.01261   1.93499
   A28        1.90893   0.00097   0.00000  -0.00283  -0.00366   1.90528
   A29        1.91384  -0.00030   0.00000  -0.00119  -0.00099   1.91286
   A30        1.93518  -0.00025   0.00000  -0.00026  -0.00026   1.93492
   A31        1.93300   0.00128   0.00000   0.00391   0.00383   1.93682
   A32        1.88752   0.00012   0.00000  -0.00040  -0.00040   1.88712
   A33        1.85876  -0.00052   0.00000  -0.00189  -0.00203   1.85673
   A34        1.93337  -0.00037   0.00000  -0.00035  -0.00034   1.93303
   A35        1.93740   0.00081   0.00000  -0.02051  -0.02195   1.91545
   A36        1.87789   0.00004   0.00000   0.00016   0.00016   1.87805
   A37        1.88535   0.00036   0.00000   0.00137   0.00137   1.88672
   A38        1.83671  -0.00010   0.00000  -0.00039  -0.00039   1.83632
   A39        1.84143   0.00002   0.00000   0.00007   0.00007   1.84150
   A40        1.76610   0.00573   0.00000   0.01877   0.01889   1.78499
   A41        2.00322  -0.00476   0.00000  -0.00778  -0.00403   1.99919
   A42        1.84076  -0.00033   0.00000  -0.00420  -0.00676   1.83400
   A43        1.82961   0.00326   0.00000   0.02216   0.02484   1.85445
   A44        1.88193   0.00081   0.00000   0.00136  -0.00048   1.88145
   A45        2.01849  -0.00180   0.00000  -0.00010   0.00652   2.02501
   A46        2.91354   0.00609   0.00000   0.16499   0.16679   3.08032
   A47        3.01084  -0.00273   0.00000  -0.06115  -0.06948   2.94136
   A48        2.94672  -0.00672   0.00000  -0.11196  -0.11608   2.83063
   A49        3.27074  -0.00696   0.00000  -0.11359  -0.11450   3.15624
   A50        3.32600  -0.00186   0.00000  -0.01322  -0.01918   3.30682
   A51        3.19462   0.00346   0.00000   0.07144   0.06414   3.25876
    D1       -2.59955   0.00564   0.00000   0.08006   0.07901  -2.52054
    D2        1.67491   0.00424   0.00000   0.06982   0.06881   1.74372
    D3       -0.41721   0.00396   0.00000   0.08138   0.08009  -0.33712
    D4        1.57747   0.00186   0.00000  -0.00464  -0.01046   1.56701
    D5       -0.49065   0.00125   0.00000   0.00619   0.00178  -0.48887
    D6        1.18373   0.00961   0.00000   0.12729   0.12482   1.30855
    D7       -0.87789   0.00461   0.00000   0.08038   0.07820  -0.79968
    D8       -2.99682   0.00552   0.00000   0.10472   0.10310  -2.89373
    D9       -0.93505   0.00510   0.00000   0.08753   0.08597  -0.84907
   D10       -2.99667   0.00011   0.00000   0.04062   0.03936  -2.95731
   D11        1.16758   0.00102   0.00000   0.06497   0.06425   1.23183
   D12       -3.01449   0.00618   0.00000   0.11373   0.11240  -2.90209
   D13        1.20707   0.00118   0.00000   0.06682   0.06579   1.27286
   D14       -0.91187   0.00209   0.00000   0.09117   0.09068  -0.82118
   D15       -0.62697   0.00417   0.00000   0.03672   0.03334  -0.59363
   D16        1.38505   0.00299   0.00000   0.03806   0.03579   1.42084
   D17       -2.81697   0.00235   0.00000   0.02817   0.02612  -2.79085
   D18        1.47580   0.00432   0.00000   0.05921   0.05782   1.53362
   D19       -2.79537   0.00313   0.00000   0.06054   0.06027  -2.73510
   D20       -0.71420   0.00249   0.00000   0.05066   0.05060  -0.66361
   D21       -2.68467   0.00265   0.00000   0.03595   0.03416  -2.65052
   D22       -0.67266   0.00146   0.00000   0.03729   0.03661  -0.63605
   D23        1.40850   0.00082   0.00000   0.02741   0.02694   1.43544
   D24        2.98360  -0.00440   0.00000  -0.02619  -0.02737   2.95624
   D25       -1.20054   0.00295   0.00000   0.01893   0.02040  -1.18015
   D26        0.92196   0.00148   0.00000   0.00780   0.00750   0.92947
   D27       -0.37918   0.00310   0.00000   0.01442   0.01012  -0.36906
   D28        1.69813   0.00392   0.00000   0.04387   0.04208   1.74021
   D29       -2.49895   0.00287   0.00000   0.02685   0.02439  -2.47457
   D30        1.63632   0.00160   0.00000   0.01356   0.01114   1.64746
   D31       -2.56956   0.00243   0.00000   0.04301   0.04310  -2.52646
   D32       -0.48346   0.00137   0.00000   0.02599   0.02541  -0.45805
   D33       -2.55967   0.00107   0.00000   0.00420   0.00180  -2.55787
   D34       -0.48235   0.00190   0.00000   0.03366   0.03375  -0.44860
   D35        1.60374   0.00084   0.00000   0.01663   0.01606   1.61980
   D36       -2.28555   0.00279   0.00000   0.03786   0.03846  -2.24709
   D37        1.42021   0.00005   0.00000  -0.01123  -0.01320   1.40702
   D38        1.96219   0.00274   0.00000   0.03703   0.03716   1.99935
   D39       -0.61523   0.00000   0.00000  -0.01207  -0.01450  -0.62973
   D40       -0.14251   0.00268   0.00000   0.04550   0.04574  -0.09677
   D41       -2.71993  -0.00006   0.00000  -0.00359  -0.00592  -2.72585
   D42       -2.76898   0.00118   0.00000   0.01362   0.01360  -2.75538
   D43        1.29752  -0.00135   0.00000  -0.01233  -0.01191   1.28561
   D44       -0.73612   0.00031   0.00000   0.00116   0.00077  -0.73535
   D45        0.76598  -0.00311   0.00000  -0.01932  -0.02132   0.74466
   D46        2.90429   0.00187   0.00000   0.01114   0.01356   2.91785
   D47       -1.33185   0.00121   0.00000   0.00770   0.00728  -1.32457
   D48        2.97673   0.01249   0.00000   0.11699   0.11894   3.09567
   D49        0.44655   0.00713   0.00000   0.05695   0.05701   0.50356
   D50       -1.11513  -0.00151   0.00000  -0.01228  -0.01081  -1.12594
   D51        0.96798  -0.00171   0.00000  -0.01370  -0.01209   0.95589
   D52        3.12170  -0.00146   0.00000  -0.01158  -0.01000   3.11170
   D53        1.05285   0.00128   0.00000   0.01198   0.01049   1.06334
   D54        3.13596   0.00107   0.00000   0.01056   0.00921  -3.13802
   D55       -0.99350   0.00133   0.00000   0.01268   0.01130  -0.98221
   D56        3.10312   0.00052   0.00000   0.00461   0.00422   3.10734
   D57       -1.09696   0.00032   0.00000   0.00319   0.00294  -1.09402
   D58        1.05677   0.00057   0.00000   0.00532   0.00503   1.06179
   D59       -1.23152  -0.00014   0.00000  -0.00162  -0.00157  -1.23309
   D60        2.97178  -0.00017   0.00000  -0.00121  -0.00127   2.97051
   D61        0.92324   0.00018   0.00000   0.00055   0.00056   0.92380
   D62        0.67239   0.00880   0.00000   0.08250   0.07654   0.74892
   D63        2.72544   0.00574   0.00000   0.07251   0.06802   2.79346
   D64        0.13347   0.00240   0.00000   0.00514  -0.00248   0.13099
   D65        2.26479   0.00340   0.00000   0.04448   0.03801   2.30281
   D66       -1.79666  -0.00038   0.00000  -0.03201  -0.03413  -1.83079
   D67        0.33466   0.00061   0.00000   0.00734   0.00637   0.34103
         Item               Value     Threshold  Converged?
 Maximum Force            0.014287     0.000450     NO 
 RMS     Force            0.004189     0.000300     NO 
 Maximum Displacement     0.439774     0.001800     NO 
 RMS     Displacement     0.143763     0.001200     NO 
 Predicted change in Energy=-1.516652D-02
 GradGradGradGradGradGradGradGradGradGradGradGradGradGradGradGradGradGrad

                          Input orientation:                          
 ---------------------------------------------------------------------
 Center     Atomic      Atomic             Coordinates (Angstroms)
 Number     Number       Type             X           Y           Z
 ---------------------------------------------------------------------
      1          8           0        0.679986   -0.003218   -1.243725
      2          6           0       -1.148726    0.836047    0.175588
      3          6           0       -1.139411   -1.764635    0.188312
      4          6           0       -1.891613   -0.464146   -0.173651
      5          6           0        0.384201   -1.651381    0.363181
      6          6           0        0.024698    1.177555   -0.776413
      7          1           0       -2.079724   -0.470295   -1.259139
      8          1           0       -0.419241    1.653142   -1.663910
      9          1           0       -0.798587    0.750477    1.211039
     10          1           0        0.939456   -2.401019   -0.230563
     11          6           0        0.998720    2.159808   -0.112772
     12          1           0        1.417721    1.707273    0.789727
     13          1           0        1.830085    2.405107   -0.790250
     14          1           0       -1.502736   -2.064260    1.180891
     15          8           0        0.868258   -1.218787    1.443554
     16          8           0        0.321024    3.346834    0.308448
     17          1           0        0.077099    3.844365   -0.488898
     18          8           0       -1.477265   -2.730311   -0.798814
     19          1           0       -1.321969   -3.610625   -0.424428
     20          8           0       -3.115990   -0.499479    0.540287
     21          1           0       -3.478376    0.401134    0.470575
     22          8           0       -2.112129    1.885043    0.074145
     23          1           0       -1.684214    2.669399    0.459136
     24          8           0        3.364395   -1.137896    1.135218
     25          1           0        3.276165   -0.556294   -0.261801
     26          1           0        2.368733   -1.267038    1.382829
     27          1           0        3.713313   -0.529301    1.803158
     28          8           0        3.150995   -0.155416   -1.210132
     29          1           0        1.716444    0.077118   -1.369992
     30          1           0        3.718136    0.626109   -1.278250
 ---------------------------------------------------------------------
                    Distance matrix (angstroms):
                    1          2          3          4          5
     1  O    0.000000
     2  C    2.462317   0.000000
     3  C    2.909214   2.600730   0.000000
     4  C    2.823231   1.537645   1.545347   0.000000
     5  C    2.320792   2.927858   1.537791   2.622412   0.000000
     6  C    1.428989   1.549147   3.307919   2.594370   3.070960
     7  H    2.798999   2.152145   2.157456   1.101684   3.177705
     8  H    2.031842   2.140922   3.953552   2.978534   3.959102
     9  H    2.963123   1.096394   2.736407   2.141818   2.808339
    10  H    2.615964   3.873507   2.214075   3.430695   1.105802
    11  C    2.461570   2.539098   4.479231   3.904212   3.889643
    12  H    2.757710   2.779002   4.353708   4.073678   3.539867
    13  H    2.707101   3.502586   5.211741   4.739604   4.458259
    14  H    3.858877   3.089941   1.098633   2.132222   2.097535
    15  O    2.955422   3.146157   2.429881   3.286598   1.260418
    16  O    3.709575   2.912365   5.317371   4.433030   4.998914
    17  H    3.967006   3.315745   5.779221   4.747471   5.569881
    18  O    3.505526   3.711645   1.421652   2.387052   2.445277
    19  H    4.206240   4.490314   1.953575   3.207446   2.714771
    20  O    4.223554   2.405570   2.373051   1.417764   3.689117
    21  H    4.516004   2.388187   3.200154   1.918737   4.375368
    22  O    3.619146   1.427876   3.778805   2.372493   4.338375
    23  H    3.953740   1.930888   4.475580   3.203520   4.791314
    24  O    3.762036   5.018526   4.644750   5.458268   3.121099
    25  H    2.830233   4.659355   4.600000   5.169351   3.154881
    26  H    3.368664   4.272343   3.739191   4.606280   2.264016
    27  H    4.331435   5.305900   5.261436   5.943670   3.796785
    28  O    2.475920   4.625022   4.790910   5.157277   3.516870
    29  H    1.047207   3.342752   3.738486   3.839567   2.786838
    30  H    3.102838   5.083706   5.609120   5.820488   4.358483
                    6          7          8          9         10
     6  C    0.000000
     7  H    2.716068   0.000000
     8  H    1.100415   2.725808   0.000000
     9  H    2.193208   3.038647   3.037110   0.000000
    10  H    3.733755   3.728419   4.509629   3.876975   0.000000
    11  C    1.534262   4.208137   2.161794   2.639887   4.562732
    12  H    2.161923   4.601280   3.065566   2.450507   4.260022
    13  H    2.183231   4.875900   2.527488   3.694980   4.919890
    14  H    4.083315   2.971092   4.804782   2.901634   2.840759
    15  O    3.373767   4.068831   4.422890   2.590451   2.050709
    16  O    2.443462   4.774034   2.703106   2.968042   5.806101
    17  H    2.682776   4.884818   2.535442   3.637136   6.309930
    18  O    4.186623   2.383805   4.591565   4.076273   2.504373
    19  H    4.986389   3.336556   5.482561   4.686992   2.571920
    20  O    3.796060   2.076688   4.094475   2.717105   4.544965
    21  H    3.798596   2.389043   3.934699   2.802070   5.278342
    22  O    2.406245   2.706717   2.437310   2.074889   5.270232
    23  H    2.583130   3.600914   2.672126   2.243203   5.750519
    24  O    4.491016   5.984736   5.471828   4.571883   3.056332
    25  H    3.720632   5.448635   4.528084   4.525540   2.977279
    26  H    4.016574   5.234841   5.057951   3.759228   2.435524
    27  H    4.813878   6.552893   5.819073   4.727121   3.915818
    28  O    3.426173   5.240417   4.027826   4.720372   3.300483
    29  H    2.103641   3.837035   2.670466   3.666131   2.836048
    30  H    3.767946   5.900648   4.280353   5.158761   4.240543
                   11         12         13         14         15
    11  C    0.000000
    12  H    1.093095   0.000000
    13  H    1.100143   1.775766   0.000000
    14  H    5.076770   4.786078   5.913403   0.000000
    15  O    3.722106   3.048151   4.364355   2.530895   0.000000
    16  O    1.430290   2.030403   2.090754   5.776435   4.736331
    17  H    1.956678   2.828306   2.288064   6.340026   5.476843
    18  O    5.523986   5.531416   6.108286   2.088901   3.579721
    19  H    6.227409   6.104106   6.801345   2.236285   3.742638
    20  O    4.942584   5.048418   5.888176   2.336985   4.148196
    21  H    4.845371   5.077364   5.812516   3.238189   4.739627
    22  O    3.128548   3.606037   4.069237   4.146474   4.515723
    23  H    2.790143   3.264503   3.739132   4.791805   4.754175
    24  O    4.246027   3.464663   4.314441   4.954715   2.516408
    25  H    3.547700   3.111794   3.337710   5.214712   3.024094
    26  H    3.982089   3.178478   4.300821   3.957855   1.502478
    27  H    4.274471   3.361405   4.345465   5.472703   2.949413
    28  O    3.346155   3.236246   2.911595   5.569371   3.658373
    29  H    2.536401   2.722321   2.401780   4.632022   3.211671
    30  H    3.332536   3.276790   2.639643   6.367336   4.351282
                   16         17         18         19         20
    16  O    0.000000
    17  H    0.970977   0.000000
    18  O    6.433628   6.763022   0.000000
    19  H    7.186291   7.585409   0.969141   0.000000
    20  O    5.163424   5.488536   3.074935   3.718658   0.000000
    21  H    4.810289   5.041610   3.927052   4.641695   0.973287
    22  O    2.848151   2.991434   4.739895   5.574522   2.628874
    23  H    2.121934   2.319814   5.548165   6.352213   3.478270
    24  O    5.482559   6.186032   5.451416   5.523485   6.538877
    25  H    4.928737   5.445310   5.254506   5.522519   6.442533
    26  H    5.160932   5.906047   4.657514   4.730736   5.601894
    27  H    5.363413   6.132253   6.209413   6.309577   6.945150
    28  O    4.751903   5.095809   5.312256   5.706418   6.515939
    29  H    3.931336   4.201896   4.290418   4.870882   5.228198
    30  H    4.632529   4.923149   6.203838   6.639396   7.160957
                   21         22         23         24         25
    21  H    0.000000
    22  O    2.055669   0.000000
    23  H    2.892089   0.972905   0.000000
    24  O    7.045131   6.344789   6.359326   0.000000
    25  H    6.861258   5.925091   5.960722   1.515818   0.000000
    26  H    6.148470   5.632619   5.724957   1.034085   2.008331
    27  H    7.373050   6.538678   6.416492   0.968646   2.110895
    28  O    6.861712   5.789069   5.843397   2.551758   1.037161
    29  H    5.520764   4.473488   4.650818   3.235441   2.015448
    30  H    7.409371   6.116034   6.031495   3.010261   1.620674
                   26         27         28         29         30
    26  H    0.000000
    27  H    1.590228   0.000000
    28  O    2.927641   3.088026   0.000000
    29  H    3.132134   3.797908   1.462041   0.000000
    30  H    3.533586   3.290907   0.968024   2.077637   0.000000
 Stoichiometry    C6H16O8
 Framework group  C1[X(C6H16O8)]
 Deg. of freedom    84
 Full point group                 C1      NOp   1
 Largest Abelian subgroup         C1      NOp   1
 Largest concise Abelian subgroup C1      NOp   1
                         Standard orientation:                         
 ---------------------------------------------------------------------
 Center     Atomic      Atomic             Coordinates (Angstroms)
 Number     Number       Type             X           Y           Z
 ---------------------------------------------------------------------
      1          8           0        0.646447    0.052529   -1.235348
      2          6           0       -1.175076    0.836112    0.224464
      3          6           0       -1.209131   -1.760450    0.081261
      4          6           0       -1.937763   -0.428078   -0.205054
      5          6           0        0.315267   -1.683666    0.268653
      6          6           0        0.008594    1.214116   -0.700681
      7          1           0       -2.120546   -0.366026   -1.289696
      8          1           0       -0.422941    1.749441   -1.559819
      9          1           0       -0.831567    0.682774    1.254303
     10          1           0        0.860910   -2.405688   -0.366763
     11          6           0        0.995523    2.138242    0.024524
[...]
 0.00000467,0.00008433,-0.00001891,-0.00005796,0.00048518,-0.00016966,-
 0.00005915,-0.00023815,0.00010837,0.00022247,0.00066724,-0.00011093,-0
 .00020571,-0.00026341,-0.00006581,0.00072581,0.00018207,-0.00025995,-0
 .00017402,-0.00007254,0.00014902,0.03746062,0.06797631,-0.00064510,0.0
 0031963,0.00016598,-0.00004147,0.00006485,-0.00000347,0.00017543,0.000
 00306,0.00045446,0.00017951,0.00043918,-0.00065635,-0.00061368,-0.0024
 3153,-0.00222389,0.00051009,-0.00019734,-0.00033500,0.00003608,0.00003
 463,0.00007261,-0.00006347,0.00002191,0.00003121,0.00007047,0.00008325
 ,-0.00007458,0.00031481,0.00056110,0.00023131,0.00008199,-0.00006673,0
 .00004908,0.00002487,-0.00003944,-0.00005380,-0.00001638,-0.00004850,0
 .00001562,-0.00005308,0.00006609,-0.00000635,0.00589446,0.00169232,0.0
 0359713,-0.00016003,0.00006564,0.00011459,0.00000948,0.00000522,-0.000
 00510,0.00044765,-0.00004172,0.00033512,0.00004043,0.00008534,-0.00012
 663,0.00016080,-0.00030455,0.00030463,-0.00000974,0.00008746,0.0000077
 6,-0.00008307,-0.00016364,0.00018124,0.00002909,0.00010310,-0.00009865
 ,0.06390894,-0.10811434,0.41830701,0.00038850,-0.00167093,-0.00026077,
 -0.00089330,0.00030000,-0.00009059,-0.00020583,-0.00027292,0.00008371,
 -0.00035504,-0.00003990,-0.00002255,-0.00093541,-0.00048370,-0.0002689
 0,-0.00038747,0.00050345,0.00044432,-0.00007624,-0.00006448,-0.0001025
 3,0.00014169,-0.00016077,0.00002924,0.00000027,0.00019617,0.00024902,0
 .00008823,-0.00002823,0.00020928,0.00009850,0.00035644,0.00006156,-0.0
 0026340,0.00008315,-0.00003046,-0.00001032,-0.00002731,0.00001383,0.00
 002079,0.00000827,0.00000387,0.00011716,0.00116878,-0.00016670,0.00007
 057,-0.00040811,-0.00011462,-0.00002867,0.00011696,-0.00001149,0.00025
 253,0.00025685,-0.00001749,-0.00008268,-0.00009520,0.00000702,0.000441
 30,0.00006313,0.00006142,-0.00011381,-0.00003715,-0.00001347,0.0005966
 5,-0.00038898,-0.00024753,0.00000780,0.00018997,0.00002879,-0.01208553
 ,-0.00333383,0.00049861,0.06940421,-0.00407410,-0.00017906,-0.00245148
 ,0.00100056,-0.00015766,0.00045782,0.00014675,-0.00064906,0.00067274,0
 .00007946,0.00127786,-0.00067979,-0.00302453,-0.00028790,-0.00121179,0
 .00156883,-0.00057634,-0.00078544,0.00003468,0.00014729,-0.00003608,-0
 .00038463,0.00016309,-0.00002498,0.00033201,0.00046754,-0.00065225,-0.
 00001572,0.00009112,-0.00019938,0.00099658,-0.00038692,0.00067926,0.00
 000138,-0.00052124,-0.00044962,-0.00011361,-0.00006504,-0.00005885,0.0
 0008875,0.00007153,-0.00005203,0.00456154,-0.00032511,-0.00008041,-0.0
 0083495,0.00048730,0.00016452,-0.00000742,-0.00008489,0.00002645,0.000
 26522,-0.00043779,0.00028737,0.00005504,0.00025882,-0.00016986,-0.0000
 1827,-0.00104470,0.00028019,0.00025334,0.00037662,0.00010323,-0.000871
 69,-0.00040523,0.00034994,0.00024653,0.00016363,-0.00023058,-0.0021401
 8,-0.00086450,-0.00419973,-0.12285632,0.37872000,-0.00058788,-0.001291
 39,-0.00158897,0.00003553,-0.00001685,-0.00000637,-0.00004643,0.000218
 54,-0.00016887,-0.00013965,-0.00023740,0.00039076,0.00099106,0.0002937
 2,0.00073594,-0.00019511,0.00013204,0.00031730,-0.00004324,-0.00004407
 ,-0.00004088,0.00002097,-0.00003312,-0.00002511,-0.00008421,-0.0000583
 9,0.00010143,-0.00006775,-0.00013120,-0.00009500,0.00012428,0.00007355
 ,0.00013664,0.00004000,-0.00004886,-0.00017408,0.00004270,0.00001658,0
 .00002911,-0.00000363,-0.00002347,-0.00002007,-0.00151527,-0.00040955,
 -0.00040359,0.00003253,-0.00009519,-0.00012127,-0.00003207,0.00001418,
 0.00001134,-0.00013647,0.00002553,-0.00014259,-0.00001414,-0.00004248,
 0.00006964,-0.00004290,0.00016267,-0.00017210,-0.00000124,-0.00004487,
 -0.00000196,0.00006213,0.00007441,-0.00012613,-0.00002532,-0.00003209,
 0.00004670,-0.00044852,-0.00718291,-0.00649833,-0.00811593,-0.00060675
 ,0.06792260,-0.00144575,-0.00026681,0.00002112,-0.00009738,0.00046101,
 0.00047723,0.00029327,-0.00213334,0.00318246,0.00026483,0.00206258,-0.
 00235825,-0.01186368,-0.00607039,-0.00757681,0.00076974,-0.00011994,-0
 .00077127,-0.00001139,0.00012947,-0.00003942,-0.00009082,0.00000988,0.
 00005767,0.00024651,0.00038662,-0.00013076,0.00084854,0.00178415,-0.00
 006990,0.00027694,0.00008131,0.00036304,0.00000311,-0.00004606,-0.0001
 5141,-0.00007233,-0.00016377,0.00003136,0.00004158,0.00030094,-0.00002
 707,0.00641136,0.00506633,0.00226587,-0.00033063,-0.00030824,0.0001200
 2,0.00000598,0.00014498,-0.00001258,0.00160794,0.00004607,0.00074475,-
 0.00006900,0.00017157,-0.00033588,0.00124943,-0.00153479,0.00107790,-0
 .00004221,0.00044181,0.00015635,-0.00003276,-0.00105673,-0.00003377,0.
 00014255,0.00049490,-0.00014087,-0.35083921,-0.06535332,0.12651815,0.0
 0391597,-0.00756131,0.00202415,0.37571338,-0.00046242,0.00023674,-0.00
 033501,0.00050799,-0.00020283,0.00009238,0.00030963,0.00081572,-0.0011
 6119,-0.00009480,0.00001864,0.00020806,-0.00166745,0.00130326,0.000739
 08,0.00020327,-0.00019637,-0.00008991,0.00003868,0.00002477,0.00004273
 ,-0.00007534,0.00006363,-0.00003109,-0.00004359,0.00002772,-0.00012450
 ,-0.00081957,-0.00017906,0.00010297,0.00014273,-0.00012981,0.00006541,
 -0.00002489,-0.00004519,-0.00004861,-0.00001149,0.00001440,-0.00001895
 ,0.00007350,-0.00012436,-0.00000872,0.00352216,-0.00757854,-0.00048244
 ,-0.00011842,0.00017994,0.00002938,0.00000758,-0.00005169,0.00000513,-
 0.00005732,-0.00032448,0.00005624,0.00003926,0.00012996,-0.00003358,-0
 .00033720,-0.00005116,-0.00010913,0.00008156,0.00005442,-0.00000519,-0
 .00034924,0.00012940,0.00009395,0.00002742,-0.00006618,-0.00001276,-0.
 07981482,-0.03304149,0.04685331,-0.00663848,-0.00194675,0.00352358,0.0
 7580229,0.04069827,0.00049152,-0.00038252,-0.00005946,-0.00003410,-0.0
 0002278,-0.00003706,-0.00052713,-0.00059732,-0.00016964,-0.00015233,-0
 .00045513,0.00070615,-0.00114479,0.00350512,0.00291488,-0.00042295,0.0
 0020207,0.00027971,-0.00004728,-0.00002084,-0.00012445,0.00004957,-0.0
 0002390,-0.00002185,-0.00005035,-0.00009552,0.00008325,-0.00051897,-0.
 00063837,-0.00070189,-0.00003344,0.00005449,-0.00003768,-0.00001105,0.
 00001488,0.00002906,0.00001388,0.00003593,-0.00000894,0.00004485,-0.00
 001033,0.00002334,0.00043872,-0.00259146,-0.00726484,0.00011112,-0.000
 04912,-0.00008872,-0.00000816,-0.00000437,0.00000410,-0.00064342,0.000
 09663,-0.00043169,-0.00007703,-0.00013510,0.00014605,-0.00011434,0.000
 28026,-0.00028576,0.00001677,-0.00008241,-0.00001097,0.00010392,0.0001
 1867,-0.00015015,-0.00001685,-0.00008206,0.00006950,0.18473794,0.05501
 743,-0.13503710,0.00148294,0.00206501,-0.00040481,-0.14421649,-0.04681
 025,0.12779987,0.00014301,-0.00010204,0.00013797,-0.00014158,0.0000839
 5,-0.00001629,-0.00000856,-0.00001171,-0.00008854,-0.00006577,0.000091
 44,-0.00012849,-0.00035928,-0.00012099,-0.00007320,-0.00004346,0.00006
 429,0.00000261,-0.00000684,-0.00000091,-0.00000229,0.00002763,-0.00002
 131,0.00001117,0.00002914,0.00001277,0.00002625,0.00001713,-0.00000262
 ,0.00008977,-0.00004197,0.00005944,-0.00002253,0.00000999,0.00002580,0
 .00001385,0.00000210,-0.00001596,0.00001545,0.00001732,-0.00000346,0.0
 0000373,-0.00035251,-0.00001990,0.00148541,0.00002285,-0.00010534,0.00
 000310,0.00000108,0.00003507,-0.00000428,0.00015895,0.00003683,0.00006
 721,-0.00002173,0.00000167,-0.00003161,0.00013058,-0.00005677,0.000074
 07,-0.00003373,0.00001432,-0.00000367,0.00009934,-0.00010891,-0.000015
 80,-0.00000495,0.00006472,-0.00001126,-0.25550516,0.02582316,-0.195256
 67,-0.00028544,0.00306786,-0.00071701,-0.02573802,0.00715166,-0.038939
 88,0.28188950,-0.00018748,-0.00004328,-0.00014211,0.00010881,-0.000028
 06,0.00003887,0.00003542,0.00003119,-0.00007075,-0.00000200,0.00004433
 ,0.00002948,0.00031897,0.00034639,0.00018173,0.00002773,-0.00000817,-0
 .00002355,0.00000360,0.00000354,-0.00000193,-0.00002230,0.00000963,-0.
 00000994,-0.00001119,0.00001405,-0.00002245,-0.00003022,-0.00008340,-0
 .00006428,0.00008593,-0.00002977,0.00004181,-0.00001443,-0.00000305,-0
 .00002397,-0.00000511,-0.00000131,-0.00000126,0.00001151,-0.00001322,-
 0.00001284,-0.00081375,-0.00023332,0.00029654,-0.00005945,0.00002326,0
 .00000248,0.00000576,-0.00000833,0.00000016,-0.00006447,-0.00008289,-0
 .00001135,0.00000774,0.00002882,-0.00000229,-0.00006145,-0.00005527,-0
 .00002018,0.00003196,0.00002939,0.00000959,-0.00008234,-0.00001761,-0.
 00000414,0.00002708,0.00000450,0.00000046,0.03881677,-0.01778077,0.057
 32248,0.00383088,0.00404757,0.00368490,-0.00698470,0.00112460,-0.00836
 213,-0.03459345,0.01609791,0.00000199,0.00005242,-0.00001569,0.0000379
 2,-0.00001138,0.00002799,0.00000661,-0.00007456,0.00017124,0.00004532,
 0.00001149,-0.00002658,-0.00014837,-0.00004048,-0.00011979,0.00000186,
 -0.00001581,-0.00000387,0.00000489,0.00000315,0.00000112,-0.00000601,0
 .00000625,-0.00000435,-0.00001266,0.00000107,-0.00000165,-0.00001330,0
 .00003792,-0.00006241,-0.00000528,-0.00000904,0.00001903,-0.00000686,-
 0.00000206,0.00000292,-0.00000190,0.00000507,-0.00000842,0.00000637,0.
 00000261,-0.00000147,0.00120964,-0.00009623,-0.00097009,0.00000732,0.0
 0001765,-0.00001142,-0.00000078,-0.00000748,0.00000215,-0.00002004,-0.
 00001671,-0.00002542,0.00000414,0.00000232,0.00000873,-0.00001078,-0.0
 0001836,-0.00000022,0.00000807,0.00000567,0.00001047,-0.00002298,0.000
 00871,-0.00002576,0.00000322,-0.00001472,0.00001688,-0.25317566,0.0539
 1635,-0.28295407,-0.00077919,0.00001963,-0.00135160,0.01909644,-0.0015
 3824,0.01283194,0.23326493,-0.05163870,0.27202717,-0.00832035,0.002809
 43,-0.01004547,0.00326786,-0.00137111,0.00146655,0.00041361,0.00012397
 ,0.00001780,0.00054105,0.00120325,-0.00036778,-0.00031880,0.00078009,-
 0.00002404,0.00367094,-0.00285526,-0.00217136,0.00011462,0.00022038,0.
 00012181,-0.00096175,0.00080325,0.00011531,-0.00190692,0.00019228,-0.0
 0129867,-0.00001646,0.00001148,-0.00031976,0.00048763,-0.00097379,0.00
 057704,-0.00056097,0.00009711,-0.00027825,-0.00014808,0.00010627,-0.00
 027102,0.00000383,0.00003523,-0.00003365,0.00103778,-0.00127800,0.0004
 7829,-0.00053088,0.00157837,0.00030915,-0.00001798,-0.00042754,0.00004
 895,-0.00041569,-0.00077125,0.00022979,0.00021915,0.00036263,-0.000128
 81,-0.00103546,-0.00090707,-0.00006977,0.00047468,0.00034077,0.0000962
 6,-0.00235114,0.00096255,0.00097079,0.00000779,-0.00055402,-0.00029083
 ,0.00507366,0.00922354,-0.00155476,-0.05452827,0.12334718,-0.00905024,
 -0.00367037,0.00207597,-0.00020574,0.00036082,-0.00149255,0.00044869,0
 .11979642,0.00293309,0.00498615,0.00332800,0.00022557,-0.00019662,0.00
 022080,0.00002061,0.00082598,-0.00058855,0.00026453,-0.00118727,0.0005
 8262,0.00347685,0.00046760,0.00130891,-0.00145919,-0.00060198,-0.00016
 329,0.00004089,-0.00007736,0.00013220,0.00022634,0.00028272,0.00011758
 ,-0.00031819,-0.00066110,0.00006007,-0.00005643,-0.00004081,-0.0000441
 5,-0.00279918,0.00001954,-0.00206648,0.00057529,0.00030724,0.00138551,
 0.00023613,0.00011549,0.00009829,-0.00009661,-0.00007399,0.00005105,-0
 .00420513,-0.00082595,0.00005862,0.00167044,-0.00016719,0.00015297,0.0
 0014927,-0.00004329,-0.00008617,-0.00041740,0.00027852,-0.00028011,-0.
 00000145,-0.00020619,0.00016331,-0.00031917,0.00102143,-0.00033264,-0.
 00019168,-0.00037906,-0.00008491,0.00019043,0.00114030,-0.00014543,-0.
 00046955,-0.00062833,0.00033999,0.00615048,-0.02139852,0.00579668,0.11
 087430,-0.37236560,0.04617810,0.00434588,0.00125872,-0.00127823,-0.001
 89388,-0.00271626,-0.00050431,-0.16597015,0.45598034,-0.01401038,0.004
 14565,-0.00436294,-0.00089636,0.00095558,-0.00103366,0.00004324,-0.000
 34984,0.00014162,0.00031916,0.00021224,-0.00052444,-0.00146386,-0.0002
 1275,-0.00081727,0.00282479,-0.00246435,-0.00423158,0.00014318,0.00033
 383,0.00007326,-0.00106325,0.00074490,0.00070355,0.00012003,-0.0001838
 1,0.00047299,0.00008938,0.00009652,0.00010995,-0.00063417,-0.00069499,
 -0.00065573,-0.00011766,0.00054569,0.00041685,0.00002307,-0.00016817,0
 .00007424,-0.00000295,0.00001263,0.00005493,0.00165202,0.00068277,0.00
 049642,-0.00022169,0.00081690,0.00074377,0.00011918,-0.00020571,-0.000
 03331,0.00010655,-0.00014963,0.00024693,0.00005571,0.00012726,-0.00012
 764,0.00000579,-0.00031575,0.00041375,0.00004524,0.00009613,-0.0000631
 7,-0.00006765,-0.00038822,0.00096052,0.00005608,0.00005917,-0.00037704
 ,-0.00060193,0.00651462,0.00440316,0.00895411,-0.00516594,-0.05821875,
 -0.00109142,-0.00155298,-0.00015643,0.00040944,-0.00166546,0.00035997,
 -0.12335728,0.04837536,0.50976637,-0.25635337,0.03482389,-0.16389322,-
 0.00019739,-0.00163804,0.00020311,-0.00024603,0.00032344,-0.00014164,-
 0.00099850,-0.00097038,0.00056922,0.00186996,-0.00033851,0.00069940,-0
 .03371931,0.00710443,-0.01275899,-0.00052438,-0.00075311,-0.00010289,-
 0.00033028,0.00125020,0.00277067,0.00007633,-0.00018090,0.00058444,-0.
 00006982,-0.00001118,0.00005053,0.00330380,0.00187756,0.00034592,0.000
 15346,0.00026096,-0.00051020,0.00009447,0.00008686,0.00025623,-0.00000
 244,0.00000028,-0.00003139,-0.00204238,-0.00018371,-0.00038851,0.00048
 885,-0.00282502,-0.00116108,-0.00019997,0.00031279,-0.00009655,0.00017
 013,0.00062304,-0.00033482,-0.00018306,-0.00032183,0.00017297,0.000617
 46,0.00065622,-0.00033844,-0.00029498,-0.00027088,-0.00008499,0.002402
 80,0.00008522,-0.00210256,-0.00010637,0.00046733,0.00048735,-0.0002416
 6,-0.00314280,0.00057792,-0.00169456,0.00537014,0.00015304,0.00154980,
 0.00058165,-0.00028610,-0.00021783,0.00023602,0.00000960,-0.00832822,0
 .00064288,0.00447699,0.28942628,0.01779843,-0.02310380,-0.00708622,-0.
 00204310,0.00170366,-0.00118617,-0.00021204,-0.00031271,0.00021684,-0.
 00070063,-0.00003966,0.00018383,-0.00122424,-0.00030577,-0.00012100,0.
 02094539,-0.00570226,0.01188226,-0.00027874,0.00024445,-0.00034800,0.0
 0216516,-0.00137169,-0.00197409,0.00005538,0.00037745,0.00050179,0.000
 02831,-0.00005950,0.00001138,0.00387411,-0.00085880,0.00154290,-0.0000
 7213,-0.00077519,-0.00117502,-0.00003383,-0.00041011,0.00022698,0.0000
 4263,0.00002081,-0.00000436,0.00086783,0.00047962,-0.00019118,-0.00212
 203,0.00069433,0.00021693,-0.00010844,0.00022375,0.00015174,0.00021594
 ,-0.00002383,0.00007164,-0.00003308,0.00005431,-0.00005605,0.00044535,
 -0.00048014,0.00007610,0.00008106,0.00017430,0.00004140,0.00018976,-0.
 00111274,0.00038038,0.00042768,0.00068018,-0.00035975,-0.00055699,-0.0
 0011882,-0.00043278,0.00426417,0.00051817,0.00400257,0.00006486,-0.000
 34663,0.00042887,0.00009309,0.00009149,-0.00008516,-0.00056081,-0.0088
 5316,-0.00499852,-0.04176740,0.03828301,-0.20267287,0.00959390,-0.1983
 7025,0.00403763,-0.00276498,0.00315297,0.00008248,0.00045923,-0.000195
 50,-0.00000944,-0.00002950,0.00041006,0.00165553,0.00040279,0.00070167
 ,0.02103335,-0.00172615,0.01540728,-0.00026083,-0.00051776,0.00000582,
 0.00428754,-0.00262249,-0.00159697,-0.00012334,0.00030145,-0.00147954,
 -0.00006757,-0.00007003,-0.00008138,0.00224683,0.00080076,0.00187780,-
 0.00046626,-0.00092685,-0.00094154,-0.00021924,0.00044118,-0.00024987,
 0.00000487,-0.00000225,-0.00006702,-0.00160268,-0.00076263,-0.00021937
 ,0.00015475,-0.00146422,-0.00151703,-0.00028721,0.00040988,0.00005385,
 -0.00017569,0.00012120,-0.00025004,-0.00003756,-0.00014039,0.00013422,
 -0.00028626,0.00043382,-0.00064326,-0.00007134,-0.00017613,0.00014461,
 -0.00052134,0.00111856,-0.00188164,-0.00011139,-0.00018277,0.00069075,
 0.00025879,-0.00304243,0.00014104,-0.00110670,0.00586677,0.00195184,0.
 00077331,0.00074955,-0.00015041,-0.00025601,0.00024691,0.00001455,0.00
 513456,-0.00391162,-0.00192646,0.16881252,-0.00169939,0.18715745,-0.00
 345488,0.00080454,-0.00029831,-0.00238300,0.00131154,-0.00108650,-0.00
 019566,-0.00014973,-0.00002690,0.00000684,-0.00072603,0.00005066,-0.00
 018839,-0.00038221,-0.00017349,0.00035135,-0.00008697,-0.00129846,0.00
 002633,0.00010132,0.00001067,-0.00013470,-0.00000700,0.00036080,-0.000
 34930,-0.00054446,0.00071261,0.00002601,0.00004326,0.00017672,-0.00067
 608,0.00013697,-0.00037405,0.00038024,0.00050354,0.00006545,0.00015623
 ,-0.00015858,0.00022386,-0.00001833,-0.00002450,0.00005507,-0.00003113
 ,0.00067038,-0.00004583,0.00013539,-0.00034794,0.00021491,0.00005073,0
 .00010664,-0.00002721,0.00021589,0.00031230,-0.00002161,-0.00008240,-0
 .00012798,0.00002430,0.00052632,0.00041464,0.00023379,-0.00024144,-0.0
 0014556,-0.00008583,0.00115743,-0.00065620,0.00000869,-0.00005497,0.00
 033972,-0.00009209,-0.00061581,-0.00110872,-0.00098134,-0.00359820,0.0
 0048688,0.01774063,0.00096262,-0.00005035,-0.00004083,-0.00008262,0.00
 087670,0.00004679,-0.05235852,0.04617504,0.12408461,0.00559722,-0.0018
 4567,-0.00020644,0.05487284,0.00125548,-0.00079388,0.00042900,-0.00052
 437,0.00029081,-0.00021885,-0.00004104,-0.00039932,0.00018593,-0.00016
 025,0.00037389,-0.00029690,-0.00168128,-0.00027943,-0.00069902,-0.0002
 9501,0.00096825,0.00023260,-0.00001572,-0.00000156,-0.00004140,0.00000
 016,-0.00027899,-0.00005161,-0.00040854,0.00021818,0.00022168,0.000104
 22,0.00005596,0.00020388,0.00135920,0.00000640,0.00098563,-0.00000975,
 -0.00036656,-0.00025355,-0.00023169,-0.00001037,-0.00016987,0.00003543
 ,0.00003424,-0.00000985,0.00184772,0.00101711,0.00019142,-0.00064784,-
 0.00012236,-0.00015513,-0.00006470,0.00006177,0.00002749,0.00026195,-0
 .00000824,0.00012542,-0.00002487,0.00004807,-0.00006474,0.00027833,-0.
 00033569,0.00016991,0.00001954,0.00012752,0.00003078,0.00028424,-0.000
 69394,-0.00018871,0.00027058,0.00038710,-0.00006909,-0.00080860,0.0013
 0940,0.00243507,0.01429378,-0.00649275,-0.04810176,-0.00019524,-0.0017
 9565,-0.00017753,0.00043117,-0.00079196,-0.00001703,0.03288779,-0.0562
 6135,-0.04520314,-0.00229912,0.00032931,-0.00090641,-0.04592157,0.0634
 0406,-0.00058499,0.00011039,0.00086896,-0.00077544,0.00052730,-0.00033
 031,-0.00007635,0.00000628,0.00008742,-0.00001832,-0.00031325,0.000034
 77,0.00005554,-0.00017646,0.00001478,-0.00049523,-0.00003013,-0.000728
 44,-0.00001069,0.00000996,-0.00001876,-0.00001941,0.00009294,0.0001920
 0,0.00012187,-0.00021275,0.00059711,-0.00003420,-0.00002838,0.00003641
 ,-0.00070746,0.00016186,-0.00040091,0.00013078,0.00039540,0.00029635,0
 .00011593,-0.00007065,0.00011141,0.00001422,-0.00001899,0.00000178,0.0
 0000387,0.00020511,-0.00037220,0.00039817,-0.00027627,0.00005642,0.000
 05619,0.00003189,-0.00004890,0.00006940,0.00012801,-0.00007574,-0.0000
 3833,-0.00006874,0.00003145,0.00022820,0.00020391,0.00004341,-0.000095
 42,-0.00006769,-0.00001836,0.00057399,-0.00025471,-0.00021253,-0.00002
 053,0.00003648,0.00011568,-0.00038489,0.00120008,-0.00033862,-0.000778
 79,0.00608200,-0.00215284,0.00004610,-0.00019922,0.00025398,-0.0000374
 1,0.00022194,0.00008866,0.13945243,-0.09886417,-0.44690986,0.00206147,
 -0.00021794,-0.00227360,-0.13925067,0.09138579,0.45105048\\-0.00001545
 ,0.00002934,0.00001348,0.00001065,0.00002356,0.00001723,0.00000198,-0.
 00002225,-0.00000167,-0.00002760,-0.00003288,-0.00000825,-0.00001336,0
 .00002534,-0.00000987,0.00002304,0.00000107,-0.00000488,0.00001420,0.0
 0000619,0.00000403,-0.00000163,0.00000820,-0.00000425,0.00000911,-0.00
 000063,-0.00000484,0.00000115,-0.00000800,0.00000268,0.00000436,-0.000
 02460,-0.00001632,-0.00000161,0.00000554,0.00000515,-0.00000424,0.0000
 0632,0.00000652,0.00000125,0.00000055,-0.00000439,-0.00000686,-0.00001
 758,-0.00000891,-0.00001108,0.00001195,0.00002127,-0.00000208,0.000002
 62,0.00000248,0.00000807,-0.00001805,-0.00000255,-0.00000757,0.0000067
 7,-0.00000540,0.00001651,0.00000426,0.00001302,-0.00001917,0.00000754,
 0.00000198,0.00000586,-0.00000382,-0.00000704,-0.00000714,-0.00000430,
 -0.00000005,0.00000891,-0.00002506,-0.00003421,-0.00000019,-0.00001918
 ,0.00000478,0.00000047,0.00001835,-0.00000201,-0.00000094,0.00001770,0
 .00000983,-0.00000684,0.00000815,0.00002520,0.00001514,-0.00001130,0.0
 0000453,0.00000506,0.00000418,-0.00001752\\\@


 ALTHOUGH J.J. COULD DIAGNOSE THE FAULTS OF AN
 APPARATUS WITH UNCANNY ACCURACY, IT WAS JUST AS
 WELL NOT TO LET HIM HANDLE IT.
   -- GEORGE THOMPSON, ABOUT HIS FATHER
 Job cpu time:       0 days  0 hours 32 minutes 58.3 seconds.
 File lengths (MBytes):  RWF=    220 Int=      0 D2E=      0 Chk=      6 Scr=      1
 Normal termination of Gaussian 09 at Sun Jan 15 14:11:06 2017.
