 Entering Gaussian System, Link 0=g09
 Initial command:
 /global/software/gaussian/g09.e01/l1.exe "/scratch/10462921.yak.local/Gau-31173.inp" -scrdir="/scratch/10462921.yak.local/"
 Entering Link 1 = /global/software/gaussian/g09.e01/l1.exe PID=     31176.
  
 Copyright (c) 1988,1990,1992,1993,1995,1998,2003,2009,2015,
            Gaussian, Inc.  All Rights Reserved.
  
 This is part of the Gaussian(R) 09 program.  It is based on
 the Gaussian(R) 03 system (copyright 2003, Gaussian, Inc.),
 the Gaussian(R) 98 system (copyright 1998, Gaussian, Inc.),
 the Gaussian(R) 94 system (copyright 1995, Gaussian, Inc.),
 the Gaussian 92(TM) system (copyright 1992, Gaussian, Inc.),
 the Gaussian 90(TM) system (copyright 1990, Gaussian, Inc.),
 the Gaussian 88(TM) system (copyright 1988, Gaussian, Inc.),
 the Gaussian 86(TM) system (copyright 1986, Carnegie Mellon
 University), and the Gaussian 82(TM) system (copyright 1983,
 Carnegie Mellon University). Gaussian is a federally registered
 trademark of Gaussian, Inc.
  
 This software contains proprietary and confidential information,
 including trade secrets, belonging to Gaussian, Inc.
  
 This software is provided under written license and may be
 used, copied, transmitted, or stored only in accord with that
 written license.
  
 The following legend is applicable only to US Government
 contracts under FAR:
  
                    RESTRICTED RIGHTS LEGEND
  
 Use, reproduction and disclosure by the US Government is
 subject to restrictions as set forth in subparagraphs (a)
 and (c) of the Commercial Computer Software - Restricted
 Rights clause in FAR 52.227-19.
  
 Gaussian, Inc.
 340 Quinnipiac St., Bldg. 40, Wallingford CT 06492
  
  
 ---------------------------------------------------------------
 Warning -- This program may not be used in any manner that
 competes with the business of Gaussian, Inc. or will provide
 assistance to any competitor of Gaussian, Inc.  The licensee
 of this program is prohibited from giving any competitor of
 Gaussian, Inc. access to this program.  By using this program,
 the user acknowledges that Gaussian, Inc. is engaged in the
 business of creating and licensing software in the field of
 computational chemistry and represents and warrants to the
 licensee that it is not a competitor of Gaussian, Inc. and that
 it will not use this program in any manner prohibited above.
 ---------------------------------------------------------------
  

 Cite this work as:
 Gaussian 09, Revision E.01,
 M. J. Frisch, G. W. Trucks, H. B. Schlegel, G. E. Scuseria, 
 M. A. Robb, J. R. Cheeseman, G. Scalmani, V. Barone, B. Mennucci, 
 G. A. Petersson, H. Nakatsuji, M. Caricato, X. Li, H. P. Hratchian, 
 A. F. Izmaylov, J. Bloino, G. Zheng, J. L. Sonnenberg, M. Hada, 
 M. Ehara, K. Toyota, R. Fukuda, J. Hasegawa, M. Ishida, T. Nakajima, 
 Y. Honda, O. Kitao, H. Nakai, T. Vreven, J. A. Montgomery, Jr., 
 J. E. Peralta, F. Ogliaro, M. Bearpark, J. J. Heyd, E. Brothers, 
 K. N. Kudin, V. N. Staroverov, T. Keith, R. Kobayashi, J. Normand, 
 K. Raghavachari, A. Rendell, J. C. Burant, S. S. Iyengar, J. Tomasi, 
 M. Cossi, N. Rega, J. M. Millam, M. Klene, J. E. Knox, J. B. Cross, 
 V. Bakken, C. Adamo, J. Jaramillo, R. Gomperts, R. E. Stratmann, 
 O. Yazyev, A. J. Austin, R. Cammi, C. Pomelli, J. W. Ochterski, 
 R. L. Martin, K. Morokuma, V. G. Zakrzewski, G. A. Voth, 
 P. Salvador, J. J. Dannenberg, S. Dapprich, A. D. Daniels, 
 O. Farkas, J. B. Foresman, J. V. Ortiz, J. Cioslowski, 
 and D. J. Fox, Gaussian, Inc., Wallingford CT, 2013.
 
 ******************************************
 Gaussian 09:  ES64L-G09RevE.01 30-Nov-2015
                15-Jan-2017 
 ******************************************
 %NPROCS=4
 Will use up to    4 processors via shared memory.
 -----------------------------------------
 # opt=(MaxCycle=1000) freq B3LYP/6-31G(d)
 -----------------------------------------
 1/6=1000,14=-1,18=20,19=15,26=3,38=1/1,3;
 2/9=110,12=2,17=6,18=5,40=1/2;
 3/5=1,6=6,7=1,11=2,16=1,25=1,30=1,71=1,74=-5/1,2,3;
 4//1;
 5/5=2,38=5/2;
 6/7=2,8=2,9=2,10=2,28=1/1;
 7//1,2,3,16;
 1/6=1000,14=-1,18=20,19=15,26=3/3(2);
 2/9=110/2;
 99//99;
 2/9=110/2;
 3/5=1,6=6,7=1,11=2,16=1,25=1,30=1,71=1,74=-5/1,2,3;
 4/5=5,16=3,69=1/1;
 5/5=2,38=5/2;
 7//1,2,3,16;
 1/6=1000,14=-1,18=20,19=15,26=3/3(-5);
 2/9=110/2;
 6/7=2,8=2,9=2,10=2,19=2,28=1/1;
 99/9=1/99;
 -----------------------------------------------
 ./boats/4/glo_1w_alpha_ts_boat4_B3LYP_631Gd.out
 -----------------------------------------------
 Symbolic Z-matrix:
 Charge =  0 Multiplicity = 1
 O                    -1.25538   0.41432  -0.68238 
 C                     1.04526   0.3512   -0.15652 
 C                    -0.39665  -1.72472   0.44746 
 C                     1.00932  -1.1599    0.18833 
 C                    -1.46595  -1.20509  -0.5103 
 C                    -0.27566   1.06653   0.12948 
 H                     1.55029  -1.27384   1.14002 
 H                    -0.52299   0.98597   1.19778 
 H                     1.21208   0.42591  -1.24193 
 C                    -0.24365   2.5521   -0.29151 
 H                     0.00199   2.62421  -1.35451 
 H                    -1.22992   3.01364  -0.14249 
 H                    -0.32396  -2.81489   0.3105 
 O                     0.7726    3.30096   0.39467 
 H                     0.52046   3.36416   1.33046 
 O                    -0.78296  -1.40138   1.77422 
 H                    -1.75561  -1.48574   1.76666 
 O                     1.58869  -1.93852  -0.83914 
 H                     2.5315   -1.65903  -0.8997 
 O                     2.14115   0.93581   0.56031 
 H                     2.06495   1.90539   0.44951 
 H                    -1.32417  -1.50501  -1.5519 
 O                    -2.70217  -1.44436  -0.00509 
 O                    -3.65503   0.70876  -0.55583 
 H                    -3.333    -0.70707  -0.31118 
 H                    -2.67176   0.89463  -0.60316 
 H                    -3.97577   1.08692   0.27642 
 O                     4.08266  -0.71914  -0.53117 
 H                     4.54232  -1.17122   0.19245 
 H                     3.60133   0.01958  -0.09405 
 
 Add virtual bond connecting atoms O1         and H26        Dist= 2.83D+00.
 Add virtual bond connecting atoms H25        and O24        Dist= 2.78D+00.
 Add virtual bond connecting atoms O28        and H19        Dist= 3.50D+00.
 Add virtual bond connecting atoms H30        and O20        Dist= 3.48D+00.

 GradGradGradGradGradGradGradGradGradGradGradGradGradGradGradGradGradGrad
 Berny optimization.
 Initialization pass.
                           ----------------------------
                           !    Initial Parameters    !
                           ! (Angstroms and Degrees)  !
 --------------------------                            --------------------------
 ! Name  Definition              Value          Derivative Info.                !
 --------------------------------------------------------------------------------
 ! R1    R(1,5)                  1.6421         estimate D2E/DX2                !
 ! R2    R(1,6)                  1.4298         estimate D2E/DX2                !
 ! R3    R(1,26)                 1.4977         estimate D2E/DX2                !
 ! R4    R(2,4)                  1.5504         estimate D2E/DX2                !
 ! R5    R(2,6)                  1.5292         estimate D2E/DX2                !
 ! R6    R(2,9)                  1.1007         estimate D2E/DX2                !
 ! R7    R(2,20)                 1.4341         estimate D2E/DX2                !
 ! R8    R(3,4)                  1.5372         estimate D2E/DX2                !
 ! R9    R(3,5)                  1.5267         estimate D2E/DX2                !
 ! R10   R(3,13)                 1.1011         estimate D2E/DX2                !
 ! R11   R(3,16)                 1.4192         estimate D2E/DX2                !
 ! R12   R(4,7)                  1.1006         estimate D2E/DX2                !
 ! R13   R(4,18)                 1.4134         estimate D2E/DX2                !
 ! R14   R(5,22)                 1.0932         estimate D2E/DX2                !
 ! R15   R(5,23)                 1.3567         estimate D2E/DX2                !
 ! R16   R(6,8)                  1.0995         estimate D2E/DX2                !
 ! R17   R(6,10)                 1.5444         estimate D2E/DX2                !
 ! R18   R(10,11)                1.0934         estimate D2E/DX2                !
 ! R19   R(10,12)                1.0991         estimate D2E/DX2                !
 ! R20   R(10,14)                1.4368         estimate D2E/DX2                !
 ! R21   R(14,15)                0.9712         estimate D2E/DX2                !
 ! R22   R(16,17)                0.9763         estimate D2E/DX2                !
 ! R23   R(18,19)                0.9852         estimate D2E/DX2                !
 ! R24   R(19,28)                1.8508         estimate D2E/DX2                !
 ! R25   R(20,21)                0.9789         estimate D2E/DX2                !
 ! R26   R(20,30)                1.8439         estimate D2E/DX2                !
 ! R27   R(23,25)                1.0175         estimate D2E/DX2                !
 ! R28   R(24,25)                1.4725         estimate D2E/DX2                !
 ! R29   R(24,26)                1.0018         estimate D2E/DX2                !
 ! R30   R(24,27)                0.9688         estimate D2E/DX2                !
 ! R31   R(28,29)                0.9692         estimate D2E/DX2                !
 ! R32   R(28,30)                0.9841         estimate D2E/DX2                !
 ! A1    A(5,1,6)              118.5691         estimate D2E/DX2                !
 ! A2    A(5,1,26)             100.9211         estimate D2E/DX2                !
 ! A3    A(6,1,26)             118.1438         estimate D2E/DX2                !
 ! A4    A(4,2,6)              113.2235         estimate D2E/DX2                !
 ! A5    A(4,2,9)              106.7988         estimate D2E/DX2                !
 ! A6    A(4,2,20)             107.6897         estimate D2E/DX2                !
 ! A7    A(6,2,9)              106.4753         estimate D2E/DX2                !
 ! A8    A(6,2,20)             112.0815         estimate D2E/DX2                !
 ! A9    A(9,2,20)             110.4522         estimate D2E/DX2                !
 ! A10   A(4,3,5)              114.1927         estimate D2E/DX2                !
 ! A11   A(4,3,13)             106.4054         estimate D2E/DX2                !
 ! A12   A(4,3,16)             108.8355         estimate D2E/DX2                !
 ! A13   A(5,3,13)             107.7692         estimate D2E/DX2                !
 ! A14   A(5,3,16)             108.5597         estimate D2E/DX2                !
 ! A15   A(13,3,16)            111.0888         estimate D2E/DX2                !
 ! A16   A(2,4,3)              114.6347         estimate D2E/DX2                !
 ! A17   A(2,4,7)              106.3702         estimate D2E/DX2                !
 ! A18   A(2,4,18)             111.4532         estimate D2E/DX2                !
 ! A19   A(3,4,7)              105.412          estimate D2E/DX2                !
 ! A20   A(3,4,18)             107.161          estimate D2E/DX2                !
 ! A21   A(7,4,18)             111.7209         estimate D2E/DX2                !
 ! A22   A(1,5,3)              108.1554         estimate D2E/DX2                !
 ! A23   A(1,5,22)              98.8641         estimate D2E/DX2                !
 ! A24   A(1,5,23)             109.2559         estimate D2E/DX2                !
 ! A25   A(3,5,22)             114.4274         estimate D2E/DX2                !
 ! A26   A(3,5,23)             110.1551         estimate D2E/DX2                !
 ! A27   A(22,5,23)            115.1255         estimate D2E/DX2                !
 ! A28   A(1,6,2)              105.8022         estimate D2E/DX2                !
 ! A29   A(1,6,8)              111.3544         estimate D2E/DX2                !
 ! A30   A(1,6,10)             107.3494         estimate D2E/DX2                !
 ! A31   A(2,6,8)              109.9841         estimate D2E/DX2                !
 ! A32   A(2,6,10)             112.401          estimate D2E/DX2                !
 ! A33   A(8,6,10)             109.8765         estimate D2E/DX2                !
 ! A34   A(6,10,11)            109.4576         estimate D2E/DX2                !
 ! A35   A(6,10,12)            110.3883         estimate D2E/DX2                !
 ! A36   A(6,10,14)            112.6948         estimate D2E/DX2                !
 ! A37   A(11,10,12)           107.8018         estimate D2E/DX2                !
 ! A38   A(11,10,14)           105.7253         estimate D2E/DX2                !
 ! A39   A(12,10,14)           110.5537         estimate D2E/DX2                !
 ! A40   A(10,14,15)           108.086          estimate D2E/DX2                !
 ! A41   A(3,16,17)            104.1378         estimate D2E/DX2                !
 ! A42   A(4,18,19)            106.3007         estimate D2E/DX2                !
 ! A43   A(18,19,28)           159.0451         estimate D2E/DX2                !
 ! A44   A(2,20,21)            106.7216         estimate D2E/DX2                !
 ! A45   A(2,20,30)            103.0149         estimate D2E/DX2                !
 ! A46   A(21,20,30)           120.909          estimate D2E/DX2                !
 ! A47   A(5,23,25)            108.9723         estimate D2E/DX2                !
 ! A48   A(25,24,26)            88.3722         estimate D2E/DX2                !
 ! A49   A(25,24,27)           107.7587         estimate D2E/DX2                !
 ! A50   A(26,24,27)           107.0447         estimate D2E/DX2                !
 ! A51   A(23,25,24)           151.9268         estimate D2E/DX2                !
 ! A52   A(1,26,24)            150.5992         estimate D2E/DX2                !
 ! A53   A(19,28,29)           108.0166         estimate D2E/DX2                !
 ! A54   A(19,28,30)            93.4243         estimate D2E/DX2                !
 ! A55   A(29,28,30)           104.506          estimate D2E/DX2                !
 ! A56   A(20,30,28)           156.6315         estimate D2E/DX2                !
 ! D1    D(6,1,5,3)             -6.0309         estimate D2E/DX2                !
 ! D2    D(6,1,5,22)          -125.4772         estimate D2E/DX2                !
 ! D3    D(6,1,5,23)           113.8803         estimate D2E/DX2                !
 ! D4    D(26,1,5,3)          -136.7273         estimate D2E/DX2                !
 ! D5    D(26,1,5,22)          103.8264         estimate D2E/DX2                !
 ! D6    D(26,1,5,23)          -16.8162         estimate D2E/DX2                !
 ! D7    D(5,1,6,2)             56.9237         estimate D2E/DX2                !
 ! D8    D(5,1,6,8)            -62.5496         estimate D2E/DX2                !
 ! D9    D(5,1,6,10)           177.1455         estimate D2E/DX2                !
 ! D10   D(26,1,6,2)           179.3306         estimate D2E/DX2                !
 ! D11   D(26,1,6,8)            59.8573         estimate D2E/DX2                !
 ! D12   D(26,1,6,10)          -60.4476         estimate D2E/DX2                !
 ! D13   D(5,1,26,24)           -6.5887         estimate D2E/DX2                !
 ! D14   D(6,1,26,24)         -137.5508         estimate D2E/DX2                !
 ! D15   D(6,2,4,3)             12.9468         estimate D2E/DX2                !
 ! D16   D(6,2,4,7)           -103.1206         estimate D2E/DX2                !
 ! D17   D(6,2,4,18)           134.8826         estimate D2E/DX2                !
 ! D18   D(9,2,4,3)           -103.9191         estimate D2E/DX2                !
 ! D19   D(9,2,4,7)            140.0135         estimate D2E/DX2                !
 ! D20   D(9,2,4,18)            18.0167         estimate D2E/DX2                !
 ! D21   D(20,2,4,3)           137.4344         estimate D2E/DX2                !
 ! D22   D(20,2,4,7)            21.367          estimate D2E/DX2                !
 ! D23   D(20,2,4,18)         -100.6298         estimate D2E/DX2                !
 ! D24   D(4,2,6,1)            -60.0416         estimate D2E/DX2                !
 ! D25   D(4,2,6,8)             60.3298         estimate D2E/DX2                !
 ! D26   D(4,2,6,10)          -176.9048         estimate D2E/DX2                !
 ! D27   D(9,2,6,1)             57.0143         estimate D2E/DX2                !
 ! D28   D(9,2,6,8)            177.3858         estimate D2E/DX2                !
 ! D29   D(9,2,6,10)           -59.8488         estimate D2E/DX2                !
 ! D30   D(20,2,6,1)           177.8921         estimate D2E/DX2                !
 ! D31   D(20,2,6,8)           -61.7364         estimate D2E/DX2                !
 ! D32   D(20,2,6,10)           61.029          estimate D2E/DX2                !
 ! D33   D(4,2,20,21)         -171.0729         estimate D2E/DX2                !
 ! D34   D(4,2,20,30)           60.6154         estimate D2E/DX2                !
 ! D35   D(6,2,20,21)          -45.9004         estimate D2E/DX2                !
 ! D36   D(6,2,20,30)         -174.2121         estimate D2E/DX2                !
 ! D37   D(9,2,20,21)           72.6502         estimate D2E/DX2                !
 ! D38   D(9,2,20,30)          -55.6615         estimate D2E/DX2                !
 ! D39   D(5,3,4,2)             40.9887         estimate D2E/DX2                !
 ! D40   D(5,3,4,7)            157.607          estimate D2E/DX2                !
 ! D41   D(5,3,4,18)           -83.2555         estimate D2E/DX2                !
 ! D42   D(13,3,4,2)           159.742          estimate D2E/DX2                !
 ! D43   D(13,3,4,7)           -83.6397         estimate D2E/DX2                !
 ! D44   D(13,3,4,18)           35.4978         estimate D2E/DX2                !
 ! D45   D(16,3,4,2)           -80.4735         estimate D2E/DX2                !
 ! D46   D(16,3,4,7)            36.1448         estimate D2E/DX2                !
 ! D47   D(16,3,4,18)          155.2824         estimate D2E/DX2                !
 ! D48   D(4,3,5,1)            -43.8554         estimate D2E/DX2                !
 ! D49   D(4,3,5,22)            65.2343         estimate D2E/DX2                !
 ! D50   D(4,3,5,23)          -163.2002         estimate D2E/DX2                !
 ! D51   D(13,3,5,1)          -161.8322         estimate D2E/DX2                !
 ! D52   D(13,3,5,22)          -52.7425         estimate D2E/DX2                !
 ! D53   D(13,3,5,23)           78.823          estimate D2E/DX2                !
 ! D54   D(16,3,5,1)            77.7589         estimate D2E/DX2                !
 ! D55   D(16,3,5,22)         -173.1515         estimate D2E/DX2                !
 ! D56   D(16,3,5,23)          -41.586          estimate D2E/DX2                !
 ! D57   D(4,3,16,17)          160.0633         estimate D2E/DX2                !
 ! D58   D(5,3,16,17)           35.2237         estimate D2E/DX2                !
 ! D59   D(13,3,16,17)         -83.1042         estimate D2E/DX2                !
 ! D60   D(2,4,18,19)           62.3172         estimate D2E/DX2                !
 ! D61   D(3,4,18,19)         -171.5201         estimate D2E/DX2                !
 ! D62   D(7,4,18,19)          -56.5326         estimate D2E/DX2                !
 ! D63   D(1,5,23,25)           29.9093         estimate D2E/DX2                !
 ! D64   D(3,5,23,25)          148.5822         estimate D2E/DX2                !
 ! D65   D(22,5,23,25)         -80.2181         estimate D2E/DX2                !
 ! D66   D(1,6,10,11)          -58.7167         estimate D2E/DX2                !
 ! D67   D(1,6,10,12)           59.7871         estimate D2E/DX2                !
 ! D68   D(1,6,10,14)         -176.0593         estimate D2E/DX2                !
 ! D69   D(2,6,10,11)           57.2186         estimate D2E/DX2                !
 ! D70   D(2,6,10,12)          175.7224         estimate D2E/DX2                !
 ! D71   D(2,6,10,14)          -60.124          estimate D2E/DX2                !
 ! D72   D(8,6,10,11)         -179.9554         estimate D2E/DX2                !
 ! D73   D(8,6,10,12)          -61.4516         estimate D2E/DX2                !
 ! D74   D(8,6,10,14)           62.702          estimate D2E/DX2                !
 ! D75   D(6,10,14,15)         -68.2335         estimate D2E/DX2                !
 ! D76   D(11,10,14,15)        172.2381         estimate D2E/DX2                !
 ! D77   D(12,10,14,15)         55.829          estimate D2E/DX2                !
 ! D78   D(4,18,19,28)          -1.8597         estimate D2E/DX2                !
 ! D79   D(18,19,28,29)         87.7767         estimate D2E/DX2                !
 ! D80   D(18,19,28,30)        -18.6823         estimate D2E/DX2                !
 ! D81   D(2,20,30,28)         -20.9102         estimate D2E/DX2                !
 ! D82   D(21,20,30,28)       -139.7639         estimate D2E/DX2                !
 ! D83   D(5,23,25,24)         -44.2037         estimate D2E/DX2                !
 ! D84   D(26,24,25,23)         22.4339         estimate D2E/DX2                !
 ! D85   D(27,24,25,23)        -84.9521         estimate D2E/DX2                !
 ! D86   D(25,24,26,1)          11.0281         estimate D2E/DX2                !
 ! D87   D(27,24,26,1)         119.1137         estimate D2E/DX2                !
 ! D88   D(19,28,30,20)          2.5729         estimate D2E/DX2                !
 ! D89   D(29,28,30,20)       -107.0318         estimate D2E/DX2                !
 --------------------------------------------------------------------------------
 Trust Radius=3.00D-01 FncErr=1.00D-07 GrdErr=1.00D-06
 Number of steps in this run=    180 maximum allowed number of steps=    180.
 GradGradGradGradGradGradGradGradGradGradGradGradGradGradGradGradGradGrad

                          Input orientation:                          
 ---------------------------------------------------------------------
 Center     Atomic      Atomic             Coordinates (Angstroms)
 Number     Number       Type             X           Y           Z
 ---------------------------------------------------------------------
      1          8           0       -1.255380    0.414320   -0.682380
      2          6           0        1.045260    0.351200   -0.156520
      3          6           0       -0.396650   -1.724720    0.447460
      4          6           0        1.009320   -1.159900    0.188330
      5          6           0       -1.465950   -1.205090   -0.510300
      6          6           0       -0.275660    1.066530    0.129480
      7          1           0        1.550290   -1.273840    1.140020
      8          1           0       -0.522990    0.985970    1.197780
      9          1           0        1.212080    0.425910   -1.241930
     10          6           0       -0.243650    2.552100   -0.291510
     11          1           0        0.001990    2.624210   -1.354510
     12          1           0       -1.229920    3.013640   -0.142490
     13          1           0       -0.323960   -2.814890    0.310500
     14          8           0        0.772600    3.300960    0.394670
     15          1           0        0.520460    3.364160    1.330460
     16          8           0       -0.782960   -1.401380    1.774220
     17          1           0       -1.755610   -1.485740    1.766660
     18          8           0        1.588690   -1.938520   -0.839140
     19          1           0        2.531500   -1.659030   -0.899700
     20          8           0        2.141150    0.935810    0.560310
     21          1           0        2.064950    1.905390    0.449510
     22          1           0       -1.324170   -1.505010   -1.551900
     23          8           0       -2.702170   -1.444360   -0.005090
     24          8           0       -3.655030    0.708760   -0.555830
     25          1           0       -3.333000   -0.707070   -0.311180
     26          1           0       -2.671760    0.894630   -0.603160
     27          1           0       -3.975770    1.086920    0.276420
     28          8           0        4.082660   -0.719140   -0.531170
     29          1           0        4.542320   -1.171220    0.192450
     30          1           0        3.601330    0.019580   -0.094050
 ---------------------------------------------------------------------
                    Distance matrix (angstroms):
                    1          2          3          4          5
     1  O    0.000000
     2  C    2.360817   0.000000
     3  C    2.566992   2.598719   0.000000
     4  C    2.892260   1.550367   1.537180   0.000000
     5  C    1.642084   2.975462   1.526670   2.572370   0.000000
     6  C    1.429806   1.529157   2.811908   2.571309   2.643174
     7  H    3.747374   2.139352   2.115067   1.100611   3.438893
     8  H    2.097184   2.167134   2.815454   2.823424   2.933846
     9  H    2.530136   1.100693   3.172895   2.145122   3.219827
    10  C    2.397182   2.554109   4.342888   3.947040   3.957065
    11  H    2.629896   2.773115   4.724320   4.208867   4.187013
    12  H    2.654919   3.502175   4.847106   4.747849   4.241306
    13  H    3.504447   3.480948   1.101141   2.128744   2.137594
    14  O    3.688554   3.013177   5.160174   4.471899   5.112198
    15  H    3.988319   3.400655   5.245711   4.691542   5.311522
    16  O    3.091089   3.184601   1.419182   2.405333   2.392496
    17  H    3.139786   3.862362   1.908972   3.200334   2.312404
    18  O    3.694477   2.450327   2.375421   1.413369   3.158620
    19  H    4.322785   2.608112   3.223851   1.936484   4.041943
    20  O    3.654127   1.434081   3.678530   2.410686   4.329068
    21  H    3.811700   1.955133   4.386021   3.252472   4.802455
    22  H    2.108228   3.317650   2.214951   2.931327   1.093153
    23  O    2.450840   4.158148   2.366184   3.727397   1.356734
    24  O    2.420956   4.730753   4.188730   5.079550   2.908086
    25  H    2.389939   4.506996   3.198953   4.394350   1.942562
    26  H    1.497700   3.782994   3.625041   4.289277   2.423102
    27  H    2.961792   5.093080   4.554632   5.468737   3.488758
    28  O    5.459145   3.242189   4.693946   3.187063   5.569888
    29  H    6.073927   3.830009   4.976426   3.533021   6.049323
    30  H    4.908114   2.578249   4.395413   2.861718   5.229762
                    6          7          8          9         10
     6  C    0.000000
     7  H    3.135700   0.000000
     8  H    1.099512   3.067339   0.000000
     9  H    2.122388   2.945712   3.045705   0.000000
    10  C    1.544401   4.461537   2.179169   2.746476   0.000000
    11  H    2.169259   4.880031   3.077924   2.511875   1.093393
    12  H    2.185364   5.268480   2.531308   3.724041   1.099070
    13  H    3.885939   2.564323   3.908122   3.907972   5.401245
    14  O    2.482308   4.699909   2.771772   3.337292   1.436801
    15  H    2.712059   4.754772   2.600419   3.965960   1.968271
    16  O    3.008837   2.421267   2.469678   4.051708   4.493117
    17  H    3.374121   3.371432   2.819987   4.638233   4.777681
    18  O    3.666654   2.088145   4.142569   2.427881   4.880885
    19  H    4.045743   2.295997   4.552511   2.490977   5.079859
    20  O    2.458388   2.359604   2.739804   2.090751   3.004207
    21  H    2.506903   3.293810   2.846520   2.403584   2.509378
    22  H    3.246418   3.944920   3.795736   3.202670   4.383634
    23  O    3.494371   4.407241   3.478825   4.510991   4.700856
    24  O    3.466669   5.822540   3.600232   4.923362   3.886551
    25  H    3.561905   5.125791   3.611025   4.775740   4.490730
    26  H    2.511495   5.056347   2.805163   3.963829   2.956358
    27  H    3.703083   6.070942   3.575022   5.445742   4.049446
    28  O    4.756052   3.084391   5.206600   3.171206   5.429126
    29  H    5.312666   3.140169   5.596563   3.962167   6.082996
    30  H    4.022079   2.720777   4.428628   2.681650   4.608310
                   11         12         13         14         15
    11  H    0.000000
    12  H    1.771511   0.000000
    13  H    5.697571   5.915888   0.000000
    14  O    2.027674   2.093127   6.213948   0.000000
    15  H    2.832914   2.314363   6.319337   0.971222   0.000000
    16  O    5.158534   4.833834   2.085945   5.141491   4.960463
    17  H    5.451839   4.915854   2.436527   5.584505   5.375155
    18  O    4.858161   5.740538   2.397483   5.444304   5.828095
    19  H    4.995139   6.046114   3.309720   5.419467   5.852378
    20  O    3.330651   4.021868   4.495211   2.737572   3.019379
    21  H    2.833195   3.526308   5.292188   1.902838   2.299898
    22  H    4.341442   4.734292   2.486914   5.593114   5.951426
    23  O    5.068203   4.696825   2.762939   5.895074   5.940615
    24  O    4.204835   3.371124   4.925715   5.217936   5.295654
    25  H    4.827849   4.277275   3.726085   5.780872   5.841151
    26  H    3.271836   2.604097   4.484136   4.318530   4.475236
    27  H    4.565717   3.380448   5.344249   5.240513   5.149069
    28  O    5.339265   6.504477   4.951654   5.289129   5.729596
    29  H    6.116614   7.137506   5.137730   5.852527   6.167665
    30  H    4.618236   5.683988   4.858578   4.359818   4.765208
                   16         17         18         19         20
    16  O    0.000000
    17  H    0.976331   0.000000
    18  O    3.569719   4.263748   0.000000
    19  H    4.266366   5.051615   0.985227   0.000000
    20  O    3.935283   4.743830   3.244294   3.002865   0.000000
    21  H    4.560721   5.275540   4.082044   3.839678   0.978861
    22  H    3.371457   3.346543   3.029969   3.913474   4.735766
    23  O    2.617472   2.009176   4.399013   5.313917   5.426107
    24  O    4.258005   3.717201   5.880897   6.633086   5.907032
    25  H    3.366551   2.722481   5.100808   5.970339   5.781424
    26  H    3.806726   3.481600   5.121900   5.803708   4.951713
    27  H    4.316141   3.710594   6.431250   7.160172   6.125368
    28  O    5.427203   6.320846   2.793138   1.850758   2.774824
    29  H    5.559998   6.499306   3.221313   2.339690   3.215667
    30  H    4.973083   5.867285   2.905174   2.147403   1.843852
                   21         22         23         24         25
    21  H    0.000000
    22  H    5.207937   0.000000
    23  O    5.844050   2.072482   0.000000
    24  O    5.929655   3.365389   2.418095   0.000000
    25  H    6.044953   2.492287   1.017465   1.472458   0.000000
    26  H    4.956427   2.911079   2.414433   1.001802   1.757252
    27  H    6.098373   4.134228   2.847575   0.968772   1.994198
    28  O    3.452687   5.558173   6.843729   7.868377   7.418932
    29  H    3.958405   6.129427   7.252328   8.443388   7.905045
    30  H    2.492429   5.358195   6.471873   7.303627   6.975679
                   26         27         28         29         30
    26  H    0.000000
    27  H    1.584638   0.000000
    28  O    6.944899   8.297732   0.000000
    29  H    7.546104   8.812724   0.969170   0.000000
    30  H    6.354256   7.660869   0.984104   1.544522   0.000000
 Stoichiometry    C6H16O8
 Framework group  C1[X(C6H16O8)]
 Deg. of freedom    84
 Full point group                 C1      NOp   1
 Largest Abelian subgroup         C1      NOp   1
 Largest concise Abelian subgroup C1      NOp   1
                         Standard orientation:                         
 ---------------------------------------------------------------------
 Center     Atomic      Atomic             Coordinates (Angstroms)
 Number     Number       Type             X           Y           Z
 ---------------------------------------------------------------------
      1          8           0       -1.260167    0.395815   -0.684102
      2          6           0        1.040632    0.338035   -0.158326
      3          6           0       -0.396148   -1.741804    0.444395
      4          6           0        1.008421   -1.173362    0.185588
      5          6           0       -1.466745   -1.224215   -0.513022
      6          6           0       -0.282039    1.049932    0.128143
      7          1           0        1.549690   -1.286560    1.137197
      8          1           0       -0.529148    0.968101    1.196398
      9          1           0        1.207245    0.413829   -1.243692
     10          6           0       -0.253697    2.535837   -0.291926
     11          1           0       -0.008258    2.609211   -1.354886
     12          1           0       -1.241098    2.994854   -0.142601
     13          1           0       -0.320776   -2.831706    0.306758
     14          8           0        0.760720    3.286772    0.394698
     15          1           0        0.508445    3.348771    1.330532
     16          8           0       -0.783225   -1.420239    1.771363
     17          1           0       -1.755665   -1.506989    1.763769
     18          8           0        1.589686   -1.949916   -0.842376
     19          1           0        2.531803   -1.668067   -0.902781
     20          8           0        2.135094    0.924898    0.558845
     21          1           0        2.056504    1.894356    0.448648
     22          1           0       -1.324248   -1.523139   -1.554810
     23          8           0       -2.702361   -1.466842   -0.007936
     24          8           0       -3.660532    0.684266   -0.557323
     25          1           0       -3.335011   -0.730918   -0.313557
     26          1           0       -2.677724    0.872586   -0.604556
     27          1           0       -3.982185    1.061118    0.275168
     28          8           0        4.080651   -0.724589   -0.533698
     29          1           0        4.541439   -1.175984    0.189632
     30          1           0        3.597513    0.012673   -0.096111
 ---------------------------------------------------------------------
 Rotational constants (GHZ):      0.7698285      0.5009938      0.3490752
 Standard basis: 6-31G(d) (6D, 7F)
 There are   242 symmetry adapted cartesian basis functions of A   symmetry.
 There are   242 symmetry adapted basis functions of A   symmetry.
   242 basis functions,   456 primitive gaussians,   242 cartesian basis functions
    58 alpha electrons       58 beta electrons
       nuclear repulsion energy      1109.1032694071 Hartrees.
 NAtoms=   30 NActive=   30 NUniq=   30 SFac= 1.00D+00 NAtFMM=   60 NAOKFM=F Big=F
 Integral buffers will be    131072 words long.
 Raffenetti 2 integral format.
 Two-electron integral symmetry is turned on.
 One-electron integrals computed using PRISM.
 NBasis=   242 RedAO= T EigKep=  1.32D-03  NBF=   242
 NBsUse=   242 1.00D-06 EigRej= -1.00D+00 NBFU=   242
 ExpMin= 1.61D-01 ExpMax= 5.48D+03 ExpMxC= 8.25D+02 IAcc=1 IRadAn=         1 AccDes= 0.00D+00
 Harris functional with IExCor=  402 and IRadAn=       1 diagonalized for initial guess.
 HarFok:  IExCor=  402 AccDes= 0.00D+00 IRadAn=         1 IDoV= 1 UseB2=F ITyADJ=14
 ICtDFT=  3500011 ScaDFX=  1.000000  1.000000  1.000000  1.000000
 FoFCou: FMM=F IPFlag=           0 FMFlag=      100000 FMFlg1=           0
         NFxFlg=           0 DoJE=T BraDBF=F KetDBF=T FulRan=T
         wScrn=  0.000000 ICntrl=     500 IOpCl=  0 I1Cent=   200000004 NGrid=           0
         NMat0=    1 NMatS0=      1 NMatT0=    0 NMatD0=    1 NMtDS0=    0 NMtDT0=    0
 Petite list used in FoFCou.
 Requested convergence on RMS density matrix=1.00D-08 within 128 cycles.
 Requested convergence on MAX density matrix=1.00D-06.
 Requested convergence on             energy=1.00D-06.
 No special actions if energy rises.
 Integral accuracy reduced to 1.0D-05 until final iterations.
 Initial convergence to 1.0D-05 achieved.  Increase integral accuracy.
 SCF Done:  E(RB3LYP) =  -839.979271918     A.U. after   14 cycles
            NFock= 14  Conv=0.35D-08     -V/T= 2.0085

 **********************************************************************

            Population analysis using the SCF density.

 **********************************************************************

 Orbital symmetries:
       Occupied  (A) (A) (A) (A) (A) (A) (A) (A) (A) (A) (A) (A)
                 (A) (A) (A) (A) (A) (A) (A) (A) (A) (A) (A) (A)
                 (A) (A) (A) (A) (A) (A) (A) (A) (A) (A) (A) (A)
                 (A) (A) (A) (A) (A) (A) (A) (A) (A) (A) (A) (A)
                 (A) (A) (A) (A) (A) (A) (A) (A) (A) (A)
       Virtual   (A) (A) (A) (A) (A) (A) (A) (A) (A) (A) (A) (A)
                 (A) (A) (A) (A) (A) (A) (A) (A) (A) (A) (A) (A)
                 (A) (A) (A) (A) (A) (A) (A) (A) (A) (A) (A) (A)
                 (A) (A) (A) (A) (A) (A) (A) (A) (A) (A) (A) (A)
                 (A) (A) (A) (A) (A) (A) (A) (A) (A) (A) (A) (A)
                 (A) (A) (A) (A) (A) (A) (A) (A) (A) (A) (A) (A)
                 (A) (A) (A) (A) (A) (A) (A) (A) (A) (A) (A) (A)
                 (A) (A) (A) (A) (A) (A) (A) (A) (A) (A) (A) (A)
                 (A) (A) (A) (A) (A) (A) (A) (A) (A) (A) (A) (A)
                 (A) (A) (A) (A) (A) (A) (A) (A) (A) (A) (A) (A)
                 (A) (A) (A) (A) (A) (A) (A) (A) (A) (A) (A) (A)
                 (A) (A) (A) (A) (A) (A) (A) (A) (A) (A) (A) (A)
                 (A) (A) (A) (A) (A) (A) (A) (A) (A) (A) (A) (A)
                 (A) (A) (A) (A) (A) (A) (A) (A) (A) (A) (A) (A)
                 (A) (A) (A) (A) (A) (A) (A) (A) (A) (A) (A) (A)
                 (A) (A) (A) (A)
 The electronic state is 1-A.
 Alpha  occ. eigenvalues --  -19.19093 -19.17121 -19.16077 -19.15591 -19.15346
 Alpha  occ. eigenvalues --  -19.14487 -19.14464 -19.12192 -10.30172 -10.26025
 Alpha  occ. eigenvalues --  -10.25273 -10.24053 -10.24038 -10.23378  -1.07442
 Alpha  occ. eigenvalues --   -1.05946  -1.03337  -1.02552  -1.00846  -1.00624
 Alpha  occ. eigenvalues --   -1.00351  -0.99415  -0.77491  -0.76481  -0.70413
 Alpha  occ. eigenvalues --   -0.65035  -0.63250  -0.56725  -0.55933  -0.55412
 Alpha  occ. eigenvalues --   -0.53930  -0.53274  -0.52273  -0.51320  -0.50200
 Alpha  occ. eigenvalues --   -0.47931  -0.46299  -0.45242  -0.44309  -0.42875
 Alpha  occ. eigenvalues --   -0.42521  -0.40475  -0.39902  -0.39465  -0.38143
 Alpha  occ. eigenvalues --   -0.37616  -0.36162  -0.35252  -0.34346  -0.33330
 Alpha  occ. eigenvalues --   -0.30965  -0.30716  -0.29708  -0.29349  -0.28765
 Alpha  occ. eigenvalues --   -0.27618  -0.26446  -0.25105
 Alpha virt. eigenvalues --    0.02701   0.04929   0.06296   0.07290   0.09949
 Alpha virt. eigenvalues --    0.10536   0.11169   0.12770   0.13790   0.14638
 Alpha virt. eigenvalues --    0.15272   0.16517   0.17163   0.17719   0.18675
 Alpha virt. eigenvalues --    0.20125   0.20393   0.20842   0.23216   0.23654
 Alpha virt. eigenvalues --    0.24676   0.25099   0.26493   0.28662   0.29702
 Alpha virt. eigenvalues --    0.31025   0.33265   0.33659   0.51292   0.52690
 Alpha virt. eigenvalues --    0.53365   0.54212   0.54665   0.57389   0.60174
 Alpha virt. eigenvalues --    0.60482   0.61464   0.63234   0.65482   0.66460
 Alpha virt. eigenvalues --    0.67447   0.68767   0.71843   0.73501   0.74533
 Alpha virt. eigenvalues --    0.75950   0.76990   0.78109   0.78809   0.79999
 Alpha virt. eigenvalues --    0.81124   0.81722   0.83144   0.84188   0.85333
 Alpha virt. eigenvalues --    0.85780   0.86886   0.87901   0.88140   0.89160
 Alpha virt. eigenvalues --    0.91105   0.91849   0.92222   0.92941   0.94640
 Alpha virt. eigenvalues --    0.96219   0.98722   1.00318   1.01599   1.02046
 Alpha virt. eigenvalues --    1.04513   1.05470   1.06301   1.07682   1.09150
 Alpha virt. eigenvalues --    1.09658   1.10865   1.12244   1.14736   1.15236
 Alpha virt. eigenvalues --    1.15987   1.18959   1.22683   1.23427   1.24744
 Alpha virt. eigenvalues --    1.28488   1.31709   1.33799   1.35571   1.38846
 Alpha virt. eigenvalues --    1.41636   1.43568   1.45864   1.46886   1.48036
 Alpha virt. eigenvalues --    1.51062   1.54221   1.55609   1.57173   1.58904
 Alpha virt. eigenvalues --    1.60749   1.62064   1.65949   1.67427   1.68392
 Alpha virt. eigenvalues --    1.69118   1.70905   1.71516   1.72664   1.73821
 Alpha virt. eigenvalues --    1.75642   1.76285   1.77835   1.78449   1.79415
 Alpha virt. eigenvalues --    1.81833   1.82386   1.83337   1.83586   1.87153
 Alpha virt. eigenvalues --    1.88184   1.88740   1.91341   1.93395   1.94375
 Alpha virt. eigenvalues --    1.96350   1.97545   2.02669   2.03057   2.04732
 Alpha virt. eigenvalues --    2.05730   2.08351   2.09848   2.11169   2.13624
 Alpha virt. eigenvalues --    2.15088   2.21960   2.23954   2.24938   2.26360
 Alpha virt. eigenvalues --    2.29710   2.33335   2.34573   2.36371   2.37514
 Alpha virt. eigenvalues --    2.42531   2.44552   2.47113   2.49022   2.50877
 Alpha virt. eigenvalues --    2.52592   2.53469   2.55338   2.56524   2.57851
 Alpha virt. eigenvalues --    2.62511   2.63086   2.65641   2.67239   2.69463
 Alpha virt. eigenvalues --    2.70815   2.78045   2.81047   2.86412   2.88978
 Alpha virt. eigenvalues --    2.91066   2.95170   2.97414   3.00740   3.07991
 Alpha virt. eigenvalues --    3.73155   3.74337   3.79741   3.83572   3.92600
 Alpha virt. eigenvalues --    3.97583   3.99588   4.13331   4.25638   4.34661
 Alpha virt. eigenvalues --    4.45635   4.53241   4.62040   4.81704
          Condensed to atoms (all electrons):
               1          2          3          4          5          6
     1  O    8.523111  -0.038498  -0.010322  -0.005660   0.130312   0.145741
     2  C   -0.038498   5.032042  -0.024540   0.323307  -0.021222   0.303646
     3  C   -0.010322  -0.024540   5.040008   0.323609   0.274951  -0.008553
     4  C   -0.005660   0.323307   0.323609   4.897504  -0.027138  -0.025403
     5  C    0.130312  -0.021222   0.274951  -0.027138   4.754018  -0.012470
     6  C    0.145741   0.303646  -0.008553  -0.025403  -0.012470   5.021910
     7  H    0.000222  -0.063310  -0.047384   0.350864   0.006683   0.001443
     8  H   -0.032997  -0.054508  -0.003207  -0.008614  -0.000796   0.345647
     9  H    0.005453   0.345894  -0.000592  -0.053098   0.002403  -0.047745
    10  C   -0.032733  -0.024744   0.000224   0.003504   0.001438   0.316873
    11  H    0.005122  -0.009142   0.000011  -0.000052  -0.000045  -0.036628
    12  H    0.001319   0.004872   0.000014  -0.000130  -0.000150  -0.044339
    13  H    0.002229   0.005449   0.352350  -0.047713  -0.041494   0.000532
    14  O    0.001297  -0.000459   0.000010  -0.000003  -0.000020  -0.034537
    15  H   -0.000007  -0.001460  -0.000001  -0.000002   0.000001  -0.001286
    16  O   -0.002506   0.000041   0.202023  -0.039644  -0.021864  -0.000261
    17  H    0.000349  -0.000217  -0.042825   0.006720  -0.013530   0.000659
    18  O   -0.000162  -0.049940  -0.048606   0.233231   0.003216   0.003975
    19  H   -0.000010   0.000487   0.005488  -0.024344  -0.000171   0.000081
    20  O    0.001470   0.183907   0.002100  -0.038687   0.000196  -0.024240
    21  H    0.000062  -0.018848  -0.000180   0.004371  -0.000020  -0.009289
    22  H   -0.043231  -0.000116  -0.059086  -0.001553   0.371530   0.003991
    23  O   -0.042494   0.000096  -0.047949   0.002314   0.287092   0.000377
    24  O   -0.070510  -0.000004  -0.000542   0.000013   0.007937   0.003877
    25  H    0.005285  -0.000041   0.005271  -0.000069  -0.026277  -0.000288
    26  H    0.074930   0.001142   0.001011  -0.000056  -0.007113  -0.006926
    27  H    0.003307   0.000018  -0.000051  -0.000002   0.000016   0.000008
    28  O    0.000000   0.002064   0.000139   0.005952  -0.000000   0.000013
    29  H   -0.000000  -0.000438   0.000016   0.000598  -0.000000  -0.000007
    30  H   -0.000010  -0.005927   0.000049  -0.000717  -0.000006   0.000694
               7          8          9         10         11         12
     1  O    0.000222  -0.032997   0.005453  -0.032733   0.005122   0.001319
     2  C   -0.063310  -0.054508   0.345894  -0.024744  -0.009142   0.004872
     3  C   -0.047384  -0.003207  -0.000592   0.000224   0.000011   0.000014
     4  C    0.350864  -0.008614  -0.053098   0.003504  -0.000052  -0.000130
     5  C    0.006683  -0.000796   0.002403   0.001438  -0.000045  -0.000150
     6  C    0.001443   0.345647  -0.047745   0.316873  -0.036628  -0.044339
     7  H    0.634143   0.001597   0.007391  -0.000272   0.000000   0.000006
     8  H    0.001597   0.630992   0.007512  -0.053028   0.005893  -0.005318
     9  H    0.007391   0.007512   0.632720  -0.014192   0.006835  -0.000041
    10  C   -0.000272  -0.053028  -0.014192   4.961415   0.365332   0.362527
    11  H    0.000000   0.005893   0.006835   0.365332   0.551306  -0.037331
    12  H    0.000006  -0.005318  -0.000041   0.362527  -0.037331   0.605350
    13  H   -0.004147   0.000157  -0.000343   0.000018  -0.000001  -0.000000
    14  O   -0.000000   0.001202   0.000147   0.220218  -0.033568  -0.028637
    15  H    0.000003   0.004755   0.000143  -0.028331   0.006829  -0.006972
    16  O    0.004639   0.015687   0.000015   0.000349  -0.000006   0.000002
    17  H   -0.000264  -0.000573   0.000012  -0.000027   0.000000   0.000000
    18  O   -0.035364   0.000015   0.005654  -0.000052  -0.000009   0.000001
    19  H   -0.003643  -0.000000   0.000681  -0.000001   0.000001  -0.000000
    20  O    0.002919   0.004703  -0.038466   0.000401   0.000277  -0.000186
    21  H    0.000070  -0.000187  -0.001900  -0.004840  -0.000872   0.000887
    22  H   -0.000036  -0.000054   0.000334  -0.000089  -0.000016   0.000007
    23  O   -0.000072   0.000873   0.000012  -0.000049   0.000003   0.000005
    24  O   -0.000000   0.000327   0.000002  -0.000384   0.000006   0.000266
    25  H    0.000007  -0.000021   0.000003   0.000004   0.000001  -0.000025
    26  H    0.000001  -0.000241  -0.000015  -0.001368  -0.000002   0.004385
    27  H    0.000000   0.000033   0.000000  -0.000099  -0.000003   0.000320
    28  O    0.001800   0.000001   0.000629  -0.000002   0.000000  -0.000000
    29  H    0.000338   0.000000  -0.000017   0.000000   0.000000   0.000000
    30  H    0.000295  -0.000027  -0.001481  -0.000002  -0.000007   0.000001
              13         14         15         16         17         18
     1  O    0.002229   0.001297  -0.000007  -0.002506   0.000349  -0.000162
     2  C    0.005449  -0.000459  -0.001460   0.000041  -0.000217  -0.049940
     3  C    0.352350   0.000010  -0.000001   0.202023  -0.042825  -0.048606
     4  C   -0.047713  -0.000003  -0.000002  -0.039644   0.006720   0.233231
     5  C   -0.041494  -0.000020   0.000001  -0.021864  -0.013530   0.003216
     6  C    0.000532  -0.034537  -0.001286  -0.000261   0.000659   0.003975
     7  H   -0.004147  -0.000000   0.000003   0.004639  -0.000264  -0.035364
     8  H    0.000157   0.001202   0.004755   0.015687  -0.000573   0.000015
     9  H   -0.000343   0.000147   0.000143   0.000015   0.000012   0.005654
    10  C    0.000018   0.220218  -0.028331   0.000349  -0.000027  -0.000052
    11  H   -0.000001  -0.033568   0.006829  -0.000006   0.000000  -0.000009
    12  H   -0.000000  -0.028637  -0.006972   0.000002   0.000000   0.000001
    13  H    0.598875  -0.000000  -0.000000  -0.033020  -0.000096   0.007736
    14  O   -0.000000   8.220838   0.234567  -0.000000   0.000000   0.000000
    15  H   -0.000000   0.234567   0.385659  -0.000005   0.000000  -0.000000
    16  O   -0.033020  -0.000000  -0.000005   8.313225   0.228172   0.001153
    17  H   -0.000096   0.000000   0.000000   0.228172   0.367869  -0.000115
    18  O    0.007736   0.000000  -0.000000   0.001153  -0.000115   8.361129
    19  H   -0.000050   0.000000  -0.000000  -0.000090   0.000008   0.211725
    20  O   -0.000069  -0.019537   0.002623  -0.000105   0.000006   0.000861
    21  H    0.000005   0.056437  -0.003865   0.000003  -0.000001  -0.000137
    22  H    0.001296   0.000001  -0.000000   0.003262   0.001623   0.003748
    23  O   -0.000870   0.000000  -0.000000  -0.018473   0.044753   0.000006
    24  O    0.000003   0.000000   0.000000  -0.000024   0.000266  -0.000000
    25  H   -0.000168  -0.000000   0.000000   0.000282  -0.001203   0.000001
    26  H   -0.000052   0.000028  -0.000003  -0.000068  -0.000032   0.000001
    27  H   -0.000000   0.000000  -0.000000   0.000016   0.000027   0.000000
    28  O    0.000002  -0.000000   0.000000   0.000000  -0.000000  -0.024063
    29  H   -0.000000   0.000000  -0.000000  -0.000000   0.000000   0.001267
    30  H   -0.000005   0.000031  -0.000005  -0.000002   0.000000   0.003376
              19         20         21         22         23         24
     1  O   -0.000010   0.001470   0.000062  -0.043231  -0.042494  -0.070510
     2  C    0.000487   0.183907  -0.018848  -0.000116   0.000096  -0.000004
     3  C    0.005488   0.002100  -0.000180  -0.059086  -0.047949  -0.000542
     4  C   -0.024344  -0.038687   0.004371  -0.001553   0.002314   0.000013
     5  C   -0.000171   0.000196  -0.000020   0.371530   0.287092   0.007937
     6  C    0.000081  -0.024240  -0.009289   0.003991   0.000377   0.003877
     7  H   -0.003643   0.002919   0.000070  -0.000036  -0.000072  -0.000000
     8  H   -0.000000   0.004703  -0.000187  -0.000054   0.000873   0.000327
     9  H    0.000681  -0.038466  -0.001900   0.000334   0.000012   0.000002
    10  C   -0.000001   0.000401  -0.004840  -0.000089  -0.000049  -0.000384
    11  H    0.000001   0.000277  -0.000872  -0.000016   0.000003   0.000006
    12  H   -0.000000  -0.000186   0.000887   0.000007   0.000005   0.000266
    13  H   -0.000050  -0.000069   0.000005   0.001296  -0.000870   0.000003
    14  O    0.000000  -0.019537   0.056437   0.000001   0.000000   0.000000
    15  H   -0.000000   0.002623  -0.003865  -0.000000  -0.000000   0.000000
    16  O   -0.000090  -0.000105   0.000003   0.003262  -0.018473  -0.000024
    17  H    0.000008   0.000006  -0.000001   0.001623   0.044753   0.000266
    18  O    0.211725   0.000861  -0.000137   0.003748   0.000006  -0.000000
    19  H    0.323022   0.000457  -0.000038  -0.000035   0.000001   0.000000
    20  O    0.000457   8.356321   0.214224  -0.000005   0.000000   0.000000
    21  H   -0.000038   0.214224   0.340823  -0.000000   0.000000  -0.000000
    22  H   -0.000035  -0.000005  -0.000000   0.599996  -0.049416  -0.000232
    23  O    0.000001   0.000000   0.000000  -0.049416   8.354157  -0.076829
    24  O    0.000000   0.000000  -0.000000  -0.000232  -0.076829   8.431310
    25  H   -0.000000  -0.000000   0.000000  -0.001672   0.183774   0.109204
    26  H    0.000000  -0.000008   0.000003   0.000955   0.011243   0.178196
    27  H   -0.000000  -0.000000   0.000000   0.000052   0.004978   0.233828
    28  O    0.069195  -0.021175   0.000376   0.000000   0.000000   0.000000
    29  H   -0.003765   0.000928  -0.000013  -0.000000  -0.000000  -0.000000
    30  H   -0.007453   0.058576  -0.000893  -0.000000  -0.000000  -0.000000
              25         26         27         28         29         30
     1  O    0.005285   0.074930   0.003307   0.000000  -0.000000  -0.000010
     2  C   -0.000041   0.001142   0.000018   0.002064  -0.000438  -0.005927
     3  C    0.005271   0.001011  -0.000051   0.000139   0.000016   0.000049
     4  C   -0.000069  -0.000056  -0.000002   0.005952   0.000598  -0.000717
     5  C   -0.026277  -0.007113   0.000016  -0.000000  -0.000000  -0.000006
     6  C   -0.000288  -0.006926   0.000008   0.000013  -0.000007   0.000694
     7  H    0.000007   0.000001   0.000000   0.001800   0.000338   0.000295
     8  H   -0.000021  -0.000241   0.000033   0.000001   0.000000  -0.000027
     9  H    0.000003  -0.000015   0.000000   0.000629  -0.000017  -0.001481
    10  C    0.000004  -0.001368  -0.000099  -0.000002   0.000000  -0.000002
    11  H    0.000001  -0.000002  -0.000003   0.000000   0.000000  -0.000007
    12  H   -0.000025   0.004385   0.000320  -0.000000   0.000000   0.000001
    13  H   -0.000168  -0.000052  -0.000000   0.000002  -0.000000  -0.000005
    14  O   -0.000000   0.000028   0.000000  -0.000000   0.000000   0.000031
    15  H    0.000000  -0.000003  -0.000000   0.000000  -0.000000  -0.000005
    16  O    0.000282  -0.000068   0.000016   0.000000  -0.000000  -0.000002
    17  H   -0.001203  -0.000032   0.000027  -0.000000   0.000000   0.000000
    18  O    0.000001   0.000001   0.000000  -0.024063   0.001267   0.003376
    19  H   -0.000000   0.000000  -0.000000   0.069195  -0.003765  -0.007453
    20  O   -0.000000  -0.000008  -0.000000  -0.021175   0.000928   0.058576
    21  H    0.000000   0.000003   0.000000   0.000376  -0.000013  -0.000893
    22  H   -0.001672   0.000955   0.000052   0.000000  -0.000000  -0.000000
    23  O    0.183774   0.011243   0.004978   0.000000  -0.000000  -0.000000
    24  O    0.109204   0.178196   0.233828   0.000000  -0.000000  -0.000000
    25  H    0.297491  -0.016945  -0.007431   0.000000   0.000000   0.000000
    26  H   -0.016945   0.321682  -0.006912  -0.000000  -0.000000   0.000000
    27  H   -0.007431  -0.006912   0.377301  -0.000000   0.000000   0.000000
    28  O    0.000000  -0.000000  -0.000000   8.324873   0.240644   0.210113
    29  H    0.000000  -0.000000   0.000000   0.240644   0.380788  -0.015402
    30  H    0.000000   0.000000   0.000000   0.210113  -0.015402   0.329171
 Mulliken charges:
               1
     1  O   -0.621068
     2  C    0.110449
     3  C    0.086563
     4  C    0.120899
     5  C    0.332524
     6  C    0.102505
     7  H    0.142074
     8  H    0.140178
     9  H    0.142049
    10  C   -0.072091
    11  H    0.176063
    12  H    0.143165
    13  H    0.159376
    14  O   -0.618014
    15  H    0.407358
    16  O   -0.652799
    17  H    0.408416
    18  O   -0.678649
    19  H    0.428456
    20  O   -0.687488
    21  H    0.423820
    22  H    0.168747
    23  O   -0.653532
    24  O   -0.816710
    25  H    0.452819
    26  H    0.446164
    27  H    0.394594
    28  O   -0.810561
    29  H    0.395062
    30  H    0.429632
 Sum of Mulliken charges =  -0.00000
 Mulliken charges with hydrogens summed into heavy atoms:
               1
     1  O   -0.621068
     2  C    0.252498
     3  C    0.245940
     4  C    0.262973
     5  C    0.501270
     6  C    0.242682
    10  C    0.247138
    14  O   -0.210657
    16  O   -0.244383
    18  O   -0.250193
    20  O   -0.263668
    23  O   -0.200714
    24  O    0.024048
    28  O    0.014133
 Electronic spatial extent (au):  <R**2>=           3244.8240
 Charge=             -0.0000 electrons
 Dipole moment (field-independent basis, Debye):
    X=             -0.9908    Y=              3.3905    Z=              2.9756  Tot=              4.6186
 Quadrupole moment (field-independent basis, Debye-Ang):
   XX=            -83.0882   YY=            -82.4373   ZZ=            -85.8926
   XY=             -4.6136   XZ=              0.2826   YZ=              3.9995
 Traceless Quadrupole moment (field-independent basis, Debye-Ang):
   XX=              0.7178   YY=              1.3687   ZZ=             -2.0866
   XY=             -4.6136   XZ=              0.2826   YZ=              3.9995
 Octapole moment (field-independent basis, Debye-Ang**2):
  XXX=             16.6512  YYY=             12.3948  ZZZ=              0.1021  XYY=             -5.2054
  XXY=             -0.4359  XXZ=             58.5927  XZZ=             -4.5971  YZZ=             15.5919
  YYZ=             19.6690  XYZ=            -14.9481
 Hexadecapole moment (field-independent basis, Debye-Ang**3):
 XXXX=          -1976.6724 YYYY=          -1403.6311 ZZZZ=           -330.9810 XXXY=           -105.1151
 XXXZ=             21.4626 YYYX=            -39.7523 YYYZ=             46.5915 ZZZX=             -5.8029
 ZZZY=             28.2369 XXYY=           -543.7986 XXZZ=           -412.7761 YYZZ=           -250.5900
 XXYZ=             -2.1571 YYXZ=             10.0020 ZZXY=             17.4945
 N-N= 1.109103269407D+03 E-N=-4.190434525648D+03  KE= 8.328748788075D+02
 Calling FoFJK, ICntrl=      2127 FMM=F ISym2X=0 I1Cent= 0 IOpClX= 0 NMat=1 NMatS=1 NMatT=0.
 ***** Axes restored to original set *****
 -------------------------------------------------------------------
 Center     Atomic                   Forces (Hartrees/Bohr)
 Number     Number              X              Y              Z
 -------------------------------------------------------------------
      1        8           0.006163211   -0.023751059    0.002770074
      2        6           0.002186980   -0.000333415    0.000973825
      3        6          -0.000586722    0.001740023   -0.001453913
      4        6           0.000548727   -0.000941804    0.000792696
      5        6           0.011603633    0.028305739   -0.003021182
      6        6           0.001972295   -0.005322988    0.000360351
      7        1           0.000072811   -0.000087506    0.000051655
      8        1           0.000101263   -0.000229527   -0.000001179
      9        1           0.000146464   -0.000001693    0.000074593
     10        6          -0.001584989   -0.002920390   -0.001149039
     11        1          -0.000093909   -0.000072172   -0.000081745
     12        1          -0.000124112   -0.000268572   -0.000003260
     13        1          -0.000803485    0.000212798   -0.000510510
     14        8          -0.001490932   -0.002233251   -0.000587227
     15        1          -0.000100492   -0.000111812   -0.000037399
     16        8           0.001022407    0.000262967    0.000352505
     17        1           0.000098651   -0.000214807    0.000342356
     18        8          -0.000049441   -0.000307753    0.000099126
     19        1          -0.000015053   -0.000014504   -0.000021090
     20        8           0.001960153   -0.000242843    0.000571058
     21        1           0.000070055   -0.000015160    0.000100194
     22        1           0.000379237    0.000364032    0.000241748
     23        8           0.006674510   -0.009511931    0.005381321
     24        8          -0.024731045    0.016601496   -0.003645523
     25        1          -0.000445171   -0.003492820   -0.000820510
     26        1          -0.002244358    0.001820763   -0.001004326
     27        1          -0.000592672    0.000711923    0.000229103
     28        8          -0.000160568    0.000001411    0.000000033
     29        1          -0.000004352    0.000025339    0.000013687
     30        1           0.000026901    0.000027517   -0.000017424
 -------------------------------------------------------------------
 Cartesian Forces:  Max     0.028305739 RMS     0.005492762

 GradGradGradGradGradGradGradGradGradGradGradGradGradGradGradGradGradGrad
 Berny optimization.
 FormGI is forming the generalized inverse of G from B-inverse, IUseBI=4.
 Internal  Forces:  Max     0.022688031 RMS     0.003519673
 Search for a local minimum.
 Step number   1 out of a maximum of  180
 All quantities printed in internal units (Hartrees-Bohrs-Radians)
 Mixed Optimization -- RFO/linear search
 Second derivative matrix not updated -- first step.
 ITU=  0
     Eigenvalues ---    0.00230   0.00481   0.00542   0.00563   0.00616
     Eigenvalues ---    0.00727   0.00876   0.01205   0.01216   0.01438
     Eigenvalues ---    0.01534   0.02255   0.03031   0.03159   0.03518
     Eigenvalues ---    0.04178   0.04319   0.04637   0.04657   0.04688
     Eigenvalues ---    0.04967   0.05041   0.05291   0.05632   0.05703
     Eigenvalues ---    0.05835   0.06098   0.06322   0.06651   0.06848
     Eigenvalues ---    0.07350   0.07705   0.08054   0.08423   0.09213
     Eigenvalues ---    0.09486   0.09877   0.11216   0.11664   0.11670
     Eigenvalues ---    0.12188   0.12807   0.13050   0.13969   0.15443
     Eigenvalues ---    0.15870   0.16000   0.16000   0.16113   0.17056
     Eigenvalues ---    0.18235   0.18932   0.19679   0.20412   0.20628
     Eigenvalues ---    0.21900   0.22050   0.25061   0.26804   0.28133
     Eigenvalues ---    0.28669   0.28897   0.33556   0.33606   0.33615
     Eigenvalues ---    0.33736   0.33785   0.34423   0.34451   0.38679
     Eigenvalues ---    0.39181   0.40027   0.42406   0.42429   0.42584
     Eigenvalues ---    0.45495   0.49011   0.49554   0.51607   0.52007
     Eigenvalues ---    0.52104   0.53128   0.53547   0.53629
 RFO step:  Lambda=-1.22555807D-02 EMin= 2.30000000D-03
 Linear search not attempted -- first point.
 Iteration  1 RMS(Cart)=  0.04274651 RMS(Int)=  0.00064149
 Iteration  2 RMS(Cart)=  0.00093025 RMS(Int)=  0.00026077
 Iteration  3 RMS(Cart)=  0.00000104 RMS(Int)=  0.00026077
 Iteration  4 RMS(Cart)=  0.00000000 RMS(Int)=  0.00026077
 Variable       Old X    -DE/DX   Delta X   Delta X   Delta X     New X
                                 (Linear)    (Quad)   (Total)
    R1        3.10309  -0.02269   0.00000  -0.11979  -0.12063   2.98246
    R2        2.70194   0.00023   0.00000  -0.00258  -0.00269   2.69926
    R3        2.83024   0.02048   0.00000   0.15761   0.15770   2.98794
    R4        2.92977  -0.00502   0.00000  -0.01146  -0.01137   2.91839
    R5        2.88969   0.00233   0.00000   0.01187   0.01188   2.90157
    R6        2.08001  -0.00005   0.00000  -0.00015  -0.00015   2.07986
    R7        2.71002   0.00183   0.00000   0.00382   0.00381   2.71383
    R8        2.90485  -0.00313   0.00000  -0.00930  -0.00921   2.89564
    R9        2.88499   0.00023   0.00000   0.00010   0.00012   2.88511
   R10        2.08086  -0.00020   0.00000  -0.00058  -0.00058   2.08028
   R11        2.68186   0.00036   0.00000   0.00081   0.00081   2.68268
   R12        2.07985   0.00009   0.00000   0.00026   0.00026   2.08011
   R13        2.67088   0.00011   0.00000  -0.00029  -0.00029   2.67059
   R14        2.06576  -0.00028   0.00000  -0.00079  -0.00079   2.06497
   R15        2.56386   0.00341   0.00000   0.00532   0.00483   2.56868
   R16        2.07778  -0.00001   0.00000  -0.00002  -0.00002   2.07776
   R17        2.91850  -0.00496   0.00000  -0.01688  -0.01688   2.90161
   R18        2.06621   0.00005   0.00000   0.00015   0.00015   2.06636
   R19        2.07694  -0.00000   0.00000  -0.00001  -0.00001   2.07694
   R20        2.71516  -0.00265   0.00000  -0.00641  -0.00641   2.70875
   R21        1.83534  -0.00002   0.00000  -0.00003  -0.00003   1.83531
   R22        1.84500  -0.00008   0.00000  -0.00016  -0.00016   1.84484
   R23        1.86181  -0.00007   0.00000  -0.00001   0.00000   1.86181
   R24        3.49743  -0.00006   0.00000   0.00142   0.00144   3.49886
   R25        1.84978  -0.00003   0.00000  -0.00006  -0.00006   1.84972
   R26        3.48438  -0.00003   0.00000   0.00089   0.00089   3.48526
   R27        1.92273   0.01185   0.00000   0.02908   0.02939   1.95212
   R28        2.78254   0.01239   0.00000   0.10916   0.10974   2.89228
   R29        1.89313   0.01492   0.00000   0.03183   0.03227   1.92540
   R30        1.83071   0.00067   0.00000   0.00122   0.00122   1.83194
   R31        1.83146  -0.00000   0.00000  -0.00001  -0.00001   1.83146
   R32        1.85969  -0.00001   0.00000   0.00028   0.00028   1.85997
    A1        2.06942  -0.00571   0.00000  -0.02611  -0.02631   2.04311
    A2        1.76140   0.00543   0.00000   0.02517   0.02437   1.78578
    A3        2.06200   0.00002   0.00000   0.03149   0.03226   2.09426
    A4        1.97612  -0.00260   0.00000  -0.01486  -0.01493   1.96119
    A5        1.86399   0.00056   0.00000   0.00040   0.00042   1.86441
    A6        1.87954  -0.00017   0.00000  -0.00192  -0.00187   1.87767
    A7        1.85835  -0.00040   0.00000   0.00033   0.00027   1.85861
    A8        1.95619   0.00295   0.00000   0.01570   0.01575   1.97194
    A9        1.92775  -0.00046   0.00000  -0.00019  -0.00025   1.92751
   A10        1.99304   0.00215   0.00000   0.00740   0.00743   2.00047
   A11        1.85712  -0.00123   0.00000  -0.00169  -0.00161   1.85552
   A12        1.89954  -0.00058   0.00000  -0.00571  -0.00586   1.89368
   A13        1.88093  -0.00039   0.00000  -0.00902  -0.00905   1.87187
   A14        1.89472  -0.00039   0.00000   0.00846   0.00850   1.90323
   A15        1.93887   0.00044   0.00000   0.00029   0.00030   1.93917
   A16        2.00075  -0.00407   0.00000  -0.02449  -0.02448   1.97628
   A17        1.85651   0.00190   0.00000   0.00602   0.00596   1.86247
   A18        1.94523   0.00004   0.00000   0.00451   0.00451   1.94973
   A19        1.83979   0.00049   0.00000   0.00472   0.00470   1.84448
   A20        1.87031   0.00219   0.00000   0.00714   0.00714   1.87746
   A21        1.94990  -0.00062   0.00000   0.00203   0.00199   1.95188
   A22        1.88767   0.00493   0.00000   0.02602   0.02649   1.91415
   A23        1.72550  -0.00050   0.00000  -0.00020  -0.00004   1.72546
   A24        1.90687   0.00001   0.00000   0.00072  -0.00024   1.90663
   A25        1.99713  -0.00094   0.00000  -0.00878  -0.00906   1.98807
   A26        1.92257  -0.00354   0.00000  -0.01290  -0.01259   1.90998
   A27        2.00932   0.00096   0.00000  -0.00002  -0.00002   2.00930
   A28        1.84660   0.00567   0.00000   0.02994   0.02967   1.87626
   A29        1.94350  -0.00011   0.00000   0.00056   0.00038   1.94388
   A30        1.87360  -0.00559   0.00000  -0.03610  -0.03606   1.83754
   A31        1.91959  -0.00116   0.00000   0.00020   0.00006   1.91964
   A32        1.96177  -0.00073   0.00000   0.00037   0.00081   1.96258
   A33        1.91771   0.00191   0.00000   0.00492   0.00474   1.92245
   A34        1.91039   0.00048   0.00000   0.00244   0.00245   1.91284
   A35        1.92664   0.00025   0.00000  -0.00050  -0.00050   1.92614
   A36        1.96690  -0.00222   0.00000  -0.01008  -0.01008   1.95681
   A37        1.88150  -0.00015   0.00000   0.00137   0.00136   1.88286
   A38        1.84525   0.00082   0.00000   0.00431   0.00432   1.84957
   A39        1.92953   0.00092   0.00000   0.00314   0.00312   1.93264
   A40        1.88646  -0.00027   0.00000  -0.00159  -0.00159   1.88487
   A41        1.81755   0.00050   0.00000   0.00293   0.00293   1.82047
   A42        1.85530   0.00009   0.00000  -0.00483  -0.00482   1.85048
   A43        2.77586  -0.00007   0.00000  -0.00170  -0.00169   2.77417
   A44        1.86264   0.00013   0.00000   0.00169   0.00169   1.86433
   A45        1.79795   0.00023   0.00000  -0.00359  -0.00361   1.79434
   A46        2.11026   0.00025   0.00000   0.00139   0.00142   2.11169
   A47        1.90193   0.00366   0.00000   0.01936   0.01848   1.92040
   A48        1.54239  -0.01497   0.00000  -0.07300  -0.07147   1.47092
   A49        1.88074   0.00217   0.00000   0.00690   0.00653   1.88727
   A50        1.86828   0.00164   0.00000   0.00223   0.00221   1.87050
   A51        2.65162   0.00283   0.00000   0.01373   0.01397   2.66560
   A52        2.62845   0.00330   0.00000   0.00774   0.00804   2.63649
   A53        1.88524   0.00022   0.00000   0.00010   0.00010   1.88534
   A54        1.63056  -0.00024   0.00000   0.00184   0.00186   1.63242
   A55        1.82397  -0.00014   0.00000  -0.00055  -0.00056   1.82341
   A56        2.73374  -0.00041   0.00000  -0.00020  -0.00021   2.73353
    D1       -0.10526   0.00086   0.00000   0.01409   0.01404  -0.09122
    D2       -2.18999   0.00035   0.00000   0.01448   0.01435  -2.17564
    D3        1.98759  -0.00050   0.00000   0.01433   0.01448   2.00207
    D4       -2.38634   0.00016   0.00000  -0.03176  -0.03182  -2.41816
    D5        1.81211  -0.00035   0.00000  -0.03137  -0.03151   1.78061
    D6       -0.29350  -0.00119   0.00000  -0.03152  -0.03137  -0.32487
    D7        0.99351   0.00056   0.00000  -0.00023   0.00007   0.99357
    D8       -1.09170  -0.00143   0.00000  -0.01902  -0.01875  -1.11045
    D9        3.09177  -0.00015   0.00000  -0.00243  -0.00239   3.08938
   D10        3.12991   0.00314   0.00000   0.04300   0.04274  -3.11054
   D11        1.04471   0.00115   0.00000   0.02421   0.02392   1.06863
   D12       -1.05501   0.00243   0.00000   0.04080   0.04028  -1.01473
   D13       -0.11499  -0.00104   0.00000   0.00643   0.00685  -0.10815
   D14       -2.40071   0.00186   0.00000  -0.00321  -0.00397  -2.40469
   D15        0.22596  -0.00199   0.00000  -0.01145  -0.01152   0.21444
   D16       -1.79979  -0.00160   0.00000  -0.00768  -0.00770  -1.80749
   D17        2.35415  -0.00209   0.00000  -0.01674  -0.01676   2.33739
   D18       -1.81373  -0.00041   0.00000  -0.00384  -0.00391  -1.81764
   D19        2.44370  -0.00002   0.00000  -0.00008  -0.00008   2.44361
   D20        0.31445  -0.00051   0.00000  -0.00914  -0.00914   0.30531
   D21        2.39868  -0.00009   0.00000  -0.00283  -0.00288   2.39581
   D22        0.37292   0.00030   0.00000   0.00093   0.00095   0.37388
   D23       -1.75632  -0.00019   0.00000  -0.00813  -0.00811  -1.76443
   D24       -1.04792  -0.00150   0.00000  -0.00659  -0.00666  -1.05459
   D25        1.05295   0.00107   0.00000   0.01177   0.01171   1.06467
   D26       -3.08757   0.00218   0.00000   0.01852   0.01844  -3.06913
   D27        0.99509  -0.00249   0.00000  -0.01408  -0.01412   0.98097
   D28        3.09597   0.00007   0.00000   0.00428   0.00426   3.10022
   D29       -1.04456   0.00118   0.00000   0.01102   0.01098  -1.03358
   D30        3.10480  -0.00158   0.00000  -0.00488  -0.00485   3.09995
   D31       -1.07750   0.00099   0.00000   0.01348   0.01352  -1.06398
   D32        1.06516   0.00210   0.00000   0.02022   0.02025   1.08540
   D33       -2.98579   0.00051   0.00000   0.00106   0.00108  -2.98470
   D34        1.05794   0.00003   0.00000   0.00056   0.00056   1.05849
   D35       -0.80111  -0.00092   0.00000  -0.00863  -0.00868  -0.80980
   D36       -3.04057  -0.00141   0.00000  -0.00913  -0.00921  -3.04978
   D37        1.26799   0.00018   0.00000   0.00179   0.00179   1.26977
   D38       -0.97148  -0.00031   0.00000   0.00129   0.00126  -0.97021
   D39        0.71539  -0.00129   0.00000  -0.00205  -0.00199   0.71340
   D40        2.75076  -0.00082   0.00000  -0.00479  -0.00479   2.74597
   D41       -1.45308  -0.00022   0.00000   0.00344   0.00347  -1.44962
   D42        2.78802  -0.00134   0.00000  -0.01008  -0.01001   2.77801
   D43       -1.45979  -0.00088   0.00000  -0.01281  -0.01281  -1.47260
   D44        0.61955  -0.00028   0.00000  -0.00459  -0.00455   0.61500
   D45       -1.40453  -0.00181   0.00000  -0.01373  -0.01366  -1.41818
   D46        0.63085  -0.00135   0.00000  -0.01647  -0.01646   0.61439
   D47        2.71019  -0.00075   0.00000  -0.00825  -0.00820   2.70199
   D48       -0.76542  -0.00185   0.00000  -0.01952  -0.01977  -0.78520
   D49        1.13855  -0.00000   0.00000  -0.00872  -0.00875   1.12980
   D50       -2.84838  -0.00279   0.00000  -0.02862  -0.02806  -2.87644
   D51       -2.82450  -0.00135   0.00000  -0.01573  -0.01604  -2.84055
   D52       -0.92053   0.00050   0.00000  -0.00494  -0.00502  -0.92555
   D53        1.37572  -0.00229   0.00000  -0.02484  -0.02433   1.35139
   D54        1.35715  -0.00143   0.00000  -0.01568  -0.01596   1.34118
   D55       -3.02206   0.00041   0.00000  -0.00489  -0.00494  -3.02700
   D56       -0.72581  -0.00237   0.00000  -0.02479  -0.02425  -0.75006
   D57        2.79363   0.00139   0.00000   0.01222   0.01221   2.80584
   D58        0.61477  -0.00065   0.00000   0.00126   0.00126   0.61603
   D59       -1.45044  -0.00019   0.00000   0.00689   0.00690  -1.44354
   D60        1.08764   0.00108   0.00000   0.00481   0.00476   1.09240
   D61       -2.99359  -0.00248   0.00000  -0.01809  -0.01814  -3.01173
   D62       -0.98668  -0.00094   0.00000  -0.00720  -0.00722  -0.99390
   D63        0.52202   0.00101   0.00000   0.02920   0.02892   0.55093
   D64        2.59325   0.00492   0.00000   0.05371   0.05354   2.64679
   D65       -1.40007   0.00109   0.00000   0.02901   0.02913  -1.37094
   D66       -1.02480  -0.00197   0.00000  -0.01442  -0.01435  -1.03915
   D67        1.04348  -0.00171   0.00000  -0.01154  -0.01148   1.03200
   D68       -3.07281  -0.00195   0.00000  -0.01520  -0.01512  -3.08794
   D69        0.99865   0.00109   0.00000   0.00005   0.00000   0.99866
   D70        3.06693   0.00136   0.00000   0.00293   0.00288   3.06981
   D71       -1.04936   0.00112   0.00000  -0.00073  -0.00077  -1.05013
   D72       -3.14081   0.00047   0.00000   0.00413   0.00410  -3.13671
   D73       -1.07253   0.00073   0.00000   0.00701   0.00697  -1.06556
   D74        1.09436   0.00050   0.00000   0.00335   0.00333   1.09769
   D75       -1.19090   0.00018   0.00000   0.00283   0.00282  -1.18807
   D76        3.00612   0.00031   0.00000   0.00274   0.00275   3.00887
   D77        0.97440  -0.00043   0.00000  -0.00286  -0.00287   0.97153
   D78       -0.03246  -0.00022   0.00000  -0.00109  -0.00109  -0.03355
   D79        1.53199   0.00011   0.00000   0.00322   0.00323   1.53522
   D80       -0.32607   0.00031   0.00000   0.00313   0.00315  -0.32292
   D81       -0.36495   0.00031   0.00000  -0.00144  -0.00145  -0.36641
   D82       -2.43934  -0.00018   0.00000  -0.00157  -0.00158  -2.44092
   D83       -0.77150   0.00050   0.00000   0.00762   0.00827  -0.76323
   D84        0.39154  -0.00208   0.00000  -0.03411  -0.03339   0.35815
   D85       -1.48269   0.00094   0.00000  -0.01310  -0.01312  -1.49581
   D86        0.19248   0.00138   0.00000   0.01268   0.01229   0.20476
   D87        2.07893  -0.00092   0.00000  -0.00279  -0.00244   2.07649
   D88        0.04491   0.00035   0.00000   0.00079   0.00079   0.04570
   D89       -1.86806   0.00021   0.00000   0.00023   0.00023  -1.86783
         Item               Value     Threshold  Converged?
 Maximum Force            0.022688     0.000450     NO 
 RMS     Force            0.003520     0.000300     NO 
 Maximum Displacement     0.229160     0.001800     NO 
 RMS     Displacement     0.042952     0.001200     NO 
 Predicted change in Energy=-6.644399D-03
 GradGradGradGradGradGradGradGradGradGradGradGradGradGradGradGradGradGrad

                          Input orientation:                          
 ---------------------------------------------------------------------
 Center     Atomic      Atomic             Coordinates (Angstroms)
 Number     Number       Type             X           Y           Z
 ---------------------------------------------------------------------
      1          8           0       -1.261014    0.405737   -0.665916
      2          6           0        1.072220    0.341805   -0.147299
      3          6           0       -0.374754   -1.695344    0.449501
      4          6           0        1.039244   -1.164784    0.190508
      5          6           0       -1.441108   -1.153314   -0.499186
      6          6           0       -0.266518    1.035248    0.143391
      7          1           0        1.581901   -1.288180    1.140213
      8          1           0       -0.508462    0.952066    1.212712
      9          1           0        1.236060    0.421354   -1.232740
     10          6           0       -0.268680    2.509382   -0.286244
     11          1           0       -0.032099    2.581319   -1.351391
     12          1           0       -1.262810    2.951519   -0.130782
     13          1           0       -0.328337   -2.785010    0.300114
     14          8           0        0.737408    3.271128    0.393598
     15          1           0        0.488233    3.328630    1.330531
     16          8           0       -0.737638   -1.377401    1.784613
     17          1           0       -1.711484   -1.445375    1.792598
     18          8           0        1.604899   -1.944854   -0.843274
     19          1           0        2.548210   -1.667958   -0.907854
     20          8           0        2.172243    0.923214    0.569840
     21          1           0        2.096862    1.893585    0.465899
     22          1           0       -1.299897   -1.451442   -1.540939
     23          8           0       -2.674077   -1.409654    0.012423
     24          8           0       -3.758134    0.749963   -0.604939
     25          1           0       -3.346260   -0.694069   -0.308877
     26          1           0       -2.754456    0.923697   -0.628631
     27          1           0       -4.097036    1.141134    0.214759
     28          8           0        4.102997   -0.731285   -0.542615
     29          1           0        4.566110   -1.187572    0.176141
     30          1           0        3.626347    0.006643   -0.098744
 ---------------------------------------------------------------------
                    Distance matrix (angstroms):
                    1          2          3          4          5
     1  O    0.000000
     2  C    2.391032   0.000000
     3  C    2.538534   2.569023   0.000000
     4  C    2.913964   1.544348   1.532306   0.000000
     5  C    1.578250   2.945509   1.526733   2.574482   0.000000
     6  C    1.428385   1.535442   2.749828   2.558783   2.565613
     7  H    3.770096   2.138764   2.114561   1.100747   3.441570
     8  H    2.096199   2.172695   2.758469   2.814489   2.869329
     9  H    2.560647   1.100615   3.147232   2.140141   3.191381
    10  C    2.356735   2.552589   4.269929   3.929052   3.851659
    11  H    2.590998   2.772144   4.653007   4.190288   4.081550
    12  H    2.601418   3.501892   4.766415   4.727222   4.125187
    13  H    3.461786   3.455243   1.100837   2.123069   2.130626
    14  O    3.650579   2.997600   5.089782   4.450805   5.011855
    15  H    3.948287   3.383216   5.173131   4.668409   5.211339
    16  O    3.075483   3.156508   1.419612   2.396599   2.400172
    17  H    3.110278   3.834869   1.911345   3.195611   2.326085
    18  O    3.710822   2.448865   2.377510   1.413217   3.165927
    19  H    4.343839   2.606940   3.222868   1.933019   4.043084
    20  O    3.685395   1.436098   3.654932   2.405684   4.302453
    21  H    3.843180   1.958041   4.357702   3.247771   4.767832
    22  H    2.053362   3.284039   2.208446   2.924323   1.092736
    23  O    2.398444   4.138582   2.357868   3.725644   1.359289
    24  O    2.521471   4.869122   4.305651   5.226263   3.000376
    25  H    2.384386   4.541157   3.226072   4.438874   1.968941
    26  H    1.581152   3.900478   3.699288   4.407369   2.460816
    27  H    3.059316   5.243207   4.685733   5.630206   3.581642
    28  O    5.484583   3.239353   4.686573   3.179934   5.560315
    29  H    6.099433   3.827647   4.974405   3.526970   6.045157
    30  H    4.936321   2.576481   4.382481   2.854647   5.213920
                    6          7          8          9         10
     6  C    0.000000
     7  H    3.131872   0.000000
     8  H    1.099501   3.064894   0.000000
     9  H    2.127990   2.944999   3.050450   0.000000
    10  C    1.535468   4.458801   2.174764   2.742254   0.000000
    11  H    2.163253   4.877100   3.075062   2.507539   1.093473
    12  H    2.177123   5.261450   2.524248   3.722955   1.099067
    13  H    3.823970   2.568127   3.851106   3.883007   5.327096
    14  O    2.463662   4.696583   2.757025   3.318862   1.433407
    15  H    2.690456   4.748396   2.579795   3.947387   1.964192
    16  O    2.955747   2.409040   2.409566   4.029321   4.428934
    17  H    3.310786   3.361057   2.744313   4.617939   4.695037
    18  O    3.654684   2.089491   4.133464   2.426246   4.864237
    19  H    4.041674   2.296206   4.550228   2.488476   5.076558
    20  O    2.478299   2.358832   2.756864   2.092272   3.034290
    21  H    2.535018   3.292949   2.869129   2.407036   2.557482
    22  H    3.176235   3.939543   3.739762   3.167559   4.280864
    23  O    3.433808   4.404545   3.421739   4.493572   4.608034
    24  O    3.582286   5.976250   3.728950   5.044213   3.920894
    25  H    3.560884   5.171035   3.616364   4.805762   4.442309
    26  H    2.607354   5.179305   2.904451   4.067126   2.968284
    27  H    3.832646   6.245667   3.729547   5.572723   4.096269
    28  O    4.762763   3.081877   5.213483   3.166099   5.447863
    29  H    5.319426   3.137684   5.603911   3.957629   6.103808
    30  H    4.033739   2.718701   4.439638   2.677948   4.633583
                   11         12         13         14         15
    11  H    0.000000
    12  H    1.772452   0.000000
[...]
 .00017157,-0.00014490,-0.00058878,0.00057832,-0.00026015,0.00009993,-0
 .00021381,0.00002675,0.00116944,0.00007078,0.00034012,-0.00086521,-0.0
 0000583,-0.00144847,0.00048793,0.00015072,-0.00024966,-0.00026085,-0.0
 0012152,0.00003946,0.00029591,0.00049346,0.00005850,0.00016327,-0.0002
 9807,0.00000469,0.00058317,0.00043159,-0.00047154,0.01589124,-0.009306
 16,0.00770050,0.01787744,0.23923791,-0.00356036,-0.00148994,0.00214383
 ,0.00015256,-0.00003011,-0.00025405,-0.00057419,-0.00054235,0.00021061
 ,0.00029758,0.00003530,-0.00056989,0.00447510,0.00223395,-0.00419146,0
 .00077264,0.00073187,0.00110090,-0.00017704,-0.00004139,0.00006192,0.0
 0012819,0.00000147,0.00007184,-0.00005402,-0.00002740,0.00007820,0.000
 10014,0.00030049,-0.00046064,-0.00020709,-0.00000681,0.00013473,0.0000
 4357,0.00013660,-0.00007585,0.00004582,0.00000148,0.00002893,-0.000125
 00,-0.00044185,0.00011326,0.00005905,0.00014569,0.00004022,-0.00063549
 ,0.00018830,0.00012971,0.00062413,-0.00027348,0.00077448,-0.00038586,0
 .00009091,0.00036601,0.00020419,0.00004861,-0.00005965,-0.00054799,-0.
 00017760,0.00003189,0.00004632,0.00013229,-0.00004484,-0.00084658,0.00
 022693,0.00075266,-0.00923693,0.00826617,0.00071406,-0.11813290,0.2128
 0062,0.27634982,0.00390943,0.00620339,-0.00049901,-0.00017595,0.000122
 27,0.00006364,-0.00456420,-0.00126552,0.00398902,-0.00070908,0.0008396
 0,-0.00089953,-0.04334797,0.01233492,-0.01615864,-0.00170809,-0.000471
 12,-0.00191906,-0.00022632,-0.00011335,0.00014984,0.00010365,0.0000160
 0,0.00020731,0.00002242,0.00000577,0.00000347,0.00060661,-0.00066212,0
 .00029780,0.00003955,-0.00000870,-0.00003629,-0.00013290,0.00007538,0.
 00007923,0.00008121,0.00023835,-0.00007727,0.00011999,0.00081406,0.000
 04742,0.00002603,-0.00021233,-0.00006492,0.00261482,-0.00013949,0.0016
 1173,-0.00167121,-0.00012506,-0.00266485,0.00054677,-0.00011885,-0.000
 12444,-0.00026072,-0.00002818,0.00005795,0.00076870,0.00020086,0.00008
 724,-0.00008279,-0.00017024,0.00001771,0.00258024,0.00016882,-0.000656
 78,-0.22408243,0.11652314,-0.11744505,-0.00777180,-0.00499305,0.003853
 94,0.26930737,0.00091274,-0.00320180,-0.00005406,0.00003049,0.00064515
 ,0.00032837,-0.00230405,-0.00031126,0.00057285,-0.00000599,0.00096352,
 -0.00069820,-0.00611745,0.01134150,-0.00737120,-0.00018021,-0.00118996
 ,-0.00025089,-0.00035498,-0.00018127,0.00010281,0.00010720,0.00027960,
 0.00008031,-0.00001334,-0.00005306,0.00002497,-0.00073443,0.00013097,-
 0.00014611,-0.00003974,-0.00002099,0.00003188,0.00019606,-0.00025125,-
 0.00011425,-0.00006920,0.00002460,0.00005049,0.00048345,-0.00015893,0.
 00017217,-0.00009078,0.00007957,-0.00003385,-0.00215713,0.00002350,-0.
 00052850,0.00131260,-0.00065648,0.00215332,-0.00050563,-0.00035059,0.0
 0016649,0.00023425,0.00015197,-0.00002223,0.00031975,-0.00051293,-0.00
 007342,-0.00021891,0.00018044,0.00001790,-0.00104408,-0.00065665,0.001
 52327,0.14344997,-0.11730844,0.11305071,-0.00328363,0.00351504,-0.0058
 6349,-0.12736026,0.11665888,0.00095724,0.00405286,-0.00153062,-0.00020
 941,-0.00028801,-0.00000457,0.00389047,0.00242228,-0.00354535,0.000196
 22,-0.00050907,0.00150413,0.01327806,-0.01517535,0.01339369,-0.0007662
 9,0.00027829,-0.00074865,0.00053969,0.00010055,-0.00002175,-0.00011969
 ,-0.00001480,-0.00000566,0.00003624,0.00002793,-0.00003730,0.00031700,
 -0.00024761,0.00029258,0.00007012,-0.00000080,-0.00004546,-0.00006139,
 0.00003260,0.00008206,-0.00018711,0.00022276,-0.00009331,0.00002321,0.
 00038582,-0.00004351,-0.00000963,-0.00010009,-0.00002074,-0.00181506,-
 0.00015457,0.00010383,0.00046617,0.00036439,0.00145443,0.00023397,-0.0
 0004368,-0.00026938,-0.00018166,-0.00003711,0.00003069,0.00023389,0.00
 023574,0.00001653,-0.00000148,-0.00008648,0.00001439,0.00155364,-0.000
 15005,-0.00035225,-0.15256233,0.11960815,-0.14718012,0.00323749,-0.002
 27210,-0.00708519,0.12871482,-0.10697179,0.14049616,-0.00048668,-0.001
 83878,0.00228193,-0.00045135,0.00087006,0.00083075,-0.00080788,-0.0014
 3408,-0.00072571,-0.00055686,0.00075102,-0.00003042,0.00655729,0.00958
 707,-0.00076268,-0.00251788,-0.00517151,-0.00230096,0.00005163,-0.0000
 8837,0.00005137,0.00083745,0.00057507,0.00074648,-0.00004133,0.0000126
 4,0.00001040,-0.00039304,-0.00129337,-0.00023294,-0.00015273,-0.000080
 55,0.00007451,-0.00004401,-0.00007062,-0.00007121,0.00042233,-0.000407
 22,0.00044713,0.00047235,0.00103132,0.00030842,0.00006839,-0.00031640,
 -0.00012334,-0.00030227,-0.00029717,0.00070575,0.00040969,0.00015808,-
 0.00002646,0.00036869,-0.00049551,-0.00022714,-0.00027088,0.00007607,0
 .00004670,0.00175413,-0.00007046,0.00008811,-0.00027932,-0.00023364,0.
 00002415,-0.00037438,-0.00062450,0.00000069,-0.00622066,0.00112639,-0.
 00055324,-0.40501824,-0.11886571,-0.02170418,0.00507292,-0.00481639,0.
 00230634,0.42425416,-0.00314349,-0.00643090,-0.00141753,0.00002137,-0.
 00043293,-0.00029931,0.00019281,-0.00067180,-0.00006835,0.00030949,0.0
 0001654,-0.00021915,0.00539611,-0.00229469,0.00119925,0.00079440,0.002
 68431,0.00092610,-0.00010406,-0.00002804,0.00001156,-0.00032069,-0.000
 24075,-0.00029608,-0.00000675,0.00000323,0.00002955,-0.00158568,0.0009
 1506,-0.00028236,-0.00015420,-0.00000417,0.00011668,0.00045676,-0.0004
 7432,-0.00045313,0.00003367,0.00001353,0.00003048,0.00070326,-0.000604
 60,0.00031578,-0.00007503,0.00020432,-0.00002376,-0.00044465,0.0001445
 5,-0.00050590,0.00019645,-0.00011987,0.00053740,-0.00030689,0.00000702
 ,0.00011381,0.00016894,0.00004553,-0.00002569,-0.00070703,-0.00026568,
 -0.00004192,-0.00009181,0.00032076,-0.00000673,0.00004395,-0.00030664,
 -0.00018497,-0.00088964,0.00195026,-0.00072173,-0.15967535,-0.08580583
 ,-0.03403625,-0.00457604,-0.00723619,0.00277686,0.13529490,0.09129632,
 0.00119326,-0.00091658,-0.00247202,-0.00003119,0.00033812,0.00051095,-
 0.00016778,-0.00016000,-0.00011434,-0.00028537,0.00024576,0.00018920,-
 0.00101521,0.00338251,0.00184910,-0.00093827,-0.00141437,-0.00181118,0
 .00005714,-0.00001358,-0.00002009,-0.00016962,0.00009212,-0.00007397,0
 .00004159,0.00001618,-0.00007871,-0.00054257,-0.00019431,0.00073582,0.
 00031651,0.00001021,-0.00019383,0.00002034,-0.00037700,-0.00001527,0.0
 0009893,-0.00012518,0.00009804,0.00032531,0.00041484,-0.00013739,-0.00
 009738,-0.00012377,-0.00008050,0.00024508,-0.00025915,0.00003497,-0.00
 014420,0.00027211,-0.00025914,0.00023014,-0.00017258,-0.00027477,-0.00
 012766,-0.00000377,0.00005168,0.00077592,0.00000300,-0.00003482,-0.000
 11247,-0.00010652,0.00004926,0.00026288,-0.00061493,-0.00036275,0.0003
 0415,-0.00197443,-0.00064672,-0.06552846,-0.04740379,-0.03834642,0.001
 92262,0.00419437,0.00063574,0.02716447,0.03326933,0.03960452,0.0000699
 9,-0.00075164,-0.00117244,-0.00017008,-0.00009026,-0.00002202,-0.00004
 650,0.00011230,-0.00006562,-0.00008657,0.00009472,0.00010081,-0.000654
 19,0.00018622,0.00066110,-0.00046711,0.00009677,-0.00022005,0.00004226
 ,-0.00001139,0.00000257,-0.00005469,0.00002395,-0.00002864,0.00002110,
 0.00000398,-0.00000146,-0.00056808,0.00001331,0.00002564,0.00004434,-0
 .00001592,-0.00001428,0.00010895,-0.00021615,-0.00006994,0.00002195,-0
 .00004017,0.00001098,0.00040480,0.00016139,0.00012749,-0.00006273,-0.0
 0004502,-0.00005237,0.00015709,-0.00017917,0.00011055,-0.00009099,0.00
 017773,-0.00020298,0.00015354,-0.00012005,-0.00009622,-0.00009894,0.00
 000841,0.00001259,0.00024053,-0.00000645,0.00002219,-0.00010331,0.0000
 3014,0.00000832,0.00006010,-0.00003356,-0.00013704,0.00117111,-0.00116
 109,-0.00011868,-0.17160050,0.09476706,0.14539653,-0.00108830,0.002398
 50,-0.00016078,-0.02225111,0.02849736,0.03623638,0.19485740,-0.0009718
 6,-0.00033130,-0.00024407,0.00000585,-0.00003356,-0.00000189,-0.000086
 23,-0.00009673,0.00002860,0.00007868,0.00005128,-0.00009423,0.00058121
 ,0.00045926,-0.00079085,0.00029542,0.00031877,0.00010493,-0.00002925,-
 0.00001164,0.00001192,-0.00002270,-0.00001666,-0.00002931,-0.00000628,
 -0.00000279,0.00000980,-0.00033479,0.00020254,-0.00001353,-0.00000105,
 -0.00000297,0.00001113,0.00007943,-0.00005571,-0.00007525,-0.00000039,
 -0.00000228,0.00000343,0.00017961,-0.00016116,0.00005649,-0.00004563,0
 .00007262,-0.00001645,-0.00009312,0.00000576,0.00007588,0.00016182,-0.
 00006420,0.00005381,-0.00007972,-0.00003229,0.00005117,0.00004126,0.00
 002381,-0.00000747,-0.00009661,-0.00009923,-0.00001080,-0.00004171,0.0
 0008610,-0.00000345,-0.00018599,0.00001139,0.00016963,-0.00091527,-0.0
 0012835,0.00231576,0.13633206,-0.14910567,-0.18234511,0.00260953,-0.00
 187502,-0.00449506,-0.01350471,0.00736901,0.01156118,-0.12393457,0.143
 42829,-0.00020911,0.00010072,-0.00048991,-0.00004268,-0.00002096,-0.00
 003609,0.00003041,0.00007275,0.00011547,-0.00005094,-0.00000414,0.0000
 3630,-0.00021577,-0.00026356,0.00025202,-0.00020547,0.00003665,0.00006
 419,0.00000402,0.00000174,-0.00000470,-0.00005447,0.00000967,-0.000058
 83,0.00002073,-0.00000570,-0.00001521,-0.00000230,-0.00004215,0.000056
 36,0.00006793,-0.00001086,-0.00004107,-0.00000397,-0.00002669,0.000086
 46,-0.00000188,-0.00001012,-0.00001914,-0.00000164,0.00005801,-0.00004
 842,-0.00003232,-0.00002876,0.00000691,0.00006376,-0.00008476,-0.00013
 800,-0.00009866,0.00013424,0.00003852,0.00006626,-0.00000903,-0.000052
 67,-0.00003356,-0.00000907,0.00000852,0.00004192,0.00003092,-0.0000140
 4,-0.00000668,-0.00001820,0.00001486,0.00009226,-0.00000211,-0.0000656
 8,-0.00036121,0.00072134,-0.00197529,0.19023594,-0.17322857,-0.2320077
 6,-0.00057846,-0.00035516,0.00296339,-0.00836834,-0.00073073,0.0011477
 4,-0.18035941,0.17367464,0.23017418,-0.00104900,0.00019612,-0.00019506
 ,0.00202448,0.00059997,0.00133985,0.00067362,0.00039986,-0.00058730,0.
 00236153,-0.00418344,-0.00498905,0.00110333,-0.00013168,0.00022272,0.0
 0081345,-0.00000499,-0.00021712,0.00012421,0.00053752,0.00006020,-0.00
 007697,0.00006943,0.00005203,-0.00004224,-0.00026258,-0.00005636,-0.00
 006072,-0.00050915,0.00026620,0.00003934,-0.00003857,-0.00003378,-0.00
 014919,0.00023316,-0.00002193,0.00001855,0.00015315,0.00002547,-0.0004
 9096,0.00133233,-0.00001921,0.00000244,-0.00042168,-0.00015324,-0.0010
 7431,0.00007308,0.00100239,0.00013448,0.00002521,0.00002401,-0.0164393
 3,-0.00660319,0.00033505,-0.00194170,0.00510862,0.00503407,-0.00460599
 ,0.00967023,0.00421017,-0.00193642,-0.00167534,0.00096555,0.00010093,-
 0.00002588,0.00008137,-0.00126619,0.00012074,-0.00003480,-0.00049576,0
 .00028475,-0.00027606,0.00035007,-0.00020968,0.00022170,0.00044016,-0.
 00020831,0.00020365,0.00014375,-0.00004554,0.00004492,0.26380453,0.001
 34624,0.00112250,0.00028628,-0.00403237,-0.00365068,-0.00214001,0.0002
 7451,0.00056268,0.00004003,0.00166520,-0.00493860,-0.00365285,0.000013
 35,-0.00161546,0.00022223,-0.00020702,0.00086646,0.00022172,0.00026862
 ,0.00017270,0.00001930,0.00000149,-0.00011489,0.00004473,0.00024832,0.
 00023519,0.00032085,-0.00091678,-0.00022676,-0.00034008,-0.00003485,0.
 00002859,0.00000282,0.00016874,0.00007247,-0.00000018,0.00031651,0.000
 32714,-0.00005413,0.00114928,-0.00058846,0.00028341,-0.00013272,0.0001
 8974,0.00008210,-0.00078025,0.00048845,0.00045802,0.00004624,-0.000137
 05,0.00017634,-0.01184258,0.00337449,0.00053442,0.00680553,-0.00709893
 ,0.00447207,0.01260690,-0.00414603,-0.00405110,0.00047181,0.00177510,-
 0.00035536,0.00009691,0.00012595,0.00009725,-0.00018841,0.00051806,-0.
 00012047,0.00007846,0.00016035,-0.00003644,0.00001756,-0.00022101,0.00
 004362,-0.00014112,-0.00005012,-0.00002851,-0.00002080,-0.00003129,0.0
 0000939,-0.27860317,0.40359590,0.00081100,0.00021477,0.00023582,-0.001
 45300,-0.00138494,-0.00247757,-0.00001890,0.00005487,0.00070304,-0.000
 28406,-0.00093955,-0.00268229,-0.00015444,-0.00028786,-0.00029807,-0.0
 0006515,0.00044425,0.00058057,-0.00008960,-0.00012820,0.00138358,-0.00
 015276,0.00002916,0.00004420,0.00066392,-0.00010624,0.00073839,-0.0003
 5370,0.00000483,-0.00036442,0.00001692,-0.00000790,0.00005635,0.000101
 85,-0.00002070,0.00004018,0.00016129,0.00013200,-0.00000987,0.00069179
 ,-0.00066885,0.00022161,-0.00010882,0.00018759,0.00004819,-0.00008244,
 0.00008545,0.00009103,-0.00005286,-0.00001246,0.00006324,-0.00348212,-
 0.00087576,0.00453835,0.00264618,0.00138846,-0.00620732,0.00445271,-0.
 00528960,0.00253271,0.00168503,0.00110924,-0.00078691,0.00003896,0.000
 05181,0.00006675,0.00032893,0.00006106,0.00011648,0.00014685,-0.000055
 72,0.00010592,-0.00007923,0.00000899,-0.00008018,-0.00014885,0.0000503
 6,-0.00009778,-0.00004100,0.00001119,-0.00001727,0.09212333,0.00742740
 ,0.43137450,0.00019810,-0.00011459,0.00005260,0.00009978,0.00019036,-0
 .00037797,-0.00013449,-0.00020437,0.00042061,-0.00069211,0.00061952,-0
 .00054857,-0.00020764,0.00017444,-0.00018892,-0.00012456,0.00000051,0.
 00014284,-0.00022426,-0.00007080,0.00065470,-0.00002538,0.00001602,-0.
 00000836,0.00006981,-0.00009319,0.00016089,0.00005790,0.00011392,-0.00
 004302,-0.00000668,0.00000312,0.00000784,0.00003020,-0.00005413,0.0000
 0388,-0.00000034,0.00000309,0.00000107,0.00005760,-0.00024079,-0.00001
 528,-0.00000039,0.00008877,0.00002339,0.00022225,-0.00004364,-0.000161
 09,-0.00004993,0.00001600,0.00001033,0.00037533,-0.00160950,0.00100003
 ,-0.00188294,0.00245098,-0.00331737,-0.00028462,-0.00027105,0.00073837
 ,0.00014487,0.00022961,0.00016247,-0.00000820,-0.00000192,0.00000337,0
 .00036174,-0.00007959,0.00006721,0.00012182,-0.00008651,0.00007845,-0.
 00008535,0.00007111,-0.00006721,-0.00010105,0.00005579,-0.00005278,-0.
 00003665,0.00001450,-0.00001334,-0.13825073,0.13288387,-0.15642742,0.1
 5088216,-0.00016368,-0.00016059,-0.00003149,0.00015343,0.00028686,0.00
 007469,-0.00000164,0.00008132,0.00001003,-0.00010927,0.00015549,-0.000
 08066,0.00006039,0.00017229,-0.00002715,0.00010044,-0.00007770,0.00002
 492,-0.00007951,0.00014037,0.00006801,-0.00001330,0.00002354,0.0000054
 9,-0.00007957,-0.00006271,0.00002518,0.00009044,0.00003649,0.00005547,
 0.00000243,-0.00000416,-0.00000529,-0.00002582,-0.00000151,-0.00000268
 ,-0.00004320,-0.00003313,-0.00000077,-0.00014494,0.00001203,-0.0000495
 7,0.00004307,-0.00001702,0.00000038,-0.00000037,-0.00009182,0.00001547
 ,-0.00000758,0.00003226,-0.00000846,-0.00131879,-0.00198727,0.00075731
 ,0.00104848,0.00375621,-0.00188875,0.00015667,-0.00032404,-0.00137324,
 0.00009404,-0.00003623,0.00000065,-0.00000146,-0.00001506,-0.00000403,
 -0.00004836,-0.00006486,0.00001499,-0.00002925,-0.00001499,-0.00000552
 ,0.00001081,0.00002428,0.00000612,0.00003359,0.00000201,0.00001054,0.0
 0000990,0.00000494,0.00000049,0.12398441,-0.13673749,0.12425029,-0.142
 52828,0.15091359,-0.00003600,-0.00001545,-0.00002599,-0.00024175,-0.00
 013605,-0.00017884,-0.00002352,0.00006832,-0.00004030,0.00001623,0.000
 06758,0.00069346,0.00003422,-0.00001004,0.00005789,0.00000615,0.000006
 65,0.00003089,-0.00000308,0.00002955,-0.00020691,0.00000560,-0.0000024
 6,-0.00000100,-0.00003733,0.00003787,0.00000704,0.00000472,-0.00001093
 ,0.00001019,0.00000091,-0.00000234,-0.00000456,-0.00000943,0.00000722,
 0.00000216,-0.00000604,-0.00001573,-0.00000263,-0.00001690,0.00001600,
 -0.00001082,0.00001834,-0.00001878,0.00000807,-0.00003492,-0.00000749,
 -0.00004308,0.00001461,-0.00000022,0.00000131,0.00072302,-0.00022373,-
 0.00008411,-0.00080427,0.00067599,-0.00094581,0.00117845,-0.00047008,-
 0.00123582,-0.00003373,-0.00003817,-0.00001690,-0.00000640,0.00000035,
 -0.00001343,-0.00008514,0.00000505,-0.00003538,-0.00002899,0.00001639,
 -0.00002279,0.00001975,-0.00001005,0.00001895,0.00002442,-0.00001035,0
 .00001552,0.00001018,-0.00000291,0.00000514,-0.19275753,0.17064871,-0.
 27851277,0.17786449,-0.15535985,0.26669704,0.00190959,0.00077808,0.000
 43232,-0.00995665,-0.00230266,-0.00234456,-0.00029132,0.00030020,0.000
 57142,0.00001170,-0.00269076,-0.00060723,-0.00075599,-0.00121723,-0.00
 005658,-0.00086342,0.00048863,0.00023341,-0.00009152,-0.00027913,0.000
 43024,0.00006287,-0.00016075,0.00000270,0.00051697,0.00049876,0.000520
 39,-0.00064783,0.00031040,-0.00056530,-0.00004453,0.00004710,0.0000521
 6,0.00023188,-0.00014522,0.00003226,0.00031273,0.00025493,-0.00006420,
 0.00133449,-0.00177684,0.00023742,-0.00008358,0.00052917,0.00020523,0.
 00007497,0.00033915,-0.00028898,-0.00007640,-0.00010365,0.00014111,-0.
 00365146,0.00189799,0.00115099,0.00624608,-0.00331378,-0.00166143,-0.0
 0053224,-0.00428120,-0.00121675,0.00283181,0.00325643,-0.00099413,0.00
 003369,0.00012595,0.00004103,0.00078141,0.00030335,-0.00003562,0.00042
 325,-0.00010081,0.00018548,-0.00024265,-0.00001026,-0.00013424,-0.0004
 3949,0.00012437,-0.00018543,-0.00011715,0.00001606,-0.00002795,-0.1042
 5536,0.13844054,0.05912560,-0.01050626,0.01880695,0.01420393,0.1177844
 3,-0.00182537,-0.00096192,-0.00033990,0.00372929,0.00593078,0.00431761
 ,-0.00003014,-0.00033833,0.00046565,-0.00273519,0.00273231,0.00132618,
 0.00023692,0.00165537,-0.00027433,-0.00007702,-0.00111085,-0.00088177,
 0.00000444,-0.00029753,0.00064827,0.00013771,0.00006530,-0.00004619,-0
 .00068889,-0.00012443,-0.00092937,0.00088935,0.00005750,0.00040797,0.0
 0003605,-0.00002143,-0.00001098,-0.00018974,-0.00002181,-0.00001058,-0
 .00014314,-0.00022222,0.00003183,-0.00105578,0.00066076,-0.00022497,0.
 00011989,-0.00027195,-0.00011700,0.00036964,-0.00044715,-0.00019204,-0
 .00001928,0.00012501,-0.00012091,0.00416720,-0.00012207,-0.00077637,-0
 .00488044,-0.00504861,-0.00329038,-0.00831271,-0.00617156,0.00118405,0
 .00169055,-0.00269204,-0.00116203,-0.00006005,-0.00013424,-0.00005147,
 0.00000804,-0.00049369,0.00015858,-0.00017916,-0.00008986,-0.00002295,
 0.00006384,0.00016683,-0.00001139,0.00023389,-0.00000591,0.00007818,0.
 00004451,0.00001707,0.,0.15013462,-0.25405900,-0.12573392,0.00846674,-
 0.01601312,-0.01524506,-0.15013579,0.27723679,-0.00117514,-0.00026358,
 -0.00023831,0.00069121,0.00313415,0.00401960,-0.00001684,0.00004605,-0
 .00023983,-0.00063917,0.00095689,0.00199171,0.00017995,0.00052501,0.00
 014026,-0.00004639,-0.00083189,-0.00099504,0.00009357,0.00036942,-0.00
 059761,0.00020344,-0.00001882,-0.00003928,-0.00121893,-0.00002542,-0.0
 0106507,0.00045935,-0.00003708,0.00042906,-0.00003249,0.00001739,-0.00
 007320,-0.00011235,0.00001781,-0.00005721,-0.00010258,-0.00012070,0.00
 001086,-0.00083534,0.00083982,-0.00024702,0.00012915,-0.00020892,-0.00
 005990,0.00003492,-0.00014264,-0.00006174,0.00003145,0.00002750,-0.000
 05149,0.00188514,0.00018269,-0.00133964,-0.00169559,-0.00258249,-0.000
 31452,0.00111539,-0.00017472,-0.00705417,-0.00235755,-0.00122935,0.000
 67941,-0.00004537,-0.00006615,-0.00005476,-0.00024848,-0.00013528,-0.0
 0004716,-0.00015310,0.00003930,-0.00009044,0.00008004,0.00001429,0.000
 05751,0.00016385,-0.00005321,0.00009715,0.00003759,-0.00000919,0.00001
 401,0.09312876,-0.17461157,-0.15140644,-0.02017122,0.03351744,0.013833
 47,-0.06938328,0.14082326,0.14275977\\-0.00000025,0.00003450,0.0000304
 3,-0.00000057,0.00000361,0.00000020,0.00002390,-0.00001192,0.00000330,
 -0.00000972,0.00000555,0.00000988,-0.00004130,0.00000106,-0.00000668,0
 .00000434,-0.00000927,-0.00001371,0.00000226,0.00000180,-0.00000228,-0
 .00000143,-0.00000234,0.00000389,0.00000118,-0.00000033,-0.00000025,-0
 .00000332,-0.00000329,0.00000295,-0.00000083,0.00000072,0.00000118,-0.
 00000140,0.00000192,0.00000090,-0.00000317,0.00000165,-0.00000115,-0.0
 0000766,0.00001030,-0.00000572,-0.00000035,-0.00000757,0.00000767,-0.0
 0000076,0.00000946,0.00000015,0.00000569,-0.00000863,-0.00000316,0.000
 00265,0.00000065,-0.00000185,-0.00000835,-0.00000676,-0.00000813,-0.00
 000119,0.00000075,-0.00001114,-0.00000090,0.00000216,0.00000160,0.0000
 0416,-0.00000507,-0.00000098,0.00001494,-0.00000580,-0.00003502,0.0000
 0122,0.00004450,-0.00002716,0.00002010,0.00001044,0.00003618,-0.000010
 23,-0.00006655,0.00000515,0.00000383,-0.00001430,0.00001304,-0.0000018
 9,0.00001087,-0.00000435,0.00000341,0.00000512,-0.00000439,0.00000562,
 -0.00000326,0.00000945\\\@


 A DANDELION FROM A LOVER MEANS MORE THAN AN ORCHID FROM A FRIEND.
 Job cpu time:       0 days  0 hours 36 minutes 37.8 seconds.
 File lengths (MBytes):  RWF=    221 Int=      0 D2E=      0 Chk=      6 Scr=      1
 Normal termination of Gaussian 09 at Sun Jan 15 12:43:45 2017.
