 Entering Gaussian System, Link 0=g09
 Initial command:
 /global/software/gaussian/g09.e01/l1.exe "/scratch/10462917.yak.local/Gau-14203.inp" -scrdir="/scratch/10462917.yak.local/"
 Entering Link 1 = /global/software/gaussian/g09.e01/l1.exe PID=     14204.
  
 Copyright (c) 1988,1990,1992,1993,1995,1998,2003,2009,2015,
            Gaussian, Inc.  All Rights Reserved.
  
 This is part of the Gaussian(R) 09 program.  It is based on
 the Gaussian(R) 03 system (copyright 2003, Gaussian, Inc.),
 the Gaussian(R) 98 system (copyright 1998, Gaussian, Inc.),
 the Gaussian(R) 94 system (copyright 1995, Gaussian, Inc.),
 the Gaussian 92(TM) system (copyright 1992, Gaussian, Inc.),
 the Gaussian 90(TM) system (copyright 1990, Gaussian, Inc.),
 the Gaussian 88(TM) system (copyright 1988, Gaussian, Inc.),
 the Gaussian 86(TM) system (copyright 1986, Carnegie Mellon
 University), and the Gaussian 82(TM) system (copyright 1983,
 Carnegie Mellon University). Gaussian is a federally registered
 trademark of Gaussian, Inc.
  
 This software contains proprietary and confidential information,
 including trade secrets, belonging to Gaussian, Inc.
  
 This software is provided under written license and may be
 used, copied, transmitted, or stored only in accord with that
 written license.
  
 The following legend is applicable only to US Government
 contracts under FAR:
  
                    RESTRICTED RIGHTS LEGEND
  
 Use, reproduction and disclosure by the US Government is
 subject to restrictions as set forth in subparagraphs (a)
 and (c) of the Commercial Computer Software - Restricted
 Rights clause in FAR 52.227-19.
  
 Gaussian, Inc.
 340 Quinnipiac St., Bldg. 40, Wallingford CT 06492
  
  
 ---------------------------------------------------------------
 Warning -- This program may not be used in any manner that
 competes with the business of Gaussian, Inc. or will provide
 assistance to any competitor of Gaussian, Inc.  The licensee
 of this program is prohibited from giving any competitor of
 Gaussian, Inc. access to this program.  By using this program,
 the user acknowledges that Gaussian, Inc. is engaged in the
 business of creating and licensing software in the field of
 computational chemistry and represents and warrants to the
 licensee that it is not a competitor of Gaussian, Inc. and that
 it will not use this program in any manner prohibited above.
 ---------------------------------------------------------------
  

 Cite this work as:
 Gaussian 09, Revision E.01,
 M. J. Frisch, G. W. Trucks, H. B. Schlegel, G. E. Scuseria, 
 M. A. Robb, J. R. Cheeseman, G. Scalmani, V. Barone, B. Mennucci, 
 G. A. Petersson, H. Nakatsuji, M. Caricato, X. Li, H. P. Hratchian, 
 A. F. Izmaylov, J. Bloino, G. Zheng, J. L. Sonnenberg, M. Hada, 
 M. Ehara, K. Toyota, R. Fukuda, J. Hasegawa, M. Ishida, T. Nakajima, 
 Y. Honda, O. Kitao, H. Nakai, T. Vreven, J. A. Montgomery, Jr., 
 J. E. Peralta, F. Ogliaro, M. Bearpark, J. J. Heyd, E. Brothers, 
 K. N. Kudin, V. N. Staroverov, T. Keith, R. Kobayashi, J. Normand, 
 K. Raghavachari, A. Rendell, J. C. Burant, S. S. Iyengar, J. Tomasi, 
 M. Cossi, N. Rega, J. M. Millam, M. Klene, J. E. Knox, J. B. Cross, 
 V. Bakken, C. Adamo, J. Jaramillo, R. Gomperts, R. E. Stratmann, 
 O. Yazyev, A. J. Austin, R. Cammi, C. Pomelli, J. W. Ochterski, 
 R. L. Martin, K. Morokuma, V. G. Zakrzewski, G. A. Voth, 
 P. Salvador, J. J. Dannenberg, S. Dapprich, A. D. Daniels, 
 O. Farkas, J. B. Foresman, J. V. Ortiz, J. Cioslowski, 
 and D. J. Fox, Gaussian, Inc., Wallingford CT, 2013.
 
 ******************************************
 Gaussian 09:  ES64L-G09RevE.01 30-Nov-2015
                15-Jan-2017 
 ******************************************
 %NPROCS=4
 Will use up to    4 processors via shared memory.
 -----------------------------------------
 # opt=(MaxCycle=1000) freq B3LYP/6-31G(d)
 -----------------------------------------
 1/6=1000,14=-1,18=20,19=15,26=3,38=1/1,3;
 2/9=110,12=2,17=6,18=5,40=1/2;
 3/5=1,6=6,7=1,11=2,16=1,25=1,30=1,71=1,74=-5/1,2,3;
 4//1;
 5/5=2,38=5/2;
 6/7=2,8=2,9=2,10=2,28=1/1;
 7//1,2,3,16;
 1/6=1000,14=-1,18=20,19=15,26=3/3(2);
 2/9=110/2;
 99//99;
 2/9=110/2;
 3/5=1,6=6,7=1,11=2,16=1,25=1,30=1,71=1,74=-5/1,2,3;
 4/5=5,16=3,69=1/1;
 5/5=2,38=5/2;
 7//1,2,3,16;
 1/6=1000,14=-1,18=20,19=15,26=3/3(-5);
 2/9=110/2;
 6/7=2,8=2,9=2,10=2,19=2,28=1/1;
 99/9=1/99;
 -------------------------------------------------
 ./boats/4/glo_2w_alpha_ts_boat4_B3LYP_631Gd_r.out
 -------------------------------------------------
 Symbolic Z-matrix:
 Charge =  0 Multiplicity = 1
 O                    -0.62362   0.35997   0.58565 
 C                     1.64163   0.21185  -0.24652 
 C                     0.23234  -1.91206  -0.20073 
 C                     1.55797  -1.24707   0.20652 
 C                    -0.91869  -0.9601   -0.55322 
 C                     0.59494   1.08987   0.46535 
 H                     1.60996  -1.27321   1.30546 
 H                     0.97464   1.27152   1.48154 
 H                     1.4912    0.25201  -1.33762 
 C                     0.3805    2.42842  -0.24798 
 H                     0.04627   2.25836  -1.2766 
 H                    -0.3913    3.02187   0.25949 
 H                     0.43398  -2.46129  -1.13915 
 O                     1.6149    3.14798  -0.34711 
 H                     1.80723   3.52606   0.52576 
 O                    -0.20038  -2.78236   0.81566 
 H                    -1.17722  -2.75539   0.74766 
 O                     2.62429  -1.98599  -0.36861 
 H                     3.4224   -1.44923  -0.22214 
 O                     2.95004   0.67326   0.07129 
 H                     3.00097   1.58261  -0.27547 
 H                    -0.76697  -0.3651   -1.46846 
 O                    -2.07551  -1.39471  -0.2852 
 O                    -3.8355    0.26642  -0.90881 
 H                    -3.18897  -0.50703  -0.76596 
 H                    -3.31616   1.15635   0.17277 
 H                    -4.71949  -0.0939   -0.74432 
 O                    -2.7328    1.60255   0.88627 
 H                    -1.49409   0.92751   0.73315 
 H                    -3.10517   1.3366    1.74134 
 
 Add virtual bond connecting atoms H29        and O28        Dist= 2.68D+00.
 Add virtual bond connecting atoms O23        and H25        Dist= 2.84D+00.
 Add virtual bond connecting atoms H26        and O24        Dist= 2.82D+00.

 GradGradGradGradGradGradGradGradGradGradGradGradGradGradGradGradGradGrad
 Berny optimization.
 Initialization pass.
                           ----------------------------
                           !    Initial Parameters    !
                           ! (Angstroms and Degrees)  !
 --------------------------                            --------------------------
 ! Name  Definition              Value          Derivative Info.                !
 --------------------------------------------------------------------------------
 ! R1    R(1,6)                  1.4255         estimate D2E/DX2                !
 ! R2    R(1,29)                 1.0496         estimate D2E/DX2                !
 ! R3    R(2,4)                  1.5299         estimate D2E/DX2                !
 ! R4    R(2,6)                  1.5405         estimate D2E/DX2                !
 ! R5    R(2,9)                  1.1022         estimate D2E/DX2                !
 ! R6    R(2,20)                 1.4233         estimate D2E/DX2                !
 ! R7    R(3,4)                  1.538          estimate D2E/DX2                !
 ! R8    R(3,5)                  1.5347         estimate D2E/DX2                !
 ! R9    R(3,13)                 1.1059         estimate D2E/DX2                !
 ! R10   R(3,16)                 1.4063         estimate D2E/DX2                !
 ! R11   R(4,7)                  1.1005         estimate D2E/DX2                !
 ! R12   R(4,18)                 1.4191         estimate D2E/DX2                !
 ! R13   R(5,22)                 1.1021         estimate D2E/DX2                !
 ! R14   R(5,23)                 1.2645         estimate D2E/DX2                !
 ! R15   R(6,8)                  1.0999         estimate D2E/DX2                !
 ! R16   R(6,10)                 1.5318         estimate D2E/DX2                !
 ! R17   R(10,11)                1.0948         estimate D2E/DX2                !
 ! R18   R(10,12)                1.0979         estimate D2E/DX2                !
 ! R19   R(10,14)                1.4322         estimate D2E/DX2                !
 ! R20   R(14,15)                0.9705         estimate D2E/DX2                !
 ! R21   R(16,17)                0.9796         estimate D2E/DX2                !
 ! R22   R(18,19)                0.9729         estimate D2E/DX2                !
 ! R23   R(20,21)                0.9746         estimate D2E/DX2                !
 ! R24   R(23,25)                1.503          estimate D2E/DX2                !
 ! R25   R(24,25)                1.0182         estimate D2E/DX2                !
 ! R26   R(24,26)                1.4938         estimate D2E/DX2                !
 ! R27   R(24,27)                0.9687         estimate D2E/DX2                !
 ! R28   R(26,28)                1.024          estimate D2E/DX2                !
 ! R29   R(28,29)                1.419          estimate D2E/DX2                !
 ! R30   R(28,30)                0.9698         estimate D2E/DX2                !
 ! A1    A(6,1,29)             116.3558         estimate D2E/DX2                !
 ! A2    A(4,2,6)              111.6851         estimate D2E/DX2                !
 ! A3    A(4,2,9)              108.689          estimate D2E/DX2                !
 ! A4    A(4,2,20)             107.0544         estimate D2E/DX2                !
 ! A5    A(6,2,9)              110.1182         estimate D2E/DX2                !
 ! A6    A(6,2,20)             109.6721         estimate D2E/DX2                !
 ! A7    A(9,2,20)             109.5546         estimate D2E/DX2                !
 ! A8    A(4,3,5)              116.0443         estimate D2E/DX2                !
 ! A9    A(4,3,13)             106.3965         estimate D2E/DX2                !
 ! A10   A(4,3,16)             109.9633         estimate D2E/DX2                !
 ! A11   A(5,3,13)             104.4725         estimate D2E/DX2                !
 ! A12   A(5,3,16)             108.6078         estimate D2E/DX2                !
 ! A13   A(13,3,16)            111.2262         estimate D2E/DX2                !
 ! A14   A(2,4,3)              112.3977         estimate D2E/DX2                !
 ! A15   A(2,4,7)              108.4074         estimate D2E/DX2                !
 ! A16   A(2,4,18)             109.5988         estimate D2E/DX2                !
 ! A17   A(3,4,7)              107.1501         estimate D2E/DX2                !
 ! A18   A(3,4,18)             108.3734         estimate D2E/DX2                !
 ! A19   A(7,4,18)             110.9067         estimate D2E/DX2                !
 ! A20   A(3,5,22)             114.9832         estimate D2E/DX2                !
 ! A21   A(3,5,23)             115.1036         estimate D2E/DX2                !
 ! A22   A(22,5,23)            119.1766         estimate D2E/DX2                !
 ! A23   A(1,6,2)              109.1451         estimate D2E/DX2                !
 ! A24   A(1,6,8)              107.5588         estimate D2E/DX2                !
 ! A25   A(1,6,10)             111.5337         estimate D2E/DX2                !
 ! A26   A(2,6,8)              106.6485         estimate D2E/DX2                !
 ! A27   A(2,6,10)             112.2073         estimate D2E/DX2                !
 ! A28   A(8,6,10)             109.5261         estimate D2E/DX2                !
 ! A29   A(6,10,11)            110.1517         estimate D2E/DX2                !
 ! A30   A(6,10,12)            110.8237         estimate D2E/DX2                !
 ! A31   A(6,10,14)            110.5231         estimate D2E/DX2                !
 ! A32   A(11,10,12)           107.675          estimate D2E/DX2                !
 ! A33   A(11,10,14)           106.0285         estimate D2E/DX2                !
 ! A34   A(12,10,14)           111.4875         estimate D2E/DX2                !
 ! A35   A(10,14,15)           107.7146         estimate D2E/DX2                !
 ! A36   A(3,16,17)            103.8647         estimate D2E/DX2                !
 ! A37   A(4,18,19)            105.5525         estimate D2E/DX2                !
 ! A38   A(2,20,21)            105.7286         estimate D2E/DX2                !
 ! A39   A(5,23,25)            114.014          estimate D2E/DX2                !
 ! A40   A(25,24,26)            97.4818         estimate D2E/DX2                !
 ! A41   A(25,24,27)           105.8484         estimate D2E/DX2                !
 ! A42   A(26,24,27)           114.5771         estimate D2E/DX2                !
 ! A43   A(23,25,24)           164.577          estimate D2E/DX2                !
 ! A44   A(24,26,28)           164.1917         estimate D2E/DX2                !
 ! A45   A(26,28,29)           102.4062         estimate D2E/DX2                !
 ! A46   A(26,28,30)           106.0288         estimate D2E/DX2                !
 ! A47   A(29,28,30)           107.4495         estimate D2E/DX2                !
 ! A48   L(1,29,28,11,-1)      181.8556         estimate D2E/DX2                !
 ! A49   L(1,29,28,11,-2)      175.2758         estimate D2E/DX2                !
 ! D1    D(29,1,6,2)          -159.1452         estimate D2E/DX2                !
 ! D2    D(29,1,6,8)            85.5176         estimate D2E/DX2                !
 ! D3    D(29,1,6,10)          -34.5973         estimate D2E/DX2                !
 ! D4    D(6,1,28,26)          130.8527         estimate D2E/DX2                !
 ! D5    D(6,1,28,30)         -118.5293         estimate D2E/DX2                !
 ! D6    D(6,2,4,3)             65.4009         estimate D2E/DX2                !
 ! D7    D(6,2,4,7)            -52.847          estimate D2E/DX2                !
 ! D8    D(6,2,4,18)          -174.0261         estimate D2E/DX2                !
 ! D9    D(9,2,4,3)            -56.2854         estimate D2E/DX2                !
 ! D10   D(9,2,4,7)           -174.5334         estimate D2E/DX2                !
 ! D11   D(9,2,4,18)            64.2876         estimate D2E/DX2                !
 ! D12   D(20,2,4,3)          -174.5379         estimate D2E/DX2                !
 ! D13   D(20,2,4,7)            67.2142         estimate D2E/DX2                !
 ! D14   D(20,2,4,18)          -53.9649         estimate D2E/DX2                !
 ! D15   D(4,2,6,1)            -39.1069         estimate D2E/DX2                !
 ! D16   D(4,2,6,8)             76.8142         estimate D2E/DX2                !
 ! D17   D(4,2,6,10)          -163.2591         estimate D2E/DX2                !
 ! D18   D(9,2,6,1)             81.7506         estimate D2E/DX2                !
 ! D19   D(9,2,6,8)           -162.3283         estimate D2E/DX2                !
 ! D20   D(9,2,6,10)           -42.4017         estimate D2E/DX2                !
 ! D21   D(20,2,6,1)          -157.6186         estimate D2E/DX2                !
 ! D22   D(20,2,6,8)           -41.6975         estimate D2E/DX2                !
 ! D23   D(20,2,6,10)           78.2291         estimate D2E/DX2                !
 ! D24   D(4,2,20,21)          176.4892         estimate D2E/DX2                !
 ! D25   D(6,2,20,21)          -62.1699         estimate D2E/DX2                !
 ! D26   D(9,2,20,21)           58.8019         estimate D2E/DX2                !
 ! D27   D(5,3,4,2)            -18.9208         estimate D2E/DX2                !
 ! D28   D(5,3,4,7)            100.0661         estimate D2E/DX2                !
 ! D29   D(5,3,4,18)          -140.1976         estimate D2E/DX2                !
 ! D30   D(13,3,4,2)            96.785          estimate D2E/DX2                !
 ! D31   D(13,3,4,7)          -144.2282         estimate D2E/DX2                !
 ! D32   D(13,3,4,18)          -24.4918         estimate D2E/DX2                !
 ! D33   D(16,3,4,2)          -142.6571         estimate D2E/DX2                !
 ! D34   D(16,3,4,7)           -23.6702         estimate D2E/DX2                !
 ! D35   D(16,3,4,18)           96.0662         estimate D2E/DX2                !
 ! D36   D(4,3,5,22)            67.0444         estimate D2E/DX2                !
 ! D37   D(4,3,5,23)          -148.6412         estimate D2E/DX2                !
 ! D38   D(13,3,5,22)          -49.7389         estimate D2E/DX2                !
 ! D39   D(13,3,5,23)           94.5755         estimate D2E/DX2                !
 ! D40   D(16,3,5,22)         -168.5185         estimate D2E/DX2                !
 ! D41   D(16,3,5,23)          -24.2041         estimate D2E/DX2                !
 ! D42   D(4,3,16,17)          149.2449         estimate D2E/DX2                !
 ! D43   D(5,3,16,17)           21.2784         estimate D2E/DX2                !
 ! D44   D(13,3,16,17)         -93.1568         estimate D2E/DX2                !
 ! D45   D(2,4,18,19)           47.2281         estimate D2E/DX2                !
 ! D46   D(3,4,18,19)          170.2155         estimate D2E/DX2                !
 ! D47   D(7,4,18,19)          -72.4303         estimate D2E/DX2                !
 ! D48   D(3,5,23,25)         -174.1086         estimate D2E/DX2                !
 ! D49   D(22,5,23,25)         -31.3801         estimate D2E/DX2                !
 ! D50   D(1,6,10,11)          -63.6462         estimate D2E/DX2                !
 ! D51   D(1,6,10,12)           55.405          estimate D2E/DX2                !
 ! D52   D(1,6,10,14)          179.5186         estimate D2E/DX2                !
 ! D53   D(2,6,10,11)           59.1674         estimate D2E/DX2                !
 ! D54   D(2,6,10,12)          178.2186         estimate D2E/DX2                !
 ! D55   D(2,6,10,14)          -57.6679         estimate D2E/DX2                !
 ! D56   D(8,6,10,11)          177.4039         estimate D2E/DX2                !
 ! D57   D(8,6,10,12)          -63.5449         estimate D2E/DX2                !
 ! D58   D(8,6,10,14)           60.5687         estimate D2E/DX2                !
 ! D59   D(6,10,14,15)         -76.1983         estimate D2E/DX2                !
 ! D60   D(11,10,14,15)        164.4429         estimate D2E/DX2                !
 ! D61   D(12,10,14,15)         47.5332         estimate D2E/DX2                !
 ! D62   D(5,23,25,24)         -65.1183         estimate D2E/DX2                !
 ! D63   D(26,24,25,23)         -4.6067         estimate D2E/DX2                !
 ! D64   D(27,24,25,23)       -122.8585         estimate D2E/DX2                !
 ! D65   D(25,24,26,28)         20.0128         estimate D2E/DX2                !
 ! D66   D(27,24,26,28)        131.2938         estimate D2E/DX2                !
 ! D67   D(24,26,28,29)          5.661          estimate D2E/DX2                !
 ! D68   D(24,26,28,30)       -106.8371         estimate D2E/DX2                !
 --------------------------------------------------------------------------------
 Trust Radius=3.00D-01 FncErr=1.00D-07 GrdErr=1.00D-06
 Number of steps in this run=    180 maximum allowed number of steps=    180.
 GradGradGradGradGradGradGradGradGradGradGradGradGradGradGradGradGradGrad

                          Input orientation:                          
 ---------------------------------------------------------------------
 Center     Atomic      Atomic             Coordinates (Angstroms)
 Number     Number       Type             X           Y           Z
 ---------------------------------------------------------------------
      1          8           0       -0.623620    0.359970    0.585650
      2          6           0        1.641630    0.211850   -0.246520
      3          6           0        0.232340   -1.912060   -0.200730
      4          6           0        1.557970   -1.247070    0.206520
      5          6           0       -0.918690   -0.960100   -0.553220
      6          6           0        0.594940    1.089870    0.465350
      7          1           0        1.609960   -1.273210    1.305460
      8          1           0        0.974640    1.271520    1.481540
      9          1           0        1.491200    0.252010   -1.337620
     10          6           0        0.380500    2.428420   -0.247980
     11          1           0        0.046270    2.258360   -1.276600
     12          1           0       -0.391300    3.021870    0.259490
     13          1           0        0.433980   -2.461290   -1.139150
     14          8           0        1.614900    3.147980   -0.347110
     15          1           0        1.807230    3.526060    0.525760
     16          8           0       -0.200380   -2.782360    0.815660
     17          1           0       -1.177220   -2.755390    0.747660
     18          8           0        2.624290   -1.985990   -0.368610
     19          1           0        3.422400   -1.449230   -0.222140
     20          8           0        2.950040    0.673260    0.071290
     21          1           0        3.000970    1.582610   -0.275470
     22          1           0       -0.766970   -0.365100   -1.468460
     23          8           0       -2.075510   -1.394710   -0.285200
     24          8           0       -3.835500    0.266420   -0.908810
     25          1           0       -3.188970   -0.507030   -0.765960
     26          1           0       -3.316160    1.156350    0.172770
     27          1           0       -4.719490   -0.093900   -0.744320
     28          8           0       -2.732800    1.602550    0.886270
     29          1           0       -1.494090    0.927510    0.733150
     30          1           0       -3.105170    1.336600    1.741340
 ---------------------------------------------------------------------
                    Distance matrix (angstroms):
                    1          2          3          4          5
     1  O    0.000000
     2  C    2.417810   0.000000
     3  C    2.552094   2.549351   0.000000
     4  C    2.735992   1.529932   1.537972   0.000000
     5  C    1.768241   2.832450   1.534714   2.606415   0.000000
     6  C    1.425523   1.540532   3.096244   2.540809   2.744255
     7  H    2.859070   2.148266   2.138825   1.100480   3.153855
     8  H    2.046455   2.134003   3.676442   2.882576   3.564418
     9  H    2.860609   1.102153   2.749627   2.153153   2.809282
    10  C    2.445748   2.550222   4.343265   3.886159   3.641859
    11  H    2.742373   2.791853   4.310977   4.095476   3.436992
    12  H    2.691852   3.505005   4.994436   4.693219   4.098137
    13  H    3.471737   3.066086   1.105868   2.132724   2.103949
    14  O    3.695134   2.937974   5.247562   4.430148   4.830930
    15  H    3.992085   3.407026   5.707996   4.790283   5.359148
    16  O    3.179037   3.672400   1.406313   2.412460   2.389651
    17  H    3.168310   4.211748   1.896710   3.170036   2.232083
    18  O    4.118624   2.410607   2.398974   1.419090   3.693134
    19  H    4.505109   2.435349   3.223531   1.923725   4.381087
    20  O    3.624053   1.423320   3.760820   2.375671   4.245580
    21  H    3.920973   1.930706   4.459105   3.212733   4.680412
    22  H    2.183035   2.761768   2.235810   2.998129   1.102138
    23  O    2.438292   4.049649   2.366634   3.669573   1.264497
    24  O    3.543774   5.517296   4.668455   5.711754   3.184113
    25  H    3.026476   4.911344   3.741518   4.901716   2.324801
    26  H    2.838039   5.064343   4.706006   5.434585   3.279373
    27  H    4.330239   6.387890   5.303001   6.452937   3.902935
    28  O    2.466377   4.727885   4.725051   5.195489   3.454027
    29  H    1.049560   3.362241   3.451934   3.784337   2.355611
    30  H    2.906461   5.267709   5.046226   5.547603   3.914145
                    6          7          8          9         10
     6  C    0.000000
     7  H    2.705586   0.000000
     8  H    1.099914   2.628742   0.000000
     9  H    2.180824   3.053895   3.042022   0.000000
    10  C    1.531842   4.198430   2.163945   2.675393   0.000000
    11  H    2.168132   4.645874   3.072956   2.473254   1.094847
    12  H    2.178915   4.852505   2.534349   3.710349   1.097900
    13  H    3.900137   2.961517   4.592842   2.918750   4.970544
    14  O    2.436437   4.719951   2.697220   3.063177   1.432249
    15  H    2.721823   4.866194   2.586440   3.780405   1.959348
    16  O    3.968553   2.407233   4.272939   4.087231   5.349858
    17  H    4.243380   3.205678   4.624401   4.529162   5.503606
    18  O    3.778183   2.083130   4.093381   2.689148   4.953399
    19  H    3.861891   2.376864   4.036897   2.805004   4.928488
    20  O    2.423911   2.666034   2.499785   2.071399   3.128107
    21  H    2.565266   3.548233   2.699977   2.275536   2.753727
    22  H    2.776933   3.764185   3.796608   2.344627   3.257301
    23  O    3.723945   4.015925   4.419680   4.067025   4.544193
    24  O    4.711177   6.076717   5.464563   5.343952   4.783889
    25  H    4.287679   5.282759   5.054715   4.775660   4.650407
    26  H    3.922592   5.608245   4.487439   5.119553   3.931983
    27  H    5.577435   6.756797   6.264339   6.248546   5.711248
    28  O    3.393209   5.225445   3.769488   4.961030   3.414853
    29  H    2.112374   3.847835   2.602510   3.695449   2.594115
    30  H    3.921714   5.406806   4.088592   5.637637   4.159250
                   11         12         13         14         15
    11  H    0.000000
    12  H    1.770307   0.000000
    13  H    4.737542   5.718595   0.000000
    14  O    2.028787   2.099692   5.786692   0.000000
    15  H    2.820735   2.271264   6.364440   0.970483   0.000000
    16  O    5.463263   5.833940   2.080092   6.310009   6.626515
    17  H    5.543667   5.850873   2.498502   6.621498   6.957930
    18  O    5.048281   5.879367   2.370042   5.232301   5.643596
    19  H    5.124096   5.896356   3.285700   4.941357   5.284093
    20  O    3.572286   4.088513   4.197753   2.842868   3.106610
    21  H    3.192045   3.723593   4.867084   2.092058   2.417433
    22  H    2.753309   3.820799   2.438183   4.390041   5.073908
    23  O    4.339325   4.758091   2.857335   5.853118   6.320388
    24  O    4.378497   4.562888   5.071678   6.190780   6.672604
    25  H    4.286597   4.618619   4.133300   6.050760   6.549532
    26  H    3.823746   3.470229   5.373267   5.343428   5.655904
    27  H    5.341247   5.426683   5.684952   7.126855   7.570686
    28  O    3.582084   2.808905   5.535848   4.776199   4.943858
    29  H    2.860588   2.413886   4.325150   3.970298   4.206446
    30  H    4.459728   3.521520   5.936899   5.470081   5.513896
                   16         17         18         19         20
    16  O    0.000000
    17  H    0.979575   0.000000
    18  O    3.164721   4.036027   0.000000
    19  H    3.997349   4.878839   0.972905   0.000000
    20  O    4.735034   5.408086   2.715002   2.194126   0.000000
    21  H    5.521972   6.109199   3.589634   3.061454   0.974553
    22  H    3.373629   3.285267   3.916325   4.503274   4.155140
    23  O    2.579453   1.930071   4.737583   5.498542   5.446075
    24  O    5.048064   4.352204   6.862511   7.489465   6.868018
    25  H    4.075576   3.375397   6.011589   6.700276   6.307259
    26  H    5.063085   4.495250   6.742132   7.235551   6.285613
    27  H    5.484862   4.675170   7.592909   8.270427   7.750835
    28  O    5.064146   4.629329   6.568924   6.959053   5.815707
    29  H    3.929838   3.696535   5.163663   5.543766   4.500333
    30  H    5.124502   4.631282   6.951130   7.363781   6.316222
                   21         22         23         24         25
    21  H    0.000000
    22  H    4.406152   0.000000
    23  O    5.885166   2.042664   0.000000
    24  O    6.990765   3.182436   2.499161   0.000000
    25  H    6.551529   2.525814   1.502963   1.018151   0.000000
    26  H    6.347342   3.392170   2.873475   1.493822   1.914216
    27  H    7.914291   4.027449   2.982202   0.968672   1.585445
    28  O    5.850312   3.644295   3.284500   2.494695   2.718140
    29  H    4.653175   2.654549   2.601498   2.935179   2.679152
    30  H    6.435292   4.320391   3.553466   2.949909   3.113286
                   26         27         28         29         30
    26  H    0.000000
    27  H    2.091295   0.000000
    28  O    1.023956   3.079562   0.000000
    29  H    1.919982   3.691802   1.418988   0.000000
    30  H    1.592928   3.291028   0.969811   1.944063   0.000000
 Stoichiometry    C6H16O8
 Framework group  C1[X(C6H16O8)]
 Deg. of freedom    84
 Full point group                 C1      NOp   1
 Largest Abelian subgroup         C1      NOp   1
 Largest concise Abelian subgroup C1      NOp   1
                         Standard orientation:                         
 ---------------------------------------------------------------------
 Center     Atomic      Atomic             Coordinates (Angstroms)
 Number     Number       Type             X           Y           Z
 ---------------------------------------------------------------------
      1          8           0       -0.599369    0.334063    0.587124
      2          6           0        1.663742    0.185295   -0.250730
      3          6           0        0.257037   -1.940030   -0.192780
      4          6           0        1.583018   -1.271945    0.208210
      5          6           0       -0.896061   -0.990767   -0.545782
      6          6           0        0.618010    1.064882    0.460614
      7          1           0        1.638075   -1.293747    1.307096
      8          1           0        1.000307    1.250921    1.475035
      9          1           0        1.510251    0.221036   -1.341558
     10          6           0        0.400055    2.400399   -0.257321
     11          1           0        0.063181    2.225955   -1.284343
     12          1           0       -0.371024    2.994937    0.249971
     13          1           0        0.456716   -2.492678   -1.129611
     14          8           0        1.633345    3.120979   -0.362665
     15          1           0        1.827650    3.502674    0.508192
     16          8           0       -0.171868   -2.806862    0.828182
     17          1           0       -1.148923   -2.781274    0.762781
     18          8           0        2.648597   -2.011878   -0.366991
     19          1           0        3.446489   -1.473640   -0.224819
     20          8           0        2.972492    0.649435    0.061660
     21          1           0        3.021414    1.557486   -0.288774
     22          1           0       -0.747558   -0.399161   -1.463746
     23          8           0       -2.051634   -1.425653   -0.272873
     24          8           0       -3.815256    0.231024   -0.898065
     25          1           0       -3.167442   -0.541124   -0.753998
     26          1           0       -3.293957    1.125750    0.178604
     27          1           0       -4.698372   -0.129664   -0.729729
     28          8           0       -2.709143    1.575391    0.888745
     29          1           0       -1.470083    0.901177    0.734824
     30          1           0       -3.078842    1.312346    1.745871
 ---------------------------------------------------------------------
 Rotational constants (GHZ):      0.7087928      0.5260736      0.3307156
 Standard basis: 6-31G(d) (6D, 7F)
 There are   242 symmetry adapted cartesian basis functions of A   symmetry.
 There are   242 symmetry adapted basis functions of A   symmetry.
   242 basis functions,   456 primitive gaussians,   242 cartesian basis functions
    58 alpha electrons       58 beta electrons
       nuclear repulsion energy      1100.3465092193 Hartrees.
 NAtoms=   30 NActive=   30 NUniq=   30 SFac= 1.00D+00 NAtFMM=   60 NAOKFM=F Big=F
 Integral buffers will be    131072 words long.
 Raffenetti 2 integral format.
 Two-electron integral symmetry is turned on.
 One-electron integrals computed using PRISM.
 NBasis=   242 RedAO= T EigKep=  1.38D-03  NBF=   242
 NBsUse=   242 1.00D-06 EigRej= -1.00D+00 NBFU=   242
 ExpMin= 1.61D-01 ExpMax= 5.48D+03 ExpMxC= 8.25D+02 IAcc=1 IRadAn=         1 AccDes= 0.00D+00
 Harris functional with IExCor=  402 and IRadAn=       1 diagonalized for initial guess.
 HarFok:  IExCor=  402 AccDes= 0.00D+00 IRadAn=         1 IDoV= 1 UseB2=F ITyADJ=14
 ICtDFT=  3500011 ScaDFX=  1.000000  1.000000  1.000000  1.000000
 FoFCou: FMM=F IPFlag=           0 FMFlag=      100000 FMFlg1=           0
         NFxFlg=           0 DoJE=T BraDBF=F KetDBF=T FulRan=T
         wScrn=  0.000000 ICntrl=     500 IOpCl=  0 I1Cent=   200000004 NGrid=           0
         NMat0=    1 NMatS0=      1 NMatT0=    0 NMatD0=    1 NMtDS0=    0 NMtDT0=    0
 Petite list used in FoFCou.
 Requested convergence on RMS density matrix=1.00D-08 within 128 cycles.
 Requested convergence on MAX density matrix=1.00D-06.
 Requested convergence on             energy=1.00D-06.
 No special actions if energy rises.
 Integral accuracy reduced to 1.0D-05 until final iterations.
 Initial convergence to 1.0D-05 achieved.  Increase integral accuracy.
 SCF Done:  E(RB3LYP) =  -839.969086290     A.U. after   14 cycles
            NFock= 14  Conv=0.39D-08     -V/T= 2.0083

 **********************************************************************

            Population analysis using the SCF density.

 **********************************************************************

 Orbital symmetries:
       Occupied  (A) (A) (A) (A) (A) (A) (A) (A) (A) (A) (A) (A)
                 (A) (A) (A) (A) (A) (A) (A) (A) (A) (A) (A) (A)
                 (A) (A) (A) (A) (A) (A) (A) (A) (A) (A) (A) (A)
                 (A) (A) (A) (A) (A) (A) (A) (A) (A) (A) (A) (A)
                 (A) (A) (A) (A) (A) (A) (A) (A) (A) (A)
       Virtual   (A) (A) (A) (A) (A) (A) (A) (A) (A) (A) (A) (A)
                 (A) (A) (A) (A) (A) (A) (A) (A) (A) (A) (A) (A)
                 (A) (A) (A) (A) (A) (A) (A) (A) (A) (A) (A) (A)
                 (A) (A) (A) (A) (A) (A) (A) (A) (A) (A) (A) (A)
                 (A) (A) (A) (A) (A) (A) (A) (A) (A) (A) (A) (A)
                 (A) (A) (A) (A) (A) (A) (A) (A) (A) (A) (A) (A)
                 (A) (A) (A) (A) (A) (A) (A) (A) (A) (A) (A) (A)
                 (A) (A) (A) (A) (A) (A) (A) (A) (A) (A) (A) (A)
                 (A) (A) (A) (A) (A) (A) (A) (A) (A) (A) (A) (A)
                 (A) (A) (A) (A) (A) (A) (A) (A) (A) (A) (A) (A)
                 (A) (A) (A) (A) (A) (A) (A) (A) (A) (A) (A) (A)
                 (A) (A) (A) (A) (A) (A) (A) (A) (A) (A) (A) (A)
                 (A) (A) (A) (A) (A) (A) (A) (A) (A) (A) (A) (A)
                 (A) (A) (A) (A) (A) (A) (A) (A) (A) (A) (A) (A)
                 (A) (A) (A) (A) (A) (A) (A) (A) (A) (A) (A) (A)
                 (A) (A) (A) (A)
 The electronic state is 1-A.
 Alpha  occ. eigenvalues --  -19.18538 -19.18410 -19.16817 -19.15524 -19.14702
 Alpha  occ. eigenvalues --  -19.13240 -19.12038 -19.12012 -10.28783 -10.25913
 Alpha  occ. eigenvalues --  -10.25630 -10.24601 -10.23076 -10.22780  -1.07296
 Alpha  occ. eigenvalues --   -1.05289  -1.03562  -1.02985  -1.02653  -1.00532
 Alpha  occ. eigenvalues --   -0.99758  -0.98290  -0.78782  -0.75529  -0.69216
 Alpha  occ. eigenvalues --   -0.64493  -0.62843  -0.56539  -0.55910  -0.55401
 Alpha  occ. eigenvalues --   -0.54106  -0.53496  -0.53081  -0.50828  -0.49758
 Alpha  occ. eigenvalues --   -0.48336  -0.46634  -0.45302  -0.44662  -0.42705
 Alpha  occ. eigenvalues --   -0.41869  -0.41545  -0.39944  -0.38693  -0.37618
 Alpha  occ. eigenvalues --   -0.37334  -0.36503  -0.34359  -0.33562  -0.33180
 Alpha  occ. eigenvalues --   -0.31625  -0.30993  -0.29797  -0.28660  -0.27540
 Alpha  occ. eigenvalues --   -0.26308  -0.26035  -0.23983
 Alpha virt. eigenvalues --    0.02999   0.04688   0.05109   0.07991   0.08348
 Alpha virt. eigenvalues --    0.09405   0.11094   0.12475   0.13434   0.14357
 Alpha virt. eigenvalues --    0.15437   0.16023   0.16807   0.17700   0.18854
 Alpha virt. eigenvalues --    0.19441   0.20802   0.22846   0.24433   0.25006
 Alpha virt. eigenvalues --    0.25628   0.26365   0.28309   0.30239   0.30983
 Alpha virt. eigenvalues --    0.32444   0.33782   0.39858   0.51193   0.52000
 Alpha virt. eigenvalues --    0.53172   0.56080   0.56496   0.58825   0.60331
 Alpha virt. eigenvalues --    0.61069   0.61834   0.64674   0.65933   0.67471
 Alpha virt. eigenvalues --    0.68943   0.70082   0.72165   0.73457   0.74770
 Alpha virt. eigenvalues --    0.75017   0.76918   0.77598   0.78012   0.79875
 Alpha virt. eigenvalues --    0.80412   0.81024   0.83359   0.83895   0.84224
 Alpha virt. eigenvalues --    0.85997   0.86267   0.87251   0.87485   0.89492
 Alpha virt. eigenvalues --    0.90145   0.91152   0.93583   0.93761   0.94228
 Alpha virt. eigenvalues --    0.96758   0.97517   1.00595   1.01103   1.02577
 Alpha virt. eigenvalues --    1.04659   1.05859   1.06005   1.07007   1.09639
 Alpha virt. eigenvalues --    1.09784   1.11160   1.13852   1.15546   1.16729
 Alpha virt. eigenvalues --    1.18601   1.19624   1.20950   1.25597   1.27725
 Alpha virt. eigenvalues --    1.29793   1.31319   1.32531   1.36542   1.39067
 Alpha virt. eigenvalues --    1.41141   1.44261   1.45188   1.49295   1.51524
 Alpha virt. eigenvalues --    1.51788   1.54338   1.56263   1.57233   1.58964
 Alpha virt. eigenvalues --    1.60062   1.64369   1.67863   1.68479   1.70179
 Alpha virt. eigenvalues --    1.70649   1.71024   1.71510   1.72049   1.73945
 Alpha virt. eigenvalues --    1.74796   1.75986   1.76436   1.77392   1.79338
 Alpha virt. eigenvalues --    1.80524   1.81437   1.83893   1.85092   1.86110
 Alpha virt. eigenvalues --    1.88794   1.89904   1.90851   1.93703   1.95326
 Alpha virt. eigenvalues --    1.95548   1.99536   2.01383   2.03171   2.04069
 Alpha virt. eigenvalues --    2.06395   2.08848   2.10092   2.13040   2.15946
 Alpha virt. eigenvalues --    2.21125   2.21537   2.25317   2.27789   2.29688
 Alpha virt. eigenvalues --    2.31505   2.32780   2.36095   2.39834   2.41204
 Alpha virt. eigenvalues --    2.42016   2.45497   2.48825   2.49206   2.49848
 Alpha virt. eigenvalues --    2.52186   2.54411   2.56047   2.59202   2.61130
 Alpha virt. eigenvalues --    2.62124   2.66312   2.67006   2.70001   2.74741
 Alpha virt. eigenvalues --    2.77434   2.80581   2.82408   2.85437   2.91456
 Alpha virt. eigenvalues --    2.94048   2.96012   2.97405   3.01331   3.08391
 Alpha virt. eigenvalues --    3.74197   3.75103   3.80819   3.84541   3.87607
 Alpha virt. eigenvalues --    3.94390   4.08018   4.20706   4.23987   4.37388
 Alpha virt. eigenvalues --    4.44699   4.46321   4.65444   4.80376
          Condensed to atoms (all electrons):
               1          2          3          4          5          6
     1  O    8.629195  -0.028546  -0.020565  -0.000113   0.023036   0.125174
     2  C   -0.028546   5.008629  -0.023287   0.315868  -0.000071   0.287537
     3  C   -0.020565  -0.023287   4.998572   0.306894   0.282067  -0.009595
     4  C   -0.000113   0.315868   0.306894   4.917974  -0.029764  -0.034369
     5  C    0.023036  -0.000071   0.282067  -0.029764   4.767510  -0.007924
     6  C    0.125174   0.287537  -0.009595  -0.034369  -0.007924   5.049758
     7  H    0.000909  -0.054378  -0.050028   0.348791   0.001436  -0.001033
     8  H   -0.032067  -0.048030  -0.000071  -0.007275   0.000857   0.354081
     9  H    0.002459   0.344926  -0.005796  -0.044401  -0.000189  -0.055846
    10  C   -0.024693  -0.031730  -0.000138   0.003715  -0.001328   0.330303
    11  H    0.003340  -0.010256  -0.000021  -0.000061   0.000452  -0.041145
    12  H    0.001085   0.004918  -0.000005  -0.000093  -0.000026  -0.043785
    13  H    0.002172  -0.000113   0.336515  -0.056074  -0.044942   0.000824
    14  O    0.001635   0.001698  -0.000001   0.000094   0.000030  -0.041667
    15  H    0.000011  -0.001779   0.000001  -0.000008  -0.000002  -0.001111
    16  O   -0.000092   0.002289   0.263660  -0.047208  -0.021594   0.000567
    17  H    0.000845  -0.000338  -0.051485   0.006812  -0.017756   0.000006
    18  O    0.000007  -0.032118  -0.036073   0.231974   0.001766   0.003528
    19  H   -0.000010  -0.013906   0.006420  -0.029827  -0.000245   0.000806
    20  O    0.001485   0.222799   0.002235  -0.037475   0.000194  -0.042377
    21  H    0.000035  -0.021343  -0.000198   0.005223  -0.000002  -0.004732
    22  H   -0.045609  -0.003070  -0.078726   0.001995   0.347385   0.006836
    23  O   -0.046201   0.000148  -0.047883   0.002001   0.377742   0.001780
    24  O   -0.000609   0.000000  -0.000132   0.000001   0.006933   0.000006
    25  H    0.001576   0.000008   0.001972  -0.000028  -0.011614  -0.000094
    26  H    0.005583   0.000010   0.000049  -0.000002   0.000090  -0.000174
    27  H    0.000004  -0.000000  -0.000002  -0.000000  -0.000283   0.000001
    28  O   -0.078638  -0.000066  -0.000026   0.000002   0.001052   0.001782
    29  H    0.129470   0.002191   0.000817  -0.000026   0.001089  -0.006082
    30  H    0.004040   0.000004  -0.000000  -0.000000  -0.000062   0.000053
               7          8          9         10         11         12
     1  O    0.000909  -0.032067   0.002459  -0.024693   0.003340   0.001085
     2  C   -0.054378  -0.048030   0.344926  -0.031730  -0.010256   0.004918
     3  C   -0.050028  -0.000071  -0.005796  -0.000138  -0.000021  -0.000005
     4  C    0.348791  -0.007275  -0.044401   0.003715  -0.000061  -0.000093
     5  C    0.001436   0.000857  -0.000189  -0.001328   0.000452  -0.000026
     6  C   -0.001033   0.354081  -0.055846   0.330303  -0.041145  -0.043785
     7  H    0.629841   0.004695   0.007718   0.000009   0.000001   0.000007
     8  H    0.004695   0.626543   0.007363  -0.055830   0.005868  -0.004934
     9  H    0.007718   0.007363   0.659394  -0.008225   0.005397   0.000093
    10  C    0.000009  -0.055830  -0.008225   4.957000   0.371312   0.364408
    11  H    0.000001   0.005868   0.005397   0.371312   0.560312  -0.036284
    12  H    0.000007  -0.004934   0.000093   0.364408  -0.036284   0.576668
    13  H    0.006866   0.000013   0.002654   0.000012  -0.000004  -0.000000
    14  O   -0.000011   0.001981   0.000137   0.221602  -0.033773  -0.025950
    15  H    0.000000   0.004878   0.000146  -0.029115   0.006808  -0.008249
    16  O    0.005821   0.000011  -0.000016  -0.000002   0.000000  -0.000000
    17  H   -0.000093   0.000006   0.000013  -0.000001   0.000000   0.000000
    18  O   -0.039515  -0.000074   0.001917  -0.000052  -0.000002   0.000000
    19  H   -0.001965   0.000028   0.000067  -0.000015   0.000001   0.000000
    20  O   -0.001574   0.005593  -0.040440  -0.000292   0.000102  -0.000214
    21  H   -0.000238  -0.000283  -0.004513  -0.004250  -0.000065   0.000436
    22  H   -0.000026  -0.000234   0.001978  -0.000166   0.001423  -0.000022
    23  O   -0.000066  -0.000074   0.000039  -0.000023  -0.000036   0.000005
    24  O   -0.000000   0.000000   0.000000  -0.000009   0.000009   0.000010
    25  H    0.000001   0.000002  -0.000001   0.000007  -0.000007  -0.000008
    26  H    0.000000   0.000005  -0.000000   0.000048   0.000028   0.000156
    27  H    0.000000  -0.000000   0.000000   0.000000  -0.000000  -0.000000
    28  O    0.000001   0.000045   0.000003  -0.000968   0.000078   0.004595
    29  H   -0.000071  -0.001869  -0.000208  -0.001272  -0.000605   0.002858
    30  H   -0.000000   0.000004  -0.000000  -0.000010  -0.000001  -0.000070
              13         14         15         16         17         18
     1  O    0.002172   0.001635   0.000011  -0.000092   0.000845   0.000007
     2  C   -0.000113   0.001698  -0.001779   0.002289  -0.000338  -0.032118
     3  C    0.336515  -0.000001   0.000001   0.263660  -0.051485  -0.036073
     4  C   -0.056074   0.000094  -0.000008  -0.047208   0.006812   0.231974
     5  C   -0.044942   0.000030  -0.000002  -0.021594  -0.017756   0.001766
     6  C    0.000824  -0.041667  -0.001111   0.000567   0.000006   0.003528
     7  H    0.006866  -0.000011   0.000000   0.005821  -0.000093  -0.039515
     8  H    0.000013   0.001981   0.004878   0.000011   0.000006  -0.000074
     9  H    0.002654   0.000137   0.000146  -0.000016   0.000013   0.001917
    10  C    0.000012   0.221602  -0.029115  -0.000002  -0.000001  -0.000052
    11  H   -0.000004  -0.033773   0.006808   0.000000   0.000000  -0.000002
    12  H   -0.000000  -0.025950  -0.008249  -0.000000   0.000000   0.000000
    13  H    0.635727  -0.000000  -0.000000  -0.038445   0.002608   0.003774
    14  O   -0.000000   8.225702   0.235640   0.000000  -0.000000  -0.000000
    15  H   -0.000000   0.235640   0.388258  -0.000000  -0.000000   0.000000
    16  O   -0.038445   0.000000  -0.000000   8.280493   0.227616   0.001046
    17  H    0.002608  -0.000000  -0.000000   0.227616   0.367833  -0.000159
    18  O    0.003774  -0.000000   0.000000   0.001046  -0.000159   8.283885
    19  H   -0.000221   0.000006  -0.000001  -0.000153   0.000016   0.233798
    20  O   -0.000148  -0.011878   0.001936  -0.000009   0.000001  -0.007431
    21  H    0.000010   0.042143  -0.002226   0.000001  -0.000000   0.000121
    22  H    0.004937  -0.000018   0.000000   0.002883   0.002687  -0.000045
    23  O   -0.002178   0.000000  -0.000000  -0.024576   0.054923  -0.000010
    24  O    0.000002   0.000000  -0.000000  -0.000001   0.000075  -0.000000
    25  H   -0.000100  -0.000000   0.000000   0.000062  -0.000487   0.000000
    26  H   -0.000001   0.000000   0.000000  -0.000000  -0.000007   0.000000
    27  H   -0.000000  -0.000000   0.000000   0.000000  -0.000011   0.000000
    28  O    0.000001   0.000007   0.000001   0.000000   0.000003   0.000000
    29  H   -0.000048  -0.000027  -0.000022  -0.000044  -0.000023   0.000001
    30  H   -0.000000  -0.000000  -0.000000   0.000000   0.000001   0.000000
              19         20         21         22         23         24
     1  O   -0.000010   0.001485   0.000035  -0.045609  -0.046201  -0.000609
     2  C   -0.013906   0.222799  -0.021343  -0.003070   0.000148   0.000000
     3  C    0.006420   0.002235  -0.000198  -0.078726  -0.047883  -0.000132
     4  C   -0.029827  -0.037475   0.005223   0.001995   0.002001   0.000001
     5  C   -0.000245   0.000194  -0.000002   0.347385   0.377742   0.006933
     6  C    0.000806  -0.042377  -0.004732   0.006836   0.001780   0.000006
     7  H   -0.001965  -0.001574  -0.000238  -0.000026  -0.000066  -0.000000
     8  H    0.000028   0.005593  -0.000283  -0.000234  -0.000074   0.000000
     9  H    0.000067  -0.040440  -0.004513   0.001978   0.000039   0.000000
    10  C   -0.000015  -0.000292  -0.004250  -0.000166  -0.000023  -0.000009
    11  H    0.000001   0.000102  -0.000065   0.001423  -0.000036   0.000009
    12  H    0.000000  -0.000214   0.000436  -0.000022   0.000005   0.000010
    13  H   -0.000221  -0.000148   0.000010   0.004937  -0.002178   0.000002
    14  O    0.000006  -0.011878   0.042143  -0.000018   0.000000   0.000000
    15  H   -0.000001   0.001936  -0.002226   0.000000  -0.000000  -0.000000
    16  O   -0.000153  -0.000009   0.000001   0.002883  -0.024576  -0.000001
    17  H    0.000016   0.000001  -0.000000   0.002687   0.054923   0.000075
    18  O    0.233798  -0.007431   0.000121  -0.000045  -0.000010  -0.000000
    19  H    0.372941   0.024885  -0.000528   0.000011   0.000001   0.000000
    20  O    0.024885   8.325845   0.223601  -0.000004  -0.000000   0.000000
    21  H   -0.000528   0.223601   0.354605  -0.000003  -0.000000   0.000000
    22  H    0.000011  -0.000004  -0.000003   0.693041  -0.053554   0.002322
    23  O    0.000001  -0.000000  -0.000000  -0.053554   8.316813  -0.065076
    24  O    0.000000   0.000000   0.000000   0.002322  -0.065076   8.441708
    25  H   -0.000000   0.000000   0.000000  -0.005625   0.098269   0.165484
    26  H    0.000000  -0.000000   0.000000  -0.000108   0.002779   0.111866
    27  H   -0.000000  -0.000000  -0.000000  -0.000082   0.003022   0.235086
    28  O   -0.000000   0.000000  -0.000000  -0.000152  -0.001595  -0.070774
    29  H    0.000000  -0.000021   0.000005   0.000923   0.006503   0.002127
    30  H    0.000000  -0.000000   0.000000   0.000013   0.000374   0.003663
              25         26         27         28         29         30
     1  O    0.001576   0.005583   0.000004  -0.078638   0.129470   0.004040
     2  C    0.000008   0.000010  -0.000000  -0.000066   0.002191   0.000004
     3  C    0.001972   0.000049  -0.000002  -0.000026   0.000817  -0.000000
     4  C   -0.000028  -0.000002  -0.000000   0.000002  -0.000026  -0.000000
     5  C   -0.011614   0.000090  -0.000283   0.001052   0.001089  -0.000062
     6  C   -0.000094  -0.000174   0.000001   0.001782  -0.006082   0.000053
     7  H    0.000001   0.000000   0.000000   0.000001  -0.000071  -0.000000
     8  H    0.000002   0.000005  -0.000000   0.000045  -0.001869   0.000004
     9  H   -0.000001  -0.000000   0.000000   0.000003  -0.000208  -0.000000
    10  C    0.000007   0.000048   0.000000  -0.000968  -0.001272  -0.000010
    11  H   -0.000007   0.000028  -0.000000   0.000078  -0.000605  -0.000001
    12  H   -0.000008   0.000156  -0.000000   0.004595   0.002858  -0.000070
    13  H   -0.000100  -0.000001  -0.000000   0.000001  -0.000048  -0.000000
    14  O   -0.000000   0.000000  -0.000000   0.000007  -0.000027  -0.000000
    15  H    0.000000   0.000000   0.000000   0.000001  -0.000022  -0.000000
    16  O    0.000062  -0.000000   0.000000   0.000000  -0.000044   0.000000
    17  H   -0.000487  -0.000007  -0.000011   0.000003  -0.000023   0.000001
    18  O    0.000000   0.000000   0.000000   0.000000   0.000001   0.000000
    19  H   -0.000000   0.000000  -0.000000  -0.000000   0.000000   0.000000
    20  O    0.000000  -0.000000  -0.000000   0.000000  -0.000021  -0.000000
    21  H    0.000000   0.000000  -0.000000  -0.000000   0.000005   0.000000
    22  H   -0.005625  -0.000108  -0.000082  -0.000152   0.000923   0.000013
    23  O    0.098269   0.002779   0.003022  -0.001595   0.006503   0.000374
    24  O    0.165484   0.111866   0.235086  -0.070774   0.002127   0.003663
    25  H    0.312849  -0.011616  -0.006440   0.007477  -0.000224  -0.000293
    26  H   -0.011616   0.297643  -0.005321   0.167548  -0.008300  -0.007266
    27  H   -0.006440  -0.005321   0.375233   0.003074  -0.000040  -0.000184
    28  O    0.007477   0.167548   0.003074   8.428481   0.126323   0.235014
    29  H   -0.000224  -0.008300  -0.000040   0.126323   0.278585  -0.006786
    30  H   -0.000293  -0.007266  -0.000184   0.235014  -0.006786   0.367752
 Mulliken charges:
               1
     1  O   -0.654916
     2  C    0.078007
     3  C    0.124832
     4  C    0.145379
     5  C    0.324163
     6  C    0.126893
     7  H    0.142898
     8  H    0.138767
     9  H    0.125330
    10  C   -0.090298
    11  H    0.167130
    12  H    0.164401
    13  H    0.146159
    14  O   -0.617350
    15  H    0.404834
    16  O   -0.652308
    17  H    0.406915
    18  O   -0.646339
    19  H    0.407892
    20  O   -0.666813
    21  H    0.412201
    22  H    0.121010
    23  O   -0.623126
    24  O   -0.832689
    25  H    0.448830
    26  H    0.446989
    27  H    0.395943
    28  O   -0.823268
    29  H    0.474776
    30  H    0.403757
 Sum of Mulliken charges =  -0.00000
 Mulliken charges with hydrogens summed into heavy atoms:
               1
     1  O   -0.180141
     2  C    0.203337
     3  C    0.270992
     4  C    0.288277
     5  C    0.445173
     6  C    0.265661
    10  C    0.241233
    14  O   -0.212516
    16  O   -0.245393
    18  O   -0.238448
    20  O   -0.254612
    23  O   -0.623126
    24  O    0.012084
    28  O    0.027479
 Electronic spatial extent (au):  <R**2>=           3319.3677
 Charge=              0.0000 electrons
 Dipole moment (field-independent basis, Debye):
    X=             -2.3045    Y=              4.6725    Z=              1.5758  Tot=              5.4430
 Quadrupole moment (field-independent basis, Debye-Ang):
   XX=            -72.9795   YY=            -92.3430   ZZ=            -81.4274
   XY=              8.9197   XZ=             -4.4107   YZ=              8.1763
 Traceless Quadrupole moment (field-independent basis, Debye-Ang):
   XX=              9.2705   YY=            -10.0931   ZZ=              0.8226
   XY=              8.9197   XZ=             -4.4107   YZ=              8.1763
 Octapole moment (field-independent basis, Debye-Ang**2):
  XXX=            -86.3743  YYY=             48.0799  ZZZ=             12.1026  XYY=             -3.0551
  XXY=              0.7267  XXZ=             26.4576  XZZ=            -10.3781  YZZ=              8.6160
  YYZ=             14.0904  XYZ=              0.7697
 Hexadecapole moment (field-independent basis, Debye-Ang**3):
 XXXX=          -1530.4372 YYYY=          -1605.9580 ZZZZ=           -242.3336 XXXY=             68.0536
 XXXZ=            -66.7442 YYYX=            107.4304 YYYZ=             85.0272 ZZZX=            -37.1030
 ZZZY=             15.0417 XXYY=           -610.2140 XXZZ=           -367.9407 YYZZ=           -299.7727
 XXYZ=             26.0443 YYXZ=             32.4508 ZZXY=              0.5126
 N-N= 1.100346509219D+03 E-N=-4.173296713495D+03  KE= 8.330349762118D+02
 Calling FoFJK, ICntrl=      2127 FMM=F ISym2X=0 I1Cent= 0 IOpClX= 0 NMat=1 NMatS=1 NMatT=0.
 ***** Axes restored to original set *****
 -------------------------------------------------------------------
 Center     Atomic                   Forces (Hartrees/Bohr)
 Number     Number              X              Y              Z
 -------------------------------------------------------------------
      1        8           0.007080407    0.002651142    0.007533065
      2        6          -0.000014794    0.001071979    0.000524654
      3        6           0.001078311   -0.002698975   -0.000941898
      4        6          -0.000421281    0.000605165    0.000075031
      5        6          -0.001918361   -0.010317576   -0.007096913
      6        6           0.002668975    0.002608181    0.001769878
      7        1          -0.000074574   -0.000007582   -0.000003681
      8        1           0.000532218    0.000435987   -0.000047637
      9        1          -0.000071360    0.000104447    0.000033480
     10        6           0.000501523    0.001015793    0.000009558
     11        1           0.000026697   -0.000024686    0.000016707
     12        1           0.000034497    0.000089982   -0.000031761
     13        1           0.000417101   -0.000375641    0.000121337
     14        8           0.000520969    0.001067749   -0.000593962
     15        1          -0.000014113    0.000141768   -0.000055520
     16        8           0.001051426   -0.000992038    0.000464585
     17        1           0.000057522    0.000055386    0.000194061
     18        8          -0.000146660    0.000760348    0.000122267
     19        1          -0.000009203    0.000044000    0.000021588
     20        8           0.000603481   -0.000226052   -0.000554740
     21        1           0.000025464    0.000012714    0.000033063
     22        1          -0.000258915   -0.000258665   -0.000159394
     23        8           0.000962232   -0.006147402   -0.000075762
     24        8          -0.009904868    0.001100895   -0.007351055
     25        1          -0.000360392   -0.000377697   -0.000332999
     26        1          -0.000583565    0.000356424   -0.000362822
     27        1          -0.000497536    0.000044638   -0.000741770
     28        8          -0.002617345    0.009565163    0.007211271
     29        1           0.001533693   -0.000421304    0.000100393
     30        1          -0.000201548    0.000115859    0.000118979
 -------------------------------------------------------------------
 Cartesian Forces:  Max     0.010317576 RMS     0.002702570

 GradGradGradGradGradGradGradGradGradGradGradGradGradGradGradGradGradGrad
 Berny optimization.
 FormGI is forming the generalized inverse of G from B-inverse, IUseBI=4.
 GSVD:  received Info=                   1 from GESDD.
 Internal  Forces:  Max     0.014251748 RMS     0.004250998
 Search for a local minimum.
 Step number   1 out of a maximum of  180
 All quantities printed in internal units (Hartrees-Bohrs-Radians)
 Mixed Optimization -- RFO/linear search
 Second derivative matrix not updated -- first step.
 ITU=  0
     Eigenvalues ---    0.00233   0.00253   0.00306   0.00345   0.00397
     Eigenvalues ---    0.00527   0.00623   0.00738   0.01145   0.01265
     Eigenvalues ---    0.01383   0.01439   0.01608   0.02181   0.02580
     Eigenvalues ---    0.03459   0.04069   0.04288   0.04344   0.04668
     Eigenvalues ---    0.04806   0.04922   0.04930   0.05231   0.05568
     Eigenvalues ---    0.05760   0.06930   0.07115   0.07273   0.07409
     Eigenvalues ---    0.07758   0.08196   0.10710   0.11251   0.11437
     Eigenvalues ---    0.11482   0.11856   0.13667   0.13768   0.13829
     Eigenvalues ---    0.14791   0.15588   0.16000   0.16000   0.16000
     Eigenvalues ---    0.16000   0.16105   0.16422   0.16776   0.17921
     Eigenvalues ---    0.18434   0.19494   0.19881   0.20711   0.21693
     Eigenvalues ---    0.22001   0.23434   0.28036   0.28492   0.28821
     Eigenvalues ---    0.29254   0.29285   0.33041   0.33445   0.33447
     Eigenvalues ---    0.33629   0.33692   0.33915   0.34257   0.39286
     Eigenvalues ---    0.40668   0.41183   0.41964   0.42598   0.43237
     Eigenvalues ---    0.44197   0.44590   0.51467   0.52457   0.52788
     Eigenvalues ---    0.53278   0.53416   0.53649   0.76914
 RFO step:  Lambda=-2.00318064D-02 EMin= 2.32686100D-03
 Linear search not attempted -- first point.
 Iteration  1 RMS(Cart)=  0.14233604 RMS(Int)=  0.00482093
 Iteration  2 RMS(Cart)=  0.00853446 RMS(Int)=  0.00171903
 Iteration  3 RMS(Cart)=  0.00010191 RMS(Int)=  0.00171874
 Iteration  4 RMS(Cart)=  0.00000084 RMS(Int)=  0.00171874
 Variable       Old X    -DE/DX   Delta X   Delta X   Delta X     New X
                                 (Linear)    (Quad)   (Total)
    R1        2.69385  -0.00036   0.00000  -0.00050  -0.00076   2.69308
    R2        1.98338   0.00603   0.00000   0.01547   0.01618   1.99957
    R3        2.89115   0.00680   0.00000   0.02369   0.02491   2.91606
    R4        2.91118   0.00514   0.00000   0.01667   0.01653   2.92772
    R5        2.08277  -0.00002   0.00000  -0.00006  -0.00006   2.08271
    R6        2.68968   0.00039   0.00000   0.00089   0.00089   2.69058
    R7        2.90635   0.00942   0.00000   0.02856   0.02812   2.93446
    R8        2.90019   0.00226   0.00000   0.00446   0.00320   2.90339
    R9        2.08979   0.00016   0.00000   0.00045   0.00045   2.09024
   R10        2.65755   0.00072   0.00000   0.00154   0.00154   2.65909
   R11        2.07961  -0.00000   0.00000  -0.00001  -0.00001   2.07959
   R12        2.68169  -0.00060   0.00000  -0.00134  -0.00134   2.68035
   R13        2.08274  -0.00005   0.00000  -0.00013  -0.00013   2.08261
   R14        2.38955   0.00234   0.00000   0.00279   0.00312   2.39267
   R15        2.07854   0.00021   0.00000   0.00059   0.00059   2.07913
   R16        2.89476   0.00222   0.00000   0.00699   0.00697   2.90173
   R17        2.06896  -0.00009   0.00000  -0.00008  -0.00009   2.06887
   R18        2.07473   0.00001   0.00000   0.00003   0.00003   2.07476
   R19        2.70656   0.00109   0.00000   0.00255   0.00255   2.70910
   R20        1.83395  -0.00000   0.00000  -0.00000  -0.00000   1.83394
   R21        1.85113  -0.00007   0.00000  -0.00014  -0.00014   1.85099
   R22        1.83852   0.00002   0.00000   0.00004   0.00004   1.83857
   R23        1.84164   0.00000   0.00000   0.00001   0.00001   1.84165
   R24        2.84019   0.00964   0.00000   0.06535   0.06405   2.90424
   R25        1.92403   0.01097   0.00000   0.02194   0.02086   1.94488
   R26        2.82291   0.01422   0.00000   0.11212   0.11298   2.93589
   R27        1.83053   0.00031   0.00000   0.00056   0.00056   1.83109
   R28        1.93500   0.01415   0.00000   0.03325   0.03425   1.96925
   R29        2.68150   0.00800   0.00000   0.05383   0.05445   2.73595
   R30        1.83268   0.00015   0.00000   0.00027   0.00027   1.83295
    A1        2.03079   0.01380   0.00000   0.05957   0.05640   2.08719
    A2        1.94927   0.01025   0.00000   0.06021   0.06270   2.01198
    A3        1.89698  -0.00454   0.00000  -0.01382  -0.01362   1.88336
    A4        1.86845  -0.00159   0.00000  -0.01624  -0.01900   1.84945
    A5        1.92192  -0.00001   0.00000   0.00955   0.00623   1.92815
    A6        1.91414  -0.00583   0.00000  -0.03010  -0.02820   1.88594
    A7        1.91209   0.00165   0.00000  -0.01108  -0.01089   1.90120
    A8        2.02535   0.00368   0.00000   0.02305   0.02342   2.04878
    A9        1.85697   0.00027   0.00000  -0.00157  -0.00095   1.85602
   A10        1.91922  -0.00367   0.00000  -0.01487  -0.01565   1.90357
   A11        1.82339  -0.00223   0.00000  -0.01046  -0.00899   1.81440
   A12        1.89556   0.00154   0.00000   0.00840   0.00683   1.90240
   A13        1.94126   0.00048   0.00000  -0.00518  -0.00529   1.93598
   A14        1.96171   0.01352   0.00000   0.07880   0.08283   2.04454
   A15        1.89207  -0.00446   0.00000  -0.01689  -0.01801   1.87406
   A16        1.91286  -0.00327   0.00000  -0.02330  -0.02577   1.88709
   A17        1.87012  -0.00060   0.00000   0.00841   0.00455   1.87467
   A18        1.89147  -0.00737   0.00000  -0.03656  -0.03511   1.85636
   A19        1.93569   0.00242   0.00000  -0.00952  -0.00928   1.92641
   A20        2.00684  -0.00304   0.00000   0.01059   0.01037   2.01720
   A21        2.00894   0.01425   0.00000   0.06532   0.05842   2.06736
   A22        2.08002  -0.00599   0.00000   0.00197   0.00043   2.08045
   A23        1.90494  -0.00056   0.00000   0.00221   0.00146   1.90640
   A24        1.87725  -0.00126   0.00000  -0.00083   0.00133   1.87858
   A25        1.94663   0.00281   0.00000   0.00492   0.00316   1.94979
   A26        1.86137   0.00201   0.00000   0.00934   0.00999   1.87136
   A27        1.95839  -0.00263   0.00000  -0.01123  -0.01089   1.94750
   A28        1.91159  -0.00037   0.00000  -0.00383  -0.00431   1.90729
   A29        1.92251  -0.00043   0.00000  -0.00271  -0.00272   1.91979
   A30        1.93424  -0.00033   0.00000  -0.00043  -0.00043   1.93381
   A31        1.92899   0.00189   0.00000   0.00846   0.00846   1.93745
   A32        1.87928   0.00015   0.00000  -0.00101  -0.00101   1.87827
   A33        1.85055  -0.00067   0.00000  -0.00297  -0.00297   1.84758
   A34        1.94582  -0.00067   0.00000  -0.00176  -0.00177   1.94405
   A35        1.87997   0.00012   0.00000   0.00067   0.00067   1.88064
   A36        1.81278   0.00021   0.00000   0.00114   0.00114   1.81393
   A37        1.84224  -0.00009   0.00000  -0.00050  -0.00050   1.84174
   A38        1.84531   0.00006   0.00000   0.00035   0.00035   1.84566
   A39        1.98992  -0.00545   0.00000  -0.03574  -0.03374   1.95618
   A40        1.70138   0.00909   0.00000   0.08848   0.08692   1.78830
   A41        1.84740  -0.00273   0.00000  -0.00047  -0.00056   1.84684
   A42        1.99975   0.00057   0.00000   0.00225   0.00217   2.00191
   A43        2.87241   0.00271   0.00000   0.02350   0.01986   2.89227
   A44        2.86569   0.00857   0.00000   0.06287   0.06306   2.92874
   A45        1.78733   0.00262   0.00000   0.06482   0.06577   1.85309
   A46        1.85055  -0.00008   0.00000   0.00743   0.00985   1.86040
   A47        1.87535   0.00119   0.00000   0.00111  -0.00046   1.87488
   A48        3.17398  -0.00223   0.00000   0.01180   0.01130   3.18528
   A49        3.05914  -0.01011   0.00000  -0.14741  -0.14550   2.91364
    D1       -2.77761   0.00561   0.00000   0.09799   0.09896  -2.67865
    D2        1.49256   0.00420   0.00000   0.08630   0.08570   1.57826
    D3       -0.60384   0.00379   0.00000   0.08861   0.08826  -0.51558
    D4        2.28381  -0.00003   0.00000  -0.07454  -0.08128   2.20254
    D5       -2.06873   0.00041   0.00000  -0.05899  -0.06203  -2.13076
    D6        1.14146   0.00690   0.00000   0.13198   0.12840   1.26986
    D7       -0.92235   0.00243   0.00000   0.08528   0.08304  -0.83932
    D8       -3.03733   0.00421   0.00000   0.12143   0.11941  -2.91792
    D9       -0.98237   0.00340   0.00000   0.09064   0.08809  -0.89428
   D10       -3.04618  -0.00107   0.00000   0.04394   0.04272  -3.00346
   D11        1.12203   0.00071   0.00000   0.08009   0.07909   1.20112
   D12       -3.04626   0.00473   0.00000   0.11997   0.11769  -2.92857
   D13        1.17311   0.00026   0.00000   0.07328   0.07233   1.24544
   D14       -0.94187   0.00204   0.00000   0.10942   0.10870  -0.83316
   D15       -0.68254   0.00200   0.00000   0.01791   0.01316  -0.66939
   D16        1.34066   0.00132   0.00000   0.02301   0.02083   1.36149
   D17       -2.84941   0.00063   0.00000   0.01780   0.01560  -2.83381
   D18        1.42682   0.00305   0.00000   0.04694   0.04422   1.47103
   D19       -2.83316   0.00237   0.00000   0.05204   0.05188  -2.78128
   D20       -0.74005   0.00168   0.00000   0.04683   0.04666  -0.69339
   D21       -2.75096   0.00138   0.00000   0.02007   0.01708  -2.73389
   D22       -0.72776   0.00069   0.00000   0.02517   0.02475  -0.70301
   D23        1.36536   0.00001   0.00000   0.01996   0.01952   1.38487
   D24        3.08032  -0.00447   0.00000  -0.02524  -0.02614   3.05418
   D25       -1.08507   0.00358   0.00000   0.02033   0.02175  -1.06332
   D26        1.02629   0.00094   0.00000   0.00620   0.00568   1.03196
   D27       -0.33023   0.00108   0.00000   0.02895   0.02498  -0.30525
   D28        1.74648   0.00307   0.00000   0.05941   0.05712   1.80361
   D29       -2.44691   0.00158   0.00000   0.03288   0.03008  -2.41683
   D30        1.68922   0.00055   0.00000   0.02779   0.02634   1.71556
   D31       -2.51726   0.00254   0.00000   0.05824   0.05849  -2.45877
   D32       -0.42746   0.00105   0.00000   0.03172   0.03144  -0.39602
   D33       -2.48984  -0.00076   0.00000   0.01237   0.01095  -2.47889
   D34       -0.41312   0.00123   0.00000   0.04282   0.04310  -0.37003
   D35        1.67667  -0.00026   0.00000   0.01630   0.01605   1.69272
   D36        1.17015  -0.00089   0.00000  -0.01148  -0.01108   1.15906
   D37       -2.59428   0.00446   0.00000   0.10230   0.10540  -2.48888
   D38       -0.86811  -0.00168   0.00000  -0.01480  -0.01631  -0.88442
   D39        1.65065   0.00367   0.00000   0.09897   0.10017   1.75083
   D40       -2.94120  -0.00180   0.00000  -0.00732  -0.00870  -2.94990
   D41       -0.42244   0.00355   0.00000   0.10645   0.10778  -0.31466
   D42        2.60482   0.00153   0.00000   0.01034   0.00976   2.61457
   D43        0.37138  -0.00169   0.00000  -0.01466  -0.01397   0.35741
   D44       -1.62589  -0.00015   0.00000  -0.00410  -0.00420  -1.63009
   D45        0.82429  -0.00534   0.00000  -0.03370  -0.03554   0.78875
   D46        2.97082   0.00456   0.00000   0.02544   0.02770   2.99852
   D47       -1.26415   0.00078   0.00000   0.00820   0.00777  -1.25638
   D48       -3.03877  -0.00934   0.00000  -0.16095  -0.16507   3.07935
   D49       -0.54769  -0.00220   0.00000  -0.03748  -0.03949  -0.58717
   D50       -1.11084   0.00034   0.00000   0.00337   0.00446  -1.10637
   D51        0.96700   0.00004   0.00000   0.00011   0.00120   0.96820
   D52        3.13319   0.00029   0.00000   0.00358   0.00468   3.13787
   D53        1.03267  -0.00024   0.00000   0.00167   0.00073   1.03339
   D54        3.11050  -0.00054   0.00000  -0.00159  -0.00253   3.10797
   D55       -1.00649  -0.00029   0.00000   0.00187   0.00094  -1.00555
   D56        3.09628   0.00039   0.00000   0.00382   0.00364   3.09992
   D57       -1.10907   0.00009   0.00000   0.00055   0.00038  -1.10869
   D58        1.05712   0.00034   0.00000   0.00402   0.00386   1.06098
   D59       -1.32991  -0.00020   0.00000  -0.00414  -0.00415  -1.33406
   D60        2.87007  -0.00031   0.00000  -0.00371  -0.00369   2.86638
   D61        0.82961   0.00026   0.00000   0.00017   0.00016   0.82977
   D62       -1.13653   0.00328   0.00000   0.00156   0.00328  -1.13325
   D63       -0.08040   0.00357   0.00000   0.01223   0.01422  -0.06618
   D64       -2.14428   0.00021   0.00000  -0.02482  -0.02487  -2.16916
   D65        0.34929   0.00141   0.00000  -0.01041  -0.01204   0.33725
   D66        2.29151   0.00339   0.00000   0.03772   0.03778   2.32929
   D67        0.09880   0.00315   0.00000   0.00869   0.00813   0.10693
   D68       -1.86466   0.00082   0.00000  -0.02124  -0.02357  -1.88823
         Item               Value     Threshold  Converged?
 Maximum Force            0.014252     0.000450     NO 
 RMS     Force            0.004251     0.000300     NO 
 Maximum Displacement     0.458501     0.001800     NO 
 RMS     Displacement     0.144260     0.001200     NO 
 Predicted change in Energy=-1.290133D-02
 GradGradGradGradGradGradGradGradGradGradGradGradGradGradGradGradGradGrad

                          Input orientation:                          
 ---------------------------------------------------------------------
 Center     Atomic      Atomic             Coordinates (Angstroms)
 Number     Number       Type             X           Y           Z
 ---------------------------------------------------------------------
      1          8           0       -0.606458    0.557278    0.767762
      2          6           0        1.588595    0.245795   -0.217252
      3          6           0        0.230402   -2.019834   -0.251593
      4          6           0        1.497020   -1.239047    0.192695
      5          6           0       -0.991787   -1.195968   -0.685230
      6          6           0        0.645071    1.203931    0.552169
      7          1           0        1.540438   -1.279876    1.291554
      8          1           0        1.099605    1.387206    1.537210
      9          1           0        1.402591    0.310073   -1.301663
     10          6           0        0.474517    2.540592   -0.184108
     11          1           0        0.061998    2.367603   -1.183352
     12          1           0       -0.222573    3.196060    0.354263
     13          1           0        0.512974   -2.578225   -1.163636
     14          8           0        1.741223    3.180017   -0.388535
     15          1           0        2.015657    3.570016    0.456699
     16          8           0       -0.151991   -2.899518    0.777944
     17          1           0       -1.124643   -2.965263    0.682795
     18          8           0        2.605296   -1.921519   -0.371009
     19          1           0        3.376023   -1.353216   -0.198963
     20          8           0        2.930486    0.642591    0.045552
     21          1           0        3.006942    1.554731   -0.288990
     22          1           0       -0.865755   -0.607728   -1.608621
     23          8           0       -2.144480   -1.617007   -0.373526
     24          8           0       -3.879698    0.166473   -0.916669
     25          1           0       -3.251442   -0.640511   -0.801339
     26          1           0       -3.354547    1.156642    0.159193
     27          1           0       -4.773980   -0.169875   -0.755322
     28          8           0       -2.819029    1.696963    0.871380
     29          1           0       -1.482891    1.139470    0.879766
     30          1           0       -3.222173    1.497913    1.730835
 ---------------------------------------------------------------------
                    Distance matrix (angstroms):
                    1          2          3          4          5
     1  O    0.000000
     2  C    2.426012   0.000000
     3  C    2.894983   2.641769   0.000000
     4  C    2.825262   1.543113   1.552850   0.000000
     5  C    2.309445   2.992668   1.536406   2.639465   0.000000
     6  C    1.425119   1.549281   3.348230   2.612121   3.157527
     7  H    2.873788   2.146273   2.155234   1.100473   3.213547
     8  H    2.047310   2.149434   3.945029   2.977056   3.998243
     9  H    2.894807   1.102123   2.811608   2.154483   2.895029
    10  C    2.451142   2.551150   4.567454   3.933595   4.045127
    11  H    2.744258   2.786739   4.488444   4.118339   3.749350
    12  H    2.698429   3.508707   5.270465   4.759546   4.578444
    13  H    3.849000   3.166653   1.106105   2.145082   2.098526
    14  O    3.705048   2.943177   5.416621   4.463809   5.167845
    15  H    4.006100   3.418631   5.910604   4.844148   5.750072
    16  O    3.486558   3.730020   1.407130   2.412244   2.397544
    17  H    3.561465   4.299144   1.898173   3.176970   2.240435
    18  O    4.213857   2.398869   2.379926   1.418381   3.682956
    19  H    4.521581   2.398347   3.215911   1.922780   4.397607
    20  O    3.610933   1.423792   3.803585   2.370029   4.393014
    21  H    3.894650   1.931364   4.526377   3.212021   4.869619
    22  H    2.659261   2.947582   2.244354   3.037434   1.102071
    23  O    2.897510   4.174961   2.411887   3.704590   1.266149
    24  O    3.701911   5.513412   4.702679   5.667034   3.201537
    25  H    3.300412   4.955064   3.785233   4.888174   2.329818
    26  H    2.877774   5.040437   4.807348   5.410929   3.439543
    27  H    4.496308   6.398802   5.359098   6.431743   3.919536
    28  O    2.491002   4.766357   4.937072   5.263939   3.759109
    29  H    1.058125   3.381735   3.767831   3.874181   2.853886
    30  H    2.941814   5.339133   5.312705   5.668122   4.250763
                    6          7          8          9         10
     6  C    0.000000
     7  H    2.741837   0.000000
     8  H    1.100226   2.714407   0.000000
     9  H    2.193060   3.044949   3.051429   0.000000
    10  C    1.535532   4.231991   2.164249   2.661854   0.000000
    11  H    2.169363   4.649198   3.072338   2.458580   1.094799
    12  H    2.181869   4.901094   2.533668   3.702995   1.097914
    13  H    4.155254   2.961308   4.833564   3.025348   5.211837
    14  O    2.447731   4.770080   2.708198   3.030686   1.433596
    15  H    2.736052   4.944115   2.602175   3.754320   1.960985
    16  O    4.186236   2.398197   4.529788   4.128312   5.559933
    17  H    4.531128   3.211506   4.961984   4.588334   5.798558
    18  O    3.803048   2.075992   4.105614   2.700485   4.948292
    19  H    3.815927   2.365669   3.963116   2.806583   4.855996
    20  O    2.407256   2.679670   2.476210   2.063982   3.112384
    21  H    2.531609   3.561425   2.645941   2.269058   2.719578
    22  H    3.199017   3.827866   4.211728   2.466166   3.706411
    23  O    4.073843   4.057680   4.816668   4.142075   4.917383
    24  O    4.869019   6.028769   5.683764   5.298247   5.013210
    25  H    4.518491   5.267932   5.339668   4.776396   4.937931
    26  H    4.019155   5.583882   4.668143   5.047885   4.085939
    27  H    5.741341   6.730058   6.494552   6.219234   5.934613
    28  O    3.513540   5.295571   3.986850   4.946479   3.559945
    29  H    2.153996   3.894011   2.676358   3.711137   2.631809
    30  H    4.053549   5.530963   4.327530   5.656452   4.291818
                   11         12         13         14         15
    11  H    0.000000
    12  H    1.769628   0.000000
    13  H    4.966385   6.015597   0.000000
    14  O    2.027695   2.099642   5.938579   0.000000
    15  H    2.819991   2.271565   6.533331   0.970481   0.000000
    16  O    5.624503   6.110692   2.077291   6.473459   6.830576
    17  H    5.773220   6.235669   2.498178   6.864794   7.254135
    18  O    5.052210   5.891729   2.331808   5.174225   5.584777
    19  H    5.079003   5.826822   3.260105   4.822728   5.149631
    20  O    3.565682   4.069064   4.204778   2.835720   3.094474
    21  H    3.183291   3.679335   4.905732   2.062404   2.366448
    22  H    3.145500   4.328441   2.445764   4.757305   5.479200
    23  O    4.626173   5.233452   2.934327   6.173358   6.700837
    24  O    4.522506   4.916120   5.185550   6.399620   6.944456
    25  H    4.491499   5.022822   4.249332   6.300281   6.859558
    26  H    3.865441   3.742532   5.536860   5.510074   5.895080
    27  H    5.478019   5.768536   5.823981   7.335133   7.845697
    28  O    3.601666   3.042415   5.789712   4.958097   5.201392
    29  H    2.855074   2.468627   4.688307   4.020862   4.280932
    30  H    4.476005   3.711638   6.240528   5.653008   5.775110
                   16         17         18         19         20
    16  O    0.000000
    17  H    0.979504   0.000000
    18  O    3.143120   4.014018   0.000000
    19  H    3.973950   4.861295   0.972928   0.000000
    20  O    4.752326   5.465049   2.618002   2.059499   0.000000
    21  H    5.563950   6.200379   3.500337   2.932657   0.974558
    22  H    3.384885   3.297814   3.912278   4.531618   4.325625
    23  O    2.634526   1.993408   4.759527   5.529558   5.571058
    24  O    5.115449   4.467257   6.834662   7.447822   6.894285
    25  H    4.147752   3.482873   6.010619   6.692839   6.370228
    26  H    5.204964   4.715583   6.728737   7.192234   6.307043
    27  H    5.582530   4.816642   7.594055   8.254234   7.788472
    28  O    5.315022   4.964158   6.637789   6.987696   5.903441
    29  H    4.253832   4.125042   5.258076   5.566524   4.518926
    30  H    5.447148   5.041623   7.075991   7.442395   6.436378
                   21         22         23         24         25
    21  H    0.000000
    22  H    4.627681   0.000000
    23  O    6.050142   2.044319   0.000000
    24  O    7.053160   3.187796   2.546917   0.000000
    25  H    6.651989   2.518786   1.536859   1.029189   0.000000
    26  H    6.389670   3.525940   3.072650   1.553609   2.040346
    27  H    7.983388   4.024185   3.025596   0.968970   1.594283
    28  O    5.942106   3.908617   3.603777   2.581577   2.906674
    29  H    4.658008   3.102519   3.099452   3.149379   3.020301
    30  H    6.548649   4.597651   3.910561   3.035515   3.314456
                   26         27         28         29         30
    26  H    0.000000
    27  H    2.147272   0.000000
    28  O    1.042083   3.154850   0.000000
    29  H    2.005645   3.901174   1.447803   0.000000
    30  H    1.613706   3.372032   0.969953   1.969239   0.000000
 Stoichiometry    C6H16O8
 Framework group  C1[X(C6H16O8)]
 Deg. of freedom    84
 Full point group                 C1      NOp   1
 Largest Abelian subgroup         C1      NOp   1
 Largest concise Abelian subgroup C1      NOp   1
                         Standard orientation:                         
 ---------------------------------------------------------------------
 Center     Atomic      Atomic             Coordinates (Angstroms)
 Number     Number       Type             X           Y           Z
 ---------------------------------------------------------------------
      1          8           0       -0.508835    0.621708    0.757993
      2          6           0        1.629195    0.041461   -0.230782
      3          6           0        0.031394   -2.061824   -0.184204
      4          6           0        1.380055   -1.411033    0.226806
      5          6           0       -1.097735   -1.122914   -0.635933
      6          6           0        0.803637    1.120475    0.513836
      7          1           0        1.429641   -1.422361    1.326103
      8          1           0        1.285209    1.283267    1.489584
      9          1           0        1.440586    0.092142   -1.315464
     10          6           0        0.772810    2.444355   -0.263497
     11          1           0        0.333982    2.286742   -1.254039
     12          1           0        0.156853    3.188539    0.258234
     13          1           0        0.242234   -2.675738   -1.079818
     14          8           0        2.099689    2.934625   -0.496361
     15          1           0        2.423441    3.318192    0.334238
[...]
 00033666,0.00016051,0.00015729,-0.00011037,0.00011037,-0.00053912,0.00
 027310,0.00000461,0.00009022,-0.00010996,0.00001348,0.00098104,0.00017
 946,0.00008715,-0.00086385,0.00086101,-0.00072168,0.00075725,0.0004411
 4,0.00003837,0.00003593,-0.00024640,0.00010064,0.00007988,0.00071751,0
 .00013616,0.00015700,-0.00029731,-0.00004768,0.00050322,0.00051604,-0.
 00115753,0.01690194,-0.00416468,-0.00109992,-0.03111757,0.43327373,-0.
 00214965,0.00065269,0.00112757,0.00002300,-0.00017743,-0.00035795,-0.0
 0039299,-0.00063564,-0.00046747,0.00009929,-0.00003047,-0.00011396,-0.
 00019636,0.00080063,-0.00142168,0.00090152,0.00046951,0.00000246,0.000
 02817,-0.00002144,0.00008668,-0.00007892,-0.00007041,0.00001062,-0.000
 00368,0.00000824,0.00014556,0.00019525,-0.00006232,-0.00047554,-0.0000
 3312,0.00001720,0.00009339,0.00004727,0.00019724,0.00006577,0.00000272
 ,0.00001695,0.00007663,-0.00034913,-0.00017647,0.00020869,0.00008818,0
 .00004550,-0.00000376,0.00016437,-0.00004690,0.00033531,0.00000839,-0.
 00005475,-0.00024412,-0.00019995,0.00013420,0.00010833,0.00004461,-0.0
 0003126,-0.00002721,-0.00026261,0.00013226,0.00021327,0.00009777,-0.00
 003516,-0.00010181,-0.00062146,-0.00001619,0.00032387,-0.00050663,0.00
 040661,0.00458445,-0.02348460,-0.05708682,0.03574419,-0.00003817,0.002
 41151,0.00118864,-0.00037299,-0.00061585,-0.00014533,0.00229674,0.0010
 7360,0.00092561,-0.00132480,-0.00112919,-0.00036640,-0.01616093,-0.003
 52941,0.00301144,-0.00092913,-0.00022931,0.00020089,0.00020353,0.00019
 261,0.00017533,0.00030365,0.00022927,0.00009019,-0.00000732,-0.0000102
 0,0.00017838,0.00021486,-0.00048807,0.00004079,0.00003953,-0.00007296,
 -0.00000018,0.00000673,0.00020440,0.00010197,0.00009893,-0.00011408,0.
 00015302,-0.00002423,0.00061815,-0.00011410,0.00001377,-0.00020790,-0.
 00000073,0.00156821,-0.00063508,0.00056118,-0.00108394,0.00165953,-0.0
 0130147,0.00124792,0.00025502,0.00003713,-0.00005256,-0.00018454,0.000
 08995,0.00060971,0.00072148,0.00006211,0.00001108,-0.00030592,0.000023
 94,0.00010406,0.00039732,-0.00110078,0.00767263,-0.00453617,-0.0018758
 5,-0.18438637,0.14534321,-0.02011815,0.21152642,0.00215328,-0.00199359
 ,-0.00053926,0.00010456,0.00071445,0.00017276,-0.00296112,-0.00085625,
 0.00055728,0.00101949,0.00118855,0.00035236,0.00799526,0.00933616,-0.0
 0464705,-0.00053406,-0.00017478,0.00005794,-0.00019328,-0.00017539,-0.
 00018993,0.00008348,-0.00004756,0.00002926,-0.00000146,-0.00001590,-0.
 00011429,-0.00026069,0.00014087,-0.00009073,-0.00006338,0.00003238,0.0
 0007361,-0.00000006,-0.00019378,-0.00008379,-0.00034884,0.00022545,-0.
 00020916,0.00034171,-0.00021515,0.00004816,-0.00002978,0.00009817,-0.0
 0000817,-0.00105582,-0.00009720,-0.00010572,0.00108130,-0.00117625,0.0
 0092038,-0.00095645,-0.00044730,-0.00005644,-0.00002691,0.00024726,-0.
 00011647,-0.00016743,-0.00073900,-0.00011080,-0.00012070,0.00026756,0.
 00002913,-0.00142646,-0.00093648,0.00152417,-0.00888871,-0.00631524,0.
 00355147,0.20361901,-0.30224666,0.03864573,-0.17920192,0.29224449,0.00
 094236,0.00040169,-0.00058636,-0.00003682,0.00000542,0.00020435,0.0009
 2955,0.00148060,0.00107923,-0.00018609,-0.00033416,0.00008117,0.000254
 39,-0.00222279,0.00237947,-0.00062015,-0.00017494,0.00012065,0.0000176
 3,0.00006146,-0.00001937,0.00010435,0.00006898,0.00000039,0.00000610,0
 .00001434,-0.00009442,0.00009210,-0.00009638,0.00020565,0.00001324,0.0
 0000368,-0.00005283,-0.00000544,-0.00000872,-0.00000642,-0.00015131,0.
 00002141,-0.00009641,0.00008180,0.00017460,-0.00011783,-0.00002470,-0.
 00004652,0.00000200,-0.00023814,0.00007669,-0.00021704,0.00001911,-0.0
 0003203,0.00019527,0.00028857,-0.00000042,-0.00007575,-0.00000728,-0.0
 0004331,0.00003515,0.00014056,0.00001106,-0.00012069,-0.00003043,-0.00
 002316,0.00005328,0.00111724,-0.00030175,-0.00078288,-0.00082654,0.001
 91855,-0.00872054,-0.03170572,0.04415101,-0.01794287,0.02214757,-0.037
 93967,0.02304720,0.00383456,-0.00003244,0.00059955,-0.00013972,0.00041
 073,0.00029798,-0.00016293,0.00013371,-0.00000178,-0.00007282,0.000376
 20,0.00004026,0.00133493,0.00186974,-0.00005283,-0.00175337,-0.0011624
 2,0.00003129,-0.00004191,-0.00000721,-0.00007763,0.00043659,0.00017298
 ,0.00014674,0.00000298,-0.00002700,-0.00005717,-0.00017501,-0.00043492
 ,-0.00006786,-0.00008008,0.00001094,0.00015440,-0.00005900,0.00000569,
 -0.00003707,-0.00000351,-0.00002659,-0.00001755,0.00051446,0.00042445,
 -0.00006276,-0.00002873,-0.00010353,-0.00000818,-0.00018728,-0.0002848
 7,0.00002756,0.00013329,0.00002392,0.00008197,0.00013525,-0.00029542,-
 0.00002661,-0.00009433,0.00012497,-0.00003468,0.00052037,-0.00024348,-
 0.00018735,-0.00016922,0.00003045,0.00009425,0.00002825,-0.00013898,0.
 00024436,-0.00267406,0.00021221,-0.00007998,-0.01222269,0.00665416,0.0
 0147593,0.00660314,0.00068741,0.00392146,0.13536971,0.00240098,-0.0038
 3528,-0.00165665,0.00003755,0.00034362,0.00026811,-0.00039382,-0.00004
 756,-0.00013781,0.00045125,0.00050093,0.00007753,0.00362961,0.00153394
 ,-0.00053833,-0.00016343,-0.00005718,-0.00022309,-0.00008226,-0.000055
 54,-0.00008549,-0.00015374,-0.00010338,-0.00001871,0.00000842,-0.00001
 139,-0.00011432,-0.00080416,0.00036844,0.00025574,-0.00003380,0.000057
 97,0.00003702,-0.00000166,-0.00038472,-0.00020526,-0.00004734,0.000017
 85,-0.00006277,0.00064558,-0.00023622,-0.00004377,-0.00012092,0.000077
 32,-0.00001172,-0.00052529,-0.00000567,-0.00013184,0.00035236,-0.00033
 776,0.00026280,-0.00030115,-0.00030063,-0.00001568,-0.00003808,0.00016
 189,-0.00004884,0.00004004,-0.00047478,-0.00012385,-0.00015492,0.00024
 250,0.00005479,0.00018054,-0.00016181,0.00011681,-0.00449085,0.0011419
 4,0.00064520,0.00419444,-0.00144146,0.00108095,0.00455617,-0.00585361,
 -0.00132580,0.11591546,0.16703454,0.00389955,-0.00238251,-0.00215861,0
 .00003139,0.00041713,0.00042988,-0.00016666,0.00005341,-0.00006479,0.0
 0014497,0.00042009,0.00013063,0.00200710,0.00101446,0.00035141,-0.0009
 7032,-0.00079039,-0.00012562,-0.00007472,-0.00001761,-0.00011749,0.000
 02760,0.00006903,-0.00001485,0.00001166,-0.00003469,-0.00017632,-0.000
 41593,0.00036686,0.00080807,0.00011551,-0.00005697,-0.00021542,-0.0002
 6771,-0.00049702,-0.00003689,-0.00000163,-0.00001772,-0.00005356,0.000
 52711,0.00008884,-0.00029574,-0.00015694,-0.00001987,-0.00000378,-0.00
 036760,-0.00002535,-0.00022490,0.00021902,-0.00015087,0.00027520,-0.00
 005545,-0.00027341,-0.00007410,-0.00006335,0.00012008,-0.00001965,0.00
 030601,-0.00033933,-0.00024654,-0.00014614,0.00010661,0.00010788,0.000
 26747,-0.00012835,-0.00000925,-0.00313862,0.00088959,-0.00035486,0.000
 78894,0.00054878,-0.00929396,0.00555553,-0.00102365,0.00236919,0.09759
 720,0.13921578,0.20584215,0.00021208,0.00009373,-0.00004076,-0.0000472
 9,-0.00003909,0.00001165,0.00011512,0.00008889,-0.00004787,-0.00013758
 ,-0.00005603,-0.00002161,-0.00028257,-0.00027643,0.00013646,-0.0001610
 3,-0.00006720,-0.00001824,0.00001217,0.00001387,0.00000496,0.00002460,
 0.00001948,0.00001399,0.00000100,-0.00000285,0.00000753,-0.00003326,-0
 .00004155,0.00002737,0.00000038,-0.00000612,0.00000164,-0.00000589,-0.
 00000842,-0.00000166,0.00002137,-0.00001638,0.00001419,0.00006178,0.00
 008235,-0.00002191,-0.00000931,-0.00002773,-0.00000028,0.00006682,-0.0
 0004170,0.00001142,-0.00009268,0.00008505,-0.00002590,0.00012688,-0.00
 000181,-0.00000371,-0.00001649,-0.00000747,0.00000654,0.00009757,0.000
 05484,-0.00000821,-0.00001575,-0.00002312,0.00000906,0.00008479,-0.000
 03236,-0.00003485,0.00060912,0.00087732,-0.00036366,-0.43807353,-0.124
 13397,0.04947389,-0.02601239,-0.01923174,0.00598155,-0.00145879,-0.002
 47567,-0.00113572,0.46415354,-0.00014128,-0.00004197,-0.00007634,0.000
 01959,0.00001124,-0.00000804,0.00000927,0.00008047,0.00008086,0.000055
 23,-0.00001169,0.00001041,-0.00049819,-0.00007601,0.00009718,0.0001222
 1,0.00005886,0.00000544,-0.00000181,-0.00000106,0.00000117,-0.00002616
 ,-0.00001300,-0.00001000,-0.00000084,0.00000055,-0.00000312,0.00002921
 ,0.00003869,0.00000764,0.00000606,0.00000746,-0.00001355,0.00000319,0.
 00000429,-0.00000070,-0.00001637,0.00001043,-0.00000533,-0.00004178,-0
 .00006442,0.00000678,-0.00000249,0.00002315,0.00000022,0.00003044,-0.0
 0006297,0.00002335,0.00004037,0.00005928,-0.00003097,-0.00003846,-0.00
 000279,0.00000328,0.00001062,0.00000462,-0.00000258,-0.00005210,-0.000
 03198,0.00000599,0.00000710,0.00001747,-0.00000471,-0.00014457,0.00003
 181,-0.00004104,0.00108957,-0.00224612,0.00037513,-0.17952104,-0.11045
 561,0.02566941,0.03727024,0.01503107,-0.00496595,-0.00236902,0.0027697
 0,0.00461431,0.14399482,0.09690393,0.00016812,-0.00001248,-0.00013189,
 -0.00001858,-0.00000402,0.00003593,-0.00003032,0.00004587,0.00011024,-
 0.00005722,-0.00000087,0.00002552,-0.00013787,0.00000960,0.00002477,-0
 .00011819,-0.00004189,-0.00000375,-0.00000313,0.00000003,-0.00002025,0
 .00000033,0.00000644,-0.00000340,-0.00000431,-0.00000005,-0.00001543,-
 0.00001645,-0.00001727,0.00003735,-0.00000047,-0.00000808,-0.00000661,
 -0.00000193,-0.00001438,-0.00000026,0.00001750,0.00000264,-0.00002190,
 0.00003944,0.00004663,-0.00002625,-0.00000812,-0.00001323,0.00000473,0
 .00003280,-0.00001035,-0.00009774,-0.00004284,0.00004706,0.00008264,0.
 00006108,-0.00001374,-0.00003405,-0.00001049,-0.00000295,0.00001327,0.
 00004939,0.00001076,-0.00003198,-0.00001233,-0.00000582,0.00001946,-0.
 00010265,0.00005327,-0.00000242,0.00007153,0.00008913,-0.00043729,0.06
 329142,0.02326185,-0.01047476,-0.00596198,-0.00054882,0.00074920,-0.00
 209571,0.00245217,0.00271586,-0.05474312,-0.02306239,0.00995266,-0.023
 92395,0.01314269,0.00603945,-0.00014693,-0.00152743,-0.00111949,-0.000
 12175,-0.00056373,0.00026635,0.00044670,-0.00096740,-0.00004530,-0.002
 75713,-0.00338464,-0.00076204,0.00505487,0.00560745,0.00062390,0.00013
 071,-0.00004529,0.00021389,-0.00087527,-0.00046136,-0.00028351,0.00001
 363,0.00011234,0.00028036,0.00071869,0.00023849,-0.00104176,-0.0000470
 6,0.00008155,0.00016372,-0.00068835,0.00015621,0.00039391,-0.00001717,
 0.00014282,0.00001933,-0.00142022,-0.00116680,0.00054933,0.00018901,0.
 00036360,0.00004915,0.00041283,0.00067889,-0.00011536,-0.00020329,-0.0
 0013804,-0.00004907,-0.00052985,0.00076013,0.00006287,0.00026040,-0.00
 032559,0.00009631,-0.00195690,0.00060669,0.00070865,0.00044417,0.00008
 530,-0.00028191,-0.00021716,0.00041828,-0.00012783,0.00391844,0.000282
 63,-0.00018594,0.00291505,-0.01168969,-0.00751830,-0.00491035,0.001461
 46,-0.00174380,-0.13101407,-0.12255436,-0.07416734,0.00097305,0.000603
 83,0.00017425,0.26296522,0.01576120,0.00048578,-0.00217542,0.00030209,
 0.00093037,0.00039791,0.00038634,0.00029201,0.00002422,-0.00075699,0.0
 0008747,0.00005437,-0.00188425,0.00035347,0.00099594,-0.00263402,-0.00
 472693,-0.00052514,-0.00000896,0.00008014,-0.00005844,0.00083221,0.000
 43126,0.00024554,-0.00002207,-0.00006239,-0.00007160,0.00124688,-0.001
 71851,-0.00034782,-0.00005526,0.00001375,0.00001729,-0.00026223,0.0007
 0672,0.00033036,0.00005970,-0.00009255,0.00003866,-0.00065147,0.001324
 31,-0.00009870,0.00020716,-0.00037387,0.00000950,0.00028789,-0.0003060
 9,0.00009400,-0.00022380,0.00039599,-0.00014474,0.00058183,-0.00006587
 ,-0.00005207,-0.00009588,-0.00000693,0.00000047,0.00129835,0.00020702,
 -0.00037396,-0.00000578,-0.00050151,0.00010452,-0.00001537,-0.00005927
 ,-0.00006051,0.00193062,-0.00097699,-0.00061996,-0.00802495,-0.0094267
 4,-0.01046400,-0.00202758,0.00214000,0.00059755,-0.13351890,-0.1722482
 2,-0.11803912,0.00146300,-0.00172752,-0.00168964,0.17614624,0.22664968
 ,0.00240274,-0.00150820,0.00639436,-0.00007330,-0.00023793,-0.00017513
 ,0.00015387,0.00003393,0.00003884,-0.00011815,-0.00021349,-0.00017169,
 -0.00130769,-0.00034763,-0.00024714,0.00014908,0.00004737,0.00001744,0
 .00004274,0.00001423,0.00008282,0.00041988,-0.00002105,0.00009091,-0.0
 0001761,0.00003289,0.00015888,-0.00015336,-0.00018282,-0.00061960,-0.0
 0030475,0.00022442,0.00050234,0.00020352,0.00032160,-0.00057286,-0.000
 00286,0.00000283,0.00004764,0.00009809,-0.00003621,0.00034620,0.000176
 14,-0.00002449,-0.00007497,0.00024042,-0.00007340,0.00024718,-0.000163
 01,0.00012920,-0.00024462,0.00010415,0.00010236,0.00008418,0.00001552,
 -0.00004255,-0.00001524,-0.00000578,0.00015839,0.00016054,0.00002729,-
 0.00002146,-0.00007830,-0.00017609,0.00007062,0.00006392,0.00194306,-0
 .00068847,0.00027900,-0.00627633,-0.01217244,-0.00297081,-0.00311241,0
 .00106146,-0.00158172,-0.11610850,-0.15467912,-0.17587376,0.00081519,-
 0.00233418,-0.00217352,-0.07281136,0.09521966,0.59721379,-0.21231446,0
 .14438959,0.04376905,-0.00233717,-0.00204006,-0.00054994,0.00068443,0.
 00068947,-0.00101223,-0.00109401,0.00071355,-0.00002486,0.00541026,0.0
 0740405,0.00277262,-0.03132932,0.01558800,0.00586585,-0.00017005,0.000
 14063,-0.00035276,0.00116338,0.00092174,0.00062736,0.00007134,-0.00001
 509,-0.00009570,0.00209804,-0.00218415,0.00173924,0.00012489,-0.000371
 84,-0.00023981,0.00047168,-0.00063000,0.00059790,0.00013599,-0.0004177
 1,0.00005976,0.00200828,0.00322522,-0.00151801,-0.00017830,-0.00063328
 ,-0.00012855,-0.00045760,-0.00093685,0.00032663,0.00019367,0.00026336,
 -0.00009649,0.00098249,-0.00075743,-0.00010815,-0.00030297,0.00014700,
 -0.00007933,0.00085715,0.00013382,0.00005539,-0.00043877,0.00014232,0.
 00022510,0.00035517,-0.00090313,-0.00030999,-0.00586330,-0.00108793,0.
 00109450,0.00041023,0.00434588,0.00317116,0.00252796,-0.00292552,-0.00
 067449,-0.00903370,-0.00343433,-0.00785270,-0.00020714,0.00019984,-0.0
 0004871,0.00549507,-0.00717198,-0.00024856,0.24092801,0.18913912,-0.22
 062041,-0.05277910,-0.00244103,-0.00372086,-0.00104733,0.00006176,-0.0
 0033604,-0.00040256,0.00018867,-0.00088380,-0.00014917,0.00051114,-0.0
 0092981,0.00047784,-0.01569836,0.01898981,0.00654581,-0.00001858,0.000
 00602,-0.00000321,-0.00203806,-0.00124361,-0.00085839,0.00007763,0.000
 22588,0.00034593,-0.00524948,0.00355986,0.00125834,0.00015166,-0.00003
 088,0.00021450,0.00017875,-0.00201250,-0.00076717,0.00000642,-0.000056
 34,0.00004896,0.00161807,-0.00197941,0.00029854,-0.00020149,0.00049449
 ,-0.00007764,0.00003802,0.00037735,-0.00001953,-0.00000289,-0.00018493
 ,0.00000411,-0.00035009,0.00056239,0.00002549,0.00018458,-0.00030425,0
 .00006153,-0.00353488,0.00074767,0.00126285,0.00023578,0.00080190,-0.0
 0036386,-0.00001970,0.00009539,-0.00031251,0.00030109,0.00010907,0.000
 14917,0.00064476,-0.00249179,-0.00098316,-0.00180100,0.00016212,-0.000
 82910,-0.00177786,0.00627097,0.00376621,0.00003176,0.00000214,0.000075
 15,-0.00205385,-0.00899542,-0.00049273,-0.15540750,0.21045044,0.050179
 75,-0.04608388,-0.02008850,0.00233025,0.00128635,-0.00010854,0.0004357
 3,-0.00002252,-0.00038998,-0.00019517,-0.00019292,-0.00009057,0.000641
 80,0.00060593,0.00052595,0.00276155,-0.00093742,-0.00529156,0.00009810
 ,-0.00009827,0.00025121,-0.00224680,-0.00035040,0.00015602,-0.00029535
 ,0.00001985,-0.00012376,0.00168029,0.00040067,0.00091415,0.00042761,0.
 00009531,-0.00079113,0.00008483,-0.00001218,0.00032291,0.00006441,-0.0
 0006372,0.00003672,-0.00147909,-0.00090645,-0.00016789,-0.00017257,0.0
 0004438,0.00016034,-0.00008068,0.00020751,-0.00021146,0.00001641,-0.00
 004709,0.00016097,-0.00020543,0.00019802,0.00005169,0.00007046,-0.0000
 0779,0.00004471,0.00038987,-0.00017953,0.00004880,0.00016643,-0.000375
 27,0.00003649,0.00016501,-0.00052315,-0.00077807,-0.00066485,0.0002254
 5,0.00000386,0.00093829,-0.00048614,-0.00095369,-0.00075581,-0.0008074
 8,0.00005781,-0.00496281,0.00369235,0.00261421,0.00007816,0.00017236,0
 .00020291,-0.00577584,0.00112680,-0.01418803,-0.05030610,0.04616231,0.
 03717079,-0.00103284,0.00187993,-0.00204441,-0.00007393,0.00005319,-0.
 00000139,0.00000034,0.00004362,0.00001865,-0.00006946,0.00006475,0.000
 09215,0.00003118,0.00009790,0.00014099,-0.00013226,-0.00009899,0.00017
 284,-0.00000669,0.00000768,-0.00003886,-0.00017066,0.00003719,-0.00005
 207,0.00002210,-0.00002345,-0.00005646,0.00013865,-0.00023611,0.000031
 20,0.00008367,-0.00006194,-0.00015144,0.00002595,0.00005997,0.00025781
 ,0.00000519,-0.00000805,-0.00001142,-0.00008203,0.00013592,-0.00011195
 ,-0.00006205,-0.00003428,0.00004877,-0.00001735,-0.00005936,-0.0000598
 8,0.00001997,0.00004897,0.00004572,0.00007822,-0.00006331,-0.00004509,
 -0.00002712,0.00001501,0.00000981,0.00008241,-0.00001181,-0.00006394,-
 0.00002561,-0.00002290,0.00004138,0.00001698,-0.00001355,-0.00001057,-
 0.00015049,-0.00001876,-0.00011849,-0.00144962,-0.00071278,0.00009401,
 0.00025430,-0.00015264,0.00019334,0.01045766,0.00336336,-0.02251822,-0
 .00000658,-0.00063747,-0.00049148,-0.11510838,-0.04314403,0.19408808,-
 0.00019123,-0.00277445,0.00661158,0.10738969,0.00029526,-0.00125354,0.
 00086187,0.00005174,-0.00001180,-0.00004592,-0.00005881,-0.00002677,-0
 .00005426,0.00018481,0.00000765,-0.00004577,0.00054899,0.00009074,-0.0
 0027341,0.00057404,0.00024123,0.00020355,0.00000143,-0.00001100,0.0000
 2226,-0.00007504,-0.00002647,-0.00007265,-0.00000090,-0.00000399,0.000
 00159,-0.00004889,0.00013738,-0.00007653,0.00005606,-0.00002835,-0.000
 05646,0.00015186,0.00009185,0.00015612,-0.00002055,0.00001400,0.000001
 21,-0.00010109,-0.00024289,0.00002837,-0.00003666,0.00009345,0.0000230
 8,-0.00008317,0.00004759,0.00005835,0.00006215,-0.00010958,-0.00003502
 ,-0.00016330,0.00001566,0.00002924,0.00002900,0.00001222,-0.00000600,-
 0.00018219,-0.00007536,0.00002656,0.00002124,0.00006174,-0.00001349,-0
 .00001813,-0.00002679,0.00002351,-0.00046436,0.00007979,0.00034670,-0.
 00080256,-0.00087731,0.00161528,0.00015662,-0.00034441,-0.00064232,0.0
 1336963,0.00503360,-0.02789433,-0.00031546,-0.00032000,-0.00065464,-0.
 05601044,-0.03280915,0.07565722,0.00061232,0.00093455,-0.00314308,0.04
 226638,0.02930599,-0.00225259,0.00126582,0.00001694,0.00000258,-0.0000
 6093,-0.00005439,-0.00008121,-0.00006248,0.00001906,0.00008158,0.00000
 044,0.00005672,0.00029541,-0.00007818,-0.00011906,0.00054186,0.0003226
 5,0.00017686,-0.00000110,-0.00001034,-0.00001024,-0.00013464,-0.000053
 60,-0.00007315,0.00000679,0.00000215,-0.00001561,0.00001505,0.00003451
 ,-0.00003348,0.00001062,0.00000153,-0.00002847,0.00013533,0.00006167,0
 .00003449,-0.00000721,0.00001485,-0.00001546,-0.00008852,-0.00010569,0
 .00001645,-0.00000473,0.00002955,0.00002406,-0.00004242,0.00006071,-0.
 00006714,0.00004426,-0.00005863,0.00006012,-0.00007959,0.00002316,-0.0
 0002268,0.00001476,-0.00000891,0.00001195,-0.00015553,-0.00000470,0.00
 001149,0.00002272,0.00001954,-0.00000113,0.00000307,0.00001738,0.00000
 631,-0.00032752,0.00018354,0.00005798,-0.00100653,0.00027711,0.0017228
 0,0.00030950,-0.00043228,-0.00016491,0.01916551,0.01126380,-0.02628440
 ,-0.00012610,-0.00051464,-0.00049305,0.15638740,0.03546430,-0.40674066
 ,0.00334185,-0.00161130,0.00042361,-0.17607064,-0.04604103,0.43148500\
 \-0.00000031,0.00000543,-0.00000143,0.00000456,0.00000374,0.00000002,-
 0.00000566,0.00000060,-0.00000699,0.00000654,-0.00000091,0.00000026,0.
 00000379,-0.00000696,0.00000102,-0.00000633,-0.00000199,0.00000366,0.0
 0000053,-0.00000058,-0.00000089,-0.00000053,0.00000264,-0.00000006,-0.
 00000082,0.00000004,0.00000016,-0.00000712,0.00000201,-0.00000231,-0.0
 0000156,0.00000160,0.00000017,-0.00000052,-0.00000104,0.00000108,0.000
 00261,0.00000031,0.00000069,0.00000640,-0.00000313,0.00000311,-0.00000
 478,0.00000420,-0.00000237,-0.00000102,0.00000199,0.00000020,0.0000015
 3,-0.00000174,0.00000028,0.00000086,0.00000559,0.00000376,0.00000304,0
 .00000185,-0.00000207,-0.00000232,-0.00000006,-0.00000026,-0.00000243,
 0.00000072,-0.00000069,0.00000415,0.00000210,-0.00000416,-0.00000287,-
 0.00000371,0.00000411,0.00000460,-0.00001026,-0.00000794,0.00000101,0.
 00000589,0.00000302,-0.00001102,0.00000333,0.00000508,-0.00000096,0.00
 000009,0.00000315,0.00000422,-0.00000497,-0.00000558,0.00000501,-0.000
 00413,0.00000466,-0.00000062,-0.00000264,0.00000033\\\@


 NOTHING MAKES A PERSON MORE PRODUCTIVE THAN THE LAST MINUTE.
 Job cpu time:       0 days  0 hours 32 minutes 16.4 seconds.
 File lengths (MBytes):  RWF=    220 Int=      0 D2E=      0 Chk=      6 Scr=      1
 Normal termination of Gaussian 09 at Sun Jan 15 13:24:08 2017.
