 Entering Gaussian System, Link 0=g09
 Initial command:
 /global/software/gaussian/g09.e01/l1.exe "/scratch/10501398.yak.local/Gau-19253.inp" -scrdir="/scratch/10501398.yak.local/"
 Entering Link 1 = /global/software/gaussian/g09.e01/l1.exe PID=     19254.
  
 Copyright (c) 1988,1990,1992,1993,1995,1998,2003,2009,2015,
            Gaussian, Inc.  All Rights Reserved.
  
 This is part of the Gaussian(R) 09 program.  It is based on
 the Gaussian(R) 03 system (copyright 2003, Gaussian, Inc.),
 the Gaussian(R) 98 system (copyright 1998, Gaussian, Inc.),
 the Gaussian(R) 94 system (copyright 1995, Gaussian, Inc.),
 the Gaussian 92(TM) system (copyright 1992, Gaussian, Inc.),
 the Gaussian 90(TM) system (copyright 1990, Gaussian, Inc.),
 the Gaussian 88(TM) system (copyright 1988, Gaussian, Inc.),
 the Gaussian 86(TM) system (copyright 1986, Carnegie Mellon
 University), and the Gaussian 82(TM) system (copyright 1983,
 Carnegie Mellon University). Gaussian is a federally registered
 trademark of Gaussian, Inc.
  
 This software contains proprietary and confidential information,
 including trade secrets, belonging to Gaussian, Inc.
  
 This software is provided under written license and may be
 used, copied, transmitted, or stored only in accord with that
 written license.
  
 The following legend is applicable only to US Government
 contracts under FAR:
  
                    RESTRICTED RIGHTS LEGEND
  
 Use, reproduction and disclosure by the US Government is
 subject to restrictions as set forth in subparagraphs (a)
 and (c) of the Commercial Computer Software - Restricted
 Rights clause in FAR 52.227-19.
  
 Gaussian, Inc.
 340 Quinnipiac St., Bldg. 40, Wallingford CT 06492
  
  
 ---------------------------------------------------------------
 Warning -- This program may not be used in any manner that
 competes with the business of Gaussian, Inc. or will provide
 assistance to any competitor of Gaussian, Inc.  The licensee
 of this program is prohibited from giving any competitor of
 Gaussian, Inc. access to this program.  By using this program,
 the user acknowledges that Gaussian, Inc. is engaged in the
 business of creating and licensing software in the field of
 computational chemistry and represents and warrants to the
 licensee that it is not a competitor of Gaussian, Inc. and that
 it will not use this program in any manner prohibited above.
 ---------------------------------------------------------------
  

 Cite this work as:
 Gaussian 09, Revision E.01,
 M. J. Frisch, G. W. Trucks, H. B. Schlegel, G. E. Scuseria, 
 M. A. Robb, J. R. Cheeseman, G. Scalmani, V. Barone, B. Mennucci, 
 G. A. Petersson, H. Nakatsuji, M. Caricato, X. Li, H. P. Hratchian, 
 A. F. Izmaylov, J. Bloino, G. Zheng, J. L. Sonnenberg, M. Hada, 
 M. Ehara, K. Toyota, R. Fukuda, J. Hasegawa, M. Ishida, T. Nakajima, 
 Y. Honda, O. Kitao, H. Nakai, T. Vreven, J. A. Montgomery, Jr., 
 J. E. Peralta, F. Ogliaro, M. Bearpark, J. J. Heyd, E. Brothers, 
 K. N. Kudin, V. N. Staroverov, T. Keith, R. Kobayashi, J. Normand, 
 K. Raghavachari, A. Rendell, J. C. Burant, S. S. Iyengar, J. Tomasi, 
 M. Cossi, N. Rega, J. M. Millam, M. Klene, J. E. Knox, J. B. Cross, 
 V. Bakken, C. Adamo, J. Jaramillo, R. Gomperts, R. E. Stratmann, 
 O. Yazyev, A. J. Austin, R. Cammi, C. Pomelli, J. W. Ochterski, 
 R. L. Martin, K. Morokuma, V. G. Zakrzewski, G. A. Voth, 
 P. Salvador, J. J. Dannenberg, S. Dapprich, A. D. Daniels, 
 O. Farkas, J. B. Foresman, J. V. Ortiz, J. Cioslowski, 
 and D. J. Fox, Gaussian, Inc., Wallingford CT, 2013.
 
 ******************************************
 Gaussian 09:  ES64L-G09RevE.01 30-Nov-2015
                31-Jan-2017 
 ******************************************
 %NPROCS=4
 Will use up to    4 processors via shared memory.
 ----------------------------------------------------------------------
 # opt=(calcfc,ts,noeigentest,maxcycle=1000,cartesian) b3lyp 6-31g(d) f
 req
 ----------------------------------------------------------------------
 1/5=1,6=1000,10=4,11=1,14=-1,18=10,26=3,38=1/1,3;
 2/12=2,17=6,18=5,29=2,40=1/2;
 3/5=1,6=6,7=1,11=2,16=1,25=1,30=1,71=2,74=-5,140=1/1,2,3;
 4//1;
 5/5=2,38=5/2;
 8/6=4,10=90,11=11/1;
 11/6=1,8=1,9=11,15=111,16=1/1,2,10;
 10/6=1,13=1/2;
 6/7=2,8=2,9=2,10=2,28=1/1;
 7/7=1,10=1,18=20,25=1/1,2,3,16;
 1/5=1,6=1000,10=4,11=1,14=-1,18=10,26=3/3(2);
 2/29=1/2;
 99/12=1/99;
 2/29=1/2;
 3/5=1,6=6,7=1,11=2,16=1,25=1,30=1,71=1,74=-5/1,2,3;
 4/5=5,16=3,69=1/1;
 5/5=2,38=5/2;
 7/7=1/1,2,3,16;
 1/5=1,6=1000,11=1,14=-1,18=10,26=3/3(-5);
 2/29=1/2;
 6/7=2,8=2,9=2,10=2,19=2,28=1/1;
 99/9=1,12=1/99;
 ------------------------------------------
 ./6/glo_2w_beta_boat6_B3LYP_631Gd_iopt.out
 ------------------------------------------
 Symbolic Z-matrix:
 Charge =  0 Multiplicity = 1
 C                     0.24497   1.16227   0.12567 
 C                     2.14848  -0.52233  -0.27784 
 C                     1.50297   0.83847  -0.68997 
 C                     1.43521  -1.15799   0.93294 
 H                     1.79627  -2.18942   1.04458 
 H                     3.19087  -0.31085   0.00128 
 H                     0.54729   1.49532   1.12431 
 H                     1.22547   0.73022  -1.74936 
 C                    -0.06892  -1.22379   0.66208 
 H                    -0.60878  -1.49148   1.58103 
 O                    -0.61117   0.02381   0.22124 
 C                    -0.58002   2.25249  -0.53643 
 H                     0.03654   3.15486  -0.62717 
 H                    -0.88094   1.92162  -1.54159 
 O                    -1.73371   2.49718   0.27839 
 H                    -2.2655    3.18539  -0.15 
 O                    -0.26234  -2.18562  -0.33608 
 O                     1.61251  -0.41472   2.13357 
 H                     2.56522  -0.30734   2.2795 
 O                     2.19542  -1.43438  -1.36171 
 H                     1.31372  -1.85995  -1.39085 
 O                     2.38653   1.94644  -0.51137 
 H                     3.11134   1.84567  -1.14801 
 O                    -3.63451   0.38368   0.31167 
 H                    -3.18768  -1.17182  -0.35579 
 H                    -2.82725   0.94651   0.32291 
 H                    -3.81296   0.21269   1.24883 
 O                    -2.93781  -2.06768  -0.70585 
 H                    -1.2401   -2.20978  -0.53391 
 H                    -3.17894  -2.03591  -1.64341 
 

 GradGradGradGradGradGradGradGradGradGradGradGradGradGradGradGradGradGrad
 Berny optimization.
 Initialization pass.
 No Z-matrix variables, so optimization will use Cartesian coordinates.
 Trust Radius=3.00D-01 FncErr=1.00D-07 GrdErr=1.00D-06
 Number of steps in this run=    180 maximum allowed number of steps=    180.
 Search for a saddle point of order  1.
 GradGradGradGradGradGradGradGradGradGradGradGradGradGradGradGradGradGrad

 ---------------------------------------------------------------------------------------------------
                            Z-MATRIX (ANGSTROMS AND DEGREES)
   CD    Cent   Atom    N1       Length/X        N2       Alpha/Y        N3        Beta/Z          J
 ---------------------------------------------------------------------------------------------------
      1      1  C        0   0.244970          1.162270          0.125670
      2      2  C        0   2.148480         -0.522330         -0.277840
      3      3  C        0   1.502970          0.838470         -0.689970
      4      4  C        0   1.435210         -1.157990          0.932940
      5      5  H        0   1.796270         -2.189420          1.044580
      6      6  H        0   3.190870         -0.310850          0.001280
      7      7  H        0   0.547290          1.495320          1.124310
      8      8  H        0   1.225470          0.730220         -1.749360
      9      9  C        0  -0.068920         -1.223790          0.662080
     10     10  H        0  -0.608780         -1.491480          1.581030
     11     11  O        0  -0.611170          0.023810          0.221240
     12     12  C        0  -0.580020          2.252490         -0.536430
     13     13  H        0   0.036540          3.154860         -0.627170
     14     14  H        0  -0.880940          1.921620         -1.541590
     15     15  O        0  -1.733710          2.497180          0.278390
     16     16  H        0  -2.265500          3.185390         -0.150000
     17     17  O        0  -0.262340         -2.185620         -0.336080
     18     18  O        0   1.612510         -0.414720          2.133570
     19     19  H        0   2.565220         -0.307340          2.279500
     20     20  O        0   2.195420         -1.434380         -1.361710
     21     21  H        0   1.313720         -1.859950         -1.390850
     22     22  O        0   2.386530          1.946440         -0.511370
     23     23  H        0   3.111340          1.845670         -1.148010
     24     24  O        0  -3.634510          0.383680          0.311670
     25     25  H        0  -3.187680         -1.171820         -0.355790
     26     26  H        0  -2.827250          0.946510          0.322910
     27     27  H        0  -3.812960          0.212690          1.248830
     28     28  O        0  -2.937810         -2.067680         -0.705850
     29     29  H        0  -1.240100         -2.209780         -0.533910
     30     30  H        0  -3.178940         -2.035910         -1.643410
 ---------------------------------------------------------------------------------------------------
                         Z-Matrix orientation:                         
 ---------------------------------------------------------------------
 Center     Atomic      Atomic             Coordinates (Angstroms)
 Number     Number       Type             X           Y           Z
 ---------------------------------------------------------------------
      1          6           0        0.244970    1.162270    0.125670
      2          6           0        2.148480   -0.522330   -0.277840
      3          6           0        1.502970    0.838470   -0.689970
      4          6           0        1.435210   -1.157990    0.932940
      5          1           0        1.796270   -2.189420    1.044580
      6          1           0        3.190870   -0.310850    0.001280
      7          1           0        0.547290    1.495320    1.124310
      8          1           0        1.225470    0.730220   -1.749360
      9          6           0       -0.068920   -1.223790    0.662080
     10          1           0       -0.608780   -1.491480    1.581030
     11          8           0       -0.611170    0.023810    0.221240
     12          6           0       -0.580020    2.252490   -0.536430
     13          1           0        0.036540    3.154860   -0.627170
     14          1           0       -0.880940    1.921620   -1.541590
     15          8           0       -1.733710    2.497180    0.278390
     16          1           0       -2.265500    3.185390   -0.150000
     17          8           0       -0.262340   -2.185620   -0.336080
     18          8           0        1.612510   -0.414720    2.133570
     19          1           0        2.565220   -0.307340    2.279500
     20          8           0        2.195420   -1.434380   -1.361710
     21          1           0        1.313720   -1.859950   -1.390850
     22          8           0        2.386530    1.946440   -0.511370
     23          1           0        3.111340    1.845670   -1.148010
     24          8           0       -3.634510    0.383680    0.311670
     25          1           0       -3.187680   -1.171820   -0.355790
     26          1           0       -2.827250    0.946510    0.322910
     27          1           0       -3.812960    0.212690    1.248830
     28          8           0       -2.937810   -2.067680   -0.705850
     29          1           0       -1.240100   -2.209780   -0.533910
     30          1           0       -3.178940   -2.035910   -1.643410
 ---------------------------------------------------------------------
                    Distance matrix (angstroms):
                    1          2          3          4          5
     1  C    0.000000
     2  C    2.573723   0.000000
     3  C    1.533845   1.561509   0.000000
     4  C    2.729828   1.542338   2.573768   0.000000
     5  H    3.805884   2.156858   3.501829   1.098488   0.000000
     6  H    3.296040   1.099640   2.155869   2.160551   2.561720
     7  H    1.095263   2.932703   2.153227   2.804475   3.891480
     8  H    2.159580   2.141542   1.100469   3.286953   4.081202
     9  C    2.465673   2.508457   2.924345   1.529739   2.134873
    10  H    3.144734   3.463688   3.878865   2.170053   2.561087
    11  O    1.427656   2.857100   2.442041   2.467963   3.372246
    12  C    1.519067   3.900155   2.522276   4.225112   5.279859
    13  H    2.140240   4.254885   2.742266   4.794882   5.869644
    14  H    2.150358   4.092352   2.753452   4.579503   5.545843
    15  O    2.391753   4.949569   3.763660   4.881676   5.917096
    16  H    3.235965   5.765999   4.472244   5.808009   6.842045
    17  O    3.417447   2.929501   3.519471   2.355443   2.478732
    18  O    2.896330   2.472598   3.091094   1.423165   2.090270
    19  H    3.490315   2.599977   3.355444   1.952883   2.378768
    20  O    3.571995   1.417326   2.469123   2.433049   2.553358
    21  H    3.546248   1.929985   2.794373   2.430536   2.504541
    22  O    2.367915   2.491190   1.428347   3.553664   4.458108
    23  H    3.210198   2.700318   1.952206   4.020166   4.776904
    24  O    3.961207   5.883141   5.253934   5.335240   6.054038
    25  H    4.178859   5.376106   5.114210   4.799180   5.276012
    26  H    3.086097   5.222670   4.448416   4.792663   5.633099
    27  H    4.316247   6.197559   5.692948   5.433400   6.105351
    28  O    4.610216   5.333071   5.307211   4.757780   5.048796
    29  H    3.743154   3.794145   4.103732   3.227258   3.422220
    30  H    5.008109   5.704131   5.575965   5.357117   5.656993
                    6          7          8          9         10
     6  H    0.000000
     7  H    3.392928   0.000000
     8  H    2.830435   3.050129   0.000000
     9  C    3.449108   2.826116   3.362833   0.000000
    10  H    4.280986   3.235130   4.403626   1.098898   0.000000
    11  O    3.823073   2.079160   2.784874   1.429993   2.035961
    12  C    4.591237   2.145272   2.654863   3.712435   4.301369
    13  H    4.728202   2.466297   2.924337   4.565727   5.184695
    14  H    4.893261   3.054275   2.428902   3.925448   4.634013
    15  O    5.675677   2.631020   3.998833   4.094431   4.344162
    16  H    6.482172   3.520226   4.557706   4.992525   5.254931
    17  O    3.943759   4.041975   3.565538   1.399590   2.068130
    18  O    2.654933   2.408641   4.066673   2.376359   2.529593
    19  H    2.362570   2.942123   4.370718   3.224069   3.458948
    20  O    2.027556   4.180881   2.403449   3.044226   4.065282
    21  H    2.803824   4.262779   2.616352   2.555565   3.558630
    22  O    2.450537   2.502351   2.088030   4.178107   5.016903
    23  H    2.444948   3.443913   2.272082   4.776198   5.694166
    24  O    6.867643   4.402679   5.290306   3.926854   3.779225
    25  H    6.446291   4.822275   5.003567   3.281071   3.241015
    26  H    6.156474   3.511546   4.556931   3.526134   3.528211
    27  H    7.133310   4.546694   5.885810   4.052849   3.644355
    28  O    6.414609   5.309461   5.123481   3.288451   3.314545
    29  H    4.850346   4.435338   4.024917   1.942738   2.321097
    30  H    6.801126   5.832208   5.202070   3.955635   4.159223
                   11         12         13         14         15
    11  O    0.000000
    12  C    2.354156   0.000000
    13  H    3.307991   1.096655   0.000000
    14  H    2.604233   1.100170   1.788523   0.000000
    15  O    2.716785   1.433459   2.094366   2.090649   0.000000
    16  H    3.587508   1.964809   2.351172   2.334661   0.969511
    17  O    2.305183   4.453974   5.356752   4.324967   4.946829
    18  O    2.965479   4.364642   4.779882   5.018225   4.808123
    19  H    3.799414   4.937077   5.179747   5.607585   5.509135
    20  O    3.536806   4.687981   5.124591   4.556214   5.795270
    21  H    3.138883   4.607434   5.230938   4.374874   5.572950
    22  O    3.635853   2.982401   2.645022   3.426125   4.231242
    23  H    4.364757   3.763731   3.382255   4.012353   5.092503
    24  O    3.046025   3.679896   4.694408   3.658139   2.842715
    25  H    2.898430   4.307949   5.402722   4.036898   3.997221
    26  H    2.402649   2.737534   3.739085   2.866238   1.897996
    27  H    3.367948   4.218985   5.195613   4.393589   3.237890
    28  O    3.262986   4.924606   6.010647   4.565489   4.822503
    29  H    2.440231   4.510828   5.515240   4.267655   4.801974
    30  H    3.783227   5.135189   6.190004   4.577468   5.131365
                   16         17         18         19         20
    16  H    0.000000
    17  O    5.735418   0.000000
    18  O    5.763198   3.570759   0.000000
    19  H    6.437196   4.285358   0.969785   0.000000
    20  O    6.535314   2.767104   3.687340   3.829541   0.000000
    21  H    6.309198   1.924205   3.820929   4.177119   0.979466
    22  O    4.827729   4.911330   3.629034   3.591714   3.491353
    23  H    5.630389   5.319046   4.257302   4.084302   3.412229
    24  O    3.152286   4.288638   5.611415   6.541140   6.331953
    25  H    4.458480   3.096093   5.460031   6.386543   5.482570
    26  H    2.356224   4.101618   4.984266   5.871892   5.808080
    27  H    3.631570   4.568450   5.532823   6.481812   6.754879
    28  O    5.325008   2.703475   5.612486   6.503418   5.213566
    29  H    5.505151   0.997865   4.298264   5.100492   3.617913
    30  H    5.506961   3.199700   6.312830   7.167465   5.415251
                   21         22         23         24         25
    21  H    0.000000
    22  O    4.051297   0.000000
    23  H    4.125776   0.969956   0.000000
    24  O    5.693631   6.274754   7.055110   0.000000
    25  H    4.669847   6.389019   7.029261   1.750640   0.000000
    26  H    5.287800   5.373954   6.183765   0.984161   2.253412
    27  H    6.127528   6.673670   7.507156   0.969201   2.209672
    28  O    4.311367   6.670800   7.218174   2.744067   0.993752
    29  H    2.716381   5.516078   5.979868   3.629634   2.214081
    30  H    4.503192   6.936504   7.408084   3.143930   1.550707
                   26         27         28         29         30
    26  H    0.000000
    27  H    1.538650   0.000000
    28  O    3.186834   3.128378   0.000000
    29  H    3.635293   3.958046   1.712301   0.000000
    30  H    3.589558   3.717961   0.968593   2.240607   0.000000
 Stoichiometry    C6H16O8
 Framework group  C1[X(C6H16O8)]
 Deg. of freedom    84
 Full point group                 C1      NOp   1
 Largest Abelian subgroup         C1      NOp   1
 Largest concise Abelian subgroup C1      NOp   1
                         Standard orientation:                         
 ---------------------------------------------------------------------
 Center     Atomic      Atomic             Coordinates (Angstroms)
 Number     Number       Type             X           Y           Z
 ---------------------------------------------------------------------
      1          6           0        0.244970    1.162269    0.125671
      2          6           0        2.148479   -0.522333   -0.277839
      3          6           0        1.502970    0.838468   -0.689969
      4          6           0        1.435208   -1.157992    0.932941
      5          1           0        1.796267   -2.189423    1.044581
      6          1           0        3.190869   -0.310854    0.001281
      7          1           0        0.547291    1.495318    1.124311
      8          1           0        1.225470    0.730218   -1.749359
      9          6           0       -0.068922   -1.223791    0.662081
     10          1           0       -0.608782   -1.491481    1.581031
     11          8           0       -0.611171    0.023809    0.221241
     12          6           0       -0.580019    2.252489   -0.536429
     13          1           0        0.036542    3.154859   -0.627169
     14          1           0       -0.880939    1.921620   -1.541589
     15          8           0       -1.733708    2.497180    0.278391
     16          1           0       -2.265498    3.185391   -0.149999
     17          8           0       -0.262343   -2.185621   -0.336079
     18          8           0        1.612509   -0.414723    2.133571
     19          1           0        2.565219   -0.307343    2.279501
     20          8           0        2.195418   -1.434383   -1.361709
     21          1           0        1.313718   -1.859952   -1.390849
     22          8           0        2.386531    1.946437   -0.511369
     23          1           0        3.111341    1.845666   -1.148009
     24          8           0       -3.634510    0.383682    0.311671
     25          1           0       -3.187682   -1.171818   -0.355789
     26          1           0       -2.827250    0.946511    0.322911
     27          1           0       -3.812960    0.212692    1.248831
     28          8           0       -2.937812   -2.067678   -0.705849
     29          1           0       -1.240103   -2.209780   -0.533909
     30          1           0       -3.178942   -2.035908   -1.643409
 ---------------------------------------------------------------------
 Rotational constants (GHZ):      0.7340543      0.5153058      0.3802279
 Standard basis: 6-31G(d) (6D, 7F)
 There are   242 symmetry adapted cartesian basis functions of A   symmetry.
 There are   242 symmetry adapted basis functions of A   symmetry.
   242 basis functions,   456 primitive gaussians,   242 cartesian basis functions
    58 alpha electrons       58 beta electrons
       nuclear repulsion energy      1109.5597713132 Hartrees.
 NAtoms=   30 NActive=   30 NUniq=   30 SFac= 1.00D+00 NAtFMM=   60 NAOKFM=F Big=F
 Integral buffers will be    131072 words long.
 Raffenetti 2 integral format.
 Two-electron integral symmetry is turned on.
 One-electron integrals computed using PRISM.
 NBasis=   242 RedAO= T EigKep=  1.49D-03  NBF=   242
 NBsUse=   242 1.00D-06 EigRej= -1.00D+00 NBFU=   242
 ExpMin= 1.61D-01 ExpMax= 5.48D+03 ExpMxC= 8.25D+02 IAcc=1 IRadAn=         1 AccDes= 0.00D+00
 Harris functional with IExCor=  402 and IRadAn=       1 diagonalized for initial guess.
 HarFok:  IExCor=  402 AccDes= 0.00D+00 IRadAn=         1 IDoV= 1 UseB2=F ITyADJ=14
 ICtDFT=  3500011 ScaDFX=  1.000000  1.000000  1.000000  1.000000
 FoFCou: FMM=F IPFlag=           0 FMFlag=      100000 FMFlg1=           0
         NFxFlg=           0 DoJE=T BraDBF=F KetDBF=T FulRan=T
         wScrn=  0.000000 ICntrl=     500 IOpCl=  0 I1Cent=   200000004 NGrid=           0
         NMat0=    1 NMatS0=      1 NMatT0=    0 NMatD0=    1 NMtDS0=    0 NMtDT0=    0
 Petite list used in FoFCou.
 Requested convergence on RMS density matrix=1.00D-08 within 128 cycles.
 Requested convergence on MAX density matrix=1.00D-06.
 Requested convergence on             energy=1.00D-06.
 No special actions if energy rises.
 Integral accuracy reduced to 1.0D-05 until final iterations.
 Initial convergence to 1.0D-05 achieved.  Increase integral accuracy.
 SCF Done:  E(RB3LYP) =  -839.997493513     A.U. after   13 cycles
            NFock= 13  Conv=0.95D-08     -V/T= 2.0085
 DoSCS=F DFT=T ScalE2(SS,OS)=  1.000000  1.000000
 Range of M.O.s used for correlation:     1   242
 NBasis=   242 NAE=    58 NBE=    58 NFC=     0 NFV=     0
 NROrb=    242 NOA=    58 NOB=    58 NVA=   184 NVB=   184
 Symmetrizing basis deriv contribution to polar:
 IMax=3 JMax=2 DiffMx= 0.00D+00
 G2DrvN: will do    31 centers at a time, making    1 passes.
 Calling FoFCou, ICntrl=  3107 FMM=F I1Cent=   0 AccDes= 0.00D+00.
 End of G2Drv F.D. properties file   721 does not exist.
 End of G2Drv F.D. properties file   722 does not exist.
 End of G2Drv F.D. properties file   788 does not exist.
          IDoAtm=111111111111111111111111111111
          Differentiating once with respect to nuclear coordinates.
          There are    93 degrees of freedom in the 1st order CPHF.  IDoFFX=6 NUNeed=     0.
     87 vectors produced by pass  0 Test12= 1.15D-14 1.08D-09 XBig12= 1.18D-01 6.46D-02.
 AX will form    87 AO Fock derivatives at one time.
     87 vectors produced by pass  1 Test12= 1.15D-14 1.08D-09 XBig12= 1.32D-02 1.49D-02.
     87 vectors produced by pass  2 Test12= 1.15D-14 1.08D-09 XBig12= 8.77D-05 1.54D-03.
     87 vectors produced by pass  3 Test12= 1.15D-14 1.08D-09 XBig12= 2.16D-07 5.32D-05.
     87 vectors produced by pass  4 Test12= 1.15D-14 1.08D-09 XBig12= 2.35D-10 1.51D-06.
     60 vectors produced by pass  5 Test12= 1.15D-14 1.08D-09 XBig12= 2.02D-13 5.61D-08.
      2 vectors produced by pass  6 Test12= 1.15D-14 1.08D-09 XBig12= 2.07D-16 1.46D-09.
 InvSVY:  IOpt=1 It=  1 EMax= 6.11D-16
 Solved reduced A of dimension   497 with    93 vectors.
 End of Minotr F.D. properties file   721 does not exist.
 End of Minotr F.D. properties file   722 does not exist.
 End of Minotr F.D. properties file   788 does not exist.

 **********************************************************************

            Population analysis using the SCF density.

 **********************************************************************

 Orbital symmetries:
       Occupied  (A) (A) (A) (A) (A) (A) (A) (A) (A) (A) (A) (A)
                 (A) (A) (A) (A) (A) (A) (A) (A) (A) (A) (A) (A)
                 (A) (A) (A) (A) (A) (A) (A) (A) (A) (A) (A) (A)
                 (A) (A) (A) (A) (A) (A) (A) (A) (A) (A) (A) (A)
                 (A) (A) (A) (A) (A) (A) (A) (A) (A) (A)
       Virtual   (A) (A) (A) (A) (A) (A) (A) (A) (A) (A) (A) (A)
                 (A) (A) (A) (A) (A) (A) (A) (A) (A) (A) (A) (A)
                 (A) (A) (A) (A) (A) (A) (A) (A) (A) (A) (A) (A)
                 (A) (A) (A) (A) (A) (A) (A) (A) (A) (A) (A) (A)
                 (A) (A) (A) (A) (A) (A) (A) (A) (A) (A) (A) (A)
                 (A) (A) (A) (A) (A) (A) (A) (A) (A) (A) (A) (A)
                 (A) (A) (A) (A) (A) (A) (A) (A) (A) (A) (A) (A)
                 (A) (A) (A) (A) (A) (A) (A) (A) (A) (A) (A) (A)
                 (A) (A) (A) (A) (A) (A) (A) (A) (A) (A) (A) (A)
                 (A) (A) (A) (A) (A) (A) (A) (A) (A) (A) (A) (A)
                 (A) (A) (A) (A) (A) (A) (A) (A) (A) (A) (A) (A)
                 (A) (A) (A) (A) (A) (A) (A) (A) (A) (A) (A) (A)
                 (A) (A) (A) (A) (A) (A) (A) (A) (A) (A) (A) (A)
                 (A) (A) (A) (A) (A) (A) (A) (A) (A) (A) (A) (A)
                 (A) (A) (A) (A) (A) (A) (A) (A) (A) (A) (A) (A)
                 (A) (A) (A) (A)
 The electronic state is 1-A.
 Alpha  occ. eigenvalues --  -19.17102 -19.15507 -19.15370 -19.14894 -19.14619
 Alpha  occ. eigenvalues --  -19.13741 -19.13469 -19.12771 -10.27892 -10.24124
 Alpha  occ. eigenvalues --  -10.23687 -10.23625 -10.23594 -10.23408  -1.06354
 Alpha  occ. eigenvalues --   -1.03827  -1.02752  -1.02432  -1.00626  -1.00465
 Alpha  occ. eigenvalues --   -0.99342  -0.98362  -0.77822  -0.75790  -0.69317
 Alpha  occ. eigenvalues --   -0.64015  -0.62366  -0.55730  -0.54856  -0.53731
 Alpha  occ. eigenvalues --   -0.52663  -0.52307  -0.51678  -0.51391  -0.48488
 Alpha  occ. eigenvalues --   -0.46919  -0.45605  -0.45445  -0.42216  -0.41209
 Alpha  occ. eigenvalues --   -0.40585  -0.40485  -0.39582  -0.38475  -0.37690
 Alpha  occ. eigenvalues --   -0.36104  -0.35385  -0.34803  -0.34082  -0.30886
 Alpha  occ. eigenvalues --   -0.30189  -0.29753  -0.28758  -0.28597  -0.28134
 Alpha  occ. eigenvalues --   -0.27300  -0.25530  -0.24408
 Alpha virt. eigenvalues --    0.04715   0.06232   0.07070   0.07507   0.09939
 Alpha virt. eigenvalues --    0.10316   0.12048   0.13698   0.14437   0.15246
 Alpha virt. eigenvalues --    0.16057   0.16675   0.17677   0.18304   0.19282
 Alpha virt. eigenvalues --    0.19988   0.21824   0.22853   0.23561   0.24220
 Alpha virt. eigenvalues --    0.24629   0.26262   0.27408   0.29913   0.30207
 Alpha virt. eigenvalues --    0.32072   0.33120   0.35796   0.52474   0.53891
 Alpha virt. eigenvalues --    0.54612   0.55856   0.57736   0.58830   0.59102
 Alpha virt. eigenvalues --    0.60577   0.62348   0.64335   0.67484   0.67756
 Alpha virt. eigenvalues --    0.68684   0.70408   0.73009   0.75143   0.76830
 Alpha virt. eigenvalues --    0.77840   0.79280   0.79467   0.80629   0.81601
 Alpha virt. eigenvalues --    0.82228   0.84532   0.85069   0.85632   0.86105
 Alpha virt. eigenvalues --    0.86435   0.88268   0.88887   0.89627   0.90660
 Alpha virt. eigenvalues --    0.90941   0.91819   0.92848   0.93976   0.95440
 Alpha virt. eigenvalues --    0.96634   0.97643   0.98672   1.01250   1.02399
 Alpha virt. eigenvalues --    1.04504   1.05236   1.06674   1.07824   1.09288
 Alpha virt. eigenvalues --    1.09932   1.10595   1.13649   1.14261   1.15464
 Alpha virt. eigenvalues --    1.18331   1.19792   1.23358   1.25936   1.26686
 Alpha virt. eigenvalues --    1.27719   1.29604   1.32326   1.34237   1.38862
 Alpha virt. eigenvalues --    1.39563   1.45119   1.46132   1.47394   1.52431
 Alpha virt. eigenvalues --    1.54403   1.55592   1.57795   1.58932   1.60241
 Alpha virt. eigenvalues --    1.62189   1.64215   1.65888   1.69707   1.71267
 Alpha virt. eigenvalues --    1.71550   1.72254   1.72701   1.72873   1.74058
 Alpha virt. eigenvalues --    1.75991   1.76790   1.77132   1.79225   1.80241
 Alpha virt. eigenvalues --    1.82322   1.83603   1.84451   1.87245   1.88264
 Alpha virt. eigenvalues --    1.89531   1.92995   1.93339   1.94948   1.95463
 Alpha virt. eigenvalues --    2.00120   2.00878   2.02802   2.04421   2.05673
 Alpha virt. eigenvalues --    2.07863   2.10171   2.11186   2.12707   2.16624
 Alpha virt. eigenvalues --    2.18330   2.20437   2.24505   2.29015   2.29955
 Alpha virt. eigenvalues --    2.32274   2.34863   2.36200   2.38924   2.40782
 Alpha virt. eigenvalues --    2.43426   2.45887   2.46519   2.48238   2.49889
 Alpha virt. eigenvalues --    2.53224   2.54823   2.56553   2.58089   2.59700
 Alpha virt. eigenvalues --    2.62293   2.63736   2.66039   2.67057   2.69335
 Alpha virt. eigenvalues --    2.71747   2.79738   2.82162   2.90713   2.91192
 Alpha virt. eigenvalues --    2.95767   2.99088   3.01561   3.05258   3.08933
 Alpha virt. eigenvalues --    3.73001   3.77070   3.80190   3.87321   3.93281
 Alpha virt. eigenvalues --    3.95755   4.07291   4.14614   4.28989   4.33023
 Alpha virt. eigenvalues --    4.45046   4.55151   4.76249   4.79769
          Condensed to atoms (all electrons):
               1          2          3          4          5          6
     1  C    4.879873  -0.037469   0.289590  -0.004555   0.000381   0.003343
     2  C   -0.037469   5.012628   0.290533   0.287847  -0.053961   0.357735
     3  C    0.289590   0.290533   5.099194  -0.020807   0.006194  -0.066683
     4  C   -0.004555   0.287847  -0.020807   5.049861   0.361407  -0.038165
     5  H    0.000381  -0.053961   0.006194   0.361407   0.613442  -0.006566
     6  H    0.003343   0.357735  -0.066683  -0.038165  -0.006566   0.636760
     7  H    0.352359  -0.006333  -0.050464  -0.001275   0.000147   0.000300
     8  H   -0.035304  -0.064388   0.339938   0.003287  -0.000333   0.005297
     9  C   -0.021091  -0.012278  -0.026898   0.309501  -0.047335   0.005551
    10  H    0.002782   0.005947  -0.000176  -0.062037  -0.002613  -0.000197
    11  O    0.207009  -0.008026  -0.034675  -0.024517   0.003299   0.000079
    12  C    0.346614   0.003787  -0.027647   0.000123   0.000031  -0.000200
    13  H   -0.032806   0.000121  -0.001559  -0.000008  -0.000000   0.000001
    14  H   -0.032458  -0.000168  -0.005531  -0.000000  -0.000001   0.000000
    15  O   -0.039822  -0.000035   0.002157  -0.000003   0.000000   0.000001
    16  H    0.005468   0.000003  -0.000194  -0.000000   0.000000  -0.000000
    17  O    0.003590   0.001104   0.000951  -0.041420   0.005094  -0.000092
    18  O   -0.006271  -0.034199   0.002977   0.187411  -0.031519  -0.001410
    19  H    0.000375  -0.004373  -0.000990  -0.025083  -0.004200   0.007219
    20  O    0.003299   0.234708  -0.049244  -0.025360   0.006113  -0.037999
    21  H    0.000244  -0.031765  -0.002120  -0.015101  -0.000041   0.005644
    22  O   -0.035635  -0.033495   0.182888   0.001698  -0.000101   0.005167
    23  H    0.006391  -0.001230  -0.022352   0.000015  -0.000005   0.003660
    24  O    0.000078  -0.000000  -0.000006  -0.000001   0.000000  -0.000000
    25  H   -0.000083  -0.000001   0.000002   0.000033  -0.000001   0.000000
    26  H   -0.003469  -0.000004   0.000186   0.000061  -0.000001   0.000000
    27  H    0.000052  -0.000000   0.000001   0.000002  -0.000000  -0.000000
    28  O    0.000066  -0.000002  -0.000001   0.000019   0.000001  -0.000000
    29  H   -0.000221  -0.000204  -0.000076   0.004806  -0.000126   0.000013
    30  H   -0.000001   0.000000  -0.000000  -0.000002  -0.000000   0.000000
               7          8          9         10         11         12
     1  C    0.352359  -0.035304  -0.021091   0.002782   0.207009   0.346614
     2  C   -0.006333  -0.064388  -0.012278   0.005947  -0.008026   0.003787
     3  C   -0.050464   0.339938  -0.026898  -0.000176  -0.034675  -0.027647
     4  C   -0.001275   0.003287   0.309501  -0.062037  -0.024517   0.000123
     5  H    0.000147  -0.000333  -0.047335  -0.002613   0.003299   0.000031
     6  H    0.000300   0.005297   0.005551  -0.000197   0.000079  -0.000200
     7  H    0.595124   0.006968  -0.006358   0.001610  -0.036699  -0.046112
     8  H    0.006968   0.647282   0.001593   0.000060   0.002810  -0.015805
     9  C   -0.006358   0.001593   4.661935   0.380647   0.206586   0.003114
    10  H    0.001610   0.000060   0.380647   0.647477  -0.057007  -0.000306
    11  O   -0.036699   0.002810   0.206586  -0.057007   8.370831  -0.047702
    12  C   -0.046112  -0.015805   0.003114  -0.000306  -0.047702   4.943623
    13  H   -0.001609   0.000131  -0.000137   0.000009   0.003509   0.356724
    14  H    0.006759   0.008498  -0.000187   0.000020  -0.000337   0.345895
    15  O    0.001597   0.000008  -0.000029   0.000013  -0.000828   0.219700
    16  H   -0.000177  -0.000012   0.000015  -0.000002   0.000029  -0.018657
    17  O   -0.000224  -0.000015   0.238922  -0.048934  -0.065075  -0.000230
    18  O    0.012316  -0.000080  -0.040992   0.002771   0.000962   0.000487
    19  H   -0.000207   0.000024   0.006717  -0.000415  -0.000114  -0.000031
    20  O   -0.000034   0.008702   0.001345  -0.000272  -0.000578  -0.000054
    21  H    0.000065   0.001622  -0.000911   0.000966   0.000993  -0.000036
    22  O    0.004617  -0.034011   0.000280   0.000007   0.001091  -0.001185
    23  H   -0.000266  -0.005104  -0.000015  -0.000001  -0.000107  -0.000105
    24  O    0.000005  -0.000001   0.000456   0.000299  -0.002565   0.001388
    25  H    0.000006   0.000001   0.000157  -0.000006   0.002246   0.000023
    26  H   -0.000021   0.000001  -0.000365  -0.000123   0.014831  -0.005133
    27  H    0.000000   0.000000   0.000086   0.000083   0.000304  -0.000096
    28  O   -0.000001  -0.000001   0.002569   0.000361  -0.000551  -0.000011
    29  H    0.000032   0.000041  -0.018004  -0.002181   0.004359  -0.000014
    30  H    0.000000   0.000000  -0.000130  -0.000015   0.000095   0.000000
              13         14         15         16         17         18
     1  C   -0.032806  -0.032458  -0.039822   0.005468   0.003590  -0.006271
     2  C    0.000121  -0.000168  -0.000035   0.000003   0.001104  -0.034199
     3  C   -0.001559  -0.005531   0.002157  -0.000194   0.000951   0.002977
     4  C   -0.000008  -0.000000  -0.000003  -0.000000  -0.041420   0.187411
     5  H   -0.000000  -0.000001   0.000000   0.000000   0.005094  -0.031519
     6  H    0.000001   0.000000   0.000001  -0.000000  -0.000092  -0.001410
     7  H   -0.001609   0.006759   0.001597  -0.000177  -0.000224   0.012316
     8  H    0.000131   0.008498   0.000008  -0.000012  -0.000015  -0.000080
     9  C   -0.000137  -0.000187  -0.000029   0.000015   0.238922  -0.040992
    10  H    0.000009   0.000020   0.000013  -0.000002  -0.048934   0.002771
    11  O    0.003509  -0.000337  -0.000828   0.000029  -0.065075   0.000962
    12  C    0.356724   0.345895   0.219700  -0.018657  -0.000230   0.000487
    13  H    0.588732  -0.045185  -0.032132  -0.003877   0.000001   0.000000
    14  H   -0.045185   0.635869  -0.039725  -0.003397  -0.000034  -0.000010
    15  O   -0.032132  -0.039725   8.244880   0.232212   0.000000  -0.000001
    16  H   -0.003877  -0.003397   0.232212   0.383804   0.000000   0.000000
    17  O    0.000001  -0.000034   0.000000   0.000000   8.383597   0.001207
    18  O    0.000000  -0.000010  -0.000001   0.000000   0.001207   8.298300
    19  H    0.000001   0.000001   0.000000  -0.000000  -0.000119   0.234041
    20  O   -0.000003  -0.000020   0.000000  -0.000000  -0.018071   0.001718
    21  H    0.000001   0.000012   0.000000  -0.000000   0.051189   0.000094
    22  O    0.008914   0.000183   0.000011   0.000004  -0.000001  -0.000128
    23  H   -0.000217  -0.000045   0.000001  -0.000001   0.000000  -0.000012
    24  O   -0.000032   0.000242  -0.016674   0.001931  -0.000040   0.000000
    25  H    0.000001   0.000031   0.000013  -0.000008   0.001738  -0.000000
    26  H    0.000649  -0.000614   0.056223  -0.004254   0.000023  -0.000002
    27  H    0.000000  -0.000011   0.000763  -0.000053   0.000001  -0.000000
    28  O   -0.000000   0.000003  -0.000002   0.000001  -0.032898   0.000000
    29  H    0.000000   0.000029  -0.000001  -0.000000   0.195774  -0.000054
    30  H    0.000000   0.000004   0.000000  -0.000000   0.001888  -0.000000
              19         20         21         22         23         24
     1  C    0.000375   0.003299   0.000244  -0.035635   0.006391   0.000078
     2  C   -0.004373   0.234708  -0.031765  -0.033495  -0.001230  -0.000000
     3  C   -0.000990  -0.049244  -0.002120   0.182888  -0.022352  -0.000006
     4  C   -0.025083  -0.025360  -0.015101   0.001698   0.000015  -0.000001
     5  H   -0.004200   0.006113  -0.000041  -0.000101  -0.000005   0.000000
     6  H    0.007219  -0.037999   0.005644   0.005167   0.003660  -0.000000
     7  H   -0.000207  -0.000034   0.000065   0.004617  -0.000266   0.000005
     8  H    0.000024   0.008702   0.001622  -0.034011  -0.005104  -0.000001
     9  C    0.006717   0.001345  -0.000911   0.000280  -0.000015   0.000456
    10  H   -0.000415  -0.000272   0.000966   0.000007  -0.000001   0.000299
    11  O   -0.000114  -0.000578   0.000993   0.001091  -0.000107  -0.002565
    12  C   -0.000031  -0.000054  -0.000036  -0.001185  -0.000105   0.001388
    13  H    0.000001  -0.000003   0.000001   0.008914  -0.000217  -0.000032
    14  H    0.000001  -0.000020   0.000012   0.000183  -0.000045   0.000242
    15  O    0.000000   0.000000   0.000000   0.000011   0.000001  -0.016674
    16  H   -0.000000  -0.000000  -0.000000   0.000004  -0.000001   0.001931
    17  O   -0.000119  -0.018071   0.051189  -0.000001   0.000000  -0.000040
    18  O    0.234041   0.001718   0.000094  -0.000128  -0.000012   0.000000
    19  H    0.387062   0.000024   0.000016   0.000269   0.000014  -0.000000
    20  O    0.000024   8.305873   0.227102   0.001429   0.000381   0.000000
    21  H    0.000016   0.227102   0.340579  -0.000023   0.000000   0.000000
    22  O    0.000269   0.001429  -0.000023   8.308596   0.230066   0.000000
    23  H    0.000014   0.000381   0.000000   0.230066   0.391034  -0.000000
    24  O   -0.000000   0.000000   0.000000   0.000000  -0.000000   8.338761
    25  H    0.000000   0.000000  -0.000002  -0.000000   0.000000   0.078627
    26  H    0.000000   0.000000  -0.000001  -0.000001   0.000000   0.207330
    27  H    0.000000  -0.000000   0.000000  -0.000000   0.000000   0.243029
    28  O   -0.000000  -0.000000   0.000016   0.000000  -0.000000  -0.029120
    29  H    0.000006   0.000273  -0.000044   0.000000   0.000000   0.000152
    30  H    0.000000   0.000000  -0.000005  -0.000000   0.000000   0.001267
              25         26         27         28         29         30
     1  C   -0.000083  -0.003469   0.000052   0.000066  -0.000221  -0.000001
     2  C   -0.000001  -0.000004  -0.000000  -0.000002  -0.000204   0.000000
     3  C    0.000002   0.000186   0.000001  -0.000001  -0.000076  -0.000000
     4  C    0.000033   0.000061   0.000002   0.000019   0.004806  -0.000002
     5  H   -0.000001  -0.000001  -0.000000   0.000001  -0.000126  -0.000000
     6  H    0.000000   0.000000  -0.000000  -0.000000   0.000013   0.000000
     7  H    0.000006  -0.000021   0.000000  -0.000001   0.000032   0.000000
     8  H    0.000001   0.000001   0.000000  -0.000001   0.000041   0.000000
     9  C    0.000157  -0.000365   0.000086   0.002569  -0.018004  -0.000130
    10  H   -0.000006  -0.000123   0.000083   0.000361  -0.002181  -0.000015
    11  O    0.002246   0.014831   0.000304  -0.000551   0.004359   0.000095
    12  C    0.000023  -0.005133  -0.000096  -0.000011  -0.000014   0.000000
    13  H    0.000001   0.000649   0.000000  -0.000000   0.000000   0.000000
    14  H    0.000031  -0.000614  -0.000011   0.000003   0.000029   0.000004
    15  O    0.000013   0.056223   0.000763  -0.000002  -0.000001   0.000000
    16  H   -0.000008  -0.004254  -0.000053   0.000001  -0.000000  -0.000000
    17  O    0.001738   0.000023   0.000001  -0.032898   0.195774   0.001888
    18  O   -0.000000  -0.000002  -0.000000   0.000000  -0.000054  -0.000000
    19  H    0.000000   0.000000   0.000000  -0.000000   0.000006   0.000000
    20  O    0.000000   0.000000  -0.000000  -0.000000   0.000273   0.000000
    21  H   -0.000002  -0.000001   0.000000   0.000016  -0.000044  -0.000005
    22  O   -0.000000  -0.000001  -0.000000   0.000000   0.000000  -0.000000
    23  H    0.000000   0.000000   0.000000  -0.000000   0.000000   0.000000
    24  O    0.078627   0.207330   0.243029  -0.029120   0.000152   0.001267
    25  H    0.301840  -0.002856  -0.005433   0.202179  -0.003867  -0.014400
    26  H   -0.002856   0.301510  -0.015324   0.001289   0.000021  -0.000005
    27  H   -0.005433  -0.015324   0.376636   0.001965  -0.000023  -0.000065
    28  O    0.202179   0.001289   0.001965   8.356788   0.085361   0.240264
    29  H   -0.003867   0.000021  -0.000023   0.085361   0.291631  -0.004557
    30  H   -0.014400  -0.000005  -0.000065   0.240264  -0.004557   0.382658
 Mulliken charges:
               1
     1  C    0.147671
     2  C    0.093517
     3  C    0.094810
     4  C    0.052260
     5  H    0.150693
     6  H    0.120541
     7  H    0.167872
     8  H    0.128790
     9  C    0.355258
    10  H    0.131234
    11  O   -0.540250
    12  C   -0.058187
    13  H    0.158770
    14  H    0.130180
    15  O   -0.628328
    16  H    0.407166
    17  O   -0.677928
    18  O   -0.627606
    19  H    0.399763
    20  O   -0.659332
    21  H    0.421503
    22  O   -0.640641
    23  H    0.397896
    24  O   -0.825126
    25  H    0.439762
    26  H    0.450049
    27  H    0.398082
    28  O   -0.828295
    29  H    0.446873
    30  H    0.393002
 Sum of Mulliken charges =  -0.00000
 Mulliken charges with hydrogens summed into heavy atoms:
               1
     1  C    0.315543
     2  C    0.214058
     3  C    0.223600
     4  C    0.202954
     9  C    0.486491
    11  O   -0.540250
    12  C    0.230764
    15  O   -0.221162
    17  O   -0.231055
    18  O   -0.227843
    20  O   -0.237828
    22  O   -0.242745
    24  O    0.023005
    28  O    0.004469
 APT charges:
               1
     1  C   -0.326014
     2  C   -0.409004
     3  C   -0.058909
     4  C   -0.403367
     5  H    0.535960
     6  H    0.523909
     7  H    0.386013
     8  H    0.314413
     9  C   -0.226352
    10  H    0.431395
    11  O   -0.416133
    12  C   -0.550752
    13  H    0.533844
    14  H    0.309208
    15  O   -1.085887
    16  H    0.921344
    17  O   -0.658913
    18  O   -0.927761
    19  H    0.810463
    20  O   -0.492087
    21  H    0.373041
    22  O   -1.001569
    23  H    0.820637
    24  O   -0.859050
    25  H    0.344338
    26  H    0.210358
    27  H    0.694218
    28  O   -1.061820
    29  H    0.529295
    30  H    0.739183
 Sum of APT charges =  -0.00000
 APT charges with hydrogens summed into heavy atoms:
               1
     1  C    0.059999
     2  C    0.114905
     3  C    0.255504
     4  C    0.132593
     9  C    0.205043
    11  O   -0.416133
    12  C    0.292300
    15  O   -0.164543
    17  O   -0.129618
    18  O   -0.117298
    20  O   -0.119046
    22  O   -0.180932
    24  O    0.045526
    28  O    0.021701
 Electronic spatial extent (au):  <R**2>=           3138.0656
 Charge=              0.0000 electrons
 Dipole moment (field-independent basis, Debye):
    X=             -0.0906    Y=              3.0794    Z=             -0.7473  Tot=              3.1701
 Quadrupole moment (field-independent basis, Debye-Ang):
   XX=            -76.0951   YY=            -84.1328   ZZ=            -78.4653
   XY=             -2.4682   XZ=              4.2320   YZ=             -5.4845
 Traceless Quadrupole moment (field-independent basis, Debye-Ang):
   XX=              3.4693   YY=             -4.5684   ZZ=              1.0991
   XY=             -2.4682   XZ=              4.2320   YZ=             -5.4845
 Octapole moment (field-independent basis, Debye-Ang**2):
  XXX=             13.9826  YYY=             37.8368  ZZZ=             -8.5614  XYY=            -24.6481
  XXY=             20.5390  XXZ=             16.5021  XZZ=            -22.8894  YZZ=             -3.3214
  YYZ=            -12.7069  XYZ=            -17.2016
 Hexadecapole moment (field-independent basis, Debye-Ang**3):
 XXXX=          -1813.8919 YYYY=          -1227.6972 ZZZZ=           -464.5165 XXXY=             38.6007
 XXXZ=              5.2910 YYYX=           -101.0009 YYYZ=            -13.0748 ZZZX=             27.1042
 ZZZY=             24.5997 XXYY=           -521.9112 XXZZ=           -285.9405 YYZZ=           -269.3954
 XXYZ=            -24.8650 YYXZ=             32.9024 ZZXY=             46.5054
 N-N= 1.109559771313D+03 E-N=-4.192422290529D+03  KE= 8.328844176067D+02
  Exact polarizability:   0.000   0.000   0.000   0.000   0.000   0.000
 Approx polarizability: 129.956   3.544 128.115  -1.189   6.425 123.328
 Calling FoFJK, ICntrl=    100147 FMM=F ISym2X=0 I1Cent= 0 IOpClX= 0 NMat=1 NMatS=1 NMatT=0.
 ***** Axes restored to original set *****
 -------------------------------------------------------------------
 Center     Atomic                   Forces (Hartrees/Bohr)
 Number     Number              X              Y              Z
 -------------------------------------------------------------------
      1        6          -0.000003845    0.000004011   -0.000007499
      2        6          -0.000008193   -0.000000666   -0.000001498
      3        6           0.000001358    0.000009165   -0.000009594
      4        6           0.000011055    0.000005641   -0.000003698
      5        1           0.000001427    0.000004317    0.000000724
      6        1           0.000005333    0.000002951    0.000000098
      7        1           0.000000473    0.000000206   -0.000000789
      8        1           0.000001713    0.000000790    0.000012771
      9        6          -0.000000275    0.000004204    0.000001562
     10        1          -0.000000242    0.000000358    0.000005160
     11        8           0.000004756    0.000004501    0.000001915
     12        6          -0.000002275   -0.000007923   -0.000006676
     13        1           0.000000442    0.000001942   -0.000002517
     14        1          -0.000001300   -0.000000663    0.000000782
     15        8          -0.000008515    0.000005587   -0.000006892
     16        1           0.000003262   -0.000007897    0.000003359
     17        8          -0.000000732   -0.000005309    0.000005339
     18        8           0.000015718    0.000007378    0.000003467
     19        1          -0.000009383    0.000004302   -0.000006511
     20        8           0.000000286   -0.000003444   -0.000003651
     21        1           0.000000231    0.000000013    0.000000224
     22        8          -0.000002576   -0.000016012   -0.000028627
     23        1          -0.000013470    0.000003319    0.000007450
     24        8           0.000005386    0.000000901   -0.000002755
     25        1           0.000000592   -0.000005776    0.000000752
     26        1          -0.000002217   -0.000002393    0.000000134
     27        1          -0.000002311   -0.000002792    0.000013352
     28        8          -0.000000255   -0.000003381    0.000008630
     29        1           0.000001892   -0.000001355    0.000004623
     30        1           0.000001664   -0.000001976    0.000010370
 -------------------------------------------------------------------
 Cartesian Forces:  Max     0.000028627 RMS     0.000006289

 GradGradGradGradGradGradGradGradGradGradGradGradGradGradGradGradGradGrad
 Berny optimization.
 Search for a saddle point.
 Step number   1 out of a maximum of  180
 All quantities printed in internal units (Hartrees-Bohrs-Radians)
 Swapping is turned off.
 Second derivative matrix not updated -- analytic derivatives used.
 ITU=  0
     Eigenvalues ---   -0.00080   0.00024   0.00032   0.00108   0.00161
     Eigenvalues ---    0.00206   0.00240   0.00322   0.00395   0.00427
     Eigenvalues ---    0.00535   0.00669   0.00819   0.00881   0.01120
     Eigenvalues ---    0.01209   0.01304   0.01577   0.01727   0.01831
     Eigenvalues ---    0.02053   0.02405   0.02448   0.02685   0.03259
     Eigenvalues ---    0.03475   0.03757   0.04294   0.04643   0.04837
     Eigenvalues ---    0.05334   0.05560   0.05762   0.05826   0.06019
     Eigenvalues ---    0.06758   0.07023   0.07455   0.07769   0.08255
     Eigenvalues ---    0.09161   0.09640   0.10132   0.13183   0.13645
     Eigenvalues ---    0.14827   0.16514   0.16738   0.17327   0.17890
     Eigenvalues ---    0.18229   0.20227   0.20409   0.23076   0.28252
     Eigenvalues ---    0.28498   0.31915   0.36967   0.41509   0.45988
     Eigenvalues ---    0.53338   0.55555   0.59512   0.62516   0.64475
     Eigenvalues ---    0.65284   0.68264   0.71458   0.72402   0.74102
     Eigenvalues ---    0.79952   0.80635   0.83670   0.84466   0.86202
     Eigenvalues ---    0.88563   0.91222   0.92764   0.98964   1.02219
     Eigenvalues ---    1.03768   1.05944   1.07444   1.09558
 Eigenvectors required to have negative eigenvalues:
                          Z23       Z22       Z11       Y8        X20
   1                    0.33838   0.33368  -0.28820   0.25334  -0.23689
                          X21       X8        Y10       Z17       Z29
   1                   -0.23193   0.22110   0.21571   0.20330   0.18624
 RFO step:  Lambda0=1.229727230D-11 Lambda=-1.61520582D-08.
 Linear search not attempted -- option 19 set.
 B after Tr=    -0.000002   -0.000034    0.000016
         Rot=    1.000000    0.000002   -0.000000    0.000002 Ang=   0.00 deg.
 Variable       Old X    -DE/DX   Delta X   Delta X   Delta X     New X
                                 (Linear)    (Quad)   (Total)
    X1        0.46293  -0.00000   0.00000   0.00002   0.00003   0.46296
    Y1        2.19637   0.00000   0.00000  -0.00007  -0.00010   2.19627
    Z1        0.23748  -0.00001   0.00000   0.00020   0.00021   0.23769
    X2        4.06004  -0.00001   0.00000  -0.00012  -0.00013   4.05991
    Y2       -0.98706  -0.00000   0.00000  -0.00010  -0.00015  -0.98721
    Z2       -0.52504  -0.00000   0.00000  -0.00013  -0.00011  -0.52515
    X3        2.84020   0.00000   0.00000  -0.00023  -0.00023   2.83997
    Y3        1.58448   0.00001   0.00000  -0.00015  -0.00020   1.58428
    Z3       -1.30385  -0.00001   0.00000  -0.00013  -0.00013  -1.30398
    X4        2.71215   0.00001   0.00000   0.00021   0.00020   2.71235
    Y4       -2.18828   0.00001   0.00000   0.00007   0.00003  -2.18826
    Z4        1.76300  -0.00000   0.00000   0.00013   0.00015   1.76315
    X5        3.39446   0.00000   0.00000   0.00024   0.00022   3.39468
    Y5       -4.13740   0.00000   0.00000   0.00009   0.00005  -4.13736
    Z5        1.97397   0.00000   0.00000   0.00016   0.00019   1.97416
    X6        6.02987   0.00001   0.00000  -0.00003  -0.00004   6.02983
    Y6       -0.58742   0.00000   0.00000  -0.00004  -0.00010  -0.58753
    Z6        0.00242   0.00000   0.00000  -0.00041  -0.00039   0.00203
    X7        1.03423   0.00000   0.00000   0.00024   0.00026   1.03449
    Y7        2.82575   0.00000   0.00000  -0.00022  -0.00025   2.82550
    Z7        2.12464  -0.00000   0.00000   0.00018   0.00019   2.12483
    X8        2.31580   0.00000   0.00000  -0.00062  -0.00062   2.31518
    Y8        1.37992   0.00000   0.00000  -0.00034  -0.00040   1.37952
    Z8       -3.30581   0.00001   0.00000   0.00003   0.00004  -3.30577
    X9       -0.13024  -0.00000   0.00000   0.00012   0.00010  -0.13014
    Y9       -2.31263   0.00000   0.00000   0.00003   0.00000  -2.31263
    Z9        1.25115   0.00000   0.00000   0.00051   0.00054   1.25169
   X10       -1.15043  -0.00000   0.00000   0.00032   0.00030  -1.15012
   Y10       -2.81849   0.00000   0.00000   0.00032   0.00030  -2.81819
   Z10        2.98771   0.00001   0.00000   0.00073   0.00076   2.98847
   X11       -1.15494   0.00000   0.00000   0.00006   0.00006  -1.15489
   Y11        0.04499   0.00000   0.00000  -0.00008  -0.00011   0.04489
   Z11        0.41808   0.00000   0.00000   0.00022   0.00024   0.41832
   X12       -1.09608  -0.00000   0.00000  -0.00004  -0.00002  -1.09610
   Y12        4.25659  -0.00001   0.00000   0.00005   0.00002   4.25661
   Z12       -1.01371  -0.00001   0.00000   0.00052   0.00051  -1.01319
   X13        0.06905   0.00000   0.00000  -0.00002   0.00000   0.06906
   Y13        5.96182   0.00000   0.00000   0.00007   0.00003   5.96185
   Z13       -1.18518  -0.00000   0.00000   0.00064   0.00063  -1.18455
   X14       -1.66474  -0.00000   0.00000  -0.00016  -0.00015  -1.66489
   Y14        3.63134  -0.00000   0.00000   0.00030   0.00026   3.63159
   Z14       -2.91318   0.00000   0.00000   0.00048   0.00048  -2.91270
   X15       -3.27624  -0.00001   0.00000   0.00006   0.00008  -3.27615
   Y15        4.71899   0.00001   0.00000  -0.00010  -0.00011   4.71887
   Z15        0.52608  -0.00001   0.00000   0.00071   0.00071   0.52679
   X16       -4.28117   0.00000   0.00000   0.00004   0.00006  -4.28111
   Y16        6.01951  -0.00001   0.00000   0.00000  -0.00001   6.01950
   Z16       -0.28346   0.00000   0.00000   0.00094   0.00093  -0.28253
   X17       -0.49575  -0.00000   0.00000  -0.00010  -0.00012  -0.49587
   Y17       -4.13022  -0.00001   0.00000  -0.00028  -0.00031  -4.13053
   Z17       -0.63510   0.00001   0.00000   0.00084   0.00088  -0.63422
   X18        3.04720   0.00002   0.00000   0.00054   0.00054   3.04774
   Y18       -0.78371   0.00001   0.00000   0.00019   0.00016  -0.78355
   Z18        4.03186   0.00000   0.00000   0.00001   0.00003   4.03189
   X19        4.84756  -0.00001   0.00000   0.00055   0.00054   4.84811
   Y19       -0.58079   0.00000   0.00000   0.00122   0.00118  -0.57961
   Z19        4.30763  -0.00001   0.00000  -0.00091  -0.00090   4.30673
   X20        4.14874   0.00000   0.00000  -0.00036  -0.00038   4.14836
   Y20       -2.71059  -0.00000   0.00000  -0.00023  -0.00030  -2.71088
   Z20       -2.57326  -0.00000   0.00000  -0.00003  -0.00000  -2.57326
   X21        2.48257   0.00000   0.00000  -0.00034  -0.00036   2.48221
   Y21       -3.51480   0.00000   0.00000  -0.00029  -0.00035  -3.51515
   Z21       -2.62833   0.00000   0.00000   0.00029   0.00032  -2.62801
   X22        4.50989  -0.00000   0.00000  -0.00019  -0.00017   4.50971
   Y22        3.67824  -0.00002   0.00000  -0.00018  -0.00024   3.67800
   Z22       -0.96635  -0.00003   0.00000  -0.00067  -0.00067  -0.96702
   X23        5.87958  -0.00001   0.00000  -0.00036  -0.00035   5.87923
   Y23        3.48781   0.00000   0.00000  -0.00030  -0.00037   3.48744
   Z23       -2.16942   0.00001   0.00000  -0.00079  -0.00080  -2.17022
   X24       -6.86823   0.00001   0.00000  -0.00016  -0.00015  -6.86838
   Y24        0.72505   0.00000   0.00000   0.00013   0.00013   0.72518
   Z24        0.58897  -0.00000   0.00000  -0.00091  -0.00089   0.58808
   X25       -6.02384   0.00000   0.00000   0.00001  -0.00000  -6.02385
   Y25       -2.21442  -0.00001   0.00000   0.00006   0.00005  -2.21437
   Z25       -0.67235   0.00000   0.00000  -0.00073  -0.00070  -0.67304
   X26       -5.34273  -0.00000   0.00000  -0.00004  -0.00003  -5.34276
   Y26        1.78864  -0.00000   0.00000  -0.00007  -0.00007   1.78857
   Z26        0.61021   0.00000   0.00000  -0.00012  -0.00011   0.61010
   X27       -7.20545  -0.00000   0.00000  -0.00119  -0.00119  -7.20664
   Y27        0.40193  -0.00000   0.00000   0.00018   0.00019   0.40212
   Z27        2.35995   0.00001   0.00000  -0.00107  -0.00105   2.35889
   X28       -5.55166  -0.00000   0.00000   0.00015   0.00013  -5.55152
   Y28       -3.90735  -0.00000   0.00000   0.00013   0.00012  -3.90723
   Z28       -1.33386   0.00001   0.00000  -0.00079  -0.00075  -1.33461
   X29       -2.34345   0.00000   0.00000  -0.00008  -0.00010  -2.34355
   Y29       -4.17588  -0.00000   0.00000  -0.00012  -0.00014  -4.17602
   Z29       -1.00894   0.00000   0.00000   0.00072   0.00076  -1.00819
   X30       -6.00733   0.00000   0.00000   0.00153   0.00151  -6.00582
   Y30       -3.84731  -0.00000   0.00000   0.00073   0.00071  -3.84660
   Z30       -3.10559   0.00001   0.00000  -0.00111  -0.00107  -3.10667
         Item               Value     Threshold  Converged?
 Maximum Force            0.000029     0.000450     YES
 RMS     Force            0.000006     0.000300     YES
 Maximum Displacement     0.001507     0.001800     YES
 RMS     Displacement     0.000465     0.001200     YES
 Predicted change in Energy=-8.506033D-09
 Optimization completed.
    -- Stationary point found.
 GradGradGradGradGradGradGradGradGradGradGradGradGradGradGradGradGradGrad

                          Input orientation:                          
 ---------------------------------------------------------------------
 Center     Atomic      Atomic             Coordinates (Angstroms)
 Number     Number       Type             X           Y           Z
 ---------------------------------------------------------------------
      1          6           0        0.244970    1.162270    0.125670
      2          6           0        2.148480   -0.522330   -0.277840
      3          6           0        1.502970    0.838470   -0.689970
      4          6           0        1.435210   -1.157990    0.932940
      5          1           0        1.796270   -2.189420    1.044580
      6          1           0        3.190870   -0.310850    0.001280
      7          1           0        0.547290    1.495320    1.124310
      8          1           0        1.225470    0.730220   -1.749360
      9          6           0       -0.068920   -1.223790    0.662080
     10          1           0       -0.608780   -1.491480    1.581030
     11          8           0       -0.611170    0.023810    0.221240
     12          6           0       -0.580020    2.252490   -0.536430
     13          1           0        0.036540    3.154860   -0.627170
     14          1           0       -0.880940    1.921620   -1.541590
     15          8           0       -1.733710    2.497180    0.278390
     16          1           0       -2.265500    3.185390   -0.150000
     17          8           0       -0.262340   -2.185620   -0.336080
     18          8           0        1.612510   -0.414720    2.133570
     19          1           0        2.565220   -0.307340    2.279500
     20          8           0        2.195420   -1.434380   -1.361710
     21          1           0        1.313720   -1.859950   -1.390850
     22          8           0        2.386530    1.946440   -0.511370
     23          1           0        3.111340    1.845670   -1.148010
     24          8           0       -3.634510    0.383680    0.311670
     25          1           0       -3.187680   -1.171820   -0.355790
     26          1           0       -2.827250    0.946510    0.322910
     27          1           0       -3.812960    0.212690    1.248830
     28          8           0       -2.937810   -2.067680   -0.705850
     29          1           0       -1.240100   -2.209780   -0.533910
     30          1           0       -3.178940   -2.035910   -1.643410
 ---------------------------------------------------------------------
                    Distance matrix (angstroms):
                    1          2          3          4          5
     1  C    0.000000
     2  C    2.573723   0.000000
     3  C    1.533845   1.561509   0.000000
     4  C    2.729828   1.542338   2.573768   0.000000
     5  H    3.805884   2.156858   3.501829   1.098488   0.000000
     6  H    3.296040   1.099640   2.155869   2.160551   2.561720
     7  H    1.095263   2.932703   2.153227   2.804475   3.891480
     8  H    2.159580   2.141542   1.100469   3.286953   4.081202
     9  C    2.465673   2.508457   2.924345   1.529739   2.134873
    10  H    3.144734   3.463688   3.878865   2.170053   2.561087
    11  O    1.427656   2.857100   2.442041   2.467963   3.372246
    12  C    1.519067   3.900155   2.522276   4.225112   5.279859
    13  H    2.140240   4.254885   2.742266   4.794882   5.869644
    14  H    2.150358   4.092352   2.753452   4.579503   5.545843
    15  O    2.391753   4.949569   3.763660   4.881676   5.917096
    16  H    3.235965   5.765999   4.472244   5.808009   6.842045
    17  O    3.417447   2.929501   3.519471   2.355443   2.478732
    18  O    2.896330   2.472598   3.091094   1.423165   2.090270
    19  H    3.490315   2.599977   3.355444   1.952883   2.378768
    20  O    3.571995   1.417326   2.469123   2.433049   2.553358
    21  H    3.546248   1.929985   2.794373   2.430536   2.504541
    22  O    2.367915   2.491190   1.428347   3.553664   4.458108
    23  H    3.210198   2.700318   1.952206   4.020166   4.776904
    24  O    3.961207   5.883141   5.253934   5.335240   6.054038
    25  H    4.178859   5.376106   5.114210   4.799180   5.276012
    26  H    3.086097   5.222670   4.448416   4.792663   5.633099
    27  H    4.316247   6.197559   5.692948   5.433400   6.105351
    28  O    4.610216   5.333071   5.307211   4.757780   5.048796
    29  H    3.743154   3.794145   4.103732   3.227258   3.422220
    30  H    5.008109   5.704131   5.575965   5.357117   5.656993
                    6          7          8          9         10
     6  H    0.000000
     7  H    3.392928   0.000000
     8  H    2.830435   3.050129   0.000000
     9  C    3.449108   2.826116   3.362833   0.000000
    10  H    4.280986   3.235130   4.403626   1.098898   0.000000
    11  O    3.823073   2.079160   2.784874   1.429993   2.035961
    12  C    4.591237   2.145272   2.654863   3.712435   4.301369
    13  H    4.728202   2.466297   2.924337   4.565727   5.184695
    14  H    4.893261   3.054275   2.428902   3.925448   4.634013
    15  O    5.675677   2.631020   3.998833   4.094431   4.344162
    16  H    6.482172   3.520226   4.557706   4.992525   5.254931
    17  O    3.943759   4.041975   3.565538   1.399590   2.068130
    18  O    2.654933   2.408641   4.066673   2.376359   2.529593
    19  H    2.362570   2.942123   4.370718   3.224069   3.458948
    20  O    2.027556   4.180881   2.403449   3.044226   4.065282
    21  H    2.803824   4.262779   2.616352   2.555565   3.558630
    22  O    2.450537   2.502351   2.088030   4.178107   5.016903
    23  H    2.444948   3.443913   2.272082   4.776198   5.694166
    24  O    6.867643   4.402679   5.290306   3.926854   3.779225
    25  H    6.446291   4.822275   5.003567   3.281071   3.241015
    26  H    6.156474   3.511546   4.556931   3.526134   3.528211
    27  H    7.133310   4.546694   5.885810   4.052849   3.644355
    28  O    6.414609   5.309461   5.123481   3.288451   3.314545
    29  H    4.850346   4.435338   4.024917   1.942738   2.321097
    30  H    6.801126   5.832208   5.202070   3.955635   4.159223
                   11         12         13         14         15
    11  O    0.000000
    12  C    2.354156   0.000000
    13  H    3.307991   1.096655   0.000000
    14  H    2.604233   1.100170   1.788523   0.000000
    15  O    2.716785   1.433459   2.094366   2.090649   0.000000
    16  H    3.587508   1.964809   2.351172   2.334661   0.969511
    17  O    2.305183   4.453974   5.356752   4.324967   4.946829
    18  O    2.965479   4.364642   4.779882   5.018225   4.808123
    19  H    3.799414   4.937077   5.179747   5.607585   5.509135
    20  O    3.536806   4.687981   5.124591   4.556214   5.795270
    21  H    3.138883   4.607434   5.230938   4.374874   5.572950
    22  O    3.635853   2.982401   2.645022   3.426125   4.231242
    23  H    4.364757   3.763731   3.382255   4.012353   5.092503
    24  O    3.046025   3.679896   4.694408   3.658139   2.842715
    25  H    2.898430   4.307949   5.402722   4.036898   3.997221
    26  H    2.402649   2.737534   3.739085   2.866238   1.897996
    27  H    3.367948   4.218985   5.195613   4.393589   3.237890
    28  O    3.262986   4.924606   6.010647   4.565489   4.822503
    29  H    2.440231   4.510828   5.515240   4.267655   4.801974
    30  H    3.783227   5.135189   6.190004   4.577468   5.131365
                   16         17         18         19         20
    16  H    0.000000
    17  O    5.735418   0.000000
    18  O    5.763198   3.570759   0.000000
    19  H    6.437196   4.285358   0.969785   0.000000
    20  O    6.535314   2.767104   3.687340   3.829541   0.000000
    21  H    6.309198   1.924205   3.820929   4.177119   0.979466
    22  O    4.827729   4.911330   3.629034   3.591714   3.491353
    23  H    5.630389   5.319046   4.257302   4.084302   3.412229
    24  O    3.152286   4.288638   5.611415   6.541140   6.331953
    25  H    4.458480   3.096093   5.460031   6.386543   5.482570
    26  H    2.356224   4.101618   4.984266   5.871892   5.808080
    27  H    3.631570   4.568450   5.532823   6.481812   6.754879
    28  O    5.325008   2.703475   5.612486   6.503418   5.213566
    29  H    5.505151   0.997865   4.298264   5.100492   3.617913
    30  H    5.506961   3.199700   6.312830   7.167465   5.415251
                   21         22         23         24         25
    21  H    0.000000
    22  O    4.051297   0.000000
    23  H    4.125776   0.969956   0.000000
    24  O    5.693631   6.274754   7.055110   0.000000
    25  H    4.669847   6.389019   7.029261   1.750640   0.000000
    26  H    5.287800   5.373954   6.183765   0.984161   2.253412
    27  H    6.127528   6.673670   7.507156   0.969201   2.209672
    28  O    4.311367   6.670800   7.218174   2.744067   0.993752
    29  H    2.716381   5.516078   5.979868   3.629634   2.214081
    30  H    4.503192   6.936504   7.408084   3.143930   1.550707
                   26         27         28         29         30
    26  H    0.000000
    27  H    1.538650   0.000000
    28  O    3.186834   3.128378   0.000000
    29  H    3.635293   3.958046   1.712301   0.000000
    30  H    3.589558   3.717961   0.968593   2.240607   0.000000
 Stoichiometry    C6H16O8
 Framework group  C1[X(C6H16O8)]
 Deg. of freedom    84
 Full point group                 C1      NOp   1
 Largest Abelian subgroup         C1      NOp   1
 Largest concise Abelian subgroup C1      NOp   1
                         Standard orientation:                         
 ---------------------------------------------------------------------
 Center     Atomic      Atomic             Coordinates (Angstroms)
 Number     Number       Type             X           Y           Z
 ---------------------------------------------------------------------
      1          6           0        0.244970    1.162269    0.125671
      2          6           0        2.148479   -0.522333   -0.277839
      3          6           0        1.502970    0.838468   -0.689969
      4          6           0        1.435208   -1.157992    0.932941
      5          1           0        1.796267   -2.189423    1.044581
      6          1           0        3.190869   -0.310854    0.001281
      7          1           0        0.547291    1.495318    1.124311
      8          1           0        1.225470    0.730218   -1.749359
      9          6           0       -0.068922   -1.223791    0.662081
     10          1           0       -0.608782   -1.491481    1.581031
     11          8           0       -0.611171    0.023809    0.221241
     12          6           0       -0.580019    2.252489   -0.536429
     13          1           0        0.036542    3.154859   -0.627169
     14          1           0       -0.880939    1.921620   -1.541589
     15          8           0       -1.733708    2.497180    0.278391
     16          1           0       -2.265498    3.185391   -0.149999
     17          8           0       -0.262343   -2.185621   -0.336079
     18          8           0        1.612509   -0.414723    2.133571
     19          1           0        2.565219   -0.307343    2.279501
     20          8           0        2.195418   -1.434383   -1.361709
     21          1           0        1.313718   -1.859952   -1.390849
     22          8           0        2.386531    1.946437   -0.511369
     23          1           0        3.111341    1.845666   -1.148009
     24          8           0       -3.634510    0.383682    0.311671
     25          1           0       -3.187682   -1.171818   -0.355789
     26          1           0       -2.827250    0.946511    0.322911
     27          1           0       -3.812960    0.212692    1.248831
     28          8           0       -2.937812   -2.067678   -0.705849
     29          1           0       -1.240103   -2.209780   -0.533909
     30          1           0       -3.178942   -2.035908   -1.643409
 ---------------------------------------------------------------------
 Rotational constants (GHZ):      0.7340543      0.5153058      0.3802279
 1\1\GINC-N284\FTS\RB3LYP\6-31G(d)\C6H16O8\ROOT\31-Jan-2017\0\\# opt=(c
 alcfc,ts,noeigentest,maxcycle=1000,cartesian) b3lyp 6-31g(d) freq\\./6
 /glo_2w_beta_boat6_B3LYP_631Gd_iopt.out\\0,1\C,0.24497,1.16227,0.12567
 \C,2.14848,-0.52233,-0.27784\C,1.50297,0.83847,-0.68997\C,1.43521,-1.1
 5799,0.93294\H,1.79627,-2.18942,1.04458\H,3.19087,-0.31085,0.00128\H,0
 .54729,1.49532,1.12431\H,1.22547,0.73022,-1.74936\C,-0.06892,-1.22379,
 0.66208\H,-0.60878,-1.49148,1.58103\O,-0.61117,0.02381,0.22124\C,-0.58
 002,2.25249,-0.53643\H,0.03654,3.15486,-0.62717\H,-0.88094,1.92162,-1.
 54159\O,-1.73371,2.49718,0.27839\H,-2.2655,3.18539,-0.15\O,-0.26234,-2
 .18562,-0.33608\O,1.61251,-0.41472,2.13357\H,2.56522,-0.30734,2.2795\O
 ,2.19542,-1.43438,-1.36171\H,1.31372,-1.85995,-1.39085\O,2.38653,1.946
 44,-0.51137\H,3.11134,1.84567,-1.14801\O,-3.63451,0.38368,0.31167\H,-3
 .18768,-1.17182,-0.35579\H,-2.82725,0.94651,0.32291\H,-3.81296,0.21269
 ,1.24883\O,-2.93781,-2.06768,-0.70585\H,-1.2401,-2.20978,-0.53391\H,-3
 .17894,-2.03591,-1.64341\\Version=ES64L-G09RevE.01\State=1-A\HF=-839.9
 974935\RMSD=9.481e-09\RMSF=6.289e-06\Dipole=-0.0356495,1.2115244,-0.29
 40036\Polar=0.,0.,0.,0.,0.,0.\Quadrupole=2.5793402,-3.3964772,0.817136
 9,-1.8350394,3.1463583,-4.0776104\PG=C01 [X(C6H16O8)]\\@


 KEEP CLOSE TO NATURES HEART, YOURSELF;
 AND BREAK CLEAR AWAY, ONCE IN A WHILE, AND
 CLIMB A MOUNTAIN OR SPEND A WEEK IN THE
 WOODS.  WASH YOUR SPIRIT CLEAN...
                                         -- JOHN MUIR
 Job cpu time:       0 days  0 hours 35 minutes 10.6 seconds.
 File lengths (MBytes):  RWF=    220 Int=      0 D2E=      0 Chk=      6 Scr=      1
 Normal termination of Gaussian 09 at Tue Jan 31 07:20:42 2017.
 Link1:  Proceeding to internal job step number  2.
 --------------------------------------------------------------------
 #N Geom=AllCheck Guess=TCheck SCRF=Check GenChk RB3LYP/6-31G(d) Freq
 --------------------------------------------------------------------
 1/5=1,6=1000,10=4,11=1,29=7,30=1,38=1,40=1/1,3;
 2/12=2,40=1/2;
 3/5=1,6=6,7=1,11=2,14=-4,16=1,25=1,30=1,70=2,71=2,74=-5,116=1,140=1/1,2,3;
 4/5=101/1;
 5/5=2,38=6,98=1/2;
 8/6=4,10=90,11=11/1;
 11/6=1,8=1,9=11,15=111,16=1/1,2,10;
 10/6=1/2;
 6/7=2,8=2,9=2,10=2,18=1,28=1/1;
 7/8=1,10=1,25=1/1,2,3,16;
 1/5=1,6=1000,10=4,11=1,30=1/3;
 99//99;
 Structure from the checkpoint file:  "/scratch/10501398.yak.local/Gau-19254.chk"
 ------------------------------------------
 ./6/glo_2w_beta_boat6_B3LYP_631Gd_iopt.out
 ------------------------------------------
 Charge =  0 Multiplicity = 1
 No Z-Matrix found in file; cartesian coordinates used.
  C                                                 0.244970000000      1.162270000000      0.125670000000
  C                                                 2.148480000000     -0.522330000000     -0.277840000000
  C                                                 1.502970000000      0.838470000000     -0.689970000000
  C                                                 1.435210000000     -1.157990000000      0.932940000000
  H                                                 1.796270000000     -2.189420000000      1.044580000000
  H                                                 3.190870000000     -0.310850000000      0.001280000000
  H                                                 0.547290000000      1.495320000000      1.124310000000
  H                                                 1.225470000000      0.730220000000     -1.749360000000
  C                                                -0.068920000000     -1.223790000000      0.662080000000
  H                                                -0.608780000000     -1.491480000000      1.581030000000
  O                                                -0.611170000000      0.023810000000      0.221240000000
  C                                                -0.580020000000      2.252490000000     -0.536430000000
  H                                                 0.036540000000      3.154860000000     -0.627170000000
  H                                                -0.880940000000      1.921620000000     -1.541590000000
  O                                                -1.733710000000      2.497180000000      0.278390000000
  H                                                -2.265500000000      3.185390000000     -0.150000000000
  O                                                -0.262340000000     -2.185620000000     -0.336080000000
  O                                                 1.612510000000     -0.414720000000      2.133570000000
  H                                                 2.565220000000     -0.307340000000      2.279500000000
  O                                                 2.195420000000     -1.434380000000     -1.361710000000
  H                                                 1.313720000000     -1.859950000000     -1.390850000000
  O                                                 2.386530000000      1.946440000000     -0.511370000000
  H                                                 3.111340000000      1.845670000000     -1.148010000000
  O                                                -3.634510000000      0.383680000000      0.311670000000
  H                                                -3.187680000000     -1.171820000000     -0.355790000000
  H                                                -2.827250000000      0.946510000000      0.322910000000
  H                                                -3.812960000000      0.212690000000      1.248830000000
  O                                                -2.937810000000     -2.067680000000     -0.705850000000
  H                                                -1.240100000000     -2.209780000000     -0.533910000000
  H                                                -3.178940000000     -2.035910000000     -1.643410000000
 Recover connectivity data from disk.

 GradGradGradGradGradGradGradGradGradGradGradGradGradGradGradGradGradGrad
 Berny optimization.
 Initialization pass.
 Trust Radius=3.00D-01 FncErr=1.00D-07 GrdErr=1.00D-07
 Number of steps in this run=      2 maximum allowed number of steps=      2.
 Search for a saddle point of order  1.
 GradGradGradGradGradGradGradGradGradGradGradGradGradGradGradGradGradGrad

                          Input orientation:                          
 ---------------------------------------------------------------------
 Center     Atomic      Atomic             Coordinates (Angstroms)
 Number     Number       Type             X           Y           Z
 ---------------------------------------------------------------------
      1          6           0        0.244970    1.162270    0.125670
      2          6           0        2.148480   -0.522330   -0.277840
      3          6           0        1.502970    0.838470   -0.689970
      4          6           0        1.435210   -1.157990    0.932940
      5          1           0        1.796270   -2.189420    1.044580
      6          1           0        3.190870   -0.310850    0.001280
      7          1           0        0.547290    1.495320    1.124310
      8          1           0        1.225470    0.730220   -1.749360
      9          6           0       -0.068920   -1.223790    0.662080
     10          1           0       -0.608780   -1.491480    1.581030
     11          8           0       -0.611170    0.023810    0.221240
     12          6           0       -0.580020    2.252490   -0.536430
     13          1           0        0.036540    3.154860   -0.627170
     14          1           0       -0.880940    1.921620   -1.541590
     15          8           0       -1.733710    2.497180    0.278390
     16          1           0       -2.265500    3.185390   -0.150000
     17          8           0       -0.262340   -2.185620   -0.336080
     18          8           0        1.612510   -0.414720    2.133570
     19          1           0        2.565220   -0.307340    2.279500
     20          8           0        2.195420   -1.434380   -1.361710
     21          1           0        1.313720   -1.859950   -1.390850
     22          8           0        2.386530    1.946440   -0.511370
     23          1           0        3.111340    1.845670   -1.148010
     24          8           0       -3.634510    0.383680    0.311670
     25          1           0       -3.187680   -1.171820   -0.355790
     26          1           0       -2.827250    0.946510    0.322910
     27          1           0       -3.812960    0.212690    1.248830
     28          8           0       -2.937810   -2.067680   -0.705850
     29          1           0       -1.240100   -2.209780   -0.533910
     30          1           0       -3.178940   -2.035910   -1.643410
 ---------------------------------------------------------------------
                    Distance matrix (angstroms):
                    1          2          3          4          5
     1  C    0.000000
     2  C    2.573723   0.000000
     3  C    1.533845   1.561509   0.000000
     4  C    2.729828   1.542338   2.573768   0.000000
     5  H    3.805884   2.156858   3.501829   1.098488   0.000000
     6  H    3.296040   1.099640   2.155869   2.160551   2.561720
     7  H    1.095263   2.932703   2.153227   2.804475   3.891480
     8  H    2.159580   2.141542   1.100469   3.286953   4.081202
     9  C    2.465673   2.508457   2.924345   1.529739   2.134873
    10  H    3.144734   3.463688   3.878865   2.170053   2.561087
    11  O    1.427656   2.857100   2.442041   2.467963   3.372246
    12  C    1.519067   3.900155   2.522276   4.225112   5.279859
[...]
 ,0.00098190,-0.00046821,0.00027356,0.00077540,-0.01247718,-0.00651424,
 0.00274304,0.00041698,0.00127446,-0.00040490,0.00378937,0.00163751,0.0
 0132813,0.00028970,0.00057498,0.00022436,0.00003370,-0.00007195,0.0000
 5615,0.00040108,0.00071989,0.00006160,-0.00069384,-0.00030015,0.000342
 14,0.00002468,0.00059557,-0.00021212,0.00008019,-0.00004634,0.00007158
 ,0.23965697,0.21112312,-0.00000542,0.00020379,-0.00013911,-0.00007851,
 -0.00009730,-0.00015657,-0.00008302,-0.00010802,-0.00009715,-0.0000523
 9,-0.00016083,0.00000474,-0.00000350,0.00002769,0.00001383,0.00001411,
 0.00000177,0.00004065,0.00015259,0.00000894,0.00005742,-0.00002139,0.0
 0000994,0.00008998,0.00050581,-0.00081136,-0.00143045,0.00007133,-0.00
 019328,0.00036127,-0.00024212,0.00005849,0.00164375,-0.00072387,-0.001
 06122,-0.00049520,-0.00015749,0.00011531,0.00022253,-0.00027456,-0.000
 03281,0.00044596,0.00109816,0.00239044,0.00373210,-0.00030578,-0.00096
 662,-0.00044746,0.00132810,0.00049267,0.00112679,0.00003187,0.00008692
 ,0.00023789,-0.00000275,0.00001638,-0.00001482,0.00012651,0.00010339,0
 .00016028,-0.00016317,-0.00002097,-0.00002849,0.00003618,0.00003777,0.
 00009716,-0.00003559,-0.00000456,-0.00002355,-0.07111000,-0.06179170,0
 .53321643,-0.00037049,-0.00180134,0.00041885,-0.00010070,-0.00002945,0
 .00007031,-0.00020202,0.00007770,0.00008985,-0.00016813,-0.00017856,-0
 .00036503,0.00009958,-0.00000311,0.00002064,0.00009107,0.00004920,-0.0
 0002351,0.00026934,0.00034594,0.00004463,-0.00000081,-0.00000698,0.000
 01608,-0.00227277,0.00052550,-0.00120923,0.00008969,-0.00000131,-0.000
 13119,0.00096760,0.00168715,0.00020282,0.00084287,-0.00054872,-0.00055
 619,-0.00018819,0.00013935,0.00014339,-0.00008559,-0.00002276,0.000172
 16,-0.00167330,-0.00055423,0.00040007,0.00020258,0.00016499,-0.0000413
 3,-0.00021265,-0.00163324,-0.00044863,0.00013910,0.00010228,0.00025525
 ,-0.00000453,-0.00000180,-0.00006525,0.00026839,0.00005196,-0.00005381
 ,-0.00038415,0.00000633,0.00018732,0.00033896,0.00028260,-0.00010333,0
 .00001297,-0.00003603,0.00001924,-0.01160105,-0.00119763,0.00265413,0.
 05546821,0.00001487,0.00014612,-0.00010100,0.00003609,0.00070171,0.000
 24134,-0.00011191,0.00015319,0.00020892,0.00039849,-0.00030934,0.00015
 425,0.00022860,-0.00014840,0.00004952,-0.00002934,-0.00012955,0.000011
 87,-0.00009249,-0.00002035,-0.00004413,-0.00000106,0.00003151,-0.00002
 530,-0.00008392,0.00588680,0.00178110,0.00001152,-0.00027160,-0.000028
 50,0.00157159,-0.00323890,0.00022052,-0.00220524,0.00065782,0.00099191
 ,0.00043665,-0.00001073,-0.00021171,0.00010634,-0.00012456,-0.00010501
 ,0.00329195,0.00177483,-0.00045093,-0.00025530,-0.00061353,-0.00003786
 ,-0.00628258,-0.00272139,-0.00303623,-0.00028664,-0.00050561,-0.000313
 81,-0.00003210,0.00002475,-0.00007468,-0.00043710,-0.00074099,-0.00018
 596,0.00072460,0.00035834,-0.00028452,0.00020980,-0.00030807,-0.000015
 84,0.00000264,0.00006297,-0.00003859,-0.00206449,0.00094438,0.00412878
 ,-0.08769239,0.33066342,0.00008002,-0.00007324,-0.00009586,0.00015364,
 0.00035204,0.00027619,0.00004577,0.00013428,0.00021535,0.00022644,-0.0
 0003160,-0.00017777,0.00009878,-0.00006602,0.00001736,-0.00000930,-0.0
 0004062,-0.00004976,-0.00009749,-0.00003526,-0.00004620,0.00000721,0.0
 0001530,-0.00008644,-0.00080995,0.00243023,0.00260584,0.00008186,-0.00
 002705,-0.00055934,0.00051833,-0.00109540,-0.00083230,-0.00100570,0.00
 053309,0.00098788,0.00020433,-0.00003950,-0.00022110,0.00009613,-0.000
 04312,-0.00027564,0.00176053,0.00089015,-0.00058339,-0.00012418,-0.000
 19222,0.00010150,-0.00401720,-0.00142923,-0.00248114,-0.00015841,-0.00
 020943,-0.00027191,-0.00001140,-0.00001424,-0.00002192,-0.00028977,-0.
 00034989,-0.00021954,0.00041925,0.00012473,-0.00006359,0.00004331,-0.0
 0013803,-0.00008965,0.00003159,0.00002521,0.00000566,0.00059013,0.0114
 5584,-0.00745482,-0.02083890,0.11756902,0.11866142,-0.00204932,-0.0011
 8979,-0.00029309,-0.00018931,0.00057272,0.00017658,-0.00034687,-0.0000
 6589,0.00050289,-0.00002270,-0.00067075,-0.00001672,0.00033734,-0.0001
 0838,0.00009387,0.00011819,-0.00006769,0.00003265,0.00002455,0.0002209
 4,-0.00003030,0.00001173,0.00003986,-0.00002950,0.00046215,0.00534644,
 -0.00075954,0.00001061,-0.00045237,0.00033260,0.00087512,-0.00392015,0
 .00086344,-0.00542778,-0.00041744,0.00288466,0.00072682,0.00018835,-0.
 00049749,0.00047532,-0.00040353,-0.00046410,-0.00443828,0.00399203,-0.
 00020291,0.00411034,0.00268989,-0.00064979,-0.00147669,-0.00189645,-0.
 00095881,0.00010404,-0.00023109,0.00028943,-0.00002472,0.00003459,-0.0
 0015182,0.00007728,-0.00053540,-0.00028537,0.00004675,0.00021504,0.000
 08692,0.00066877,0.00008205,-0.00011265,-0.00000187,-0.00002987,-0.000
 00538,-0.30438387,-0.20239243,0.01505367,0.00485296,-0.00528819,-0.004
 14966,0.31244275,0.00069392,0.00474221,-0.00127608,0.00027432,0.000548
 99,-0.00021518,-0.00011454,-0.00073233,0.00017030,0.00025339,0.0005399
 8,0.00015998,-0.00018724,-0.00008508,-0.00000605,-0.00003066,-0.000171
 19,0.00011022,-0.00048262,-0.00046557,-0.00012787,-0.00000203,0.000069
 17,0.00005043,0.00044603,-0.00078453,0.00012184,0.00009868,-0.00022979
 ,0.00028068,-0.00336978,-0.00225649,0.00057422,-0.00793922,0.00564847,
 0.00531453,0.00228941,-0.00039052,-0.00154884,0.00095875,-0.00048788,-
 0.00135574,0.00834736,-0.00103304,-0.00137799,0.00031714,-0.00253578,-
 0.00027966,-0.00111451,-0.00009187,-0.00003261,-0.00017728,-0.00047709
 ,-0.00002785,-0.00002842,0.00008523,-0.00005555,-0.00023128,-0.0005573
 6,0.00000472,0.00044321,0.00017131,-0.00025146,-0.00013678,-0.00064158
 ,0.00036297,-0.00014758,-0.00001197,-0.00007904,-0.19500525,-0.1485172
 6,0.00779582,-0.00375692,-0.00586920,-0.00193494,0.20353225,0.15508300
 ,-0.00017113,-0.00048201,0.00054991,0.00002290,-0.00008937,0.00006561,
 0.00009767,0.00015577,-0.00000475,-0.00003073,0.00025592,0.00005607,-0
 .00005361,0.00000135,-0.00003088,-0.00001880,0.00002935,-0.00003709,-0
 .00021428,0.00003551,-0.00006615,0.00004035,-0.00003230,-0.00009575,-0
 .00051106,-0.00036481,0.00048000,-0.00003663,0.00022023,-0.00019898,0.
 00041630,0.00063985,-0.00194090,0.00296975,0.00211849,-0.00011230,0.00
 014671,-0.00024060,-0.00028872,0.00043552,0.00019534,-0.00064187,-0.00
 299950,-0.00428152,-0.00548024,0.00087998,0.00240604,0.00013830,0.0001
 1489,0.00007037,-0.00033489,0.00004395,0.00001714,-0.00017434,0.000013
 43,-0.00002180,0.00003243,-0.00002479,0.00008886,-0.00008200,-0.000005
 67,-0.00006218,0.00007237,-0.00009067,0.00003219,-0.00009843,0.0000393
 7,-0.00000239,0.00003294,-0.03426160,-0.02673919,-0.05814770,-0.003571
 37,0.00095268,0.00183936,-0.00787275,-0.00396984,0.06875180,-0.0003120
 2,-0.00076599,0.00016990,-0.00001153,0.00006559,0.00012702,-0.00011020
 ,0.00001666,0.00008064,-0.00009785,0.00005432,-0.00016907,0.00005087,-
 0.00002526,0.00000576,0.00005717,0.00002207,-0.00002695,-0.00002464,0.
 00006120,-0.00000094,0.00001581,0.00000457,-0.00003338,-0.00066726,0.0
 0069032,0.00062579,-0.00006767,0.00019839,-0.00026547,0.00095239,0.000
 29652,-0.00085904,0.00013059,0.00009287,0.00009465,0.00002876,0.000038
 15,-0.00004849,0.00002610,-0.00000337,-0.00008045,-0.00072475,-0.00069
 794,-0.00081415,0.00019634,0.00008777,-0.00013442,0.00005840,-0.000345
 39,-0.00043508,0.00011990,-0.00000327,0.00005470,0.00000497,-0.0000088
 7,-0.00004969,0.00009955,-0.00005679,-0.00012744,-0.00012465,0.0000153
 5,0.00011269,0.00020279,0.00014310,-0.00007631,0.00000687,-0.00002833,
 0.00001559,-0.04570044,-0.03373354,0.05112988,-0.00000266,0.00117659,0
 .00233085,-0.00603580,-0.00684763,0.04344640,0.05225358,0.00012171,0.0
 0042925,0.00001950,-0.00002507,0.00009064,-0.00005339,-0.00001822,-0.0
 0001579,-0.00001023,0.00007043,-0.00000053,0.00018904,0.00001184,-0.00
 002572,-0.00000087,-0.00002223,-0.00003392,0.00002801,-0.00007763,-0.0
 0003116,-0.00003141,0.00000678,-0.00000069,0.00000458,0.00027199,0.000
 60574,-0.00052552,0.00003932,-0.00011751,0.00025894,-0.00006312,-0.000
 71528,0.00020106,-0.00041838,0.00034442,0.00018424,0.00011621,-0.00004
 892,-0.00005877,0.00012081,-0.00001212,-0.00011144,0.00006064,-0.00124
 129,-0.00117819,-0.00015358,0.00013095,0.00032461,-0.00031468,-0.00022
 453,0.00013605,-0.00004828,-0.00012979,-0.00004635,-0.00000633,0.00002
 673,-0.00000133,-0.00005392,-0.00010659,0.00002110,0.00010336,0.000052
 16,-0.00007388,-0.00002127,-0.00011071,0.00003486,-0.00001207,0.000016
 00,-0.00001564,-0.03708357,-0.03690291,0.06050013,0.00095887,0.0046152
 8,-0.00574611,-0.00353578,-0.00287736,0.03056805,0.03970430,0.03900141
 ,0.00012123,0.00020958,0.00006927,0.00001058,-0.00001033,0.00000786,0.
 00002694,-0.00000240,-0.00003932,0.00003911,0.00005400,0.00008732,-0.0
 0001837,-0.00000148,-0.00001071,-0.00001760,-0.00000257,-0.00000156,-0
 .00003183,-0.00004298,-0.00000810,0.00000268,-0.00000308,-0.00000749,0
 .00009356,-0.00012817,0.00024226,0.00002978,0.00001893,0.00001242,-0.0
 0029258,-0.00001185,-0.00000203,0.00025495,-0.00006349,-0.00016204,-0.
 00005255,-0.00000571,0.00004586,-0.00001311,0.00002568,0.00001475,-0.0
 0058482,-0.00072775,0.00003225,0.00002678,0.00008043,0.00001945,-0.000
 28327,-0.00001772,-0.00014085,-0.00002438,-0.00002410,-0.00011126,-0.0
 0000028,-0.00000474,0.00001882,-0.00004276,-0.00000253,-0.00000767,0.0
 0005496,0.00000456,-0.00002410,-0.00006757,-0.00002546,0.00000461,0.00
 000023,0.00000305,0.00000202,0.10099856,0.08981379,-0.47318180,0.00049
 714,-0.00062444,-0.00367454,-0.00621267,-0.00288573,-0.00331771,-0.094
 52382,-0.08611127,0.47884812,0.00109954,0.00206670,-0.00045851,0.00059
 295,0.00099588,0.00033033,0.00034851,0.00039672,-0.00009563,0.00126480
 ,-0.00065623,-0.00043859,0.00024237,-0.00019156,0.00003951,-0.00025976
 ,-0.00023380,-0.00004223,-0.00035214,-0.00038791,-0.00008042,-0.000008
 28,0.00000883,-0.00003046,-0.00149108,0.00965306,0.00768717,0.00024285
 ,-0.00063367,-0.00120673,0.00002218,-0.00545089,-0.00001338,-0.0014023
 9,0.00056049,0.00053688,0.00025660,-0.00020876,-0.00011248,0.00009949,
 0.00002851,-0.00013439,0.00196435,0.00037773,-0.00043858,-0.00026095,-
 0.00019761,0.00003040,-0.02847973,-0.00230698,-0.01052872,-0.00129249,
 -0.00083361,-0.00112871,-0.00006614,-0.00011611,-0.00003762,-0.0016627
 1,-0.00103996,0.00035264,0.00222577,0.00048126,-0.00155426,-0.00047308
 ,-0.00083018,0.00012354,0.00003053,0.00018432,-0.00008646,0.00551078,0
 .00779539,0.00299348,-0.04959201,0.08688681,0.00623099,-0.00354787,0.0
 0050393,0.00165909,-0.00048998,0.00001298,-0.00031785,0.11703316,0.000
 19524,0.00063602,-0.00020094,0.00001245,-0.00061639,-0.00022687,0.0002
 5186,-0.00011222,-0.00013037,-0.00036584,0.00035739,0.00020514,-0.0002
 3533,0.00012811,-0.00005331,-0.00002804,0.00008914,-0.00000103,-0.0000
 6973,-0.00016670,0.00000701,0.00000885,-0.00002043,-0.00002931,0.00230
 590,-0.00455084,-0.00073717,-0.00004455,0.00017960,0.00020506,-0.00197
 465,0.00131994,-0.00065814,0.00138432,-0.00029781,-0.00038716,-0.00028
 329,-0.00006254,0.00008519,-0.00005110,0.00012195,-0.00004540,-0.00215
 971,-0.00119640,0.00018006,0.00017375,0.00047986,0.00007543,0.00432090
 ,0.00716976,0.00337935,0.00022394,0.00041313,0.00014097,0.00003303,-0.
 00003498,0.00011539,0.00017929,0.00067848,0.00016527,-0.00031396,-0.00
 041012,0.00012803,-0.00036756,0.00013052,0.00001496,0.00001113,-0.0000
 3873,0.00003417,0.00418396,-0.01722470,-0.01189227,0.09863857,-0.33552
 896,-0.07836936,0.00386856,0.00202195,-0.00085215,-0.00025225,-0.00333
 786,0.00027117,-0.11966011,0.40134201,0.00007640,0.00037055,-0.0000738
 7,-0.00009764,-0.00013736,-0.00025352,-0.00004347,-0.00008188,-0.00028
 279,0.00002587,0.00018204,0.00031939,-0.00004539,-0.00000030,0.0000069
 4,-0.00002433,-0.00000538,0.00007047,0.00000377,-0.00003572,0.00003667
 ,-0.00000329,-0.00002377,0.00011308,0.00192075,0.00010932,-0.00115192,
 0.00014883,0.00006533,0.00082909,-0.00060035,-0.00034583,0.00097779,0.
 00047206,-0.00032635,-0.00071961,-0.00008553,0.00000104,0.00015749,-0.
 00003711,0.00001821,0.00021535,-0.00094969,-0.00045744,0.00040940,0.00
 006524,0.00007925,-0.00008316,-0.00596073,0.00124790,0.00607459,0.0000
 0834,0.00000306,0.00012868,0.00000296,0.00001985,0.00000434,-0.0001454
 0,0.00003486,0.00043509,0.00001965,0.00002641,-0.00053860,-0.00005060,
 0.00000518,0.00014144,-0.00004014,0.00000517,-0.00003175,0.00209039,-0
 .01312117,0.00019642,0.02668354,-0.13215296,-0.09124738,0.00210374,0.0
 0073737,-0.00115558,-0.00072330,0.00146800,0.00117599,0.10109029,0.105
 67170,0.56812942,-0.00217599,-0.00164219,0.00044379,-0.00061876,-0.001
 25837,0.00004297,-0.00034283,-0.00080816,0.00019321,-0.00083394,0.0014
 6618,-0.00036505,-0.00033002,0.00036138,0.00005069,0.00037957,0.000312
 82,-0.00007046,0.00035015,0.00036837,0.00005372,0.00002422,0.00001441,
 -0.00006116,-0.00047864,-0.01773678,-0.01150069,0.00050834,0.00208899,
 0.00351392,-0.00124073,0.00928860,-0.00040525,0.00182024,-0.00022071,-
 0.00008811,-0.00034267,0.00024461,-0.00002651,-0.00010462,0.00000248,-
 0.00006738,-0.00195889,-0.00037351,0.00021369,0.00024476,0.00028028,0.
 00004467,-0.36835236,-0.00771335,-0.06797470,0.00202822,0.00143170,0.0
 0193794,0.00024507,0.00012167,0.00020505,0.00259077,0.00147873,-0.0005
 6958,-0.00432518,-0.00072339,0.00225971,0.00039320,0.00107563,-0.00018
 682,-0.00003382,-0.00025991,0.00015545,-0.00018349,-0.00592234,-0.0021
 4506,-0.00084323,0.01037752,0.00683784,0.00237452,0.00149284,-0.000167
 35,0.00000603,0.00038000,0.00042864,0.00290091,-0.00520978,-0.00008238
 ,0.36571074,-0.00099060,-0.00173454,0.00085698,0.00027466,0.00040134,-
 0.00005901,-0.00034639,0.00016773,0.00006906,0.00186068,-0.00260057,-0
 .00350229,-0.00004669,0.00037739,0.00010829,0.00008765,-0.00004448,0.0
 0002389,0.00036277,0.00063349,0.00001985,0.00000864,-0.00004391,0.0000
 8050,-0.03473271,-0.00588718,-0.01288794,0.00114582,0.00016276,0.00017
 095,0.00086866,0.00281373,0.00065973,0.00018250,-0.00012105,-0.0001465
 3,-0.00005341,0.00015699,0.00001285,-0.00001670,-0.00007213,0.00010771
 ,-0.00011060,0.00020803,0.00014693,0.00005400,-0.00006172,-0.00005321,
 0.01886511,-0.03208411,-0.01373346,-0.00154861,-0.00009590,-0.00018969
 ,-0.00009473,-0.00007539,-0.00045876,-0.00030772,-0.00005307,0.0001120
 5,-0.00024691,-0.00053419,0.00019360,0.00046484,0.00005367,-0.00004345
 ,0.00000475,0.00002507,-0.00002494,-0.00087346,-0.00007792,0.00006792,
 0.00670443,0.00034203,0.00098336,0.00044512,-0.00053891,-0.00027483,0.
 00016607,0.00004280,-0.00007615,-0.00532783,-0.01044442,-0.00372029,0.
 01317309,0.04878538,-0.00025604,-0.00033921,0.00012288,-0.00035087,-0.
 00126572,-0.00101177,-0.00000065,-0.00003583,0.00033543,0.00109885,-0.
 00344479,-0.00295909,0.00011677,0.00006024,-0.00022222,0.00005623,0.00
 018402,0.00009245,0.00004649,0.00009283,0.00000289,0.00004402,0.000016
 42,-0.00009553,-0.03484693,-0.00691385,-0.01040939,-0.00046279,0.00091
 359,0.00076546,0.00097015,0.00204328,-0.00036960,0.00028684,0.00003438
 ,0.00030322,-0.00006033,0.00001675,-0.00006013,-0.00003560,0.00000779,
 -0.00012325,-0.00028237,-0.00006075,-0.00011682,0.00003677,0.00008362,
 0.00004157,-0.03817068,-0.02025725,-0.04851814,-0.00130749,-0.00012630
 ,0.00002931,-0.00017321,-0.00026997,-0.00033117,0.00352058,0.00206013,
 -0.00112409,-0.00294428,-0.00105868,0.00397220,0.00002236,0.00029073,-
 0.00014207,0.00002440,-0.00009016,0.00006217,-0.00027246,-0.00084927,-
 0.00084558,0.00258098,0.00287615,0.00242970,0.00039205,-0.00001038,0.0
 0016269,0.00022278,-0.00020464,0.00003531,0.00686604,-0.00529301,-0.01
 347029,0.07030844,0.03072695,0.07203893,-0.00013538,-0.00020109,-0.000
 03738,-0.00006858,-0.00007951,-0.00012774,-0.00012820,-0.00009088,-0.0
 0012503,-0.00001414,0.00006425,-0.00002752,0.00000867,-0.00000783,0.00
 000683,0.00003387,0.00001888,0.00003487,0.00002961,0.00004323,0.000028
 49,-0.00000008,-0.00001659,0.00007180,0.00044796,0.00002582,-0.0004779
 7,0.00004664,0.00005577,0.00025615,0.00010283,0.00012608,0.00051352,0.
 00011369,-0.00013317,-0.00025861,-0.00000334,0.00003547,0.00005479,0.0
 0000057,-0.00002835,0.00009569,-0.00019874,0.00006307,0.00015231,0.000
 04786,-0.00002427,-0.00002701,-0.00323991,0.00007016,0.00230047,0.0000
 5115,0.00001891,0.00015091,-0.00000532,0.00000641,-0.00003756,0.000065
 01,0.00002951,0.00023276,-0.00018440,0.00001535,-0.00026382,0.00012551
 ,0.00012423,0.00005322,-0.00002932,-0.00002605,-0.00000723,-0.00102174
 ,0.00104275,0.00020878,0.00405894,-0.00061129,0.01175497,0.00022583,-0
 .00007950,-0.00029638,0.00015931,-0.00012509,-0.00010167,-0.04445616,0
 .01522417,-0.12582249,0.00258845,0.00002756,-0.00743004,0.04137939,-0.
 00017771,-0.00015471,-0.00000950,-0.00005591,0.00009186,0.00005168,-0.
 00011600,-0.00004915,-0.00003314,-0.00003927,0.00001011,-0.00003286,0.
 00002843,-0.00002043,0.00001683,0.00003355,-0.00000378,0.00000154,0.00
 003435,0.00002668,0.00002068,-0.00001009,0.00001007,0.00003645,-0.0001
 3820,0.00013507,-0.00028802,-0.00005796,-0.00006422,-0.00001294,0.0002
 3695,-0.00011531,0.00035424,-0.00013586,-0.00007704,-0.00023354,0.0000
 3039,0.00004677,0.00005140,-0.00001836,-0.00002542,0.00011769,0.000133
 00,0.00014991,0.00015591,-0.00001879,-0.00012085,-0.00008086,0.0011330
 5,-0.00021131,-0.00007584,0.00006963,-0.00003178,0.00006833,-0.0000015
 0,0.00001953,-0.00002237,0.00012927,-0.00012689,-0.00008436,-0.0001262
 8,0.00013225,0.00011171,0.00013485,0.00003853,0.00002187,-0.00002013,-
 0.00000547,-0.00000664,0.00084707,-0.00266993,0.00109481,-0.01227041,0
 .00417800,-0.04467800,-0.00002266,-0.00015554,-0.00037414,-0.00006520,
 0.00057729,0.00029074,0.02812257,-0.04102475,0.04036322,-0.00209080,0.
 00029910,0.00081296,-0.01556797,0.03914142,-0.00009264,-0.00015796,0.0
 0003052,-0.00001847,0.00001315,0.00004170,-0.00001534,-0.00000425,0.00
 006474,-0.00010019,-0.00000049,0.00000625,0.00000465,0.00000540,0.0000
 0310,0.00001321,0.00000372,-0.00000763,0.00002170,0.00002972,-0.000001
 79,-0.00000200,0.00000495,-0.00001674,-0.00005721,-0.00020371,-0.00036
 253,-0.00002976,0.00001298,0.00003845,0.00017190,0.00018076,0.00004893
 ,-0.00008486,0.00003133,0.00008912,0.00001329,0.00001509,-0.00001351,-
 0.00000249,-0.00001488,-0.00000758,0.00014979,0.00009792,-0.00003805,-
 0.00001103,-0.00002779,0.00000502,0.00203023,-0.00003518,0.00042345,0.
 00006402,0.00002897,0.00002442,0.00000431,0.00000379,0.00000647,0.0000
 7882,0.00001011,-0.00011191,-0.00009929,-0.00001763,0.00014882,0.00003
 433,0.00002456,-0.00003290,0.00000795,-0.00000647,0.00001165,0.0002260
 2,0.00008830,0.00081550,-0.00704861,0.00854541,-0.01868799,-0.00011995
 ,-0.00024827,0.00002679,-0.00004865,0.00023086,0.00007286,-0.11123537,
 -0.01180244,-0.47041316,-0.00297924,0.00082991,-0.00059507,0.11912490,
 0.00236214,0.48843105\\0.00000390,-0.00000428,0.00000759,0.00000817,0.
 00000061,0.00000142,-0.00000138,-0.00000901,0.00000960,-0.00001092,-0.
 00000556,0.00000397,-0.00000142,-0.00000435,-0.00000076,-0.00000532,-0
 .00000293,-0.00000008,-0.00000047,-0.00000019,0.00000077,-0.00000171,-
 0.00000083,-0.00001277,0.00000018,-0.00000409,-0.00000166,0.00000024,-
 0.00000038,-0.00000510,-0.00000476,-0.00000437,-0.00000193,0.00000214,
 0.00000802,0.00000668,-0.00000039,-0.00000194,0.00000249,0.00000133,0.
 00000065,-0.00000083,0.00000846,-0.00000561,0.00000698,-0.00000323,0.0
 0000790,-0.00000340,0.00000073,0.00000516,-0.00000544,-0.00001575,-0.0
 0000739,-0.00000351,0.00000938,-0.00000432,0.00000648,-0.00000023,0.00
 000338,0.00000356,-0.00000026,0.00000002,-0.00000017,0.00000257,0.0000
 1603,0.00002867,0.00001348,-0.00000334,-0.00000748,-0.00000540,-0.0000
 0091,0.00000275,-0.00000059,0.00000579,-0.00000074,0.00000224,0.000002
 40,-0.00000014,0.00000231,0.00000279,-0.00001335,0.00000025,0.00000337
 ,-0.00000866,-0.00000189,0.00000139,-0.00000459,-0.00000166,0.00000197
 ,-0.00001036\\\@


 THE WISE MAN HAS THE POWER TO REASON AWAY
 WHAT A FOOL BELIEVES.
                     - DOOBIE BROTHERS
 Job cpu time:       0 days  0 hours 34 minutes 35.8 seconds.
 File lengths (MBytes):  RWF=    220 Int=      0 D2E=      0 Chk=      6 Scr=      1
 Normal termination of Gaussian 09 at Tue Jan 31 07:38:03 2017.
