 Entering Gaussian System, Link 0=g09
 Initial command:
 /home/chongee/g09/l1.exe "/home/chongee/BasisSet/H/New/Gau-14960.inp" -scrdir="/home/chongee/BasisSet/H/New/"
 Entering Link 1 = /home/chongee/g09/l1.exe PID=     14962.
  
 Copyright (c) 1988,1990,1992,1993,1995,1998,2003,2009,2013,
            Gaussian, Inc.  All Rights Reserved.
  
 This is part of the Gaussian(R) 09 program.  It is based on
 the Gaussian(R) 03 system (copyright 2003, Gaussian, Inc.),
 the Gaussian(R) 98 system (copyright 1998, Gaussian, Inc.),
 the Gaussian(R) 94 system (copyright 1995, Gaussian, Inc.),
 the Gaussian 92(TM) system (copyright 1992, Gaussian, Inc.),
 the Gaussian 90(TM) system (copyright 1990, Gaussian, Inc.),
 the Gaussian 88(TM) system (copyright 1988, Gaussian, Inc.),
 the Gaussian 86(TM) system (copyright 1986, Carnegie Mellon
 University), and the Gaussian 82(TM) system (copyright 1983,
 Carnegie Mellon University). Gaussian is a federally registered
 trademark of Gaussian, Inc.
  
 This software contains proprietary and confidential information,
 including trade secrets, belonging to Gaussian, Inc.
  
 This software is provided under written license and may be
 used, copied, transmitted, or stored only in accord with that
 written license.
  
 The following legend is applicable only to US Government
 contracts under FAR:
  
                    RESTRICTED RIGHTS LEGEND
  
 Use, reproduction and disclosure by the US Government is
 subject to restrictions as set forth in subparagraphs (a)
 and (c) of the Commercial Computer Software - Restricted
 Rights clause in FAR 52.227-19.
  
 Gaussian, Inc.
 340 Quinnipiac St., Bldg. 40, Wallingford CT 06492
  
  
 ---------------------------------------------------------------
 Warning -- This program may not be used in any manner that
 competes with the business of Gaussian, Inc. or will provide
 assistance to any competitor of Gaussian, Inc.  The licensee
 of this program is prohibited from giving any competitor of
 Gaussian, Inc. access to this program.  By using this program,
 the user acknowledges that Gaussian, Inc. is engaged in the
 business of creating and licensing software in the field of
 computational chemistry and represents and warrants to the
 licensee that it is not a competitor of Gaussian, Inc. and that
 it will not use this program in any manner prohibited above.
 ---------------------------------------------------------------
  

 Cite this work as:
 Gaussian 09, Revision D.01,
 M. J. Frisch, G. W. Trucks, H. B. Schlegel, G. E. Scuseria, 
 M. A. Robb, J. R. Cheeseman, G. Scalmani, V. Barone, B. Mennucci, 
 G. A. Petersson, H. Nakatsuji, M. Caricato, X. Li, H. P. Hratchian, 
 A. F. Izmaylov, J. Bloino, G. Zheng, J. L. Sonnenberg, M. Hada, 
 M. Ehara, K. Toyota, R. Fukuda, J. Hasegawa, M. Ishida, T. Nakajima, 
 Y. Honda, O. Kitao, H. Nakai, T. Vreven, J. A. Montgomery, Jr., 
 J. E. Peralta, F. Ogliaro, M. Bearpark, J. J. Heyd, E. Brothers, 
 K. N. Kudin, V. N. Staroverov, T. Keith, R. Kobayashi, J. Normand, 
 K. Raghavachari, A. Rendell, J. C. Burant, S. S. Iyengar, J. Tomasi, 
 M. Cossi, N. Rega, J. M. Millam, M. Klene, J. E. Knox, J. B. Cross, 
 V. Bakken, C. Adamo, J. Jaramillo, R. Gomperts, R. E. Stratmann, 
 O. Yazyev, A. J. Austin, R. Cammi, C. Pomelli, J. W. Ochterski, 
 R. L. Martin, K. Morokuma, V. G. Zakrzewski, G. A. Voth, 
 P. Salvador, J. J. Dannenberg, S. Dapprich, A. D. Daniels, 
 O. Farkas, J. B. Foresman, J. V. Ortiz, J. Cioslowski, 
 and D. J. Fox, Gaussian, Inc., Wallingford CT, 2013.
 
 ******************************************
 Gaussian 09:  EM64L-G09RevD.01 24-Apr-2013
                18-Nov-2016 
 ******************************************
 ---------------------------
 # opt=cartesian freq hf/gen
 ---------------------------
 1/10=7,18=10,38=1/1,3;
 2/12=2,17=6,18=5,29=2,40=1/2;
 3/5=7,11=9,16=1,25=1,30=1,71=1/1,2,3;
 4//1;
 5/5=2,38=5/2;
 6/7=2,8=2,9=2,10=2,28=1/1;
 7/7=1,29=1/1,2,3,16;
 1/10=7,18=10/3(2);
 2/29=1/2;
 99/12=1/99;
 2/29=1/2;
 3/5=7,6=1,11=9,16=1,25=1,30=1,71=1,82=7/1,2,3;
 4/5=5,16=3,69=1/1;
 5/5=2,38=5/2;
 7/7=1/1,2,3,16;
 1/18=10/3(-5);
 2/29=1/2;
 6/7=2,8=2,9=2,10=2,19=2,28=1/1;
 99/9=1,12=1/99;
 ----
 chch
 ----
 Symbolic Z-matrix:
 Charge =  0 Multiplicity = 1
 C                    -6.59034   1.19069   0. 
 C                    -5.38634   1.24766   0. 
 H                    -7.64754   1.14067   0. 
 H                    -4.32914   1.29768   0. 
 

 GradGradGradGradGradGradGradGradGradGradGradGradGradGradGradGradGradGrad
 Berny optimization.
 Initialization pass.
 No Z-matrix variables, so optimization will use Cartesian coordinates.
 Trust Radius=3.00D-01 FncErr=1.00D-07 GrdErr=1.00D-07
 Number of steps in this run=     22 maximum allowed number of steps=    100.
 GradGradGradGradGradGradGradGradGradGradGradGradGradGradGradGradGradGrad

 ---------------------------------------------------------------------------------------------------
                            Z-MATRIX (ANGSTROMS AND DEGREES)
   CD    Cent   Atom    N1       Length/X        N2       Alpha/Y        N3        Beta/Z          J
 ---------------------------------------------------------------------------------------------------
      1      1  C        0  -6.590340          1.190690          0.000000
      2      2  C        0  -5.386340          1.247660          0.000000
      3      3  H        0  -7.647540          1.140670          0.000000
      4      4  H        0  -4.329140          1.297680          0.000000
 ---------------------------------------------------------------------------------------------------
                         Z-Matrix orientation:                         
 ---------------------------------------------------------------------
 Center     Atomic      Atomic             Coordinates (Angstroms)
 Number     Number       Type             X           Y           Z
 ---------------------------------------------------------------------
      1          6           0       -6.590340    1.190690    0.000000
      2          6           0       -5.386340    1.247660    0.000000
      3          1           0       -7.647540    1.140670    0.000000
      4          1           0       -4.329140    1.297680    0.000000
 ---------------------------------------------------------------------
                    Distance matrix (angstroms):
                    1          2          3          4
     1  C    0.000000
     2  C    1.205347   0.000000
     3  H    1.058383   2.263730   0.000000
     4  H    2.263730   1.058383   3.322112   0.000000
 Stoichiometry    C2H2
 Framework group  C*V[C*(HCCH)]
 Deg. of freedom     3
 Full point group                 C*V     NOp   4
 Largest Abelian subgroup         C2V     NOp   4
 Largest concise Abelian subgroup C1      NOp   1
                         Standard orientation:                         
 ---------------------------------------------------------------------
 Center     Atomic      Atomic             Coordinates (Angstroms)
 Number     Number       Type             X           Y           Z
 ---------------------------------------------------------------------
      1          6           0        0.000000    0.000000    0.602674
      2          6           0        0.000000    0.000000   -0.602674
      3          1           0        0.000000    0.000000    1.661056
      4          1           0        0.000000    0.000000   -1.661056
 ---------------------------------------------------------------------
 Rotational constants (GHZ):      0.0000000     35.3942432     35.3942432
 General basis read from cards:  (5D, 7F)
 There are    14 symmetry adapted cartesian basis functions of A1  symmetry.
 There are     0 symmetry adapted cartesian basis functions of A2  symmetry.
 There are     4 symmetry adapted cartesian basis functions of B1  symmetry.
 There are     4 symmetry adapted cartesian basis functions of B2  symmetry.
 There are    14 symmetry adapted basis functions of A1  symmetry.
 There are     0 symmetry adapted basis functions of A2  symmetry.
 There are     4 symmetry adapted basis functions of B1  symmetry.
 There are     4 symmetry adapted basis functions of B2  symmetry.
    22 basis functions,    52 primitive gaussians,    22 cartesian basis functions
     7 alpha electrons        7 beta electrons
       nuclear repulsion energy        24.7691816250 Hartrees.
 NAtoms=    4 NActive=    4 NUniq=    4 SFac= 1.00D+00 NAtFMM=   60 NAOKFM=F Big=F
 Integral buffers will be    131072 words long.
 Raffenetti 1 integral format.
 Two-electron integral symmetry is turned on.
 One-electron integrals computed using PRISM.
 NBasis=    22 RedAO= T EigKep=  9.82D-03  NBF=    14     0     4     4
 NBsUse=    22 1.00D-06 EigRej= -1.00D+00 NBFU=    14     0     4     4
 ExpMin= 1.02D-01 ExpMax= 7.47D+02 ExpMxC= 1.37D+02 IAcc=1 IRadAn=         1 AccDes= 0.00D+00
 Harris functional with IExCor=  205 and IRadAn=       1 diagonalized for initial guess.
 HarFok:  IExCor=  205 AccDes= 0.00D+00 IRadAn=         1 IDoV= 1 UseB2=F ITyADJ=14
 ICtDFT=  3500011 ScaDFX=  1.000000  1.000000  1.000000  1.000000
 FoFCou: FMM=F IPFlag=           0 FMFlag=      100000 FMFlg1=           0
         NFxFlg=           0 DoJE=T BraDBF=F KetDBF=T FulRan=T
         wScrn=  0.000000 ICntrl=     500 IOpCl=  0 I1Cent=   200000004 NGrid=           0
         NMat0=    1 NMatS0=      1 NMatT0=    0 NMatD0=    1 NMtDS0=    0 NMtDT0=    0
 Petite list used in FoFCou.
 Initial guess orbital symmetries:
       Occupied  (SG) (SG) (SG) (SG) (SG) (PI) (PI)
       Virtual   (PI) (PI) (SG) (SG) (SG) (SG) (PI) (PI) (PI) (PI)
                 (SG) (SG) (SG) (SG) (SG)
 The electronic state of the initial guess is 1-SG.
 Keep R1 ints in memory in symmetry-blocked form, NReq=866593.
 Requested convergence on RMS density matrix=1.00D-08 within 128 cycles.
 Requested convergence on MAX density matrix=1.00D-06.
 Requested convergence on             energy=1.00D-06.
 No special actions if energy rises.
 SCF Done:  E(RHF) =  -76.6628755267     A.U. after    8 cycles
            NFock=  8  Conv=0.56D-08     -V/T= 2.0060

 **********************************************************************

            Population analysis using the SCF density.

 **********************************************************************

 Orbital symmetries:
       Occupied  (SG) (SG) (SG) (SG) (SG) (PI) (PI)
       Virtual   (PI) (PI) (SG) (SG) (SG) (SG) (PI) (PI) (SG) (PI)
                 (PI) (SG) (SG) (SG) (SG)
 The electronic state is 1-SG.
 Alpha  occ. eigenvalues --  -11.26780 -11.26487  -1.02996  -0.75696  -0.66696
 Alpha  occ. eigenvalues --   -0.39707  -0.39707
 Alpha virt. eigenvalues --    0.21890   0.21890   0.22125   0.26508   0.35015
 Alpha virt. eigenvalues --    0.35669   0.69752   0.69752   0.85215   0.87001
 Alpha virt. eigenvalues --    0.87001   0.88742   1.20829   1.22531   1.67931
          Condensed to atoms (all electrons):
               1          2          3          4
     1  C    5.092361   0.791666   0.358022  -0.067004
     2  C    0.791666   5.092361  -0.067004   0.358022
     3  H    0.358022  -0.067004   0.531236   0.002702
     4  H   -0.067004   0.358022   0.002702   0.531236
 Mulliken charges:
               1
     1  C   -0.175045
     2  C   -0.175045
     3  H    0.175045
     4  H    0.175045
 Sum of Mulliken charges =   0.00000
 Mulliken charges with hydrogens summed into heavy atoms:
               1
     1  C    0.000000
     2  C    0.000000
 Electronic spatial extent (au):  <R**2>=             60.1514
 Charge=              0.0000 electrons
 Dipole moment (field-independent basis, Debye):
    X=              0.0000    Y=              0.0000    Z=              0.0000  Tot=              0.0000
 Quadrupole moment (field-independent basis, Debye-Ang):
   XX=            -13.2723   YY=            -13.2723   ZZ=             -6.9207
   XY=              0.0000   XZ=              0.0000   YZ=              0.0000
 Traceless Quadrupole moment (field-independent basis, Debye-Ang):
   XX=             -2.1172   YY=             -2.1172   ZZ=              4.2344
   XY=              0.0000   XZ=              0.0000   YZ=              0.0000
 Octapole moment (field-independent basis, Debye-Ang**2):
  XXX=              0.0000  YYY=              0.0000  ZZZ=              0.0000  XYY=              0.0000
  XXY=              0.0000  XXZ=              0.0000  XZZ=              0.0000  YZZ=              0.0000
  YYZ=              0.0000  XYZ=              0.0000
 Hexadecapole moment (field-independent basis, Debye-Ang**3):
 XXXX=            -13.1125 YYYY=            -13.1125 ZZZZ=            -37.0656 XXXY=              0.0000
 XXXZ=              0.0000 YYYX=              0.0000 YYYZ=              0.0000 ZZZX=              0.0000
 ZZZY=              0.0000 XXYY=             -4.3708 XXZZ=            -11.4906 YYZZ=            -11.4906
 XXYZ=              0.0000 YYXZ=              0.0000 ZZXY=              0.0000
 N-N= 2.476918162499D+01 E-N=-2.275108713268D+02  KE= 7.620811635819D+01
 Symmetry A1   KE= 7.221512149654D+01
 Symmetry A2   KE= 0.000000000000D+00
 Symmetry B1   KE= 1.996497430826D+00
 Symmetry B2   KE= 1.996497430826D+00
 Calling FoFJK, ICntrl=      2127 FMM=F ISym2X=1 I1Cent= 0 IOpClX= 0 NMat=1 NMatS=1 NMatT=0.
 ***** Axes restored to original set *****
 -------------------------------------------------------------------
 Center     Atomic                   Forces (Hartrees/Bohr)
 Number     Number              X              Y              Z
 -------------------------------------------------------------------
      1        6           0.004214540    0.000199415    0.000000000
      2        6          -0.004214540   -0.000199415    0.000000000
      3        1          -0.005168215   -0.000244539    0.000000000
      4        1           0.005168215    0.000244539    0.000000000
 -------------------------------------------------------------------
 Cartesian Forces:  Max     0.005168215 RMS     0.002725569

 GradGradGradGradGradGradGradGradGradGradGradGradGradGradGradGradGradGrad
 Berny optimization.
 Search for a local minimum.
 Step number   1 out of a maximum of   22
 All quantities printed in internal units (Hartrees-Bohrs-Radians)
 Second derivative matrix not updated -- first step.
 The second derivative matrix:
                          X1        Y1        Z1        X2        Y2
           X1           1.40643
           Y1           0.05841   0.17468
           Z1           0.00000   0.00000   0.17192
           X2          -1.01983  -0.04201   0.00000   1.40643
           Y2          -0.04201  -0.13391   0.00000   0.05841   0.17468
           Z2           0.00000   0.00000  -0.13192   0.00000   0.00000
           X3          -0.38668  -0.01474   0.00000   0.00008  -0.00166
           Y3          -0.01474  -0.07582   0.00000  -0.00166   0.03504
           Z3           0.00000   0.00000  -0.07512   0.00000   0.00000
           X4           0.00008  -0.00166   0.00000  -0.38668  -0.01474
           Y4          -0.00166   0.03504   0.00000  -0.01474  -0.07582
           Z4           0.00000   0.00000   0.03512   0.00000   0.00000
                          Z2        X3        Y3        Z3        X4
           Z2           0.17192
           X3           0.00000   0.38660
           Y3           0.00000   0.01640   0.04077
           Z3           0.03512   0.00000   0.00000   0.04000
           X4           0.00000   0.00000   0.00000   0.00000   0.38660
           Y4           0.00000   0.00000   0.00000   0.00000   0.01640
           Z4          -0.07512   0.00000   0.00000   0.00000   0.00000
                          Y4        Z4
           Y4           0.04077
           Z4           0.00000   0.04000
 ITU=  0
     Eigenvalues ---    0.06799   0.06799   0.29688   0.29688   0.31641
     Eigenvalues ---    0.65849   2.50197
 RFO step:  Lambda=-1.39051285D-04 EMin= 6.79905406D-02
 ClnCor:  largest displacement from symmetrization is 5.44D-17 for atom     2.
 Linear search not attempted -- first point.
 ClnCor:  largest displacement from symmetrization is 4.44D-16 for atom     1.
 TrRot=  0.000000  0.000000  0.000000  0.000000  0.000000  0.000000
 Variable       Old X    -DE/DX   Delta X   Delta X   Delta X     New X
                                 (Linear)    (Quad)   (Total)
    X1      -12.45394   0.00421   0.00000  -0.00047  -0.00047 -12.45440
    Y1        2.25008   0.00020   0.00000  -0.00002  -0.00002   2.25006
    Z1        0.00000   0.00000   0.00000   0.00000   0.00000   0.00000
    X2      -10.17871  -0.00421   0.00000   0.00047   0.00047 -10.17824
    Y2        2.35773  -0.00020   0.00000   0.00002   0.00002   2.35776
    Z2        0.00000   0.00000   0.00000   0.00000   0.00000   0.00000
    X3      -14.45176  -0.00517   0.00000  -0.01380  -0.01380 -14.46556
    Y3        2.15555  -0.00024   0.00000  -0.00065  -0.00065   2.15490
    Z3        0.00000   0.00000   0.00000   0.00000   0.00000   0.00000
    X4       -8.18089   0.00517   0.00000   0.01380   0.01380  -8.16709
    Y4        2.45226   0.00024   0.00000   0.00065   0.00065   2.45292
    Z4        0.00000   0.00000   0.00000   0.00000   0.00000   0.00000
         Item               Value     Threshold  Converged?
 Maximum Force            0.005168     0.000450     NO 
 RMS     Force            0.002726     0.000300     NO 
 Maximum Displacement     0.013802     0.001800     NO 
 RMS     Displacement     0.005644     0.001200     NO 
 Predicted change in Energy=-6.955223D-05
 GradGradGradGradGradGradGradGradGradGradGradGradGradGradGradGradGradGrad

                          Input orientation:                          
 ---------------------------------------------------------------------
 Center     Atomic      Atomic             Coordinates (Angstroms)
 Number     Number       Type             X           Y           Z
 ---------------------------------------------------------------------
      1          6           0       -6.590586    1.190679    0.000000
      2          6           0       -5.386094    1.247671    0.000000
      3          1           0       -7.654844    1.140323    0.000000
      4          1           0       -4.321836    1.298027    0.000000
 ---------------------------------------------------------------------
                    Distance matrix (angstroms):
                    1          2          3          4
     1  C    0.000000
     2  C    1.205840   0.000000
     3  H    1.065448   2.271288   0.000000
     4  H    2.271288   1.065448   3.336736   0.000000
 Stoichiometry    C2H2
 Framework group  D*H[C*(HC.CH)]
 Deg. of freedom     2
 Full point group                 D*H     NOp   8
 Omega: Change in point group or standard orientation.

 Old FWG=C*V  [C*(H1C1C1H1)]
 New FWG=D*H  [C*(H1C1.C1H1)]
 Largest Abelian subgroup         D2H     NOp   8
 Largest concise Abelian subgroup C2      NOp   2
                         Standard orientation:                         
 ---------------------------------------------------------------------
 Center     Atomic      Atomic             Coordinates (Angstroms)
 Number     Number       Type             X           Y           Z
 ---------------------------------------------------------------------
      1          6           0        0.000000    0.000000    0.602920
      2          6           0        0.000000    0.000000   -0.602920
      3          1           0        0.000000    0.000000    1.668368
      4          1           0        0.000000    0.000000   -1.668368
 ---------------------------------------------------------------------
 Rotational constants (GHZ):      0.0000000     35.2554570     35.2554570
 Basis read from rwf:  (5D, 7F)
 There are     7 symmetry adapted cartesian basis functions of AG  symmetry.
 There are     0 symmetry adapted cartesian basis functions of B1G symmetry.
 There are     2 symmetry adapted cartesian basis functions of B2G symmetry.
 There are     2 symmetry adapted cartesian basis functions of B3G symmetry.
 There are     0 symmetry adapted cartesian basis functions of AU  symmetry.
 There are     7 symmetry adapted cartesian basis functions of B1U symmetry.
 There are     2 symmetry adapted cartesian basis functions of B2U symmetry.
 There are     2 symmetry adapted cartesian basis functions of B3U symmetry.
 There are     7 symmetry adapted basis functions of AG  symmetry.
 There are     0 symmetry adapted basis functions of B1G symmetry.
 There are     2 symmetry adapted basis functions of B2G symmetry.
 There are     2 symmetry adapted basis functions of B3G symmetry.
 There are     0 symmetry adapted basis functions of AU  symmetry.
 There are     7 symmetry adapted basis functions of B1U symmetry.
 There are     2 symmetry adapted basis functions of B2U symmetry.
 There are     2 symmetry adapted basis functions of B3U symmetry.
    22 basis functions,    52 primitive gaussians,    22 cartesian basis functions
     7 alpha electrons        7 beta electrons
       nuclear repulsion energy        24.7128942385 Hartrees.
 NAtoms=    4 NActive=    4 NUniq=    2 SFac= 4.00D+00 NAtFMM=   60 NAOKFM=F Big=F
 Integral buffers will be    131072 words long.
 Raffenetti 1 integral format.
 Two-electron integral symmetry is turned on.
 One-electron integrals computed using PRISM.
 NBasis=    22 RedAO= T EigKep=  6.94D-03  NBF=     7     0     2     2     0     7     2     2
 NBsUse=    22 1.00D-06 EigRej= -1.00D+00 NBFU=     7     0     2     2     0     7     2     2
 Initial guess from the checkpoint file:  "/home/chongee/BasisSet/H/New/Gau-14962.chk"
 B after Tr=     0.000000    0.000000    0.000000
         Rot=    1.000000    0.000000    0.000000    0.000000 Ang=   0.00 deg.
 Initial guess orbital symmetries:
       Occupied  (SGG) (SGU) (SGG) (SGU) (SGG) (PIU) (PIU)
       Virtual   (SGG) (SGG) (SGG) (SGG) (PIG) (PIG) (PIG) (PIG)
                 (SGU) (SGU) (SGU) (SGU) (SGU) (PIU) (PIU)
 Keep R1 ints in memory in symmetry-blocked form, NReq=867127.
 Requested convergence on RMS density matrix=1.00D-08 within 128 cycles.
 Requested convergence on MAX density matrix=1.00D-06.
 Requested convergence on             energy=1.00D-06.
 No special actions if energy rises.
 SCF Done:  E(RHF) =  -76.6629318202     A.U. after    7 cycles
            NFock=  7  Conv=0.64D-08     -V/T= 2.0063
 Calling FoFJK, ICntrl=      2127 FMM=F ISym2X=1 I1Cent= 0 IOpClX= 0 NMat=1 NMatS=1 NMatT=0.
 ***** Axes restored to original set *****
 -------------------------------------------------------------------
 Center     Atomic                   Forces (Hartrees/Bohr)
 Number     Number              X              Y              Z
 -------------------------------------------------------------------
      1        6          -0.001168903   -0.000055308    0.000000000
      2        6           0.001168903    0.000055308    0.000000000
      3        1           0.000957655    0.000045312    0.000000000
      4        1          -0.000957655   -0.000045312    0.000000000
 -------------------------------------------------------------------
 Cartesian Forces:  Max     0.001168903 RMS     0.000617596

 GradGradGradGradGradGradGradGradGradGradGradGradGradGradGradGradGradGrad
 Berny optimization.
 Search for a local minimum.
 Step number   2 out of a maximum of   22
 All quantities printed in internal units (Hartrees-Bohrs-Radians)
 Update second derivatives using D2CorN and points    1    2
 DE= -5.63D-05 DEPred=-6.96D-05 R= 8.09D-01
 TightC=F SS=  1.41D+00  RLast= 1.96D-02 DXNew= 5.0454D-01 5.8657D-02
 Trust test= 8.09D-01 RLast= 1.96D-02 DXMaxT set to 3.00D-01
 The second derivative matrix:
                          X1        Y1        Z1        X2        Y2
           X1           1.40501
           Y1           0.05834   0.17468
           Z1           0.00000   0.00000   0.17192
           X2          -1.01840  -0.04194   0.00000   1.40501
           Y2          -0.04194  -0.13390   0.00000   0.05834   0.17468
           Z2           0.00000   0.00000  -0.13192   0.00000   0.00000
           X3          -0.40720  -0.01571   0.00000   0.02059  -0.00069
           Y3          -0.01571  -0.07586   0.00000  -0.00069   0.03509
           Z3           0.00000   0.00000  -0.07512   0.00000   0.00000
           X4           0.02059  -0.00069   0.00000  -0.40720  -0.01571
           Y4          -0.00069   0.03509   0.00000  -0.01571  -0.07586
           Z4           0.00000   0.00000   0.03512   0.00000   0.00000
                          Z2        X3        Y3        Z3        X4
           Z2           0.17192
           X3           0.00000   0.42125
           Y3           0.00000   0.01804   0.04085
           Z3           0.03512   0.00000   0.00000   0.04000
           X4           0.00000  -0.03464  -0.00164   0.00000   0.42125
           Y4           0.00000  -0.00164  -0.00008   0.00000   0.01804
           Z4          -0.07512   0.00000   0.00000   0.00000   0.00000
                          Y4        Z4
           Y4           0.04085
           Z4           0.00000   0.04000
 ITU=  1  0
     Eigenvalues ---    0.06799   0.06799   0.29735   0.29735   0.36771
     Eigenvalues ---    0.65849   2.51727
 RFO step:  Lambda=-9.73281238D-08 EMin= 6.79905406D-02
 ClnCor:  largest displacement from symmetrization is 5.92D-15 for atom     4.
 Quartic linear search produced a step of -0.15703.
 ClnCor:  largest displacement from symmetrization is 3.55D-15 for atom     4.
 TrRot=  0.000000  0.000000  0.000000  0.000000  0.000000  0.000000
 Variable       Old X    -DE/DX   Delta X   Delta X   Delta X     New X
                                 (Linear)    (Quad)   (Total)
    X1      -12.45440  -0.00117   0.00007  -0.00015  -0.00008 -12.45448
    Y1        2.25006  -0.00006   0.00000  -0.00001   0.00000   2.25005
    Z1        0.00000   0.00000   0.00000   0.00000   0.00000   0.00000
    X2      -10.17824   0.00117  -0.00007   0.00015   0.00008 -10.17816
    Y2        2.35776   0.00006   0.00000   0.00001   0.00000   2.35776
    Z2        0.00000   0.00000   0.00000   0.00000   0.00000   0.00000
    X3      -14.46556   0.00096   0.00217  -0.00012   0.00205 -14.46351
    Y3        2.15490   0.00005   0.00010  -0.00001   0.00010   2.15499
    Z3        0.00000   0.00000   0.00000   0.00000   0.00000   0.00000
    X4       -8.16709  -0.00096  -0.00217   0.00012  -0.00205  -8.16913
    Y4        2.45292  -0.00005  -0.00010   0.00001  -0.00010   2.45282
    Z4        0.00000   0.00000   0.00000   0.00000   0.00000   0.00000
         Item               Value     Threshold  Converged?
 Maximum Force            0.001169     0.000450     NO 
 RMS     Force            0.000618     0.000300     NO 
 Maximum Displacement     0.002046     0.001800     NO 
 RMS     Displacement     0.000837     0.001200     YES
 Predicted change in Energy=-2.042419D-06
 GradGradGradGradGradGradGradGradGradGradGradGradGradGradGradGradGradGrad

                          Input orientation:                          
 ---------------------------------------------------------------------
 Center     Atomic      Atomic             Coordinates (Angstroms)
 Number     Number       Type             X           Y           Z
 ---------------------------------------------------------------------
      1          6           0       -6.590629    1.190677    0.000000
      2          6           0       -5.386051    1.247673    0.000000
      3          1           0       -7.653761    1.140374    0.000000
      4          1           0       -4.322919    1.297976    0.000000
 ---------------------------------------------------------------------
                    Distance matrix (angstroms):
                    1          2          3          4
     1  C    0.000000
     2  C    1.205927   0.000000
     3  H    1.064321   2.270247   0.000000
     4  H    2.270247   1.064321   3.334568   0.000000
 Stoichiometry    C2H2
 Framework group  D*H[C*(HC.CH)]
 Deg. of freedom     2
 Full point group                 D*H     NOp   8
 Largest Abelian subgroup         D2H     NOp   8
 Largest concise Abelian subgroup C2      NOp   2
                         Standard orientation:                         
 ---------------------------------------------------------------------
 Center     Atomic      Atomic             Coordinates (Angstroms)
 Number     Number       Type             X           Y           Z
 ---------------------------------------------------------------------
      1          6           0        0.000000    0.000000    0.602963
      2          6           0        0.000000    0.000000   -0.602963
      3          1           0        0.000000    0.000000    1.667284
      4          1           0        0.000000    0.000000   -1.667284
 ---------------------------------------------------------------------
 Rotational constants (GHZ):      0.0000000     35.2703259     35.2703259
 Basis read from rwf:  (5D, 7F)
 There are     7 symmetry adapted cartesian basis functions of AG  symmetry.
 There are     0 symmetry adapted cartesian basis functions of B1G symmetry.
 There are     2 symmetry adapted cartesian basis functions of B2G symmetry.
 There are     2 symmetry adapted cartesian basis functions of B3G symmetry.
 There are     0 symmetry adapted cartesian basis functions of AU  symmetry.
 There are     7 symmetry adapted cartesian basis functions of B1U symmetry.
 There are     2 symmetry adapted cartesian basis functions of B2U symmetry.
 There are     2 symmetry adapted cartesian basis functions of B3U symmetry.
 There are     7 symmetry adapted basis functions of AG  symmetry.
 There are     0 symmetry adapted basis functions of B1G symmetry.
 There are     2 symmetry adapted basis functions of B2G symmetry.
 There are     2 symmetry adapted basis functions of B3G symmetry.
 There are     0 symmetry adapted basis functions of AU  symmetry.
 There are     7 symmetry adapted basis functions of B1U symmetry.
 There are     2 symmetry adapted basis functions of B2U symmetry.
 There are     2 symmetry adapted basis functions of B3U symmetry.
    22 basis functions,    52 primitive gaussians,    22 cartesian basis functions
     7 alpha electrons        7 beta electrons
       nuclear repulsion energy        24.7194633844 Hartrees.
 NAtoms=    4 NActive=    4 NUniq=    2 SFac= 4.00D+00 NAtFMM=   60 NAOKFM=F Big=F
 Integral buffers will be    131072 words long.
 Raffenetti 1 integral format.
 Two-electron integral symmetry is turned on.
 One-electron integrals computed using PRISM.
 NBasis=    22 RedAO= T EigKep=  6.94D-03  NBF=     7     0     2     2     0     7     2     2
 NBsUse=    22 1.00D-06 EigRej= -1.00D+00 NBFU=     7     0     2     2     0     7     2     2
 Initial guess from the checkpoint file:  "/home/chongee/BasisSet/H/New/Gau-14962.chk"
 B after Tr=     0.000000    0.000000    0.000000
         Rot=    1.000000    0.000000    0.000000    0.000000 Ang=   0.00 deg.
 Initial guess orbital symmetries:
       Occupied  (SGG) (SGU) (SGG) (SGU) (SGG) (PIU) (PIU)
       Virtual   (SGG) (SGG) (SGG) (SGG) (PIG) (PIG) (PIG) (PIG)
                 (SGU) (SGU) (SGU) (SGU) (SGU) (PIU) (PIU)
 Keep R1 ints in memory in symmetry-blocked form, NReq=867127.
 Requested convergence on RMS density matrix=1.00D-08 within 128 cycles.
 Requested convergence on MAX density matrix=1.00D-06.
 Requested convergence on             energy=1.00D-06.
 No special actions if energy rises.
 SCF Done:  E(RHF) =  -76.6629338586     A.U. after    7 cycles
            NFock=  7  Conv=0.11D-08     -V/T= 2.0062
 Calling FoFJK, ICntrl=      2127 FMM=F ISym2X=1 I1Cent= 0 IOpClX= 0 NMat=1 NMatS=1 NMatT=0.
 ***** Axes restored to original set *****
 -------------------------------------------------------------------
 Center     Atomic                   Forces (Hartrees/Bohr)
 Number     Number              X              Y              Z
 -------------------------------------------------------------------
      1        6           0.000066580    0.000003150    0.000000000
      2        6          -0.000066580   -0.000003150    0.000000000
      3        1          -0.000008601   -0.000000407    0.000000000
      4        1           0.000008601    0.000000407    0.000000000
 -------------------------------------------------------------------
 Cartesian Forces:  Max     0.000066580 RMS     0.000027438

 GradGradGradGradGradGradGradGradGradGradGradGradGradGradGradGradGradGrad
 Berny optimization.
 Search for a local minimum.
 Step number   3 out of a maximum of   22
 All quantities printed in internal units (Hartrees-Bohrs-Radians)
 Update second derivatives using D2CorN and points    1    2    3
 DE= -2.04D-06 DEPred=-2.04D-06 R= 9.98D-01
 TightC=F SS=  1.41D+00  RLast= 2.90D-03 DXNew= 5.0454D-01 8.6986D-03
 Trust test= 9.98D-01 RLast= 2.90D-03 DXMaxT set to 3.00D-01
 The second derivative matrix:
                          X1        Y1        Z1        X2        Y2
           X1           1.40534
           Y1           0.05836   0.17468
           Z1           0.00000   0.00000   0.17192
           X2          -1.01873  -0.04196   0.00000   1.40534
           Y2          -0.04196  -0.13391   0.00000   0.05836   0.17468
           Z2           0.00000   0.00000  -0.13192   0.00000   0.00000
           X3          -0.43144  -0.01686   0.00000   0.04484   0.00046
           Y3          -0.01686  -0.07592   0.00000   0.00046   0.03514
           Z3           0.00000   0.00000  -0.07512   0.00000   0.00000
           X4           0.04484   0.00046   0.00000  -0.43144  -0.01686
           Y4           0.00046   0.03514   0.00000  -0.01686  -0.07592
           Z4           0.00000   0.00000   0.03512   0.00000   0.00000
                          Z2        X3        Y3        Z3        X4
           Z2           0.17192
           X3           0.00000   0.42006
           Y3           0.00000   0.01798   0.04085
           Z3           0.03512   0.00000   0.00000   0.04000
           X4           0.00000  -0.03345  -0.00158   0.00000   0.42006
           Y4           0.00000  -0.00158  -0.00007   0.00000   0.01798
           Z4          -0.07512   0.00000   0.00000   0.00000   0.00000
                          Y4        Z4
           Y4           0.04085
           Z4           0.00000   0.04000
 ITU=  1  1  0
     Eigenvalues ---    0.06799   0.06799   0.29727   0.29727   0.34519
     Eigenvalues ---    0.65849   2.53806
 RFO step:  Lambda= 0.00000000D+00 EMin= 6.79905406D-02
 ClnCor:  largest displacement from symmetrization is 4.09D-15 for atom     3.
 Quartic linear search produced a step of -0.01104.
 ClnCor:  largest displacement from symmetrization is 4.44D-16 for atom     4.
 TrRot=  0.000000  0.000000  0.000000  0.000000  0.000000  0.000000
 Variable       Old X    -DE/DX   Delta X   Delta X   Delta X     New X
                                 (Linear)    (Quad)   (Total)
    X1      -12.45448   0.00007   0.00000   0.00003   0.00003 -12.45446
    Y1        2.25005   0.00000   0.00000   0.00000   0.00000   2.25005
    Z1        0.00000   0.00000   0.00000   0.00000   0.00000   0.00000
    X2      -10.17816  -0.00007   0.00000  -0.00003  -0.00003 -10.17819
    Y2        2.35776   0.00000   0.00000   0.00000   0.00000   2.35776
    Z2        0.00000   0.00000   0.00000   0.00000   0.00000   0.00000
    X3      -14.46351  -0.00001  -0.00002   0.00003   0.00001 -14.46350
    Y3        2.15499   0.00000   0.00000   0.00000   0.00000   2.15500
    Z3        0.00000   0.00000   0.00000   0.00000   0.00000   0.00000
    X4       -8.16913   0.00001   0.00002  -0.00003  -0.00001  -8.16915
    Y4        2.45282   0.00000   0.00000   0.00000   0.00000   2.45282
    Z4        0.00000   0.00000   0.00000   0.00000   0.00000   0.00000
         Item               Value     Threshold  Converged?
 Maximum Force            0.000067     0.000450     YES
 RMS     Force            0.000027     0.000300     YES
 Maximum Displacement     0.000029     0.001800     YES
 RMS     Displacement     0.000013     0.001200     YES
 Predicted change in Energy=-1.884663D-09
 Optimization completed.
    -- Stationary point found.
 GradGradGradGradGradGradGradGradGradGradGradGradGradGradGradGradGradGrad

                          Input orientation:                          
 ---------------------------------------------------------------------
 Center     Atomic      Atomic             Coordinates (Angstroms)
 Number     Number       Type             X           Y           Z
 ---------------------------------------------------------------------
      1          6           0       -6.590629    1.190677    0.000000
      2          6           0       -5.386051    1.247673    0.000000
      3          1           0       -7.653761    1.140374    0.000000
      4          1           0       -4.322919    1.297976    0.000000
 ---------------------------------------------------------------------
                    Distance matrix (angstroms):
                    1          2          3          4
     1  C    0.000000
     2  C    1.205927   0.000000
     3  H    1.064321   2.270247   0.000000
     4  H    2.270247   1.064321   3.334568   0.000000
 Stoichiometry    C2H2
 Framework group  D*H[C*(HC.CH)]
 Deg. of freedom     2
 Full point group                 D*H     NOp   8
 Largest Abelian subgroup         D2H     NOp   8
 Largest concise Abelian subgroup C2      NOp   2
                         Standard orientation:                         
 ---------------------------------------------------------------------
 Center     Atomic      Atomic             Coordinates (Angstroms)
 Number     Number       Type             X           Y           Z
 ---------------------------------------------------------------------
      1          6           0        0.000000    0.000000    0.602963
      2          6           0        0.000000    0.000000   -0.602963
      3          1           0        0.000000    0.000000    1.667284
      4          1           0        0.000000    0.000000   -1.667284
 ---------------------------------------------------------------------
 Rotational constants (GHZ):      0.0000000     35.2703259     35.2703259

 **********************************************************************

            Population analysis using the SCF density.

 **********************************************************************

 Orbital symmetries:
       Occupied  (SGG) (SGU) (SGG) (SGU) (SGG) (PIU) (PIU)
       Virtual   (PIG) (PIG) (SGU) (SGG) (SGG) (SGU) (PIU) (PIU)
                 (SGU) (PIG) (PIG) (SGG) (SGU) (SGG) (SGU)
 The electronic state is 1-SGG.
 Alpha  occ. eigenvalues --  -11.26839 -11.26547  -1.02956  -0.75464  -0.66491
 Alpha  occ. eigenvalues --   -0.39685  -0.39685
 Alpha virt. eigenvalues --    0.21887   0.21887   0.22020   0.26404   0.35047
 Alpha virt. eigenvalues --    0.35594   0.69765   0.69765   0.84949   0.86979
 Alpha virt. eigenvalues --    0.86979   0.88511   1.21204   1.21972   1.67159
          Condensed to atoms (all electrons):
               1          2          3          4
     1  C    5.087148   0.797408   0.357121  -0.064963
     2  C    0.797408   5.087148  -0.064963   0.357121
     3  H    0.357121  -0.064963   0.528517   0.002610
     4  H   -0.064963   0.357121   0.002610   0.528517
 Mulliken charges:
               1
     1  C   -0.176714
     2  C   -0.176714
     3  H    0.176714
     4  H    0.176714
 Sum of Mulliken charges =   0.00000
 Mulliken charges with hydrogens summed into heavy atoms:
               1
     1  C    0.000000
     2  C    0.000000
 Electronic spatial extent (au):  <R**2>=             60.3158
 Charge=              0.0000 electrons
 Dipole moment (field-independent basis, Debye):
    X=              0.0000    Y=              0.0000    Z=              0.0000  Tot=              0.0000
 Quadrupole moment (field-independent basis, Debye-Ang):
   XX=            -13.2899   YY=            -13.2899   ZZ=             -6.8875
   XY=              0.0000   XZ=              0.0000   YZ=              0.0000
 Traceless Quadrupole moment (field-independent basis, Debye-Ang):
   XX=             -2.1341   YY=             -2.1341   ZZ=              4.2683
   XY=              0.0000   XZ=              0.0000   YZ=              0.0000
 Octapole moment (field-independent basis, Debye-Ang**2):
  XXX=              0.0000  YYY=              0.0000  ZZZ=              0.0000  XYY=              0.0000
  XXY=              0.0000  XXZ=              0.0000  XZZ=              0.0000  YZZ=              0.0000
  YYZ=              0.0000  XYZ=              0.0000
 Hexadecapole moment (field-independent basis, Debye-Ang**3):
 XXXX=            -13.1388 YYYY=            -13.1388 ZZZZ=            -37.0429 XXXY=              0.0000
 XXXZ=              0.0000 YYYX=              0.0000 YYYZ=              0.0000 ZZZX=              0.0000
 ZZZY=              0.0000 XXYY=             -4.3796 XXZZ=            -11.5565 YYZZ=            -11.5565
 XXYZ=              0.0000 YYXZ=              0.0000 ZZXY=              0.0000
 N-N= 2.471946338439D+01 E-N=-2.273988720726D+02  KE= 7.618740854961D+01
 Symmetry AG   KE= 3.781631039392D+01
 Symmetry B1G  KE= 0.000000000000D+00
 Symmetry B2G  KE= 4.511042607928D-33
 Symmetry B3G  KE= 3.345927895783D-33
 Symmetry AU   KE= 0.000000000000D+00
 Symmetry B1U  KE= 3.437898931978D+01
 Symmetry B2U  KE= 1.996054417956D+00
 Symmetry B3U  KE= 1.996054417956D+00
 1\1\GINC-CHONGEE-INSPIRON-3521\FOpt\RHF\Gen\C2H2\CHONGEE\18-Nov-2016\0
 \\# opt=cartesian freq hf/gen\\chch\\0,1\C,-6.5906294686,1.1906770787,
 0.\C,-5.3860505314,1.2476729213,0.\H,-7.6537608634,1.1403739662,0.\H,-
 4.3229191366,1.2979760338,0.\\Version=EM64L-G09RevD.01\State=1-SGG\HF=
 -76.6629339\RMSD=1.086e-09\RMSF=2.744e-05\Dipole=0.,0.,0.\Quadrupole=3
 .1627124,-1.5760397,-1.5866727,0.2247218,0.,0.\PG=D*H [C*(H1C1.C1H1)]\
 \@


 IT IS A PROFOUNDLY ERRONEOUS TRUISM ... THAT WE SHOULD CULTIVATE
 THE HABIT OF THINKING OF WHAT WE ARE DOING.
 THE PRECISE OPPOSITE IS THE CASE.
 CIVILIZATION ADVANCES BY EXTENDING THE NUMBER OF IMPORTANT OPERATIONS
 WHICH WE CAN PERFORM WITHOUT THINKING ABOUT THEM.

                                    -- ALFRED NORTH WHITEHEAD
 Job cpu time:       0 days  0 hours  0 minutes  1.7 seconds.
 File lengths (MBytes):  RWF=      5 Int=      0 D2E=      0 Chk=      1 Scr=      1
 Normal termination of Gaussian 09 at Fri Nov 18 00:31:31 2016.
 Link1:  Proceeding to internal job step number  2.
 ---------------------------------------------------------------
 #N Geom=AllCheck Guess=TCheck SCRF=Check GenChk RHF/ChkBas Freq
 ---------------------------------------------------------------
 1/10=4,29=7,30=1,38=1,40=1/1,3;
 2/12=2,40=1/2;
 3/5=7,6=2,11=1,14=-4,16=1,25=1,30=1,67=1,70=2,71=2,82=7,116=1,140=1/1,2,3;
 4/5=101/1;
 5/5=2,98=1/2;
 8/6=4,10=90,11=11/1;
 10/13=10,15=4/2;
 11/6=3,8=1,9=11,15=111,16=1/1,2,10;
 10/6=1/2;
 6/7=2,8=2,9=2,10=2,18=1,28=1/1;
 7/8=1,10=1,25=1/1,2,3,16;
 1/10=4,30=1/3;
 99//99;
 Structure from the checkpoint file:  "/home/chongee/BasisSet/H/New/Gau-14962.chk"
 ----
 chch
 ----
 Charge =  0 Multiplicity = 1
 No Z-Matrix found in file; cartesian coordinates used.
  C                                                -6.590629468643      1.190677078661      0.000000000000
  C                                                -5.386050531357      1.247672921339      0.000000000000
  H                                                -7.653760863352      1.140373966226      0.000000000000
  H                                                -4.322919136648      1.297976033774      0.000000000000
 Recover connectivity data from disk.

 GradGradGradGradGradGradGradGradGradGradGradGradGradGradGradGradGradGrad
 Berny optimization.
 Initialization pass.
 Trust Radius=3.00D-01 FncErr=1.00D-07 GrdErr=1.00D-07
 Number of steps in this run=      2 maximum allowed number of steps=      2.
 GradGradGradGradGradGradGradGradGradGradGradGradGradGradGradGradGradGrad

                          Input orientation:                          
 ---------------------------------------------------------------------
 Center     Atomic      Atomic             Coordinates (Angstroms)
 Number     Number       Type             X           Y           Z
 ---------------------------------------------------------------------
      1          6           0       -6.590629    1.190677    0.000000
      2          6           0       -5.386051    1.247673    0.000000
      3          1           0       -7.653761    1.140374    0.000000
      4          1           0       -4.322919    1.297976    0.000000
 ---------------------------------------------------------------------
                    Distance matrix (angstroms):
                    1          2          3          4
     1  C    0.000000
     2  C    1.205927   0.000000
     3  H    1.064321   2.270247   0.000000
     4  H    2.270247   1.064321   3.334568   0.000000
 Stoichiometry    C2H2
 Framework group  D*H[C*(HC.CH)]
 Deg. of freedom     2
 Full point group                 D*H     NOp   8
 Largest Abelian subgroup         D2H     NOp   8
 Largest concise Abelian subgroup C2      NOp   2
                         Standard orientation:                         
 ---------------------------------------------------------------------
 Center     Atomic      Atomic             Coordinates (Angstroms)
 Number     Number       Type             X           Y           Z
 ---------------------------------------------------------------------
      1          6           0        0.000000    0.000000    0.602963
      2          6           0        0.000000    0.000000   -0.602963
      3          1           0        0.000000    0.000000    1.667284
      4          1           0        0.000000    0.000000   -1.667284
 ---------------------------------------------------------------------
 Rotational constants (GHZ):      0.0000000     35.2703259     35.2703259
 Basis read from chk: "/home/chongee/BasisSet/H/New/Gau-14962.chk" (5D, 7F)
 There are     7 symmetry adapted cartesian basis functions of AG  symmetry.
 There are     0 symmetry adapted cartesian basis functions of B1G symmetry.
 There are     2 symmetry adapted cartesian basis functions of B2G symmetry.
 There are     2 symmetry adapted cartesian basis functions of B3G symmetry.
 There are     0 symmetry adapted cartesian basis functions of AU  symmetry.
 There are     7 symmetry adapted cartesian basis functions of B1U symmetry.
 There are     2 symmetry adapted cartesian basis functions of B2U symmetry.
 There are     2 symmetry adapted cartesian basis functions of B3U symmetry.
 There are     7 symmetry adapted basis functions of AG  symmetry.
 There are     0 symmetry adapted basis functions of B1G symmetry.
 There are     2 symmetry adapted basis functions of B2G symmetry.
 There are     2 symmetry adapted basis functions of B3G symmetry.
 There are     0 symmetry adapted basis functions of AU  symmetry.
 There are     7 symmetry adapted basis functions of B1U symmetry.
 There are     2 symmetry adapted basis functions of B2U symmetry.
 There are     2 symmetry adapted basis functions of B3U symmetry.
    22 basis functions,    52 primitive gaussians,    22 cartesian basis functions
     7 alpha electrons        7 beta electrons
       nuclear repulsion energy        24.7194633844 Hartrees.
 NAtoms=    4 NActive=    4 NUniq=    2 SFac= 4.00D+00 NAtFMM=   60 NAOKFM=F Big=F
 Integral buffers will be    131072 words long.
 Raffenetti 1 integral format.
 Two-electron integral symmetry is turned on.
 One-electron integrals computed using PRISM.
 NBasis=    22 RedAO= T EigKep=  6.94D-03  NBF=     7     0     2     2     0     7     2     2
 NBsUse=    22 1.00D-06 EigRej= -1.00D+00 NBFU=     7     0     2     2     0     7     2     2
 Initial guess from the checkpoint file:  "/home/chongee/BasisSet/H/New/Gau-14962.chk"
 B after Tr=     0.000000    0.000000    0.000000
         Rot=    1.000000    0.000000    0.000000    0.000000 Ang=   0.00 deg.
 Initial guess orbital symmetries:
       Occupied  (SGG) (SGU) (SGG) (SGU) (SGG) (PIU) (PIU)
       Virtual   (PIG) (PIG) (SGU) (SGG) (SGG) (SGU) (PIU) (PIU)
                 (SGU) (PIG) (PIG) (SGG) (SGU) (SGG) (SGU)
 Keep R1 ints in memory in symmetry-blocked form, NReq=867127.
 Requested convergence on RMS density matrix=1.00D-08 within 128 cycles.
 Requested convergence on MAX density matrix=1.00D-06.
 Requested convergence on             energy=1.00D-06.
 No special actions if energy rises.
 Skip diagonalization as Alpha Fock matrix is already diagonal.
 SCF Done:  E(RHF) =  -76.6629338586     A.U. after    1 cycles
            NFock=  1  Conv=0.00D+00     -V/T= 2.0062
 Range of M.O.s used for correlation:     1    22
 NBasis=    22 NAE=     7 NBE=     7 NFC=     0 NFV=     0
 NROrb=     22 NOA=     7 NOB=     7 NVA=    15 NVB=    15
          Differentiating once with respect to electric field.
                with respect to dipole field.
          Electric field/nuclear overlap derivatives assumed to be zero.
 Keep R1 ints in memory in symmetry-blocked form, NReq=852142.
          There are     3 degrees of freedom in the 1st order CPHF.  IDoFFX=0 NUNeed=     3.
      3 vectors produced by pass  0 Test12= 3.50D-15 3.33D-08 XBig12= 1.06D+01 2.08D+00.
 AX will form     3 AO Fock derivatives at one time.
      3 vectors produced by pass  1 Test12= 3.50D-15 3.33D-08 XBig12= 1.69D+00 6.59D-01.
      3 vectors produced by pass  2 Test12= 3.50D-15 3.33D-08 XBig12= 4.53D-02 9.71D-02.
      3 vectors produced by pass  3 Test12= 3.50D-15 3.33D-08 XBig12= 1.44D-04 5.26D-03.
      3 vectors produced by pass  4 Test12= 3.50D-15 3.33D-08 XBig12= 8.16D-07 3.95D-04.
      3 vectors produced by pass  5 Test12= 3.50D-15 3.33D-08 XBig12= 8.55D-09 3.37D-05.
      3 vectors produced by pass  6 Test12= 3.50D-15 3.33D-08 XBig12= 3.89D-11 2.67D-06.
      1 vectors produced by pass  7 Test12= 3.50D-15 3.33D-08 XBig12= 2.65D-13 2.87D-07.
 InvSVY:  IOpt=1 It=  1 EMax= 3.07D-16
 Solved reduced A of dimension    22 with     3 vectors.
 End of Minotr F.D. properties file   721 does not exist.
 End of Minotr F.D. properties file   722 does not exist.
 End of Minotr F.D. properties file   788 does not exist.
 Symmetrizing basis deriv contribution to polar:
 IMax=3 JMax=2 DiffMx= 0.00D+00
 G2DrvN: will do     5 centers at a time, making    1 passes.
 PxScal for G2LodP:  IOpCl= 0 ISclPx=1 IMOff=     1 NMtTot=     4 NTT=     253 ScalPx= 1.37D+00
 Calling FoFCou, ICntrl=  3107 FMM=F I1Cent=   0 AccDes= 0.00D+00.
 End of G2Drv F.D. properties file   721 does not exist.
 End of G2Drv F.D. properties file   722 does not exist.
 End of G2Drv F.D. properties file   788 does not exist.
          IDoAtm=1111
          Differentiating once with respect to electric field.
                with respect to dipole field.
          Differentiating once with respect to nuclear coordinates.
 Keep R1 ints in memory in symmetry-blocked form, NReq=852234.
          There are     9 degrees of freedom in the 1st order CPHF.  IDoFFX=4 NUNeed=     9.
 Will reuse    3 saved solutions.
      6 vectors produced by pass  0 Test12= 1.17D-15 1.11D-08 XBig12= 7.08D-02 1.29D-01.
 AX will form     6 AO Fock derivatives at one time.
      6 vectors produced by pass  1 Test12= 1.17D-15 1.11D-08 XBig12= 7.90D-03 4.05D-02.
      6 vectors produced by pass  2 Test12= 1.17D-15 1.11D-08 XBig12= 1.27D-04 4.39D-03.
      6 vectors produced by pass  3 Test12= 1.17D-15 1.11D-08 XBig12= 8.83D-07 4.93D-04.
      6 vectors produced by pass  4 Test12= 1.17D-15 1.11D-08 XBig12= 7.36D-09 3.41D-05.
      6 vectors produced by pass  5 Test12= 1.17D-15 1.11D-08 XBig12= 5.66D-11 2.70D-06.
      4 vectors produced by pass  6 Test12= 1.17D-15 1.11D-08 XBig12= 6.79D-13 4.19D-07.
      1 vectors produced by pass  7 Test12= 1.17D-15 1.11D-08 XBig12= 2.54D-15 2.53D-08.
 InvSVY:  IOpt=1 It=  1 EMax= 1.11D-16
 Solved reduced A of dimension    41 with     6 vectors.
 Isotropic polarizability for W=    0.000000       15.24 Bohr**3.
 End of Minotr F.D. properties file   721 does not exist.
 End of Minotr F.D. properties file   722 does not exist.
 End of Minotr F.D. properties file   788 does not exist.

 **********************************************************************

            Population analysis using the SCF density.

 **********************************************************************

 Orbital symmetries:
       Occupied  (SGG) (SGU) (SGG) (SGU) (SGG) (PIU) (PIU)
       Virtual   (PIG) (PIG) (SGU) (SGG) (SGG) (SGU) (PIU) (PIU)
                 (SGU) (PIG) (PIG) (SGG) (SGU) (SGG) (SGU)
 The electronic state is 1-SGG.
 Alpha  occ. eigenvalues --  -11.26839 -11.26547  -1.02956  -0.75464  -0.66491
 Alpha  occ. eigenvalues --   -0.39685  -0.39685
 Alpha virt. eigenvalues --    0.21887   0.21887   0.22020   0.26404   0.35047
 Alpha virt. eigenvalues --    0.35594   0.69765   0.69765   0.84949   0.86979
 Alpha virt. eigenvalues --    0.86979   0.88511   1.21204   1.21972   1.67159
          Condensed to atoms (all electrons):
               1          2          3          4
     1  C    5.087148   0.797408   0.357121  -0.064963
     2  C    0.797408   5.087148  -0.064963   0.357121
     3  H    0.357121  -0.064963   0.528517   0.002610
     4  H   -0.064963   0.357121   0.002610   0.528517
 Mulliken charges:
               1
     1  C   -0.176714
     2  C   -0.176714
     3  H    0.176714
     4  H    0.176714
 Sum of Mulliken charges =   0.00000
 Mulliken charges with hydrogens summed into heavy atoms:
               1
     1  C    0.000000
     2  C    0.000000
 APT charges:
               1
     1  C   -0.236137
     2  C   -0.236137
     3  H    0.236138
     4  H    0.236138
 Sum of APT charges =   0.00000
 APT charges with hydrogens summed into heavy atoms:
               1
     1  C    0.000000
     2  C    0.000000
 Electronic spatial extent (au):  <R**2>=             60.3158
 Charge=              0.0000 electrons
 Dipole moment (field-independent basis, Debye):
    X=              0.0000    Y=              0.0000    Z=              0.0000  Tot=              0.0000
 Quadrupole moment (field-independent basis, Debye-Ang):
   XX=            -13.2899   YY=            -13.2899   ZZ=             -6.8875
   XY=              0.0000   XZ=              0.0000   YZ=              0.0000
 Traceless Quadrupole moment (field-independent basis, Debye-Ang):
   XX=             -2.1341   YY=             -2.1341   ZZ=              4.2683
   XY=              0.0000   XZ=              0.0000   YZ=              0.0000
 Octapole moment (field-independent basis, Debye-Ang**2):
  XXX=              0.0000  YYY=              0.0000  ZZZ=              0.0000  XYY=              0.0000
  XXY=              0.0000  XXZ=              0.0000  XZZ=              0.0000  YZZ=              0.0000
  YYZ=              0.0000  XYZ=              0.0000
 Hexadecapole moment (field-independent basis, Debye-Ang**3):
 XXXX=            -13.1388 YYYY=            -13.1388 ZZZZ=            -37.0429 XXXY=              0.0000
 XXXZ=              0.0000 YYYX=              0.0000 YYYZ=              0.0000 ZZZX=              0.0000
 ZZZY=              0.0000 XXYY=             -4.3796 XXZZ=            -11.5565 YYZZ=            -11.5565
 XXYZ=              0.0000 YYXZ=              0.0000 ZZXY=              0.0000
 N-N= 2.471946338439D+01 E-N=-2.273988720726D+02  KE= 7.618740854961D+01
 Symmetry AG   KE= 3.781631039392D+01
 Symmetry B1G  KE= 0.000000000000D+00
 Symmetry B2G  KE= 1.864859536341D-33
 Symmetry B3G  KE= 7.740490704672D-33
 Symmetry AU   KE= 0.000000000000D+00
 Symmetry B1U  KE= 3.437898931978D+01
 Symmetry B2U  KE= 1.996054417956D+00
 Symmetry B3U  KE= 1.996054417956D+00
  Exact polarizability:   8.540   0.000   8.540   0.000   0.000  28.651
 Approx polarizability:   6.294   0.000   6.294   0.000   0.000  29.287
 Calling FoFJK, ICntrl=    100127 FMM=F ISym2X=1 I1Cent= 0 IOpClX= 0 NMat=1 NMatS=1 NMatT=0.
 Full mass-weighted force constant matrix:
 Low frequencies ---   -0.0008   -0.0006   -0.0006    7.0883    7.0883  817.2306
 Low frequencies ---  817.2306  905.8989  905.8989
 Diagonal vibrational polarizability:
        4.1128474       4.1128474       0.2110797
 Diagonal vibrational hyperpolarizability:
        0.0000000       0.0000000       0.0000000
 Harmonic frequencies (cm**-1), IR intensities (KM/Mole), Raman scattering
 activities (A**4/AMU), depolarization ratios for plane and unpolarized
 incident light, reduced masses (AMU), force constants (mDyne/A),
 and normal coordinates:
                      1                      2                      3
                     PIG                    PIG                    PIU
 Frequencies --    817.2306               817.2306               905.8989
 Red. masses --      1.5703                 1.5703                 1.0848
 Frc consts  --      0.6179                 0.6179                 0.5245
 IR Inten    --      0.0000                 0.0000               125.4206
 Raman Activ --      7.3661                 7.3661                 0.0000
 Depolar (P) --      0.7500                 0.7500                 0.0000
 Depolar (U) --      0.8571                 0.8571                 0.0000
  Atom  AN      X      Y      Z        X      Y      Z        X      Y      Z
     1   6     0.16   0.00   0.00     0.00   0.16   0.00     0.06   0.00   0.00
     2   6    -0.16   0.00   0.00     0.00  -0.16   0.00     0.06   0.00   0.00
     3   1    -0.69   0.02   0.00    -0.02  -0.69   0.00    -0.70   0.01   0.00
     4   1     0.69  -0.02   0.00     0.02   0.69   0.00    -0.70   0.01   0.00
                      4                      5                      6
                     PIU                    SGG                    SGU
 Frequencies --    905.8989              2175.2010              3585.9248
 Red. masses --      1.0848                 3.6600                 1.0848
 Frc consts  --      0.5245                10.2031                 8.2188
 IR Inten    --    125.4206                 0.0000               100.8592
 Raman Activ --      0.0000                71.6820                 0.0000
 Depolar (P) --      0.0000                 0.1780                 0.0000
 Depolar (U) --      0.0000                 0.3022                 0.0000
  Atom  AN      X      Y      Z        X      Y      Z        X      Y      Z
     1   6     0.00   0.06   0.00     0.00   0.00   0.35     0.00   0.00   0.06
     2   6     0.00   0.06   0.00     0.00   0.00  -0.35     0.00   0.00   0.06
     3   1    -0.01  -0.70   0.00     0.00   0.00   0.62     0.00   0.00  -0.70
     4   1    -0.01  -0.70   0.00     0.00   0.00  -0.62     0.00   0.00  -0.70
                      7
                     SGG
 Frequencies --   3716.1399
 Red. masses --      1.2463
 Frc consts  --     10.1408
 IR Inten    --      0.0000
 Raman Activ --     64.3063
 Depolar (P) --      0.2796
 Depolar (U) --      0.4370
  Atom  AN      X      Y      Z
     1   6     0.00   0.00  -0.10
     2   6     0.00   0.00   0.10
     3   1     0.00   0.00   0.70
     4   1     0.00   0.00  -0.70

 -------------------
 - Thermochemistry -
 -------------------
 Temperature   298.150 Kelvin.  Pressure   1.00000 Atm.
 Atom     1 has atomic number  6 and mass  12.00000
 Atom     2 has atomic number  6 and mass  12.00000
 Atom     3 has atomic number  1 and mass   1.00783
 Atom     4 has atomic number  1 and mass   1.00783
 Molecular mass:    26.01565 amu.
 Principal axes and moments of inertia in atomic units:
                           1         2         3
     Eigenvalues --     0.00000  51.16883  51.16883
           X            0.00000  -0.69832   0.71578
           Y            0.00000   0.71578   0.69832
           Z            1.00000   0.00000   0.00000
 This molecule is a prolate symmetric top.
 Rotational symmetry number  2.
 Rotational temperature (Kelvin)      1.69271
 Rotational constant (GHZ):          35.270326
 Zero-point vibrational energy      77299.8 (Joules/Mol)
                                   18.47511 (Kcal/Mol)
 Vibrational temperatures:   1175.81  1175.81  1303.38  1303.38  3129.63
          (Kelvin)           5159.34  5346.69
 
 Zero-point correction=                           0.029442 (Hartree/Particle)
 Thermal correction to Energy=                    0.032055
 Thermal correction to Enthalpy=                  0.033000
 Thermal correction to Gibbs Free Energy=         0.010549
 Sum of electronic and zero-point Energies=            -76.633492
 Sum of electronic and thermal Energies=               -76.630878
 Sum of electronic and thermal Enthalpies=             -76.629934
 Sum of electronic and thermal Free Energies=          -76.652385
 
                     E (Thermal)             CV                S
                      KCal/Mol        Cal/Mol-Kelvin    Cal/Mol-Kelvin
 Total                   20.115              7.204             47.252
 Electronic               0.000              0.000              0.000
 Translational            0.889              2.981             35.704
 Rotational               0.592              1.987             10.886
 Vibrational             18.634              2.236              0.661
                       Q            Log10(Q)             Ln(Q)
 Total Bot       0.140556D-04         -4.852151        -11.172491
 Total V=0       0.489981D+09          8.690179         20.009877
 Vib (Bot)       0.305998D-13        -13.514282        -31.117784
 Vib (V=0)       0.106672D+01          0.028049          0.064585
 Electronic      0.100000D+01          0.000000          0.000000
 Translational   0.521564D+07          6.717307         15.467172
 Rotational      0.880690D+02          1.944823          4.478121
 ***** Axes restored to original set *****
 -------------------------------------------------------------------
 Center     Atomic                   Forces (Hartrees/Bohr)
 Number     Number              X              Y              Z
 -------------------------------------------------------------------
      1        6           0.000066580    0.000003150    0.000000000
      2        6          -0.000066580   -0.000003150    0.000000000
      3        1          -0.000008601   -0.000000407    0.000000000
      4        1           0.000008601    0.000000407    0.000000000
 -------------------------------------------------------------------
 Cartesian Forces:  Max     0.000066580 RMS     0.000027438

 GradGradGradGradGradGradGradGradGradGradGradGradGradGradGradGradGradGrad
 Berny optimization.
 Search for a local minimum.
 Step number   1 out of a maximum of    2
 All quantities printed in internal units (Hartrees-Bohrs-Radians)
 Second derivative matrix not updated -- analytic derivatives used.
 The second derivative matrix:
                          X1        Y1        Z1        X2        Y2
           X1           1.72751
           Y1           0.07825   0.07747
           Z1           0.00000   0.00000   0.07377
           X2          -1.27602  -0.05825   0.00000   1.72751
           Y2          -0.05825  -0.04765   0.00000   0.07825   0.07747
           Z2           0.00000   0.00000  -0.04489   0.00000   0.00000
           X3          -0.46810  -0.02045   0.00000   0.01662   0.00045
           Y3          -0.02045  -0.03685   0.00000   0.00045   0.00703
           Z3           0.00000   0.00000  -0.03588   0.00000   0.00000
           X4           0.01662   0.00045   0.00000  -0.46810  -0.02045
           Y4           0.00045   0.00703   0.00000  -0.02045  -0.03685
           Z4           0.00000   0.00000   0.00701   0.00000   0.00000
                          Z2        X3        Y3        Z3        X4
           Z2           0.07377
           X3           0.00000   0.45243
           Y3           0.00000   0.02036   0.02315
           Z3           0.00701   0.00000   0.00000   0.02219
           X4           0.00000  -0.00095  -0.00036   0.00000   0.45243
           Y4           0.00000  -0.00036   0.00667   0.00000   0.02036
           Z4          -0.03588   0.00000   0.00000   0.00668   0.00000
                          Y4        Z4
           Y4           0.02315
           Z4           0.00000   0.02219
 ITU=  0
     Eigenvalues ---    0.04908   0.04908   0.11588   0.11588   0.36516
     Eigenvalues ---    0.76907   3.09918
 Angle between quadratic step and forces=  21.25 degrees.
 ClnCor:  largest displacement from symmetrization is 6.38D-15 for atom     3.
 Linear search not attempted -- first point.
 ClnCor:  largest displacement from symmetrization is 1.97D-31 for atom     2.
 TrRot=  0.000000  0.000000  0.000000  0.000000  0.000000  0.000000
 Variable       Old X    -DE/DX   Delta X   Delta X   Delta X     New X
                                 (Linear)    (Quad)   (Total)
    X1      -12.45448   0.00007   0.00000   0.00002   0.00002 -12.45446
    Y1        2.25005   0.00000   0.00000   0.00000   0.00000   2.25005
    Z1        0.00000   0.00000   0.00000   0.00000   0.00000   0.00000
    X2      -10.17816  -0.00007   0.00000  -0.00002  -0.00002 -10.17818
    Y2        2.35776   0.00000   0.00000   0.00000   0.00000   2.35776
    Z2        0.00000   0.00000   0.00000   0.00000   0.00000   0.00000
    X3      -14.46351  -0.00001   0.00000   0.00001   0.00001 -14.46351
    Y3        2.15499   0.00000   0.00000   0.00000   0.00000   2.15499
    Z3        0.00000   0.00000   0.00000   0.00000   0.00000   0.00000
    X4       -8.16913   0.00001   0.00000  -0.00001  -0.00001  -8.16914
    Y4        2.45282   0.00000   0.00000   0.00000   0.00000   2.45282
    Z4        0.00000   0.00000   0.00000   0.00000   0.00000   0.00000
         Item               Value     Threshold  Converged?
 Maximum Force            0.000067     0.000450     YES
 RMS     Force            0.000027     0.000300     YES
 Maximum Displacement     0.000023     0.001800     YES
 RMS     Displacement     0.000010     0.001200     YES
 Predicted change in Energy=-1.488260D-09
 Optimization completed.
    -- Stationary point found.
 GradGradGradGradGradGradGradGradGradGradGradGradGradGradGradGradGradGrad

 1\1\GINC-CHONGEE-INSPIRON-3521\Freq\RHF\Gen\C2H2\CHONGEE\18-Nov-2016\0
 \\#N Geom=AllCheck Guess=TCheck SCRF=Check GenChk RHF/ChkBas Freq\\chc
 h\\0,1\C,-6.5906294686,1.1906770787,0.\C,-5.3860505314,1.2476729213,0.
 \H,-7.6537608634,1.1403739662,0.\H,-4.3229191366,1.2979760338,0.\\Vers
 ion=EM64L-G09RevD.01\State=1-SGG\HF=-76.6629339\RMSD=0.000e+00\RMSF=2.
 744e-05\ZeroPoint=0.029442\Thermal=0.0320555\Dipole=0.,0.,0.\DipoleDer
 iv=-0.2193611,0.001192,0.,0.001192,-0.2444974,0.,0.,0.,-0.2445538,-0.2
 193611,0.001192,0.,0.001192,-0.2444974,0.,0.,0.,-0.2445538,0.2193612,-
 0.001192,0.,-0.001192,0.2444976,0.,0.,0.,0.244554,0.2193612,-0.001192,
 0.,-0.001192,0.2444976,0.,0.,0.,0.244554\Polar=28.6065492,0.9494678,8.
 5849412,0.,0.,8.5400162\PolarDeriv=-8.6559618,0.1162923,-2.4848276,0.,
 0.,-2.5095931,0.4046623,-8.5793844,-0.9317998,0.,0.,-0.1187439,0.,0.,0
 .,-8.6041498,-0.4071139,0.,8.6559618,-0.1162923,2.4848276,0.,0.,2.5095
 931,-0.4046623,8.5793844,0.9317998,0.,0.,0.1187439,0.,0.,0.,8.6041498,
 0.4071139,0.,-7.7603339,-0.3303368,-0.7179194,0.,0.,-0.7024602,-0.3599
 609,-0.0918279,-0.041196,0.,0.,-0.0332376,0.,0.,0.,-0.0763687,-0.00361
 35,0.,7.7603339,0.3303368,0.7179194,0.,0.,0.7024602,0.3599609,0.091827
 9,0.041196,0.,0.,0.0332376,0.,0.,0.,0.0763687,0.0036135,0.\HyperPolar=
 0.,0.,0.,0.,0.,0.,0.,0.,0.,0.\PG=D*H [C*(H1C1.C1H1)]\NImag=0\\1.727507
 46,0.07824839,0.07746883,0.,0.,0.07376643,-1.27601934,-0.05825200,0.,1
 .72750746,-0.05825200,-0.04764834,0.,0.07824839,0.07746883,0.,0.,-0.04
 489209,0.,0.,0.07376643,-0.46810416,-0.02045099,0.,0.01661603,0.000454
 60,0.,0.45243371,-0.02045099,-0.03685032,0.,0.00045460,0.00702981,0.,0
 .02035734,0.02315466,0.,0.,-0.03588266,0.,0.,0.00700830,0.,0.,0.022191
 44,0.01661603,0.00045460,0.,-0.46810416,-0.02045099,0.,-0.00094559,-0.
 00036095,0.,0.45243371,0.00045460,0.00702981,0.,-0.02045099,-0.0368503
 2,0.,-0.00036095,0.00666586,0.,0.02035734,0.02315466,0.,0.,0.00700830,
 0.,0.,-0.03588266,0.,0.,0.00668294,0.,0.,0.02219144\\-0.00006658,-0.00
 000315,0.,0.00006658,0.00000315,0.,0.00000860,0.00000041,0.,-0.0000086
 0,-0.00000041,0.\\\@


 TO BEHOLD HARMS OF OUR OWN HANDS DOING,
 WHERE NONE BESIDE US WROUGHT,
 CAUSES SHARP RUING...

                                         SOPHOCLES
 Job cpu time:       0 days  0 hours  0 minutes  1.2 seconds.
 File lengths (MBytes):  RWF=      5 Int=      0 D2E=      0 Chk=      1 Scr=      1
 Normal termination of Gaussian 09 at Fri Nov 18 00:31:32 2016.
