 Entering Gaussian System, Link 0=g09
 Initial command:
 /usr/local/gaussian/g09.D01/g09/l1.exe "/nqs/iawad/Gau-16172.inp" -scrdir="/nqs/iawad/"
 Entering Link 1 = /usr/local/gaussian/g09.D01/g09/l1.exe PID=     16173.
  
 Copyright (c) 1988,1990,1992,1993,1995,1998,2003,2009,2013,
            Gaussian, Inc.  All Rights Reserved.
  
 This is part of the Gaussian(R) 09 program.  It is based on
 the Gaussian(R) 03 system (copyright 2003, Gaussian, Inc.),
 the Gaussian(R) 98 system (copyright 1998, Gaussian, Inc.),
 the Gaussian(R) 94 system (copyright 1995, Gaussian, Inc.),
 the Gaussian 92(TM) system (copyright 1992, Gaussian, Inc.),
 the Gaussian 90(TM) system (copyright 1990, Gaussian, Inc.),
 the Gaussian 88(TM) system (copyright 1988, Gaussian, Inc.),
 the Gaussian 86(TM) system (copyright 1986, Carnegie Mellon
 University), and the Gaussian 82(TM) system (copyright 1983,
 Carnegie Mellon University). Gaussian is a federally registered
 trademark of Gaussian, Inc.
  
 This software contains proprietary and confidential information,
 including trade secrets, belonging to Gaussian, Inc.
  
 This software is provided under written license and may be
 used, copied, transmitted, or stored only in accord with that
 written license.
  
 The following legend is applicable only to US Government
 contracts under FAR:
  
                    RESTRICTED RIGHTS LEGEND
  
 Use, reproduction and disclosure by the US Government is
 subject to restrictions as set forth in subparagraphs (a)
 and (c) of the Commercial Computer Software - Restricted
 Rights clause in FAR 52.227-19.
  
 Gaussian, Inc.
 340 Quinnipiac St., Bldg. 40, Wallingford CT 06492
  
  
 ---------------------------------------------------------------
 Warning -- This program may not be used in any manner that
 competes with the business of Gaussian, Inc. or will provide
 assistance to any competitor of Gaussian, Inc.  The licensee
 of this program is prohibited from giving any competitor of
 Gaussian, Inc. access to this program.  By using this program,
 the user acknowledges that Gaussian, Inc. is engaged in the
 business of creating and licensing software in the field of
 computational chemistry and represents and warrants to the
 licensee that it is not a competitor of Gaussian, Inc. and that
 it will not use this program in any manner prohibited above.
 ---------------------------------------------------------------
  

 Cite this work as:
 Gaussian 09, Revision D.01,
 M. J. Frisch, G. W. Trucks, H. B. Schlegel, G. E. Scuseria, 
 M. A. Robb, J. R. Cheeseman, G. Scalmani, V. Barone, B. Mennucci, 
 G. A. Petersson, H. Nakatsuji, M. Caricato, X. Li, H. P. Hratchian, 
 A. F. Izmaylov, J. Bloino, G. Zheng, J. L. Sonnenberg, M. Hada, 
 M. Ehara, K. Toyota, R. Fukuda, J. Hasegawa, M. Ishida, T. Nakajima, 
 Y. Honda, O. Kitao, H. Nakai, T. Vreven, J. A. Montgomery, Jr., 
 J. E. Peralta, F. Ogliaro, M. Bearpark, J. J. Heyd, E. Brothers, 
 K. N. Kudin, V. N. Staroverov, T. Keith, R. Kobayashi, J. Normand, 
 K. Raghavachari, A. Rendell, J. C. Burant, S. S. Iyengar, J. Tomasi, 
 M. Cossi, N. Rega, J. M. Millam, M. Klene, J. E. Knox, J. B. Cross, 
 V. Bakken, C. Adamo, J. Jaramillo, R. Gomperts, R. E. Stratmann, 
 O. Yazyev, A. J. Austin, R. Cammi, C. Pomelli, J. W. Ochterski, 
 R. L. Martin, K. Morokuma, V. G. Zakrzewski, G. A. Voth, 
 P. Salvador, J. J. Dannenberg, S. Dapprich, A. D. Daniels, 
 O. Farkas, J. B. Foresman, J. V. Ortiz, J. Cioslowski, 
 and D. J. Fox, Gaussian, Inc., Wallingford CT, 2013.
 
 ******************************************
 Gaussian 09:  AM64L-G09RevD.01 24-Apr-2013
                 7-Jun-2016 
 ******************************************
 %NPROCS=4
 Will use up to    4 processors via shared memory.
 %rwf=/nqs/iawad//glo_2w_Beta_ircro_B3LYP_6-31G_d_B3LYP_6-31G_d.rwf
 %nosave
 %chk=/home/iawad/scratch/MAIN/PRO_Halides/direct/ircro/glo_2w_Beta/glo_2w_Beta_i
 rcro_B3LYP_6-31G_d_B3LYP_6-31G_d.chk
 ----------------------------------------------------------------------
 # IRC=(CalcFC,Reverse,MaxCycle=500,MaxPoints=10) B3LYP/6-31G(d) geom=a
 llcheck guess=read
 ----------------------------------------------------------------------
 1/6=500,10=4,14=-1,18=10,22=2,26=3,29=7,38=1,42=10,44=3/1,23;
 2/12=2,29=1,40=1/2;
 3/5=1,6=6,7=1,11=2,14=-4,16=1,25=1,30=1,71=2,74=-5,116=-2,140=1/1,2,3;
 4/5=1/1;
 5/5=2,38=6/2;
 8/6=4,10=90,11=11/1;
 11/6=1,8=1,9=11,15=111,16=1/1,2,10;
 10/6=1,13=1/2;
 6/7=2,8=2,9=2,10=2,28=1/1;
 7/10=1,18=20,25=1/1,2,3,16;
 1/6=500,10=4,14=-1,18=10,22=2,26=3,42=10,44=3/23(2);
 2/29=1/2;
 99/5=20/99;
 2/29=1/2;
 3/5=1,6=6,7=1,11=2,14=-2,16=1,25=1,30=1,71=2,74=-5,140=1/1,2,3;
 4/5=5,16=3,69=1/1;
 5/5=2,38=5/2;
 8/6=4,10=90,11=11/1;
 11/6=1,8=1,9=11,15=111,16=1/1,2,10;
 10/6=1,13=1/2;
 7/10=1,18=20,25=1/1,2,3,16;
 1/6=500,14=-1,18=10,22=2,26=3,42=10,44=3/23(-8);
 2/29=1/2;
 6/7=2,8=2,9=2,10=2,19=2,28=1/1;
 99/5=20,9=1/99;
 Structure from the checkpoint file:  "/home/iawad/scratch/MAIN/PRO_Halides/direct/ircro/glo_2w_Beta/glo_2w_Beta_ircro_B3LYP_6-31G_d_B3LYP_6-31G_d.chk"
 -------------------------
 glo_2w_Beta_B3LYP_6-31G_d
 -------------------------
 Charge =  0 Multiplicity = 1
 Redundant internal coordinates found in file.
 C,0,-0.0003025564,0.000297714,-0.0000663905
 O,0,-0.0000488725,-0.0001818717,1.8497607958
 O,0,1.2212883957,0.0007179194,-0.3438343339
 H,0,1.7876731671,1.1383082503,-0.2039636362
 H,0,0.5091461739,2.8192086522,2.2956239271
 H,0,3.2025254083,2.0103295761,0.1947172421
 O,0,2.2436637329,2.146521809,0.1288160752
 H,0,1.7773207045,2.2027399603,1.2453490774
 O,0,1.151467467,2.0920443135,2.2820575556
 H,0,0.5665599121,1.0599519063,2.1201680332
 C,0,-0.8060022618,-1.2639475012,-0.2628137436
 C,0,-2.1359713426,-1.2841395701,0.4889859138
 C,0,-1.9815223575,-1.3477245543,2.0026954397
 C,0,-1.2398217826,-0.1133318995,2.5297824978
 H,0,-0.5808985402,0.9326933999,-0.0989964438
 H,0,-0.1911372793,-2.1238004429,0.0404587071
 H,0,-1.3951587703,-2.2454039339,2.2588368761
 H,0,-1.8833815367,0.7698622022,2.3491901614
 H,0,-2.6983224547,-0.3681055243,0.2372166807
 O,0,-1.0540254661,-1.2788356338,-1.6622309717
 O,0,-2.8427040217,-2.4255883946,0.0137503751
 O,0,-3.303557346,-1.4435454158,2.5251120306
 H,0,-3.6203202617,-2.5162142137,0.5907765226
 H,0,-1.7692534466,-1.9271212956,-1.7867483856
 H,0,-3.2150707597,-1.4070685763,3.4966127059
 C,0,-0.9438929422,-0.2199760019,4.0354695469
 O,0,-2.130361212,-0.4073096553,4.821106039
 H,0,-0.3808825864,0.659911787,4.374837716
 H,0,-0.3229588958,-1.1021655616,4.2135371043
 H,0,-2.6207773888,0.4302672487,4.8246060397
 Recover connectivity data from disk.
 IRC-IRC-IRC-IRC-IRC-IRC-IRC-IRC-IRC-IRC-IRC-IRC-IRC-IRC-IRC-IRC-IRC-IRC
 ------------------------------------------------------------------------
 INPUT DATA FOR L123
 ------------------------------------------------------------------------
 GENERAL PARAMETERS:
 Rxn path following direction = Reverse
 Maximum points per path      =  10
 Step size                    =   0.100 bohr
 Integration scheme           = HPC                                 
    Redo corrector integration= Yes                                 
    DWI Weight Power          =  2
    DWI will use Hessian update vectors when possible.
    Max correction cycles     = 500
 Initial Hessian              = CalcFC
 Hessian evaluation           = All updating
 Hessian updating method      = Bofill                              
 ------------------------------------------------------------------------
 IRC-IRC-IRC-IRC-IRC-IRC-IRC-IRC-IRC-IRC-IRC-IRC-IRC-IRC-IRC-IRC-IRC-IRC
                          Input orientation:                          
 ---------------------------------------------------------------------
 Center     Atomic      Atomic             Coordinates (Angstroms)
 Number     Number       Type             X           Y           Z
 ---------------------------------------------------------------------
      1          6           0       -0.000303    0.000298   -0.000066
      2          8           0       -0.000049   -0.000182    1.849761
      3          8           0        1.221288    0.000718   -0.343834
      4          1           0        1.787673    1.138308   -0.203964
      5          1           0        0.509146    2.819209    2.295624
      6          1           0        3.202525    2.010330    0.194717
      7          8           0        2.243664    2.146522    0.128816
      8          1           0        1.777321    2.202740    1.245349
      9          8           0        1.151467    2.092044    2.282058
     10          1           0        0.566560    1.059952    2.120168
     11          6           0       -0.806002   -1.263948   -0.262814
     12          6           0       -2.135971   -1.284140    0.488986
     13          6           0       -1.981522   -1.347725    2.002695
     14          6           0       -1.239822   -0.113332    2.529782
     15          1           0       -0.580899    0.932693   -0.098996
     16          1           0       -0.191137   -2.123800    0.040459
     17          1           0       -1.395159   -2.245404    2.258837
     18          1           0       -1.883382    0.769862    2.349190
     19          1           0       -2.698322   -0.368106    0.237217
     20          8           0       -1.054025   -1.278836   -1.662231
     21          8           0       -2.842704   -2.425588    0.013750
     22          8           0       -3.303557   -1.443545    2.525112
     23          1           0       -3.620320   -2.516214    0.590777
     24          1           0       -1.769253   -1.927121   -1.786748
     25          1           0       -3.215071   -1.407069    3.496613
     26          6           0       -0.943893   -0.219976    4.035470
     27          8           0       -2.130361   -0.407310    4.821106
     28          1           0       -0.380883    0.659912    4.374838
     29          1           0       -0.322959   -1.102166    4.213537
     30          1           0       -2.620777    0.430267    4.824606
 ---------------------------------------------------------------------
                    Distance matrix (angstroms):
                    1          2          3          4          5
     1  C    0.000000
     2  O    1.849827   0.000000
     3  O    1.269039   2.510682   0.000000
     4  H    2.129202   2.951253   1.278463   0.000000
     5  H    3.670966   2.899489   3.926548   3.272307   0.000000
     6  H    3.786327   4.127688   2.872956   1.709144   3.510326
     7  O    3.107776   3.550244   2.423453   1.155493   2.855891
     8  H    3.092209   2.894343   2.771927   1.798230   1.758231
     9  O    3.303039   2.426990   3.357652   2.737640   0.970324
    10  H    2.437128   1.232091   2.760789   2.626565   1.768916
    11  C    1.522007   2.590296   2.390784   3.535739   4.994736
    12  C    2.539691   2.839440   3.689938   4.662984   5.205579
    13  C    3.123052   2.401145   4.193149   5.025588   4.863391
    14  C    2.819478   1.418545   3.785201   4.266813   3.422501
    15  H    1.102833   2.237252   2.043625   2.379796   3.237490
    16  H    2.133038   2.796399   2.579962   3.823191   5.478093
    17  H    3.477275   2.674827   4.320273   5.257881   5.410918
    18  H    3.107607   2.095075   4.181260   4.486757   3.150695
    19  H    2.733374   3.164861   3.979573   4.752692   4.968286
    20  O    2.347191   3.883286   2.924462   4.005544   5.907799
    21  O    3.736892   4.163438   4.746669   5.847149   6.629460
    22  O    4.401443   3.667774   5.548962   6.327278   5.723674
    23  H    4.448197   4.584956   5.536210   6.575222   6.958860
    24  H    3.168022   4.479663   3.839519   4.955178   6.662171
    25  H    4.954006   3.876573   6.034250   6.723143   5.759651
    26  C    4.150233   2.390915   4.890298   5.222948   3.791442
    27  O    5.286492   3.678706   6.170628   6.556772   4.873959
    28  H    4.440689   2.637569   5.026664   5.088902   3.126954
    29  H    4.367378   2.627942   4.936668   5.384125   4.443868
    30  H    5.507198   3.987883   6.454360   6.724751   4.679660
                    6          7          8          9         10
     6  H    0.000000
     7  O    0.970725   0.000000
     8  H    1.781027   1.211314   0.000000
     9  O    2.927543   2.415017   1.216022   0.000000
    10  H    3.399837   2.821133   1.880748   1.197305   0.000000
    11  C    5.196010   4.591856   4.578868   4.644431   3.600422
    12  C    6.280101   5.574977   5.295684   5.041922   3.931818
    13  C    6.435811   5.794254   5.225732   4.661081   3.507624
    14  C    5.449488   4.796483   4.014612   3.262410   2.192577
    15  H    3.944853   3.082763   2.996912   3.164586   2.501509
    16  H    5.350867   4.916474   4.903625   4.959909   3.877573
    17  H    6.596253   6.088270   5.556777   5.029841   3.846160
    18  H    5.661004   4.884440   4.083178   3.311039   2.477663
    19  H    6.362292   5.546019   5.258988   5.005456   4.030423
    20  O    5.690790   5.080913   5.347140   5.637769   4.733156
    21  O    7.500328   6.840217   6.654539   6.442641   5.311221
    22  O    7.725872   7.028690   6.383456   5.692690   4.627017
    23  H    8.197419   7.506052   7.199411   6.845907   5.714715
    24  H    6.644419   6.030544   6.231176   6.421798   5.444504
    25  H    7.985403   7.332656   6.559183   5.725870   4.720331
    26  C    6.076054   5.569809   4.589044   3.579166   2.754644
    27  O    7.462448   6.904472   5.904945   4.843959   4.089169
    28  H    5.669025   5.208354   4.102665   2.962909   2.478147
    29  H    6.186079   5.816053   4.913625   4.013418   3.138183
    30  H    7.605480   6.975583   5.941044   4.843128   4.227246
                   11         12         13         14         15
    11  C    0.000000
    12  C    1.527884   0.000000
    13  C    2.553703   1.522897   0.000000
    14  C    3.051346   2.517683   1.533514   0.000000
    15  H    2.214213   2.770979   3.402817   2.904966   0.000000
    16  H    1.099718   2.165314   2.767335   3.367262   3.084399
    17  H    2.769311   2.145974   1.102388   2.154825   4.040136
    18  H    3.481335   2.782640   2.147991   1.107617   2.777876
    19  H    2.152542   1.103968   2.142515   2.729101   2.507708
    20  O    1.421304   2.407980   3.781095   4.354985   2.749257
    21  O    2.360943   1.424158   2.420605   3.774411   4.050498
    22  O    3.747341   2.352547   1.424738   2.455299   4.466019
    23  H    3.196431   1.931751   2.458565   3.898764   4.648530
    24  H    1.920945   2.393089   3.839355   4.711960   3.526930
    25  H    4.467369   3.197716   1.938286   2.551494   5.034059
    26  C    4.425396   3.889864   2.545714   1.538194   4.307461
    27  O    5.322969   4.419969   2.974890   2.475812   5.329526
    28  H    5.038826   4.686098   3.495670   2.177134   4.486603
    29  H    4.505244   4.146373   2.774699   2.157188   4.775472
    30  H    5.660884   4.687412   3.396039   2.732902   5.353074
                   16         17         18         19         20
    16  H    0.000000
    17  H    2.526986   0.000000
    18  H    4.070284   3.055872   0.000000
    19  H    3.067109   3.051136   2.533679   0.000000
    20  O    2.087509   4.052826   4.580010   2.672273   0.000000
    21  O    2.668819   2.677362   4.072528   2.074613   2.706165
    22  O    4.040224   2.087071   2.635720   2.599489   4.756192
    23  H    3.495159   2.794120   4.111845   2.364203   3.632219
    24  H    2.422358   4.075293   4.938900   2.718480   0.973309
    25  H    4.647890   2.355202   2.798035   3.459788   5.594661
    26  C    4.489020   2.731744   2.169322   4.186489   5.796301
    27  O    5.437051   3.237953   2.749018   4.619108   6.629609
    28  H    5.154794   3.734578   2.524448   4.852551   6.376367
    29  H    4.298337   2.505486   3.068419   4.689597   5.923708
    30  H    5.942599   3.904424   2.605141   4.656990   6.888744
                   21         22         23         24         25
    21  O    0.000000
    22  O    2.735641   0.000000
    23  H    0.972553   2.234415   0.000000
    24  H    2.154660   4.602181   3.070196   0.000000
    25  H    3.647790   0.976204   3.136609   5.502249   0.000000
    26  C    4.964316   3.057175   4.929694   6.123217   2.618741
    27  O    5.262276   2.778806   4.956122   6.789990   1.982522
    28  H    5.882173   4.048215   5.907694   6.825354   3.616118
    29  H    5.073339   3.442570   5.098678   6.227017   2.995206
    30  H    5.599062   3.043852   5.254156   7.070529   2.343620
                   26         27         28         29         30
    26  C    0.000000
    27  O    1.435279   0.000000
    28  H    1.098341   2.097330   0.000000
    29  H    1.093401   2.029450   1.770393   0.000000
    30  H    1.964050   0.970595   2.296118   2.828732   0.000000
 Symmetry turned off by external request.
 Stoichiometry    C6H16O8
 Framework group  C1[X(C6H16O8)]
 Deg. of freedom    84
 Full point group                 C1      NOp   1
 Rotational constants (GHZ):      0.6854496      0.5210531      0.3085638
 Standard basis: 6-31G(d) (6D, 7F)
   242 basis functions,   456 primitive gaussians,   242 cartesian basis functions
    58 alpha electrons       58 beta electrons
       nuclear repulsion energy      1090.7093614019 Hartrees.
 NAtoms=   30 NActive=   30 NUniq=   30 SFac= 1.00D+00 NAtFMM=   60 NAOKFM=F Big=F
 Integral buffers will be    131072 words long.
 Raffenetti 2 integral format.
 Two-electron integral symmetry is turned off.
 One-electron integrals computed using PRISM.
 NBasis=   242 RedAO= T EigKep=  1.90D-03  NBF=   242
 NBsUse=   242 1.00D-06 EigRej= -1.00D+00 NBFU=   242
 Initial guess from the checkpoint file:  "/home/iawad/scratch/MAIN/PRO_Halides/direct/ircro/glo_2w_Beta/glo_2w_Beta_ircro_B3LYP_6-31G_d_B3LYP_6-31G_d.chk"
 B after Tr=    -1.485622   -0.579445    2.538633
         Rot=    0.107748    0.321977   -0.523140    0.781694 Ang= 167.63 deg.
 Requested convergence on RMS density matrix=1.00D-08 within 128 cycles.
 Requested convergence on MAX density matrix=1.00D-06.
 Requested convergence on             energy=1.00D-06.
 No special actions if energy rises.
 SCF Done:  E(RB3LYP) =  -839.965367213     A.U. after    5 cycles
            NFock=  5  Conv=0.67D-08     -V/T= 2.0086
 DoSCS=F DFT=T ScalE2(SS,OS)=  1.000000  1.000000
 Range of M.O.s used for correlation:     1   242
 NBasis=   242 NAE=    58 NBE=    58 NFC=     0 NFV=     0
 NROrb=    242 NOA=    58 NOB=    58 NVA=   184 NVB=   184
 Symmetrizing basis deriv contribution to polar:
 IMax=3 JMax=2 DiffMx= 0.00D+00
 G2DrvN: will do    31 centers at a time, making    1 passes.
 Calling FoFCou, ICntrl=  3107 FMM=F I1Cent=   0 AccDes= 0.00D+00.
 End of G2Drv F.D. properties file   721 does not exist.
 End of G2Drv F.D. properties file   722 does not exist.
 End of G2Drv F.D. properties file   788 does not exist.
          IDoAtm=111111111111111111111111111111
          Differentiating once with respect to nuclear coordinates.
          There are    93 degrees of freedom in the 1st order CPHF.  IDoFFX=6 NUNeed=     0.
     87 vectors produced by pass  0 Test12= 1.15D-14 1.08D-09 XBig12= 1.38D-01 6.03D-02.
 AX will form    87 AO Fock derivatives at one time.
     87 vectors produced by pass  1 Test12= 1.15D-14 1.08D-09 XBig12= 4.28D-02 3.38D-02.
     87 vectors produced by pass  2 Test12= 1.15D-14 1.08D-09 XBig12= 2.85D-04 2.65D-03.
     87 vectors produced by pass  3 Test12= 1.15D-14 1.08D-09 XBig12= 6.34D-07 9.24D-05.
     87 vectors produced by pass  4 Test12= 1.15D-14 1.08D-09 XBig12= 7.89D-10 3.58D-06.
     72 vectors produced by pass  5 Test12= 1.15D-14 1.08D-09 XBig12= 6.33D-13 7.05D-08.
      2 vectors produced by pass  6 Test12= 1.15D-14 1.08D-09 XBig12= 4.74D-16 1.77D-09.
 InvSVY:  IOpt=1 It=  1 EMax= 2.22D-16
 Solved reduced A of dimension   509 with    93 vectors.
 End of Minotr F.D. properties file   721 does not exist.
 End of Minotr F.D. properties file   722 does not exist.
 End of Minotr F.D. properties file   788 does not exist.

 **********************************************************************

            Population analysis using the SCF density.

 **********************************************************************

 Alpha  occ. eigenvalues --  -19.18141 -19.15921 -19.15893 -19.15357 -19.15127
 Alpha  occ. eigenvalues --  -19.15028 -19.13713 -19.13124 -10.28952 -10.25050
 Alpha  occ. eigenvalues --  -10.24947 -10.24075 -10.23806 -10.23460  -1.05569
 Alpha  occ. eigenvalues --   -1.04829  -1.03952  -1.02344  -1.01544  -1.01146
 Alpha  occ. eigenvalues --   -0.99976  -0.98015  -0.78066  -0.75444  -0.69362
 Alpha  occ. eigenvalues --   -0.63883  -0.61112  -0.58407  -0.55510  -0.55368
 Alpha  occ. eigenvalues --   -0.53815  -0.52862  -0.52626  -0.50563  -0.49686
 Alpha  occ. eigenvalues --   -0.46749  -0.45816  -0.45311  -0.44115  -0.43124
 Alpha  occ. eigenvalues --   -0.42942  -0.41700  -0.40023  -0.39263  -0.37522
 Alpha  occ. eigenvalues --   -0.36116  -0.35562  -0.35193  -0.34183  -0.33714
 Alpha  occ. eigenvalues --   -0.31360  -0.30721  -0.29554  -0.28016  -0.27530
 Alpha  occ. eigenvalues --   -0.26367  -0.26057  -0.25767
 Alpha virt. eigenvalues --    0.01540   0.04114   0.04971   0.08139   0.08983
 Alpha virt. eigenvalues --    0.09702   0.11933   0.12507   0.13643   0.14537
 Alpha virt. eigenvalues --    0.15375   0.16041   0.16505   0.18091   0.18847
 Alpha virt. eigenvalues --    0.19716   0.20187   0.22161   0.24016   0.24804
 Alpha virt. eigenvalues --    0.26109   0.27575   0.28375   0.28985   0.30842
 Alpha virt. eigenvalues --    0.31899   0.33174   0.38415   0.51350   0.53540
 Alpha virt. eigenvalues --    0.54156   0.56334   0.57069   0.58090   0.59400
 Alpha virt. eigenvalues --    0.60477   0.61998   0.63655   0.65375   0.65948
 Alpha virt. eigenvalues --    0.67301   0.68609   0.69947   0.72829   0.73120
 Alpha virt. eigenvalues --    0.73960   0.76608   0.76957   0.78488   0.79599
 Alpha virt. eigenvalues --    0.80666   0.81725   0.82342   0.83139   0.84327
 Alpha virt. eigenvalues --    0.85921   0.86377   0.87474   0.88967   0.90132
 Alpha virt. eigenvalues --    0.91182   0.91411   0.92908   0.94355   0.95225
 Alpha virt. eigenvalues --    0.96719   0.99097   1.00413   1.01087   1.03468
 Alpha virt. eigenvalues --    1.04386   1.05244   1.06677   1.07300   1.09554
 Alpha virt. eigenvalues --    1.10636   1.13595   1.14260   1.14500   1.15822
 Alpha virt. eigenvalues --    1.19385   1.21356   1.23305   1.26965   1.28839
 Alpha virt. eigenvalues --    1.30369   1.31576   1.33103   1.34875   1.37615
 Alpha virt. eigenvalues --    1.38837   1.43402   1.46004   1.48882   1.50950
 Alpha virt. eigenvalues --    1.54602   1.55837   1.57345   1.61024   1.61175
 Alpha virt. eigenvalues --    1.62913   1.66206   1.66287   1.68163   1.69511
 Alpha virt. eigenvalues --    1.70006   1.71058   1.71955   1.73091   1.74592
 Alpha virt. eigenvalues --    1.75222   1.76954   1.77157   1.78553   1.80248
 Alpha virt. eigenvalues --    1.81492   1.81593   1.82471   1.85079   1.86385
 Alpha virt. eigenvalues --    1.88020   1.90612   1.91667   1.92604   1.96984
 Alpha virt. eigenvalues --    1.97420   1.98520   2.01312   2.02879   2.04874
 Alpha virt. eigenvalues --    2.06432   2.09527   2.09949   2.11950   2.13855
 Alpha virt. eigenvalues --    2.14906   2.17706   2.21595   2.22767   2.23522
 Alpha virt. eigenvalues --    2.29994   2.31225   2.33597   2.37431   2.39709
 Alpha virt. eigenvalues --    2.40958   2.43390   2.47438   2.47966   2.50020
 Alpha virt. eigenvalues --    2.51915   2.53849   2.56921   2.57629   2.59881
 Alpha virt. eigenvalues --    2.62446   2.65391   2.67434   2.70277   2.72362
 Alpha virt. eigenvalues --    2.74945   2.83463   2.84541   2.85880   2.88355
 Alpha virt. eigenvalues --    2.95630   2.99277   2.99865   3.03837   3.09121
 Alpha virt. eigenvalues --    3.71494   3.78498   3.81358   3.87388   3.88349
 Alpha virt. eigenvalues --    3.92142   4.13292   4.15710   4.25374   4.37119
 Alpha virt. eigenvalues --    4.37954   4.51179   4.63609   4.65667
          Condensed to atoms (all electrons):
               1          2          3          4          5          6
     1  C    4.694482   0.059762   0.372916  -0.016055  -0.000074  -0.000319
     2  O    0.059762   8.620140  -0.037117   0.001798   0.004556   0.000003
     3  O    0.372916  -0.037117   8.287915   0.129101   0.000016   0.004557
     4  H   -0.016055   0.001798   0.129101   0.294886  -0.000299  -0.005943
     5  H   -0.000074   0.004556   0.000016  -0.000299   0.381261  -0.000159
     6  H   -0.000319   0.000003   0.004557  -0.005943  -0.000159   0.362085
     7  O    0.009201  -0.000759  -0.096879   0.135774   0.005025   0.231834
     8  H   -0.000467   0.004041   0.006393  -0.011095  -0.008582  -0.005327
     9  O    0.005122  -0.098437  -0.002141   0.006138   0.228667   0.004209
    10  H   -0.001260   0.113601   0.004479  -0.000644  -0.007899  -0.000032
    11  C    0.308365  -0.014714  -0.041716   0.002172   0.000007   0.000003
    12  C   -0.017238  -0.001299   0.002826  -0.000050  -0.000001   0.000000
    13  C   -0.008752  -0.031936   0.000008  -0.000012   0.000034   0.000000
    14  C    0.001331   0.129633   0.001338  -0.000064   0.000027   0.000001
    15  H    0.337202  -0.036387  -0.054327  -0.005512   0.000387  -0.000094
    16  H   -0.042061   0.000527   0.001511  -0.000144   0.000000   0.000000
    17  H    0.000166   0.003745  -0.000003   0.000000   0.000000   0.000000
    18  H   -0.003475  -0.036519  -0.000034  -0.000006   0.000244   0.000000
    19  H   -0.005124  -0.000040  -0.000048  -0.000003   0.000000   0.000000
    20  O   -0.041187   0.000592   0.000499  -0.000086   0.000000   0.000000
    21  O    0.002281   0.000002  -0.000010   0.000000   0.000000   0.000000
    22  O    0.000027   0.001453   0.000000   0.000000   0.000000   0.000000
    23  H   -0.000180  -0.000011   0.000001   0.000000   0.000000   0.000000
    24  H    0.006859  -0.000042  -0.000052   0.000008   0.000000   0.000000
    25  H   -0.000005   0.000037   0.000000   0.000000   0.000000   0.000000
    26  C    0.001033  -0.031845  -0.000028   0.000002  -0.000080   0.000000
    27  O   -0.000008   0.001511   0.000000   0.000000  -0.000001   0.000000
    28  H   -0.000073   0.000897   0.000001  -0.000003   0.000149   0.000000
    29  H   -0.000092   0.005256   0.000001   0.000000   0.000000   0.000000
    30  H   -0.000001  -0.000012   0.000000   0.000000  -0.000001   0.000000
               7          8          9         10         11         12
     1  C    0.009201  -0.000467   0.005122  -0.001260   0.308365  -0.017238
     2  O   -0.000759   0.004041  -0.098437   0.113601  -0.014714  -0.001299
     3  O   -0.096879   0.006393  -0.002141   0.004479  -0.041716   0.002826
     4  H    0.135774  -0.011095   0.006138  -0.000644   0.002172  -0.000050
     5  H    0.005025  -0.008582   0.228667  -0.007899   0.000007  -0.000001
     6  H    0.231834  -0.005327   0.004209  -0.000032   0.000003   0.000000
     7  O    8.511595   0.134902  -0.103267   0.005250  -0.000114   0.000003
     8  H    0.134902   0.295589   0.129594  -0.005522   0.000064  -0.000001
     9  O   -0.103267   0.129594   8.542885   0.125890   0.000145  -0.000018
    10  H    0.005250  -0.005522   0.125890   0.288186   0.000750   0.000029
    11  C   -0.000114   0.000064   0.000145   0.000750   4.958255   0.290584
    12  C    0.000003  -0.000001  -0.000018   0.000029   0.290584   5.001216
    13  C    0.000000  -0.000002   0.000001   0.002000  -0.019545   0.304346
    14  C    0.000011  -0.000151   0.006751  -0.007712  -0.009288  -0.025662
    15  H    0.002810  -0.000748   0.001092   0.000429  -0.072585  -0.004001
    16  H    0.000005  -0.000002   0.000003  -0.000034   0.337344  -0.048120
    17  H    0.000000   0.000000   0.000003  -0.000109  -0.003700  -0.050121
    18  H    0.000002  -0.000053   0.001174  -0.000986   0.000634  -0.010627
    19  H    0.000000   0.000000   0.000003  -0.000035  -0.046930   0.336976
    20  O    0.000000   0.000000   0.000000  -0.000013   0.239732  -0.028287
    21  O    0.000000   0.000000   0.000000   0.000001  -0.035896   0.219843
    22  O    0.000000   0.000000   0.000000  -0.000023   0.002453  -0.039532
    23  H    0.000000   0.000000   0.000000   0.000000   0.006170  -0.028846
    24  H    0.000000   0.000000   0.000000   0.000000  -0.034432  -0.012868
    25  H    0.000000   0.000000   0.000000   0.000005  -0.000140   0.004762
    26  C   -0.000001   0.000017  -0.001518  -0.003023  -0.000171   0.003767
    27  O    0.000000   0.000000   0.000003   0.000043   0.000002   0.000081
    28  H    0.000004   0.000001   0.003780   0.003488  -0.000011  -0.000120
    29  H    0.000000  -0.000002   0.000042  -0.000044   0.000017  -0.000060
    30  H    0.000000   0.000000   0.000001  -0.000007   0.000001  -0.000002
              13         14         15         16         17         18
     1  C   -0.008752   0.001331   0.337202  -0.042061   0.000166  -0.003475
     2  O   -0.031936   0.129633  -0.036387   0.000527   0.003745  -0.036519
     3  O    0.000008   0.001338  -0.054327   0.001511  -0.000003  -0.000034
     4  H   -0.000012  -0.000064  -0.005512  -0.000144   0.000000  -0.000006
     5  H    0.000034   0.000027   0.000387   0.000000   0.000000   0.000244
     6  H    0.000000   0.000001  -0.000094   0.000000   0.000000   0.000000
     7  O    0.000000   0.000011   0.002810   0.000005   0.000000   0.000002
     8  H   -0.000002  -0.000151  -0.000748  -0.000002   0.000000  -0.000053
     9  O    0.000001   0.006751   0.001092   0.000003   0.000003   0.001174
    10  H    0.002000  -0.007712   0.000429  -0.000034  -0.000109  -0.000986
    11  C   -0.019545  -0.009288  -0.072585   0.337344  -0.003700   0.000634
    12  C    0.304346  -0.025662  -0.004001  -0.048120  -0.050121  -0.010627
    13  C    4.980449   0.294762  -0.000066  -0.003842   0.350477  -0.062094
    14  C    0.294762   5.043467   0.000861   0.000706  -0.053312   0.341395
    15  H   -0.000066   0.000861   0.693460   0.007384   0.000113   0.004215
    16  H   -0.003842   0.000706   0.007384   0.632325   0.006867   0.000163
    17  H    0.350477  -0.053312   0.000113   0.006867   0.647638   0.007940
    18  H   -0.062094   0.341395   0.004215   0.000163   0.007940   0.699185
    19  H   -0.050318  -0.004354   0.007845   0.007435   0.007872   0.006877
    20  O    0.003776  -0.000024   0.003042  -0.038890  -0.000045  -0.000001
    21  O   -0.033174   0.003616  -0.000134  -0.000826   0.000840  -0.000032
    22  O    0.213137  -0.035587   0.000001  -0.000072  -0.040159   0.005936
    23  H   -0.012691   0.000764   0.000010  -0.000194  -0.000187   0.000003
    24  H    0.000961  -0.000033  -0.000495  -0.001278  -0.000005  -0.000001
    25  H   -0.021737  -0.006814   0.000002   0.000006  -0.002897  -0.000304
    26  C   -0.025049   0.329187  -0.000154  -0.000039  -0.010416  -0.060404
    27  O   -0.000954  -0.036608   0.000002   0.000000   0.000023   0.002303
    28  H    0.004588  -0.044272  -0.000005   0.000002  -0.000020  -0.005493
    29  H   -0.010525  -0.039063   0.000013   0.000006   0.006205   0.006769
    30  H   -0.001594  -0.001969   0.000000   0.000000   0.000150   0.005054
              19         20         21         22         23         24
     1  C   -0.005124  -0.041187   0.002281   0.000027  -0.000180   0.006859
     2  O   -0.000040   0.000592   0.000002   0.001453  -0.000011  -0.000042
     3  O   -0.000048   0.000499  -0.000010   0.000000   0.000001  -0.000052
     4  H   -0.000003  -0.000086   0.000000   0.000000   0.000000   0.000008
     5  H    0.000000   0.000000   0.000000   0.000000   0.000000   0.000000
     6  H    0.000000   0.000000   0.000000   0.000000   0.000000   0.000000
     7  O    0.000000   0.000000   0.000000   0.000000   0.000000   0.000000
     8  H    0.000000   0.000000   0.000000   0.000000   0.000000   0.000000
     9  O    0.000003   0.000000   0.000000   0.000000   0.000000   0.000000
    10  H   -0.000035  -0.000013   0.000001  -0.000023   0.000000   0.000000
    11  C   -0.046930   0.239732  -0.035896   0.002453   0.006170  -0.034432
    12  C    0.336976  -0.028287   0.219843  -0.039532  -0.028846  -0.012868
    13  C   -0.050318   0.003776  -0.033174   0.213137  -0.012691   0.000961
    14  C   -0.004354  -0.000024   0.003616  -0.035587   0.000764  -0.000033
    15  H    0.007845   0.003042  -0.000134   0.000001   0.000010  -0.000495
    16  H    0.007435  -0.038890  -0.000826  -0.000072  -0.000194  -0.001278
    17  H    0.007872  -0.000045   0.000840  -0.040159  -0.000187  -0.000005
    18  H    0.006877  -0.000001  -0.000032   0.005936   0.000003  -0.000001
    19  H    0.666424   0.001440  -0.044022  -0.000267  -0.001660  -0.000294
    20  O    0.001440   8.274893  -0.008424  -0.000013   0.000128   0.238528
    21  O   -0.044022  -0.008424   8.305222  -0.006083   0.237627   0.025884
    22  O   -0.000267  -0.000013  -0.006083   8.348294   0.024091  -0.000007
    23  H   -0.001660   0.000128   0.237627   0.024091   0.357989  -0.000883
    24  H   -0.000294   0.238528   0.025884  -0.000007  -0.000883   0.361954
    25  H   -0.000225   0.000001   0.000131   0.221486  -0.000462   0.000000
    26  C   -0.000166   0.000001  -0.000055  -0.000695  -0.000009   0.000000
    27  O   -0.000008   0.000000   0.000000  -0.015598   0.000006   0.000000
    28  H    0.000008   0.000000   0.000000  -0.000194   0.000000   0.000000
    29  H    0.000006   0.000000  -0.000001   0.000200   0.000000   0.000000
    30  H    0.000000   0.000000   0.000000   0.002536  -0.000001   0.000000
              25         26         27         28         29         30
     1  C   -0.000005   0.001033  -0.000008  -0.000073  -0.000092  -0.000001
     2  O    0.000037  -0.031845   0.001511   0.000897   0.005256  -0.000012
     3  O    0.000000  -0.000028   0.000000   0.000001   0.000001   0.000000
     4  H    0.000000   0.000002   0.000000  -0.000003   0.000000   0.000000
     5  H    0.000000  -0.000080  -0.000001   0.000149   0.000000  -0.000001
     6  H    0.000000   0.000000   0.000000   0.000000   0.000000   0.000000
     7  O    0.000000  -0.000001   0.000000   0.000004   0.000000   0.000000
     8  H    0.000000   0.000017   0.000000   0.000001  -0.000002   0.000000
     9  O    0.000000  -0.001518   0.000003   0.003780   0.000042   0.000001
    10  H    0.000005  -0.003023   0.000043   0.003488  -0.000044  -0.000007
    11  C   -0.000140  -0.000171   0.000002  -0.000011   0.000017   0.000001
    12  C    0.004762   0.003767   0.000081  -0.000120  -0.000060  -0.000002
    13  C   -0.021737  -0.025049  -0.000954   0.004588  -0.010525  -0.001594
    14  C   -0.006814   0.329187  -0.036608  -0.044272  -0.039063  -0.001969
    15  H    0.000002  -0.000154   0.000002  -0.000005   0.000013   0.000000
    16  H    0.000006  -0.000039   0.000000   0.000002   0.000006   0.000000
    17  H   -0.002897  -0.010416   0.000023  -0.000020   0.006205   0.000150
    18  H   -0.000304  -0.060404   0.002303  -0.005493   0.006769   0.005054
    19  H   -0.000225  -0.000166  -0.000008   0.000008   0.000006   0.000000
    20  O    0.000001   0.000001   0.000000   0.000000   0.000000   0.000000
    21  O    0.000131  -0.000055   0.000000   0.000000  -0.000001   0.000000
    22  O    0.221486  -0.000695  -0.015598  -0.000194   0.000200   0.002536
    23  H   -0.000462  -0.000009   0.000006   0.000000   0.000000  -0.000001
    24  H    0.000000   0.000000   0.000000   0.000000   0.000000   0.000000
    25  H    0.345785  -0.004398   0.050723   0.000666  -0.000424  -0.003265
    26  C   -0.004398   4.960834   0.213628   0.363357   0.368756  -0.028198
    27  O    0.050723   0.213628   8.231258  -0.027816  -0.033336   0.234020
    28  H    0.000666   0.363357  -0.027816   0.594797  -0.035576  -0.007530
    29  H   -0.000424   0.368756  -0.033336  -0.035576   0.552217   0.006809
    30  H   -0.003265  -0.028198   0.234020  -0.007530   0.006809   0.391619
 Mulliken charges:
               1
     1  C    0.337622
     2  O   -0.658437
     3  O   -0.579210
     4  H    0.470036
     5  H    0.396725
     6  H    0.409181
     7  O   -0.835396
     8  H    0.461352
     9  O   -0.850121
    10  H    0.483190
    11  C    0.132544
    12  C    0.102424
    13  C    0.127754
    14  C    0.111060
    15  H    0.115640
    16  H    0.141218
    17  H    0.128934
    18  H    0.098136
    19  H    0.118608
    20  O   -0.645663
    21  O   -0.666792
    22  O   -0.681384
    23  H    0.418334
    24  H    0.416195
    25  H    0.417066
    26  C   -0.074333
    27  O   -0.619273
    28  H    0.149373
    29  H    0.172826
    30  H    0.402390
 Sum of Mulliken charges =   0.00000
 Mulliken charges with hydrogens summed into heavy atoms:
               1
     1  C    0.453262
     2  O   -0.658437
     3  O   -0.579210
     7  O    0.505173
     9  O    0.029795
    11  C    0.273762
    12  C    0.221032
    13  C    0.256688
    14  C    0.209196
    20  O   -0.229467
    21  O   -0.248458
    22  O   -0.264318
    26  C    0.247866
    27  O   -0.216883
 APT charges:
               1
     1  C   -0.060643
     2  O   -0.529970
     3  O   -0.377957
     4  H    0.386874
     5  H    0.671480
     6  H    0.835481
     7  O   -1.167162
     8  H    0.366205
     9  O   -1.049686
    10  H    0.405348
    11  C   -0.205614
    12  C   -0.072725
    13  C   -0.154245
    14  C   -0.241476
    15  H    0.281542
    16  H    0.361322
    17  H    0.366398
    18  H    0.268429
    19  H    0.276819
    20  O   -0.959804
    21  O   -1.068761
    22  O   -0.955974
    23  H    0.899752
    24  H    0.788152
    25  H    0.785132
    26  C   -0.572904
    27  O   -0.774087
    28  H    0.414592
    29  H    0.390936
    30  H    0.692544
 Sum of APT charges =   0.00000
 APT charges with hydrogens summed into heavy atoms:
               1
     1  C    0.220899
     2  O   -0.529970
     3  O   -0.377957
     7  O    0.421397
     9  O    0.027142
    11  C    0.155709
    12  C    0.204094
    13  C    0.212153
    14  C    0.026954
    20  O   -0.171651
    21  O   -0.169008
    22  O   -0.170842
    26  C    0.232625
    27  O   -0.081543
 Electronic spatial extent (au):  <R**2>=           4490.3955
 Charge=              0.0000 electrons
 Dipole moment (field-independent basis, Debye):
    X=             -1.1451    Y=              2.9161    Z=              3.3696  Tot=              4.6010
 Quadrupole moment (field-independent basis, Debye-Ang):
   XX=            -76.4131   YY=            -79.9279   ZZ=            -82.8051
   XY=             -2.1444   XZ=             -4.7265   YZ=              6.7658
 Traceless Quadrupole moment (field-independent basis, Debye-Ang):
   XX=              3.3022   YY=             -0.2125   ZZ=             -3.0897
   XY=             -2.1444   XZ=             -4.7265   YZ=              6.7658
 Octapole moment (field-independent basis, Debye-Ang**2):
  XXX=            228.1518  YYY=             93.7405  ZZZ=           -333.5311  XYY=             61.4943
  XXY=             43.8204  XXZ=           -105.1146  XZZ=             42.1069  YZZ=             52.3352
  YYZ=            -96.4727  XYZ=            -19.2511
 Hexadecapole moment (field-independent basis, Debye-Ang**3):
 XXXX=          -1515.3554 YYYY=           -972.0646 ZZZZ=          -2669.2772 XXXY=           -428.9748
 XXXZ=            433.7269 YYYX=           -515.7104 YYYZ=             69.9097 ZZZX=            385.0029
 ZZZY=            158.4624 XXYY=           -418.2214 XXZZ=           -659.8169 YYZZ=           -554.5189
 XXYZ=             46.7570 YYXZ=            141.7832 ZZXY=           -250.8987
 N-N= 1.090709361402D+03 E-N=-4.153950273776D+03  KE= 8.328115532837D+02
  Exact polarizability:   0.000   0.000   0.000   0.000   0.000   0.000
 Approx polarizability: 144.330   8.108 127.696 -14.717   5.415 142.448
 Calling FoFJK, ICntrl=    100147 FMM=F ISym2X=0 I1Cent= 0 IOpClX= 0 NMat=1 NMatS=1 NMatT=0.
 -------------------------------------------------------------------
 Center     Atomic                   Forces (Hartrees/Bohr)
 Number     Number              X              Y              Z
 -------------------------------------------------------------------
      1        6           0.000073153   -0.000031208   -0.000136865
      2        8          -0.000095165   -0.000030185   -0.000020577
      3        8           0.000017771    0.000029931   -0.000006729
      4        1          -0.000048216    0.000000645    0.000081099
      5        1           0.000002009   -0.000001046   -0.000019293
      6        1          -0.000003952    0.000000836    0.000007289
      7        8           0.000006202   -0.000017996   -0.000026512
      8        1           0.000010639    0.000014257   -0.000011793
      9        8          -0.000020729   -0.000022035    0.000004512
     10        1           0.000036400    0.000042280    0.000055995
     11        6          -0.000053045    0.000004360    0.000038833
     12        6           0.000155708    0.000007522    0.000016909
     13        6           0.000023799    0.000011065   -0.000055120
     14        6          -0.000048753    0.000003092    0.000034144
     15        1          -0.000058753   -0.000018460   -0.000002132
     16        1           0.000008066    0.000011087   -0.000001032
     17        1          -0.000009841    0.000006138    0.000040971
     18        1          -0.000018894   -0.000009146    0.000013774
     19        1           0.000048474    0.000037963    0.000012595
     20        8           0.000023409   -0.000009013    0.000009122
     21        8          -0.000034016   -0.000035773   -0.000007407
     22        8          -0.000064337   -0.000021424    0.000055574
     23        1           0.000030728    0.000041854    0.000020551
     24        1          -0.000015503    0.000003550   -0.000045225
     25        1          -0.000004057   -0.000005785   -0.000030148
     26        6           0.000064369   -0.000003556   -0.000091966
     27        8          -0.000028395   -0.000027594    0.000024547
     28        1           0.000015580    0.000008485    0.000005186
     29        1           0.000002034    0.000008242    0.000003309
     30        1          -0.000014685    0.000001915    0.000030387
 -------------------------------------------------------------------
 Cartesian Forces:  Max     0.000155708 RMS     0.000038725
 IRC-IRC-IRC-IRC-IRC-IRC-IRC-IRC-IRC-IRC-IRC-IRC-IRC-IRC-IRC-IRC-IRC-IRC
          ******** Start new reaction path calculation ********
 Supplied step size of   0.1000 bohr.
    Integration on MW PES will use step size of   0.1042 sqrt(amu)*bohr.
 Point Number:   0          Path Number:   1
 Calculating another point on the path.
 IRC-IRC-IRC-IRC-IRC-IRC-IRC-IRC-IRC-IRC-IRC-IRC-IRC-IRC-IRC-IRC-IRC-IRC
                          Input orientation:                          
 ---------------------------------------------------------------------
 Center     Atomic      Atomic             Coordinates (Angstroms)
 Number     Number       Type             X           Y           Z
 ---------------------------------------------------------------------
      1          6           0        0.795188    0.330867   -1.324870
      2          8           0        0.794531    0.331232    0.529063
      3          8           0        2.014318    0.330420   -1.665815
      4          1           0        2.595328    1.493147   -1.522419
      5          1           0        1.305399    3.151874    0.972614
      6          1           0        3.996919    2.340347   -1.128958
      7          8           0        3.038208    2.477065   -1.194103
      8          1           0        2.555611    2.532718   -0.048043
      9          8           0        1.946349    2.423400    0.959314
     10          1           0        1.347160    1.364159    0.792515
     11          6           0       -0.011994   -0.933362   -1.584691
     12          6           0       -1.341784   -0.953455   -0.833130
     13          6           0       -1.187202   -1.017043    0.680558
     14          6           0       -0.445896    0.217562    1.208422
     15          1           0        0.213114    1.263696   -1.419776
     16          1           0        0.603011   -1.793157   -1.281524
     17          1           0       -0.600948   -1.914724    0.936821
     18          1           0       -1.088772    1.100628    1.026867
     19          1           0       -1.904138   -0.037389   -1.084750
     20          8           0       -0.259856   -0.948118   -2.984203
     21          8           0       -2.048539   -2.094891   -1.308224
     22          8           0       -2.509234   -1.112741    1.203114
     23          1           0       -2.826361   -2.185529   -0.731501
     24          1           0       -0.975041   -1.596415   -3.108856
     25          1           0       -2.420950   -1.076584    2.174659
     26          6           0       -0.149824    0.110731    2.713610
     27          8           0       -1.336170   -0.076600    3.499107
     28          1           0        0.413283    0.990593    3.053005
     29          1           0        0.471192   -0.771449    2.891487
     30          1           0       -1.826602    0.760976    3.502820
 ---------------------------------------------------------------------
                    Distance matrix (angstroms):
                    1          2          3          4          5
     1  C    0.000000
     2  O    1.853933   0.000000
     3  O    1.265907   2.511050   0.000000
     4  H    2.151843   2.966731   1.307697   0.000000
     5  H    3.673803   2.900646   3.927401   3.261975   0.000000
     6  H    3.785165   4.128058   2.873801   1.684344   3.509909
     7  O    3.107154   3.550773   2.424655   1.127842   2.855286
     8  H    3.094757   2.877672   2.785732   1.804458   1.728619
     9  O    3.304748   2.426720   3.358048   2.728652   0.970396
    10  H    2.419853   1.200727   2.749019   2.633150   1.797249
    11  C    1.522276   2.591840   2.389490   3.562296   4.996447
    12  C    2.541247   2.840745   3.688511   4.686345   5.207880
    13  C    3.125455   2.401678   4.191759   5.045958   4.866027
    14  C    2.823242   1.418841   3.785053   4.281782   3.425322
    15  H    1.103624   2.237299   2.043496   2.395439   3.237566
    16  H    2.133140   2.797844   2.578574   3.850604   5.479764
    17  H    3.479528   2.675433   4.319027   5.279927   5.413488
    18  H    3.110065   2.094424   4.180063   4.497280   3.153190
    19  H    2.734891   3.165926   3.978343   4.772765   4.970440
    20  O    2.345700   3.884779   2.923127   4.030963   5.909007
    21  O    3.737828   4.164702   4.745188   5.872427   6.631717
    22  O    4.403851   3.668005   5.547611   6.346317   5.726386
    23  H    4.449713   4.586280   5.534899   6.599464   6.961560
    24  H    3.167133   4.481257   3.838141   4.980935   6.663712
    25  H    4.956931   3.876758   6.033283   6.740546   5.762851
    26  C    4.153412   2.390120   4.889902   5.233629   3.794376
    27  O    5.289562   3.677958   6.169915   6.567838   4.876894
    28  H    4.443746   2.636359   5.026570   5.093956   3.129702
    29  H    4.370096   2.627071   4.936027   5.396565   4.446396
    30  H    5.510478   3.987261   6.453901   6.733689   4.682710
                    6          7          8          9         10
     6  H    0.000000
     7  O    0.970599   0.000000
     8  H    1.811837   1.244769   0.000000
     9  O    2.927902   2.415003   1.182336   0.000000
    10  H    3.415585   2.836346   1.879474   1.228348   0.000000
    11  C    5.195791   4.592092   4.579038   4.644881   3.574495
    12  C    6.279999   5.575222   5.287669   5.042601   3.904418
    13  C    6.435955   5.794586   5.209636   4.661919   3.479317
    14  C    5.450520   4.797548   3.993457   3.263528   2.168575
    15  H    3.944735   3.082913   2.996558   3.163714   2.488049
    16  H    5.350489   4.916566   4.903806   4.960369   3.850200
    17  H    6.596472   6.088687   5.541981   5.030760   3.816677
    18  H    5.661160   4.884594   4.060522   3.311533   2.461328
    19  H    6.362236   5.546280   5.250673   5.005989   4.007418
    20  O    5.689997   5.080705   5.353887   5.637890   4.710916
    21  O    7.500069   6.840380   6.648384   6.443276   5.282888
    22  O    7.726085   7.029045   6.364544   5.693501   4.601674
    23  H    8.197479   7.506461   7.189895   6.846886   5.686932
    24  H    6.643679   6.030397   6.235689   6.422105   5.420177
    25  H    7.986135   7.333444   6.537097   5.727151   4.697468
    26  C    6.077170   5.570755   4.562031   3.580494   2.739096
    27  O    7.463407   6.905260   5.876799   4.845150   4.074516
    28  H    5.670371   5.209392   4.072373   2.964249   2.474165
    29  H    6.186922   5.816740   4.889086   4.014529   3.119908
    30  H    7.606654   6.976563   5.911979   4.844403   4.216913
                   11         12         13         14         15
    11  C    0.000000
    12  C    1.527609   0.000000
    13  C    2.553325   1.522889   0.000000
    14  C    3.051946   2.518299   1.533761   0.000000
    15  H    2.214708   2.770851   3.402066   2.904499   0.000000
    16  H    1.099723   2.165268   2.767125   3.367941   3.084717
    17  H    2.769108   2.146067   1.102359   2.155098   4.039628
    18  H    3.480920   2.782600   2.148057   1.107275   2.776249
    19  H    2.152421   1.103962   2.142436   2.729488   2.507552
    20  O    1.421368   2.407844   3.780899   4.355632   2.750137
    21  O    2.360741   1.424111   2.420519   3.774839   4.050632
    22  O    3.747031   2.352573   1.424778   2.455014   4.465218
    23  H    3.196328   1.931917   2.458885   3.899328   4.648578
    24  H    1.920983   2.393078   3.839315   4.712684   3.527738
    25  H    4.467247   3.197899   1.938561   2.551326   5.033405
    26  C    4.425440   3.890068   2.545845   1.537746   4.306499
    27  O    5.322827   4.420089   2.975036   2.475147   5.328421
    28  H    5.038917   4.686324   3.495805   2.176753   4.485579
    29  H    4.505092   4.146418   2.774670   2.156827   4.774453
    30  H    5.660950   4.687728   3.396373   2.732382   5.352114
                   16         17         18         19         20
    16  H    0.000000
    17  H    2.526925   0.000000
    18  H    4.069987   3.055884   0.000000
    19  H    3.067122   3.051137   2.533541   0.000000
    20  O    2.087522   4.052789   4.579645   2.672268   0.000000
    21  O    2.668797   2.677350   4.072486   2.074635   2.706175
    22  O    4.040106   2.087018   2.635864   2.599393   4.756094
    23  H    3.495293   2.794476   4.112165   2.364273   3.632189
    24  H    2.422416   4.075385   4.938743   2.718600   0.973302
    25  H    4.647905   2.355235   2.798639   3.459880   5.594702
    26  C    4.489170   2.731842   2.169475   4.186538   5.796408
    27  O    5.437041   3.237987   2.749371   4.619076   6.629578
    28  H    5.154939   3.734671   2.524582   4.852649   6.376488
    29  H    4.298288   2.505450   3.068382   4.689509   5.923629
    30  H    5.942774   3.904606   2.605782   4.657166   6.888917
                   21         22         23         24         25
    21  O    0.000000
    22  O    2.735631   0.000000
    23  H    0.972538   2.234766   0.000000
    24  H    2.154797   4.602257   3.070220   0.000000
    25  H    3.647754   0.976218   3.136859   5.502400   0.000000
    26  C    4.964377   3.057008   4.930057   6.123434   2.618817
    27  O    5.262261   2.778714   4.956440   6.790097   1.982645
    28  H    5.882269   4.048112   5.908090   6.825583   3.616295
    29  H    5.073275   3.442386   5.098973   6.227060   2.995236
    30  H    5.599230   3.043920   5.254606   7.070835   2.343905
                   26         27         28         29         30
    26  C    0.000000
    27  O    1.435101   0.000000
    28  H    1.098378   2.097258   0.000000
    29  H    1.093409   2.029427   1.770376   0.000000
    30  H    1.963990   0.970603   2.296115   2.828765   0.000000
 Symmetry turned off by external request.
 Stoichiometry    C6H16O8
 Framework group  C1[X(C6H16O8)]
 Deg. of freedom    84
 Full point group                 C1      NOp   1
 Rotational constants (GHZ):      0.6853598      0.5210242      0.3085369
 Standard basis: 6-31G(d) (6D, 7F)
   242 basis functions,   456 primitive gaussians,   242 cartesian basis functions
    58 alpha electrons       58 beta electrons
       nuclear repulsion energy      1090.7402250073 Hartrees.
 NAtoms=   30 NActive=   30 NUniq=   30 SFac= 1.00D+00 NAtFMM=   60 NAOKFM=F Big=F
 Integral buffers will be    131072 words long.
 Raffenetti 2 integral format.
 Two-electron integral symmetry is turned off.
 One-electron integrals computed using PRISM.
 NBasis=   242 RedAO= T EigKep=  1.90D-03  NBF=   242
 NBsUse=   242 1.00D-06 EigRej= -1.00D+00 NBFU=   242
 Initial guess from the checkpoint file:  "/home/iawad/scratch/MAIN/PRO_Halides/direct/ircro/glo_2w_Beta/glo_2w_Beta_ircro_B3LYP_6-31G_d_B3LYP_6-31G_d.chk"
 B after Tr=     1.500791    0.625198   -2.497955
         Rot=    1.000000   -0.000040    0.000020   -0.000017 Ang=  -0.01 deg.
 ExpMin= 1.61D-01 ExpMax= 5.48D+03 ExpMxC= 8.25D+02 IAcc=1 IRadAn=         1 AccDes= 0.00D+00
 Harris functional with IExCor=  402 and IRadAn=       1 diagonalized for initial guess.
 HarFok:  IExCor=  402 AccDes= 0.00D+00 IRadAn=         1 IDoV= 1 UseB2=F ITyADJ=14
 ICtDFT=  3500011 ScaDFX=  1.000000  1.000000  1.000000  1.000000
 FoFCou: FMM=F IPFlag=           0 FMFlag=      100000 FMFlg1=           0
         NFxFlg=           0 DoJE=T BraDBF=F KetDBF=T FulRan=T
         wScrn=  0.000000 ICntrl=     500 IOpCl=  0 I1Cent=   200000004 NGrid=           0
         NMat0=    1 NMatS0=      1 NMatT0=    0 NMatD0=    1 NMtDS0=    0 NMtDT0=    0
 Symmetry not used in FoFCou.
 Requested convergence on RMS density matrix=1.00D-08 within 128 cycles.
 Requested convergence on MAX density matrix=1.00D-06.
 Requested convergence on             energy=1.00D-06.
 No special actions if energy rises.
 Integral accuracy reduced to 1.0D-05 until final iterations.
 Initial convergence to 1.0D-05 achieved.  Increase integral accuracy.
 SCF Done:  E(RB3LYP) =  -839.965741750     A.U. after   11 cycles
            NFock= 11  Conv=0.77D-08     -V/T= 2.0086
 DoSCS=F DFT=T ScalE2(SS,OS)=  1.000000  1.000000
 Range of M.O.s used for correlation:     1   242
 NBasis=   242 NAE=    58 NBE=    58 NFC=     0 NFV=     0
 NROrb=    242 NOA=    58 NOB=    58 NVA=   184 NVB=   184
 Symmetrizing basis deriv contribution to polar:
 IMax=3 JMax=2 DiffMx= 0.00D+00
 Calling FoFJK, ICntrl=      2147 FMM=F ISym2X=0 I1Cent= 0 IOpClX= 0 NMat=1 NMatS=1 NMatT=0.
 -------------------------------------------------------------------
 Center     Atomic                   Forces (Hartrees/Bohr)
 Number     Number              X              Y              Z
 -------------------------------------------------------------------
      1        6           0.002108144   -0.000276677   -0.004649898
      2        8           0.000551222    0.001113852    0.002763624
      3        8          -0.002527300   -0.002250360    0.000076806
      4        1           0.001526718    0.002740463    0.000356545
      5        1           0.000312315    0.000247842   -0.000141743
      6        1          -0.000003002   -0.000070431   -0.000230256
      7        8           0.001280852    0.000222643   -0.002154038
      8        1          -0.002025467   -0.000012858    0.003808245
      9        8           0.001330269    0.001759884   -0.000993377
     10        1          -0.001853792   -0.003625973   -0.000663877
     11        6          -0.000361481   -0.000199185    0.000272615
     12        6           0.000135361   -0.000038416   -0.000133092
     13        6           0.000219346   -0.000042358   -0.000238258
     14        6          -0.000511714    0.000296649    0.001114308
     15        1          -0.000079511    0.000021612    0.000164000
     16        1           0.000000415   -0.000000260    0.000005410
     17        1          -0.000008056    0.000001804    0.000042526
     18        1           0.000040703   -0.000001676   -0.000028470
     19        1           0.000046565    0.000038613    0.000020846
     20        8          -0.000045997   -0.000003675    0.000123551
     21        8          -0.000109350   -0.000070389    0.000106424
     22        8           0.000207360    0.000179332    0.000115464
     23        1          -0.000002834    0.000037944   -0.000014534
     24        1          -0.000013761    0.000001891   -0.000058344
     25        1          -0.000015711   -0.000038044   -0.000020260
     26        6          -0.000143763   -0.000011115    0.000185349
     27        8          -0.000045177   -0.000034587    0.000075796
     28        1           0.000010676    0.000003156    0.000030271
     29        1          -0.000004743    0.000008566    0.000000327
     30        1          -0.000018289    0.000001755    0.000064039
 -------------------------------------------------------------------
 Cartesian Forces:  Max     0.004649898 RMS     0.001090538
 IRC-IRC-IRC-IRC-IRC-IRC-IRC-IRC-IRC-IRC-IRC-IRC-IRC-IRC-IRC-IRC-IRC-IRC
 Pt  1 Step number   1 out of a maximum of 500
 Modified Bulirsch-Stoer Extrapolation Cycles:
    EPS =    0.000010000000000
 Maximum DWI energy   std dev =  0.000002880 at pt    25
 Maximum DWI gradient std dev =  0.065420443 at pt     1
 CORRECTOR INTEGRATION CONVERGENCE:
   Recorrection delta-x convergence threshold:    0.010000
   Delta-x Convergence Met
 Point Number:   1          Path Number:   1
   CHANGE IN THE REACTION COORDINATE =    0.10415
   NET REACTION COORDINATE UP TO THIS POINT =    0.10415
  # OF POINTS ALONG THE PATH =   1
  # OF STEPS =   1

 Calculating another point on the path.
 IRC-IRC-IRC-IRC-IRC-IRC-IRC-IRC-IRC-IRC-IRC-IRC-IRC-IRC-IRC-IRC-IRC-IRC
                          Input orientation:                          
 ---------------------------------------------------------------------
 Center     Atomic      Atomic             Coordinates (Angstroms)
 Number     Number       Type             X           Y           Z
 ---------------------------------------------------------------------
      1          6           0        0.796454    0.330693   -1.327917
      2          8           0        0.794793    0.331729    0.530416
      3          8           0        2.013122    0.329300   -1.665799
      4          1           0        2.607367    1.514582   -1.519503
      5          1           0        1.307629    3.154137    0.971523
      6          1           0        3.997258    2.339752   -1.130783
      7          8           0        3.038841    2.477200   -1.195205
      8          1           0        2.540086    2.532525   -0.018863
      9          8           0        1.946991    2.424288    0.958925
     10          1           0        1.332731    1.335936    0.787108
     11          6           0       -0.012205   -0.933516   -1.584537
     12          6           0       -1.341699   -0.953479   -0.833216
     13          6           0       -1.187064   -1.017076    0.680429
     14          6           0       -0.446268    0.217748    1.209167
     15          1           0        0.212806    1.263860   -1.418556
     16          1           0        0.603006   -1.793207   -1.281483
     17          1           0       -0.600982   -1.914718    0.937073
     18          1           0       -1.088400    1.100667    1.026610
     19          1           0       -1.903830   -0.037202   -1.084612
     20          8           0       -0.259879   -0.948121   -2.984145
     21          8           0       -2.048584   -2.094903   -1.308166
     22          8           0       -2.509128   -1.112649    1.203149
     23          1           0       -2.826504   -2.185312   -0.731580
     24          1           0       -0.975074   -1.596336   -3.109219
     25          1           0       -2.421050   -1.076880    2.174712
     26          6           0       -0.149924    0.110736    2.713759
     27          8           0       -1.336188   -0.076618    3.499138
     28          1           0        0.413309    0.990563    3.053180
     29          1           0        0.471164   -0.771425    2.891475
     30          1           0       -1.826655    0.760957    3.503336
 ---------------------------------------------------------------------
                    Distance matrix (angstroms):
                    1          2          3          4          5
     1  C    0.000000
     2  O    1.858334   0.000000
     3  O    1.262714   2.511512   0.000000
     4  H    2.172027   2.981062   1.333950   0.000000
     5  H    3.677031   2.902337   3.928472   3.253102   0.000000
     6  H    3.784220   4.128864   2.874883   1.662470   3.509560
     7  O    3.106993   3.551981   2.426321   1.103618   2.854829
     8  H    3.098699   2.862037   2.800765   1.814567   1.698887
     9  O    3.307042   2.426929   3.358947   2.721446   0.970372
    10  H    2.402381   1.167775   2.737334   2.641413   1.827702
    11  C    1.522501   2.593283   2.388149   3.586024   4.998431
    12  C    2.542740   2.841804   3.686942   4.707168   5.210425
    13  C    3.127983   2.401986   4.190311   5.064257   4.869009
    14  C    2.827351   1.419129   3.785033   4.295592   3.428558
    15  H    1.104383   2.237424   2.043445   2.409766   3.237941
    16  H    2.133197   2.799127   2.577045   3.874994   5.481673
    17  H    3.482080   2.675833   4.317881   5.299846   5.416389
    18  H    3.112770   2.093774   4.178937   4.506962   3.156062
    19  H    2.736070   3.166542   3.976759   4.790413   4.972504
    20  O    2.343992   3.886192   2.921708   4.053539   5.910407
    21  O    3.738736   4.165779   4.743640   5.894991   6.634272
    22  O    4.406405   3.668064   5.546244   6.363466   5.729463
    23  H    4.451036   4.587147   5.533355   6.620950   6.964289
    24  H    3.166195   4.482946   3.836776   5.003887   6.665597
    25  H    4.960041   3.876794   6.032309   6.756321   5.766473
    26  C    4.156820   2.389208   4.889485   5.243467   3.797649
    27  O    5.292875   3.677110   6.169216   6.578017   4.880203
    28  H    4.447048   2.635134   5.026473   5.098815   3.132755
    29  H    4.373071   2.626078   4.935380   5.407949   4.449261
    30  H    5.514239   3.986789   6.453694   6.742211   4.686270
                    6          7          8          9         10
     6  H    0.000000
     7  O    0.970363   0.000000
     8  H    1.843062   1.278905   0.000000
     9  O    2.928757   2.415619   1.148715   0.000000
    10  H    3.433024   2.853570   1.881255   1.261487   0.000000
    11  C    5.195764   4.592760   4.580279   4.645697   3.547388
    12  C    6.279998   5.575816   5.280496   5.043467   3.875492
    13  C    6.436301   5.795364   5.194258   4.662923   3.449262
    14  C    5.451898   4.799179   3.972978   3.264832   2.143202
    15  H    3.944925   3.083594   2.997479   3.163291   2.474748
    16  H    5.350234   4.917023   4.904940   4.961148   3.821400
    17  H    6.596995   6.089653   5.527937   5.031860   3.785298
    18  H    5.661589   4.885225   4.038457   3.312122   2.444297
    19  H    6.361987   5.546571   5.242871   5.006376   3.982984
    20  O    5.689313   5.080816   5.361678   5.638371   4.687821
    21  O    7.499989   6.840964   6.643137   6.444177   5.253010
    22  O    7.726536   7.029871   6.346271   5.694433   4.574771
    23  H    8.197517   7.507079   7.180962   6.847808   5.657281
    24  H    6.643123   6.030644   6.241325   6.422903   5.394955
    25  H    7.987136   7.334728   6.515553   5.728534   4.673114
    26  C    6.078497   5.572107   4.535244   3.581762   2.722382
    27  O    7.464627   6.906499   5.848885   4.846285   4.058761
    28  H    5.671908   5.210785   4.042063   2.965409   2.469757
    29  H    6.187997   5.817859   4.864832   4.015644   3.100262
    30  H    7.608259   6.978169   5.883261   4.845730   4.205974
                   11         12         13         14         15
    11  C    0.000000
    12  C    1.527232   0.000000
    13  C    2.552910   1.522852   0.000000
    14  C    3.052639   2.518908   1.533993   0.000000
    15  H    2.215094   2.770506   3.401183   2.904076   0.000000
    16  H    1.099724   2.165171   2.766917   3.368717   3.084915
    17  H    2.769103   2.146291   1.102325   2.155315   4.039133
    18  H    3.480544   2.782558   2.148118   1.106890   2.774636
    19  H    2.152104   1.103972   2.142259   2.729635   2.506876
    20  O    1.421429   2.407667   3.780679   4.356359   2.750884
    21  O    2.360517   1.424119   2.420421   3.775280   4.050600
    22  O    3.746720   2.352660   1.424859   2.454665   4.464309
    23  H    3.196061   1.931939   2.458923   3.899579   4.648239
    24  H    1.921224   2.393297   3.839520   4.713703   3.528473
    25  H    4.467106   3.198102   1.938860   2.551098   5.032677
    26  C    4.425469   3.890232   2.545987   1.537227   4.305496
    27  O    5.322684   4.420205   2.975201   2.474384   5.327286
    28  H    5.039004   4.686515   3.495963   2.176350   4.484564
    29  H    4.504953   4.146437   2.774669   2.156456   4.773416
    30  H    5.661265   4.688299   3.396952   2.731987   5.351386
                   16         17         18         19         20
    16  H    0.000000
    17  H    2.527121   0.000000
    18  H    4.069724   3.055837   0.000000
    19  H    3.067008   3.051179   2.533166   0.000000
    20  O    2.087534   4.052976   4.579316   2.672185   0.000000
    21  O    2.668831   2.677520   4.072444   2.074865   2.706193
    22  O    4.040041   2.086896   2.635982   2.599389   4.756009
    23  H    3.495379   2.794740   4.112164   2.364389   3.632114
    24  H    2.422749   4.076002   4.938801   2.718919   0.973309
    25  H    4.647937   2.355074   2.799251   3.460006   5.594734
    26  C    4.489305   2.731763   2.169601   4.186369   5.796497
    27  O    5.437048   3.237796   2.749689   4.618933   6.629549
    28  H    5.155062   3.734616   2.524725   4.852500   6.376596
    29  H    4.298255   2.505255   3.068336   4.689237   5.923559
    30  H    5.943189   3.904769   2.606644   4.657497   6.889350
                   21         22         23         24         25
    21  O    0.000000
    22  O    2.735622   0.000000
    23  H    0.972515   2.234840   0.000000
    24  H    2.155176   4.602586   3.070481   0.000000
    25  H    3.647676   0.976202   3.136805   5.502782   0.000000
    26  C    4.964436   3.056870   4.930139   6.123891   2.618972
    27  O    5.262239   2.778617   4.956471   6.790459   1.982815
    28  H    5.882377   4.048055   5.908212   6.826040   3.616576
    29  H    5.073234   3.442240   5.099040   6.227392   2.995322
    30  H    5.599619   3.044179   5.254970   7.071627   2.344396
                   26         27         28         29         30
    26  C    0.000000
    27  O    1.434972   0.000000
    28  H    1.098424   2.097259   0.000000
    29  H    1.093408   2.029417   1.770338   0.000000
    30  H    1.964090   0.970622   2.296258   2.828876   0.000000
 Symmetry turned off by external request.
 Stoichiometry    C6H16O8
 Framework group  C1[X(C6H16O8)]
 Deg. of freedom    84
 Full point group                 C1      NOp   1
 Rotational constants (GHZ):      0.6852290      0.5209704      0.3084950
 Standard basis: 6-31G(d) (6D, 7F)
   242 basis functions,   456 primitive gaussians,   242 cartesian basis functions
    58 alpha electrons       58 beta electrons
       nuclear repulsion energy      1090.7794414666 Hartrees.
 NAtoms=   30 NActive=   30 NUniq=   30 SFac= 1.00D+00 NAtFMM=   60 NAOKFM=F Big=F
 Integral buffers will be    131072 words long.
 Raffenetti 2 integral format.
 Two-electron integral symmetry is turned off.
 One-electron integrals computed using PRISM.
 NBasis=   242 RedAO= T EigKep=  1.90D-03  NBF=   242
 NBsUse=   242 1.00D-06 EigRej= -1.00D+00 NBFU=   242
 Initial guess from the checkpoint file:  "/home/iawad/scratch/MAIN/PRO_Halides/direct/ircro/glo_2w_Beta/glo_2w_Beta_ircro_B3LYP_6-31G_d_B3LYP_6-31G_d.chk"
 B after Tr=    -0.000121   -0.000038    0.000202
         Rot=    1.000000   -0.000040    0.000020   -0.000015 Ang=  -0.01 deg.
 ExpMin= 1.61D-01 ExpMax= 5.48D+03 ExpMxC= 8.25D+02 IAcc=1 IRadAn=         1 AccDes= 0.00D+00
 Harris functional with IExCor=  402 and IRadAn=       1 diagonalized for initial guess.
 HarFok:  IExCor=  402 AccDes= 0.00D+00 IRadAn=         1 IDoV= 1 UseB2=F ITyADJ=14
 ICtDFT=  3500011 ScaDFX=  1.000000  1.000000  1.000000  1.000000
 FoFCou: FMM=F IPFlag=           0 FMFlag=      100000 FMFlg1=           0
         NFxFlg=           0 DoJE=T BraDBF=F KetDBF=T FulRan=T
         wScrn=  0.000000 ICntrl=     500 IOpCl=  0 I1Cent=   200000004 NGrid=           0
         NMat0=    1 NMatS0=      1 NMatT0=    0 NMatD0=    1 NMtDS0=    0 NMtDT0=    0
 Symmetry not used in FoFCou.
 Requested convergence on RMS density matrix=1.00D-08 within 128 cycles.
 Requested convergence on MAX density matrix=1.00D-06.
 Requested convergence on             energy=1.00D-06.
 No special actions if energy rises.
 Integral accuracy reduced to 1.0D-05 until final iterations.
 Initial convergence to 1.0D-05 achieved.  Increase integral accuracy.
 SCF Done:  E(RB3LYP) =  -839.966783559     A.U. after   11 cycles
            NFock= 11  Conv=0.91D-08     -V/T= 2.0085
 DoSCS=F DFT=T ScalE2(SS,OS)=  1.000000  1.000000
 Range of M.O.s used for correlation:     1   242
 NBasis=   242 NAE=    58 NBE=    58 NFC=     0 NFV=     0
 NROrb=    242 NOA=    58 NOB=    58 NVA=   184 NVB=   184
 Symmetrizing basis deriv contribution to polar:
 IMax=3 JMax=2 DiffMx= 0.00D+00
 Calling FoFJK, ICntrl=      2147 FMM=F ISym2X=0 I1Cent= 0 IOpClX= 0 NMat=1 NMatS=1 NMatT=0.
 -------------------------------------------------------------------
 Center     Atomic                   Forces (Hartrees/Bohr)
 Number     Number              X              Y              Z
 -------------------------------------------------------------------
      1        6           0.003657477   -0.000489090   -0.008871447
      2        8           0.000734840    0.001213746    0.005180197
      3        8          -0.004706095   -0.004444250    0.000075150
      4        1           0.002665592    0.004541156    0.000355110
      5        1           0.000609142    0.000509433   -0.000224351
      6        1           0.000038205   -0.000118414   -0.000467638
      7        8           0.003051472    0.001267071   -0.004369050
      8        1          -0.003412961    0.000050422    0.006653344
      9        8           0.002132405    0.003909373   -0.000593977
     10        1          -0.003425393   -0.006678589   -0.001232740
     11        6          -0.000574923   -0.000443258    0.000412096
     12        6           0.000069594   -0.000081692   -0.000273540
     13        6           0.000380162   -0.000109541   -0.000336481
     14        6          -0.001045511    0.000542928    0.002160834
     15        1          -0.000023531    0.000067344    0.000302361
     16        1          -0.000011478   -0.000023751    0.000011595
     17        1           0.000001362   -0.000004809    0.000020684
     18        1           0.000115450    0.000020533   -0.000079622
     19        1           0.000021875    0.000013833    0.000020445
     20        8          -0.000118450   -0.000001867    0.000220045
     21        8          -0.000147557   -0.000028992    0.000238076
     22        8           0.000499030    0.000385887    0.000109860
     23        1          -0.000058768    0.000012363   -0.000050343
     24        1          -0.000001857    0.000005560   -0.000047214
     25        1          -0.000023584   -0.000067257    0.000019920
     26        6          -0.000366342    0.000005256    0.000541440
     27        8          -0.000041466   -0.000045391    0.000095021
     28        1          -0.000004099   -0.000010044    0.000041684
     29        1          -0.000011666    0.000001121   -0.000005813
     30        1          -0.000002925    0.000000918    0.000094352
 -------------------------------------------------------------------
 Cartesian Forces:  Max     0.008871447 RMS     0.002011214
 IRC-IRC-IRC-IRC-IRC-IRC-IRC-IRC-IRC-IRC-IRC-IRC-IRC-IRC-IRC-IRC-IRC-IRC
 Pt  2 Step number   1 out of a maximum of 500
 Modified Bulirsch-Stoer Extrapolation Cycles:
    EPS =    0.000010000000000
 Maximum DWI energy   std dev =  0.000007835 at pt    49
 Maximum DWI gradient std dev =  0.030470488 at pt    55
 CORRECTOR INTEGRATION CONVERGENCE:
   Recorrection delta-x convergence threshold:    0.010000
   Delta-x Convergence Met
 Point Number:   2          Path Number:   1
   CHANGE IN THE REACTION COORDINATE =    0.10413
   NET REACTION COORDINATE UP TO THIS POINT =    0.20828
  # OF POINTS ALONG THE PATH =   2
  # OF STEPS =   1

 Calculating another point on the path.
 IRC-IRC-IRC-IRC-IRC-IRC-IRC-IRC-IRC-IRC-IRC-IRC-IRC-IRC-IRC-IRC-IRC-IRC
                          Input orientation:                          
 ---------------------------------------------------------------------
 Center     Atomic      Atomic             Coordinates (Angstroms)
 Number     Number       Type             X           Y           Z
 ---------------------------------------------------------------------
      1          6           0        0.797735    0.330516   -1.331297
      2          8           0        0.794957    0.331934    0.531879
      3          8           0        2.011845    0.328014   -1.665811
      4          1           0        2.618693    1.533864   -1.518083
      5          1           0        1.310171    3.156820    0.970577
      6          1           0        3.997790    2.339278   -1.132928
      7          8           0        3.039790    2.477669   -1.196513
      8          1           0        2.525492    2.532820    0.009938
      9          8           0        1.947554    2.425460    0.958948
     10          1           0        1.317553    1.306384    0.781680
     11          6           0       -0.012414   -0.933692   -1.584399
     12          6           0       -1.341687   -0.953505   -0.833316
     13          6           0       -1.186925   -1.017117    0.680310
     14          6           0       -0.446695    0.217945    1.210005
     15          1           0        0.212875    1.264178   -1.417246
     16          1           0        0.602938   -1.793324   -1.281428
     17          1           0       -0.600961   -1.914742    0.937141
     18          1           0       -1.087842    1.100801    1.026236
     19          1           0       -1.903758   -0.037154   -1.084532
     20          8           0       -0.259916   -0.948125   -2.984083
     21          8           0       -2.048621   -2.094910   -1.308097
     22          8           0       -2.508977   -1.112536    1.203178
     23          1           0       -2.826776   -2.185266   -0.731831
     24          1           0       -0.975085   -1.596317   -3.109425
     25          1           0       -2.421149   -1.077181    2.174802
     26          6           0       -0.150067    0.110740    2.713984
     27          8           0       -1.336202   -0.076630    3.499163
     28          1           0        0.413292    0.990521    3.053355
     29          1           0        0.471102   -0.771425    2.891448
     30          1           0       -1.826649    0.760970    3.503775
 ---------------------------------------------------------------------
                    Distance matrix (angstroms):
                    1          2          3          4          5
     1  C    0.000000
     2  O    1.863178   0.000000
     3  O    1.259353   2.512106   0.000000
     4  H    2.190622   2.995496   1.358000   0.000000
     5  H    3.680925   2.904803   3.930017   3.246482   0.000000
     6  H    3.783494   4.130273   2.876304   1.642846   3.509474
     7  O    3.107289   3.553983   2.428565   1.082357   2.854664
     8  H    3.103901   2.847995   2.816582   1.827962   1.670093
     9  O    3.309999   2.427698   3.360472   2.716809   0.970196
    10  H    2.384785   1.133605   2.725704   2.652098   1.860067
    11  C    1.522702   2.594666   2.386662   3.607763   5.000942
    12  C    2.544370   2.842773   3.685311   4.726576   5.213555
    13  C    3.130742   2.402046   4.188770   5.081650   4.872524
    14  C    2.831870   1.419347   3.785082   4.309375   3.432330
    15  H    1.105067   2.237630   2.043155   2.422986   3.238496
    16  H    2.133338   2.800299   2.575431   3.897366   5.484125
    17  H    3.484730   2.675888   4.316488   5.318570   5.419805
    18  H    3.115557   2.092958   4.177604   4.516581   3.159237
    19  H    2.737542   3.167345   3.975322   4.807144   4.975368
    20  O    2.342061   3.887582   2.920149   4.073796   5.912282
    21  O    3.739648   4.166655   4.741930   5.915734   6.637356
    22  O    4.409116   3.667849   5.544738   6.379788   5.733009
    23  H    4.452594   4.588050   5.531831   6.641028   6.967812
    24  H    3.165014   4.484450   3.835208   5.024504   6.667917
    25  H    4.963421   3.876614   6.031278   6.771630   5.770587
    26  C    4.160640   2.388217   4.889139   5.253733   3.801364
    27  O    5.296489   3.676076   6.168477   6.588448   4.883875
    28  H    4.450682   2.633865   5.026411   5.104612   3.136113
    29  H    4.376361   2.624852   4.934700   5.419453   4.452515
    30  H    5.518206   3.986108   6.453380   6.751111   4.690078
                    6          7          8          9         10
     6  H    0.000000
     7  O    0.970030   0.000000
     8  H    1.873836   1.312657   0.000000
     9  O    2.930331   2.416964   1.116315   0.000000
    10  H    3.451994   2.872500   1.886491   1.296401   0.000000
    11  C    5.195950   4.593886   4.582530   4.646933   3.519245
    12  C    6.280303   5.576935   5.274525   5.044672   3.845370
    13  C    6.436962   5.796646   5.180105   4.664110   3.417798
    14  C    5.453699   4.801381   3.953821   3.266279   2.116774
    15  H    3.944903   3.084272   2.999084   3.162907   2.461173
    16  H    5.350278   4.918012   4.907073   4.962400   3.791475
    17  H    6.597756   6.091045   5.515000   5.033165   3.752402
    18  H    5.662108   4.886074   4.017428   3.312533   2.426520
    19  H    6.362235   5.547571   5.236496   5.007282   3.957864
    20  O    5.688747   5.081292   5.370255   5.639280   4.663924
    21  O    7.500119   6.841992   6.638946   6.445358   5.221790
    22  O    7.727252   7.031138   6.329165   5.695413   4.546556
    23  H    8.197992   7.508361   7.173376   6.849215   5.626526
    24  H    6.642659   6.031236   6.247738   6.424029   5.368664
    25  H    7.988495   7.336524   6.495229   5.729953   4.647587
    26  C    6.080283   5.574005   4.509652   3.583029   2.705046
    27  O    7.466214   6.908192   5.822079   4.847287   4.042259
    28  H    5.673864   5.212627   4.012787   2.966403   2.465352
    29  H    6.189475   5.819466   4.841658   4.016782   3.079754
    30  H    7.610136   6.980114   5.855552   4.846781   4.194435
                   11         12         13         14         15
    11  C    0.000000
    12  C    1.526920   0.000000
    13  C    2.552517   1.522846   0.000000
    14  C    3.053450   2.519616   1.534240   0.000000
    15  H    2.215700   2.770515   3.400513   2.903805   0.000000
    16  H    1.099735   2.165102   2.766680   3.369594   3.085274
    17  H    2.768937   2.146432   1.102292   2.155599   4.038688
    18  H    3.480103   2.782542   2.148268   1.106470   2.772933
    19  H    2.151937   1.103962   2.142159   2.730020   2.506850
    20  O    1.421471   2.407500   3.780461   4.357175   2.751870
[...]
 8,0.00003903,-0.00002544,-0.00002027,0.00012431,-0.00083921,-0.0005587
 8,-0.20744982,-0.13345083,-0.00018228,0.00001696,-0.00098337,0.0014567
 2,-0.00032215,-0.00019070,0.00083097,0.00019673,-0.00126311,0.00025872
 ,0.21328178,0.13882268,-0.00034335,0.00223548,-0.00760262,0.00057785,0
 .00008043,-0.00077741,-0.00086163,-0.00072031,0.00124612,0.00006181,0.
 00013283,0.00020773,-0.00003549,-0.00003345,0.00002731,-0.00000886,-0.
 00000234,0.00002743,0.00003448,-0.00006196,-0.00018435,-0.00012513,0.0
 0002918,0.00014621,0.00017962,0.00013385,-0.00011771,-0.00008373,-0.00
 021556,-0.00005241,-0.04193332,-0.02669124,-0.01107822,-0.00356090,-0.
 00614588,-0.00402616,-0.00079510,0.00054755,-0.00010794,-0.00095010,-0
 .00068816,0.00053362,0.00021153,-0.00043716,0.00088531,-0.00031186,0.0
 0026583,-0.00086384,0.00005736,-0.00010124,0.00003708,0.00009371,0.000
 02544,-0.00002297,0.00051378,0.00084663,0.00007390,0.03938234,0.026893
 15,-0.04294974,-0.00167130,-0.00043605,-0.00056719,0.00019283,0.000435
 14,0.00169057,0.00196110,0.00134186,0.00093080,0.00695090,0.00221365,0
 .06268258,0.00021867,0.00036674,0.00046231,0.00077449,0.00082948,-0.00
 147268,-0.00010089,-0.00013658,-0.00018609,0.00001030,0.00002731,0.000
 07447,0.00000184,-0.00002984,0.00002602,-0.00002451,-0.00001817,0.0000
 3024,0.00006256,-0.00000294,-0.00015637,-0.00013262,0.00000846,0.00014
 829,0.00018591,0.00024971,-0.00015640,-0.00005129,-0.00045371,0.000017
 66,0.00141876,-0.00037944,0.00108299,-0.00832892,-0.00068992,0.0018425
 4,-0.00274882,-0.00165711,0.04552890,-0.00014188,-0.00212916,0.0020754
 8,-0.00002163,-0.00007751,-0.00001901,-0.00001221,0.00004946,-0.000041
 25,-0.00038691,0.00062615,0.00004450,0.00000274,0.00023395,-0.00020949
 ,0.00010150,-0.00007934,-0.00012430,-0.00040890,0.00017466,0.00084702,
 0.00070645,-0.00067050,-0.00230921,-0.04948574,-0.00498719,-0.06128488
 ,0.00008276,0.00157292,0.00185187,-0.00018097,-0.00017510,0.00006269,0
 .06556350,0.00028796,0.00051178,0.00056935,0.00122425,-0.00007159,-0.0
 0167821,-0.00011576,-0.00023181,-0.00019971,0.00003316,0.00008550,0.00
 008519,-0.00004642,-0.00003912,0.00006506,-0.00002279,-0.00000408,0.00
 002790,0.00007331,-0.00006060,-0.00018983,-0.00018103,0.00004055,0.000
 20167,0.00025953,0.00016653,-0.00022012,-0.00014710,-0.00039876,0.0000
 4983,0.00053402,0.00024647,0.00012305,-0.00339708,-0.00074190,0.000520
 93,0.00202828,-0.00011457,0.00636742,-0.00126843,0.00080134,0.00235233
 ,-0.00001850,-0.00013514,-0.00003657,-0.00006250,-0.00003847,0.0000216
 9,-0.00016497,0.00026109,-0.00082102,0.00007502,-0.00073590,0.00010622
 ,0.00010844,0.00000277,-0.00023261,-0.00014784,0.00006513,0.00050773,0
 .00051243,0.00013659,-0.00220430,-0.00621090,-0.00866355,-0.00262377,0
 .00082965,-0.00000611,0.00150421,-0.00005122,-0.00006812,-0.00001078,0
 .00588817,0.01485945,0.00069923,0.00053855,0.00019914,-0.00130985,-0.0
 0189073,-0.00252119,-0.00063756,-0.00030385,-0.00006607,0.00021315,0.0
 0026942,0.00007129,-0.00000827,0.00004704,0.00010337,0.00002399,0.0000
 2856,0.00002714,-0.00011858,-0.00021406,-0.00013150,-0.00000347,0.0000
 9400,0.00012597,-0.00006453,-0.00038348,-0.00029169,-0.00018793,0.0004
 2727,0.00037295,0.00007673,-0.00004581,-0.00019477,0.00130406,-0.00029
 281,-0.00024702,0.00453923,0.00180711,-0.01680223,0.00086076,0.0016798
 1,0.00407282,-0.00001937,-0.00006930,-0.00003585,0.00001174,-0.0000534
 0,0.00004708,-0.00267787,-0.00002814,0.00085269,0.00005861,0.00015572,
 -0.00006510,0.00001214,-0.00014078,0.00017877,-0.00033072,-0.00000639,
 0.00060944,-0.00055719,0.00008954,0.00218631,-0.01272411,0.00144555,-0
 .45176559,-0.00009273,-0.00042914,-0.00275340,0.00021592,-0.00004059,-
 0.00040929,0.00902785,-0.00519380,0.46712723,-0.00008125,-0.00020177,-
 0.00165397,-0.01488753,-0.00884718,0.04225025,-0.00067407,0.00000653,0
 .00070974,0.00020725,0.00025726,0.00012805,-0.00010115,-0.00011042,0.0
 0011048,-0.00003984,-0.00003302,0.00009895,0.00006504,-0.00016218,-0.0
 0043923,-0.00024911,0.00029888,0.00047124,0.00028261,-0.00047057,-0.00
 109914,0.00046760,0.00104670,0.00333274,-0.00003954,-0.00028369,0.0006
 1550,-0.00155556,-0.00202507,0.00068005,0.00567428,0.00428568,-0.02172
 785,-0.07813508,0.00616092,-0.04020704,0.00012957,-0.00000596,0.000231
 84,0.00004663,0.00001649,-0.00004267,-0.00011888,0.00090747,0.00139242
 ,-0.00265813,0.00459045,-0.02029837,0.00010986,-0.00024696,0.00013461,
 0.00006224,0.00006878,-0.00020610,-0.00152486,-0.00120357,-0.00126946,
 -0.00102073,0.00267701,0.00961671,0.00032655,-0.00023238,-0.00124336,-
 0.00004178,0.00003672,0.00010048,-0.00714746,-0.00707796,-0.00830962,0
 .52234371,-0.00006429,-0.00030611,0.00002232,-0.00445796,0.00078729,0.
 00506957,0.00016425,0.00006779,-0.00002667,0.00002274,0.00005815,0.000
 04947,0.00008532,0.00008137,0.00013225,-0.00003106,0.00001593,0.000032
 49,0.00012972,-0.00008099,-0.00026764,-0.00025612,0.00022916,0.0003071
 2,0.00013600,-0.00021992,-0.00091180,0.00043282,-0.00009849,0.00292914
 ,-0.00049737,0.00041258,0.00020945,-0.00189202,-0.00550848,0.00117577,
 -0.00232630,0.00664259,-0.03236765,0.00932279,-0.09179714,0.00994579,0
 .00001620,0.00005338,-0.00004316,0.00004988,-0.00003864,-0.00003819,-0
 .00014722,0.00036342,-0.00113614,0.00621176,-0.00438092,0.02975381,-0.
 00016526,0.00059441,-0.00007098,0.00021870,-0.00007507,-0.00033229,-0.
 00152887,-0.00068507,-0.00277789,0.00114932,0.00057628,0.00248739,0.00
 049474,0.00002799,-0.00026265,-0.00012189,0.00003310,0.00019920,-0.003
 34686,-0.00040785,0.00051729,-0.03047090,0.64323377,0.00058144,-0.0004
 0813,-0.00165811,0.01173985,0.00208856,-0.01436538,-0.00098469,0.00002
 681,0.00063206,0.00034239,0.00038158,-0.00005551,0.00004416,0.00022881
 ,0.00011657,0.00008724,0.00007734,-0.00000765,-0.00031915,-0.00034149,
 0.00008769,0.00025639,0.00019955,-0.00011153,-0.00058811,-0.00127518,-
 0.00045130,0.00095377,0.00270041,0.00097882,-0.00004625,-0.00033162,-0
 .00049338,-0.00086754,-0.00076856,0.00021408,-0.01124932,-0.00565011,-
 0.01973675,-0.04003369,0.01351149,-0.16461580,0.00004938,0.00016395,0.
 00008147,0.00001255,-0.00001540,0.00001800,0.00084840,0.00202874,0.001
 20942,-0.00104073,-0.00060672,-0.00678650,-0.00003057,0.00014540,-0.00
 013505,0.00024860,0.00027340,0.00050293,0.00074312,0.00064668,0.000160
 03,0.00344868,0.00055456,-0.00480588,-0.00014844,-0.00000374,0.0001281
 6,-0.00009251,-0.00005738,-0.00005940,-0.00074741,0.00150344,0.0067191
 3,0.04122874,0.03289397,0.45759410,-0.00032091,-0.00071617,-0.00169391
 ,0.00131374,-0.00129346,0.00615843,-0.00000195,0.00027325,0.00061721,0
 .00004529,0.00002742,-0.00022403,-0.00006393,0.00009418,-0.00000648,0.
 00010020,0.00007412,-0.00011211,-0.00025836,-0.00008442,0.00051157,0.0
 0043029,-0.00003298,-0.00047265,-0.00050852,-0.00071275,0.00060048,0.0
 0054228,0.00144081,-0.00099069,-0.00051955,-0.00018561,-0.00034937,0.0
 0020691,-0.00006202,-0.00039582,-0.00812552,-0.00251173,0.00323619,-0.
 00981066,0.00067240,0.00533354,0.00005686,0.00017129,0.00013051,0.0000
 5854,-0.00004571,-0.00001766,0.00113515,-0.00009194,-0.00028837,0.0022
 1727,-0.00177855,0.00025895,-0.00002756,0.00012161,0.00004096,0.000618
 50,0.00023119,-0.00004647,0.00147490,0.00074254,-0.00042458,0.00473440
 ,-0.00426456,-0.01353044,0.00005389,0.00044780,0.00143527,-0.00021364,
 0.00004539,0.00026263,-0.00293429,0.00690404,0.00634626,-0.17025082,-0
 .03984591,0.06539395,0.37715278,-0.00023179,-0.00040785,-0.00074370,-0
 .00050164,0.00266170,0.00426822,0.00005011,0.00020325,0.00028967,-0.00
 001495,-0.00006342,-0.00008905,0.00002363,0.00003918,-0.00009149,0.000
 03025,0.00000313,-0.00003131,-0.00011127,0.00005363,0.00023525,0.00022
 917,-0.00009217,-0.00025140,-0.00030416,-0.00007497,0.00041139,0.00037
 175,0.00043312,-0.00103063,-0.00025818,-0.00012274,-0.00005077,0.00022
 284,-0.00011545,-0.00019382,-0.00374793,-0.00177974,0.00237780,-0.0079
 1192,0.00014582,0.00370694,0.00002312,0.00009849,0.00005186,0.00001157
 ,0.00002028,-0.00000380,0.00035507,0.00025890,0.00020221,-0.00061216,0
 .00067257,-0.00186892,-0.00002225,0.00005370,-0.00004987,0.00027558,0.
 00012642,-0.00020657,0.00068090,0.00034622,-0.00039453,-0.00145828,0.0
 0149956,-0.00976136,0.00010604,0.00028538,0.00086774,-0.00008408,0.000
 02592,0.00018290,0.00292317,-0.00280404,0.00188734,0.00483864,-0.10226
 541,0.00262740,-0.16274513,0.47538088,-0.00069881,0.00023396,0.0023686
 9,0.00512208,0.00355780,-0.01414026,0.00133935,0.00011571,-0.00090486,
 -0.00050983,-0.00058528,0.00006625,0.00003786,-0.00021712,-0.00019799,
 -0.00012973,-0.00011302,0.00001108,0.00047643,0.00051045,-0.00012728,-
 0.00040170,-0.00024227,0.00009689,0.00073016,0.00163485,0.00036150,-0.
 00123649,-0.00299885,-0.00084070,-0.00023506,0.00051303,0.00029697,0.0
 0079645,0.00003338,-0.00001078,-0.00353593,0.00020605,0.00503285,0.038
 15161,0.00600817,-0.00759370,-0.00008852,-0.00015050,-0.00018449,0.000
 01038,0.00003402,-0.00001571,0.00052978,-0.00048863,-0.00040960,-0.001
 24688,-0.00002318,0.00272426,0.00003339,-0.00001094,0.00006674,-0.0000
 8664,-0.00031708,-0.00087620,0.00013157,-0.00019392,-0.00109362,-0.006
 12552,-0.00742767,-0.01344690,0.00045024,0.00057454,0.00139982,0.00003
 498,0.00009961,0.00029261,0.00269088,0.00334255,-0.00545451,0.05698772
 ,0.02564692,-0.09907316,-0.12772134,-0.00072211,0.13964740,-0.00009168
 ,-0.00005480,0.00004251,0.00145903,0.00141698,-0.00001951,0.00011019,0
 .00004594,-0.00000784,-0.00002609,-0.00004493,-0.00001410,0.00006957,0
 .00002802,-0.00013290,0.,-0.00000464,0.00000143,-0.00001944,0.00004473
 ,0.00005772,0.00004073,-0.00007053,-0.00009397,-0.00023453,0.00011568,
 0.00019970,0.00040071,-0.00027071,-0.00014961,-0.00013263,0.00004058,-
 0.00005428,0.00026696,-0.00047984,-0.00001082,-0.00007749,0.00118580,-
 0.00022217,-0.00242838,-0.00675310,-0.00440718,-0.00000732,0.00001116,
 -0.00000719,0.00001082,-0.00000533,-0.00000957,0.00015772,-0.00035288,
 -0.00007319,0.00020291,-0.00011563,0.00054108,-0.00000492,0.00001291,0
 .00005581,0.00007745,-0.00001322,-0.00009704,0.00006908,0.00003262,-0.
 00018615,0.00010012,-0.00014201,-0.00091247,0.00001729,0.00005269,0.00
 020069,-0.00001607,0.00001386,0.00004622,0.00026040,0.00074234,0.00178
 567,-0.10069477,-0.08365917,-0.04901602,-0.02838397,-0.02638455,-0.001
 60514,0.11674232,-0.00015241,-0.00007047,0.00005154,0.00183929,0.00094
 472,-0.00067223,0.00017826,0.00006365,-0.00001733,-0.00006595,-0.00008
 099,-0.00004305,-0.00002183,-0.00004451,-0.00000391,0.00000538,-0.0000
 0229,-0.00003559,0.00002683,0.00004960,0.00009685,-0.00004404,-0.00002
 267,-0.00009821,0.00012553,-0.00001412,0.00019800,-0.00016762,-0.00008
 849,-0.00074580,-0.00007373,-0.00000654,0.00002164,0.00000843,0.000458
 68,0.00020234,-0.00051928,0.00017228,0.00102029,0.00251550,0.00460851,
 0.00498730,-0.00000358,0.00000993,0.00000341,0.00000182,0.00000702,0.0
 0000016,-0.00002302,0.00047292,0.00022730,-0.00006843,0.00088916,-0.00
 083932,-0.00001307,0.00002253,-0.00011691,0.00005461,-0.00001133,-0.00
 011039,0.00009019,0.00002401,0.00001790,-0.00005764,-0.00016673,-0.000
 50941,0.00002438,0.00001196,0.00013393,-0.00001043,0.00002016,0.000050
 54,0.00044528,0.00028114,0.00066675,-0.08778467,-0.21484566,-0.0839569
 6,-0.00663125,0.00073556,0.00195948,0.10219475,0.22478144,-0.00029134,
 -0.00030715,-0.00026426,0.00033052,0.00153907,0.00412361,0.00026471,0.
 00017674,0.00008189,-0.00010190,-0.00015117,-0.00007695,0.00000660,0.0
 0004514,-0.00005607,0.00001431,0.00000167,-0.00002051,-0.00006346,0.00
 012708,0.00023627,0.00028989,-0.00019225,-0.00022793,-0.00035408,0.000
 18726,0.00057002,0.00023699,-0.00026361,-0.00145031,-0.00027163,0.0000
 7189,0.00021936,-0.00073528,-0.00180017,0.00099148,0.00125311,0.004007
 53,-0.00715198,-0.01575512,-0.02885452,-0.01487506,0.00000165,0.000036
 67,0.00002387,0.00003794,0.00000201,-0.00002518,0.00011684,0.00004396,
 0.00015551,0.00012900,0.00064496,0.00156411,-0.00002552,0.00013037,-0.
 00005682,0.00018831,0.00000521,-0.00029089,-0.00065218,-0.00039537,-0.
 00127169,-0.00039312,0.00028586,0.00154697,0.00028305,0.00003396,-0.00
 003125,-0.00008800,0.00003887,0.00017713,-0.00007513,-0.00039307,-0.00
 153200,-0.04943749,-0.08687223,-0.09689104,0.01709603,0.01895721,0.007
 42261,0.04772139,0.08825567,0.10272504,0.00004016,0.00005389,0.0000992
 5,0.00148807,-0.00094782,-0.00013199,-0.00001060,-0.00002731,-0.000033
 97,0.00000646,0.00000621,0.00000767,-0.00000229,0.00000767,-0.00002200
 ,-0.00000088,-0.00000267,0.00000654,-0.00001281,0.00000261,0.00000179,
 0.00002698,-0.00002185,-0.00000812,-0.00005175,0.00002714,0.00005684,0
 .00004783,-0.00010133,-0.00001588,-0.00000321,0.00001843,-0.00006008,0
 .00014092,-0.00023867,-0.00008398,-0.00039927,0.00111543,0.00066274,-0
 .00358547,0.00666662,-0.00191380,-0.00001374,-0.00000985,-0.00000077,0
 .00002301,-0.00001725,-0.00000531,0.00011065,-0.00071409,-0.00036089,-
 0.00001147,0.00019048,-0.00075459,0.00003974,-0.00005931,0.00016163,-0
 .00000674,-0.00001563,0.00004392,0.00004895,-0.00003227,0.00001315,0.0
 0034995,-0.00051292,-0.00051844,-0.00003891,0.00004633,0.00000519,-0.0
 0000293,-0.00000260,-0.00001649,-0.00006368,0.00085389,0.00061051,-0.1
 2708719,0.11441887,-0.02288303,-0.02645156,0.02468550,0.00450880,0.010
 77713,-0.01202201,0.00189087,0.15041465,0.00012209,-0.00005133,-0.0000
 3671,-0.00140711,0.00077419,-0.00033067,-0.00012696,0.00002643,0.00001
 455,0.00002612,-0.00000078,0.00001147,0.00006554,0.00005986,-0.0000832
 9,0.00000053,-0.00001153,0.00002134,-0.00006345,0.00002698,0.00002635,
 0.00011334,-0.00007386,-0.00006165,-0.00025029,0.00008451,0.00016828,0
 .00022424,-0.00018750,-0.00013287,0.00004503,-0.00002782,0.00000786,-0
 .00015853,0.00027499,-0.00010788,-0.00104841,0.00063038,-0.00070831,0.
 00406298,-0.00404441,0.00041274,-0.00001102,0.00002082,-0.00001039,-0.
 00000731,0.00001761,0.00000945,0.00021010,0.00065110,0.00034215,-0.000
 30580,0.00105179,0.00104138,-0.00002937,-0.00005417,-0.00017578,-0.000
 03616,0.00001854,0.00003246,0.00002335,0.00002423,0.00012997,0.0001458
 5,0.00014489,-0.00005381,-0.00002184,-0.00002819,-0.00003388,0.0000131
 4,-0.00000935,-0.00002313,0.00008111,-0.00017265,-0.00005212,0.1236646
 4,-0.23845617,0.02822691,-0.00444577,0.00981110,-0.00152613,0.01393380
 ,-0.01952537,0.00407131,-0.13195400,0.24696270,-0.00007979,0.00013621,
 -0.00009211,0.00002932,-0.00235050,0.00298745,0.00003312,-0.00006906,0
 .00002989,0.00000305,0.00002684,-0.00000456,-0.00007026,-0.00007139,-0
 .00000057,0.00000563,0.00000838,-0.00000471,0.00000592,-0.00002770,-0.
 00000030,-0.00001662,0.00001939,0.00002189,0.00007499,-0.00008164,0.00
 002221,-0.00003281,0.00009102,0.00008885,-0.00002107,-0.00002018,-0.00
 000806,0.00011341,0.00020227,-0.00021729,-0.00008724,0.00245750,0.0019
 7991,-0.02047888,0.02871456,-0.00733277,0.00000947,-0.00005796,0.00003
 838,0.00004294,-0.00005138,-0.00002986,0.00024758,-0.00123626,-0.00015
 546,-0.00038166,0.00094292,-0.00646834,0.00011905,-0.00029549,0.000201
 14,0.00003204,-0.00001759,0.00006256,0.00002554,-0.00019942,0.00006784
 ,-0.00000339,-0.00058420,0.00019297,-0.00003248,0.00002742,-0.00005903
 ,-0.00001225,0.00000610,-0.00000522,-0.00016801,0.00003338,-0.00040512
 ,-0.02517699,0.03256757,-0.05539076,0.01700294,-0.01649007,-0.00008192
 ,0.00712172,-0.01178285,0.00323294,0.01732323,-0.03241213,0.06225076,0
 .00000542,0.00005868,0.00023450,0.00055880,-0.00035366,-0.00102412,0.0
 0004579,-0.00003047,-0.00009573,-0.00000891,0.00000103,0.00003796,-0.0
 0001971,-0.00003753,0.00007110,-0.00001809,-0.00000758,0.00001846,0.00
 006535,-0.00000078,-0.00011567,-0.00011384,0.00003945,0.00012320,0.000
 17428,0.00002899,-0.00021815,-0.00013778,-0.00009061,0.00025623,0.0000
 0271,0.00005336,0.00005139,0.00003084,-0.00009310,0.00013686,0.0004778
 2,0.00017595,-0.00019612,0.00101566,-0.00033405,0.00069518,-0.00000359
 ,-0.00001540,-0.00001049,-0.00000852,0.00000376,-0.00000006,-0.0001924
 4,-0.00004423,-0.00000795,0.00018869,-0.00012095,0.00078234,0.00000556
 ,0.00002490,-0.00002832,-0.00005104,-0.00003583,-0.00007368,-0.0001766
 6,-0.00008035,-0.00016331,-0.00146483,0.00048835,-0.00104929,0.0000987
 2,-0.00000817,0.00001170,0.00002412,-0.00000009,0.00000795,0.00278084,
 -0.00144201,0.00125595,-0.02340757,0.03595807,0.00206880,-0.14226975,0
 .16956094,0.03158991,0.00135485,0.00014872,-0.00161695,-0.00577196,-0.
 00286581,0.00437151,0.16681524,0.00008477,0.00006908,-0.00014066,-0.00
 036886,-0.00050424,0.00094496,-0.00013502,-0.00005692,0.00005082,0.000
 05283,0.00007828,0.00001083,-0.00006024,-0.00000045,0.00010331,0.00000
 580,0.00001210,0.00000270,-0.00001009,-0.00007346,-0.00004643,-0.00003
 253,0.00005311,0.00006596,0.00006528,-0.00020799,-0.00014940,0.0000478
 6,0.00036546,0.00003774,0.00006820,-0.00004326,-0.00001134,-0.00011154
 ,0.00015050,-0.00000082,0.00092704,-0.00025108,-0.00019367,-0.00172146
 ,0.00073450,-0.00095759,0.00001105,-0.00000767,0.00001503,-0.00000504,
 -0.00000803,0.00000204,-0.00018453,-0.00000368,0.00003937,0.00045340,-
 0.00036864,-0.00020624,0.00000694,-0.00001013,-0.00000730,-0.00003156,
 0.00000957,0.00010116,-0.00005767,-0.00003057,0.00014004,-0.00093955,0
 .00096426,0.00070880,-0.00002079,-0.00004667,-0.00018254,0.00001240,-0
 .00000942,-0.00004638,0.00135683,-0.00276409,-0.00050958,-0.00969984,0
 .00598871,0.00513631,0.21420192,-0.38512901,-0.02945383,-0.00152051,0.
 00132589,0.00056708,-0.00141351,0.00206301,0.00051426,-0.20098159,0.37
 770081,0.00032281,0.00003908,-0.00030571,-0.00158833,0.00060687,0.0001
 4875,-0.00038314,-0.00007283,0.00012047,0.00014196,0.00015687,-0.00000
 244,0.00006297,0.00010837,0.00003693,0.00003424,0.00003283,0.00000414,
 -0.00014139,-0.00013534,0.00002347,0.00011462,0.00004174,-0.00003607,-
 0.00027368,-0.00035479,-0.00007605,0.00042013,0.00054109,0.00003734,0.
 00013453,-0.00007479,-0.00015454,-0.00016684,-0.00004952,-0.00021206,0
 .00071667,-0.00041546,-0.00077757,0.00306165,-0.00301744,0.00039699,0.
 00000183,0.00002941,0.00000329,-0.00002298,-0.00000439,0.00001989,-0.0
 0022537,0.00033100,0.00017015,-0.00054606,0.00115433,-0.00072978,-0.00
 002289,0.00005309,-0.00004892,-0.00006232,0.00007237,0.00030150,0.0000
 7782,0.00016650,0.00039293,-0.00109732,0.00174961,0.00036207,-0.000141
 44,-0.00014651,-0.00029639,0.00002596,-0.00005186,-0.00013394,0.001136
 52,-0.00357817,-0.00001802,0.01302177,-0.01883224,-0.00380528,0.021849
 01,-0.00408653,-0.01533602,-0.00075477,0.00103885,0.00115114,0.0014172
 4,0.00123253,-0.00092071,-0.03711318,0.02346535,0.01968445\\0.00003187
 ,-0.00000460,-0.00002176,0.00000491,-0.00001367,0.00000437,-0.00004363
 ,0.00000354,0.00001801,0.00002856,0.00000176,-0.00001411,-0.00001458,0
 .00000302,-0.00000848,-0.00000035,-0.00000441,-0.00000177,-0.00001320,
 -0.00000105,0.00002445,0.00000017,0.00001298,0.00000077,0.00000563,-0.
 00000847,0.00001720,-0.00000828,0.00002149,0.00000035,-0.00000396,0.00
 000341,0.00001635,0.00001990,-0.00000983,-0.00000062,-0.00000504,-0.00
 000402,-0.00000698,-0.00000140,0.00001137,0.00000689,0.00001085,-0.000
 01098,0.00000423,0.00000567,-0.00000078,0.00000065,0.00000099,0.000000
 29,0.00000394,-0.00000237,-0.00000201,-0.00000531,-0.00000034,0.000001
 78,-0.00000302,0.00001119,-0.00000880,-0.00001119,0.00000832,-0.000005
 77,-0.00000062,-0.00000310,0.00000714,0.00000496,0.00000161,-0.0000001
 3,-0.00000632,0.00000511,-0.00000158,-0.00000296,-0.00000534,-0.000005
 10,-0.00000739,-0.00001651,0.,-0.00000675,0.00000236,0.00000326,-0.000
 00183,-0.00000660,0.00000504,0.00000229,-0.00000434,0.00000313,0.00000
 070,-0.00000812,0.00000299,-0.00000606\\\@


 THE MOST SERIOUS THREAT TO THE SURVIVAL OF MANKIND IS NOT NOW
 IGNORANCE IN THE TRADITIONAL SENSE,
 BUT A MORALLY NEUTRAL, AN INSENSITIVE OR INHIBITED HUMAN INTELLIGENCE.

                     -- MARGO JEFFERSON IN NEWSWEEK, SEPTEMBER 2, 1974
 Job cpu time:       0 days  0 hours 47 minutes  4.2 seconds.
 File lengths (MBytes):  RWF=    220 Int=      0 D2E=      0 Chk=      9 Scr=      1
 Normal termination of Gaussian 09 at Tue Jun  7 22:01:45 2016.
