 Entering Gaussian System, Link 0=g09
 Initial command:
 /usr/local/gaussian/g09.D01/g09/l1.exe "/nqs/iawad/Gau-14280.inp" -scrdir="/nqs/iawad/"
 Entering Link 1 = /usr/local/gaussian/g09.D01/g09/l1.exe PID=     14281.
  
 Copyright (c) 1988,1990,1992,1993,1995,1998,2003,2009,2013,
            Gaussian, Inc.  All Rights Reserved.
  
 This is part of the Gaussian(R) 09 program.  It is based on
 the Gaussian(R) 03 system (copyright 2003, Gaussian, Inc.),
 the Gaussian(R) 98 system (copyright 1998, Gaussian, Inc.),
 the Gaussian(R) 94 system (copyright 1995, Gaussian, Inc.),
 the Gaussian 92(TM) system (copyright 1992, Gaussian, Inc.),
 the Gaussian 90(TM) system (copyright 1990, Gaussian, Inc.),
 the Gaussian 88(TM) system (copyright 1988, Gaussian, Inc.),
 the Gaussian 86(TM) system (copyright 1986, Carnegie Mellon
 University), and the Gaussian 82(TM) system (copyright 1983,
 Carnegie Mellon University). Gaussian is a federally registered
 trademark of Gaussian, Inc.
  
 This software contains proprietary and confidential information,
 including trade secrets, belonging to Gaussian, Inc.
  
 This software is provided under written license and may be
 used, copied, transmitted, or stored only in accord with that
 written license.
  
 The following legend is applicable only to US Government
 contracts under FAR:
  
                    RESTRICTED RIGHTS LEGEND
  
 Use, reproduction and disclosure by the US Government is
 subject to restrictions as set forth in subparagraphs (a)
 and (c) of the Commercial Computer Software - Restricted
 Rights clause in FAR 52.227-19.
  
 Gaussian, Inc.
 340 Quinnipiac St., Bldg. 40, Wallingford CT 06492
  
  
 ---------------------------------------------------------------
 Warning -- This program may not be used in any manner that
 competes with the business of Gaussian, Inc. or will provide
 assistance to any competitor of Gaussian, Inc.  The licensee
 of this program is prohibited from giving any competitor of
 Gaussian, Inc. access to this program.  By using this program,
 the user acknowledges that Gaussian, Inc. is engaged in the
 business of creating and licensing software in the field of
 computational chemistry and represents and warrants to the
 licensee that it is not a competitor of Gaussian, Inc. and that
 it will not use this program in any manner prohibited above.
 ---------------------------------------------------------------
  

 Cite this work as:
 Gaussian 09, Revision D.01,
 M. J. Frisch, G. W. Trucks, H. B. Schlegel, G. E. Scuseria, 
 M. A. Robb, J. R. Cheeseman, G. Scalmani, V. Barone, B. Mennucci, 
 G. A. Petersson, H. Nakatsuji, M. Caricato, X. Li, H. P. Hratchian, 
 A. F. Izmaylov, J. Bloino, G. Zheng, J. L. Sonnenberg, M. Hada, 
 M. Ehara, K. Toyota, R. Fukuda, J. Hasegawa, M. Ishida, T. Nakajima, 
 Y. Honda, O. Kitao, H. Nakai, T. Vreven, J. A. Montgomery, Jr., 
 J. E. Peralta, F. Ogliaro, M. Bearpark, J. J. Heyd, E. Brothers, 
 K. N. Kudin, V. N. Staroverov, T. Keith, R. Kobayashi, J. Normand, 
 K. Raghavachari, A. Rendell, J. C. Burant, S. S. Iyengar, J. Tomasi, 
 M. Cossi, N. Rega, J. M. Millam, M. Klene, J. E. Knox, J. B. Cross, 
 V. Bakken, C. Adamo, J. Jaramillo, R. Gomperts, R. E. Stratmann, 
 O. Yazyev, A. J. Austin, R. Cammi, C. Pomelli, J. W. Ochterski, 
 R. L. Martin, K. Morokuma, V. G. Zakrzewski, G. A. Voth, 
 P. Salvador, J. J. Dannenberg, S. Dapprich, A. D. Daniels, 
 O. Farkas, J. B. Foresman, J. V. Ortiz, J. Cioslowski, 
 and D. J. Fox, Gaussian, Inc., Wallingford CT, 2013.
 
 ******************************************
 Gaussian 09:  AM64L-G09RevD.01 24-Apr-2013
                 7-Jun-2016 
 ******************************************
 %NPROCS=4
 Will use up to    4 processors via shared memory.
 %rwf=/nqs/iawad//glo_1w_Beta_ircfo_B3LYP_6-31G_d_B3LYP_6-31G_d.rwf
 %nosave
 %chk=/home/iawad/scratch/MAIN/PRO_Halides/direct/ircfo/glo_1w_Beta/glo_1w_Beta_i
 rcfo_B3LYP_6-31G_d_B3LYP_6-31G_d.chk
 ----------------------------------------------------------------------
 # IRC=(CalcFC,Forward,MaxCycle=500,MaxPoints=10) B3LYP/6-31G(d) geom=a
 llcheck guess=read
 ----------------------------------------------------------------------
 1/6=500,10=4,14=-1,18=10,22=1,26=3,29=7,38=1,42=10,44=3/1,23;
 2/12=2,29=1,40=1/2;
 3/5=1,6=6,7=1,11=2,14=-4,16=1,25=1,30=1,71=2,74=-5,116=-2,140=1/1,2,3;
 4/5=1/1;
 5/5=2,38=6/2;
 8/6=4,10=90,11=11/1;
 11/6=1,8=1,9=11,15=111,16=1/1,2,10;
 10/6=1,13=1/2;
 6/7=2,8=2,9=2,10=2,28=1/1;
 7/10=1,18=20,25=1/1,2,3,16;
 1/6=500,10=4,14=-1,18=10,22=1,26=3,42=10,44=3/23(2);
 2/29=1/2;
 99/5=20/99;
 2/29=1/2;
 3/5=1,6=6,7=1,11=2,14=-2,16=1,25=1,30=1,71=2,74=-5,140=1/1,2,3;
 4/5=5,16=3,69=1/1;
 5/5=2,38=5/2;
 8/6=4,10=90,11=11/1;
 11/6=1,8=1,9=11,15=111,16=1/1,2,10;
 10/6=1,13=1/2;
 7/10=1,18=20,25=1/1,2,3,16;
 1/6=500,14=-1,18=10,22=1,26=3,42=10,44=3/23(-8);
 2/29=1/2;
 6/7=2,8=2,9=2,10=2,19=2,28=1/1;
 99/5=20,9=1/99;
 Structure from the checkpoint file:  "/home/iawad/scratch/MAIN/PRO_Halides/direct/ircfo/glo_1w_Beta/glo_1w_Beta_ircfo_B3LYP_6-31G_d_B3LYP_6-31G_d.chk"
 -------------------------
 glo_1w_Beta_B3LYP_6-31G_d
 -------------------------
 Charge =  0 Multiplicity = 1
 Redundant internal coordinates found in file.
 C,0,0.,0.,0.
 O,0,0.,0.,1.84833806
 H,0,2.9211548083,0.,1.4639424866
 O,0,0.7733730404,0.9744586772,-0.2816088685
 H,0,1.7631149999,0.8987116161,0.5274965319
 O,0,2.259485827,0.703161089,1.5698180445
 H,0,1.2099551785,0.2508804859,1.9391256073
 C,0,0.4641975326,-1.4371203636,-0.2337902744
 C,0,-0.3609627914,-2.5007553221,0.5073444184
 C,0,-0.1764845584,-2.437303279,2.0269142595
 C,0,-0.6113221588,-1.0584631414,2.5597307482
 C,0,-0.2998283356,-0.8546928476,4.0462894601
 O,0,-1.0012986059,-1.8570444404,4.7963302902
 O,0,0.3536988748,-1.6544747248,-1.6267922659
 O,0,0.0675553876,-3.7403299152,-0.034947871
 O,0,-0.9629380661,-3.4729355419,2.6247264264
 H,0,-1.0744658691,0.1546105495,-0.1638328881
 H,0,1.5175613828,-1.5173597313,0.0884168792
 H,0,0.3184461707,-2.6275560923,-1.7080133786
 H,0,-0.6418393233,-4.4081569121,0.1273869075
 H,0,-1.0587444541,-3.2469476526,3.5714988951
 H,0,0.889991442,-2.6051521116,2.2547797112
 H,0,-1.7013476346,-0.984568543,2.4281831464
 H,0,-0.6187998116,0.1528399024,4.3411311876
 H,0,0.7859947807,-0.9357654835,4.2076031199
 H,0,-0.7199920864,-1.8106617095,5.7221976379
 O,0,-1.9129872321,-5.3947399188,0.9003833486
 H,0,-1.4674244073,-6.2202290741,1.145787778
 H,0,-1.428452144,-2.3362916839,0.2846678753
 H,0,-1.7818539018,-4.8091727151,1.6785317301
 Recover connectivity data from disk.
 IRC-IRC-IRC-IRC-IRC-IRC-IRC-IRC-IRC-IRC-IRC-IRC-IRC-IRC-IRC-IRC-IRC-IRC
 ------------------------------------------------------------------------
 INPUT DATA FOR L123
 ------------------------------------------------------------------------
 GENERAL PARAMETERS:
 Rxn path following direction = Forward
 Maximum points per path      =  10
 Step size                    =   0.100 bohr
 Integration scheme           = HPC                                 
    Redo corrector integration= Yes                                 
    DWI Weight Power          =  2
    DWI will use Hessian update vectors when possible.
    Max correction cycles     = 500
 Initial Hessian              = CalcFC
 Hessian evaluation           = All updating
 Hessian updating method      = Bofill                              
 ------------------------------------------------------------------------
 IRC-IRC-IRC-IRC-IRC-IRC-IRC-IRC-IRC-IRC-IRC-IRC-IRC-IRC-IRC-IRC-IRC-IRC
                          Input orientation:                          
 ---------------------------------------------------------------------
 Center     Atomic      Atomic             Coordinates (Angstroms)
 Number     Number       Type             X           Y           Z
 ---------------------------------------------------------------------
      1          6           0        0.000000    0.000000    0.000000
      2          8           0        0.000000    0.000000    1.848338
      3          1           0        2.921155    0.000000    1.463942
      4          8           0        0.773373    0.974459   -0.281609
      5          1           0        1.763115    0.898712    0.527497
      6          8           0        2.259486    0.703161    1.569818
      7          1           0        1.209955    0.250880    1.939126
      8          6           0        0.464198   -1.437120   -0.233790
      9          6           0       -0.360963   -2.500755    0.507344
     10          6           0       -0.176485   -2.437303    2.026914
     11          6           0       -0.611322   -1.058463    2.559731
     12          6           0       -0.299828   -0.854693    4.046289
     13          8           0       -1.001299   -1.857044    4.796330
     14          8           0        0.353699   -1.654475   -1.626792
     15          8           0        0.067555   -3.740330   -0.034948
     16          8           0       -0.962938   -3.472936    2.624726
     17          1           0       -1.074466    0.154611   -0.163833
     18          1           0        1.517561   -1.517360    0.088417
     19          1           0        0.318446   -2.627556   -1.708013
     20          1           0       -0.641839   -4.408157    0.127387
     21          1           0       -1.058744   -3.246948    3.571499
     22          1           0        0.889991   -2.605152    2.254780
     23          1           0       -1.701348   -0.984569    2.428183
     24          1           0       -0.618800    0.152840    4.341131
     25          1           0        0.785995   -0.935765    4.207603
     26          1           0       -0.719992   -1.810662    5.722198
     27          8           0       -1.912987   -5.394740    0.900383
     28          1           0       -1.467424   -6.220229    1.145788
     29          1           0       -1.428452   -2.336292    0.284668
     30          1           0       -1.781854   -4.809173    1.678532
 ---------------------------------------------------------------------
                    Distance matrix (angstroms):
                    1          2          3          4          5
     1  C    0.000000
     2  O    1.848338   0.000000
     3  H    3.267457   2.946338   0.000000
     4  O    1.275531   2.466647   2.934193   0.000000
     5  H    2.048050   2.379260   1.739445   1.280616   0.000000
     6  O    2.839725   2.382705   0.971314   2.389543   1.170922
     7  H    2.299378   1.239022   1.793584   2.376096   1.648747
     8  C    1.528219   2.572169   3.314250   2.431787   2.779003
     9  C    2.577105   2.860478   4.235700   3.739823   4.008552
    10  C    3.174898   2.450201   3.981552   4.227485   4.139963
    11  C    2.836597   1.414263   3.847010   3.758106   3.687609
    12  C    4.146427   2.377265   4.215892   4.819571   4.439827
    13  O    5.239847   3.625172   5.471660   6.078843   5.784386
    14  O    2.347092   3.865090   4.345314   2.982773   3.625765
    15  O    3.741103   4.188245   4.937587   4.773704   4.971114
    16  O    4.458444   3.686639   5.338059   5.589354   5.562467
    17  H    1.097826   2.286310   4.317238   2.024977   3.013883
    18  H    2.147834   2.775373   2.482846   2.626765   2.467891
    19  H    3.150043   4.433181   4.872314   3.900782   4.418047
    20  H    4.456460   4.775508   5.823500   5.580560   5.840098
    21  H    4.941580   3.825296   5.551942   6.001947   5.866458
    22  H    3.558502   2.782822   3.396743   4.388676   4.002863
    23  H    3.124105   2.049434   4.823553   4.159928   4.377426
    24  H    4.387675   2.572993   4.564302   4.897237   4.557812
    25  H    4.381480   2.656986   3.600311   4.878744   4.226494
    26  H    6.044868   4.336320   5.888054   6.784742   6.363289
    27  O    5.794258   5.801841   7.265655   7.012869   7.297966
    28  H    6.492874   6.429476   7.619193   7.669561   7.842065
    29  H    2.753138   3.153379   5.076222   4.016189   4.550858
    30  H    5.396352   5.131470   6.729969   6.619798   6.817010
                    6          7          8          9         10
     6  O    0.000000
     7  H    1.201025   0.000000
     8  C    3.325187   2.850801   0.000000
     9  C    4.273252   3.476964   1.536714   0.000000
    10  C    4.000676   3.025930   2.553747   1.532041   0.000000
    11  C    3.510667   2.327355   3.017264   2.520947   1.540837
    12  C    3.887147   2.818134   4.386575   3.903510   2.568608
    13  O    5.253356   4.182895   5.256056   4.384038   2.947318
    14  O    4.405541   4.132714   1.414181   2.404469   3.774054
    15  O    5.208113   4.596934   2.345557   1.419244   2.451267
    16  O    5.379278   4.365584   3.788453   2.406411   1.431231
    17  H    3.797590   3.106490   2.214946   2.830289   3.510521
    18  H    2.770508   2.578065   1.104460   2.161347   2.733836
    19  H    5.060187   4.730942   1.900451   2.320665   3.772378
    20  H    6.051766   5.330869   3.190740   1.965055   2.776513
    21  H    5.533601   4.477325   4.480519   3.229976   1.954392
    22  H    3.645494   2.891183   2.781830   2.151584   1.103389
    23  H    4.390151   3.200187   3.461285   2.790175   2.143983
    24  H    4.033306   3.020528   4.962939   4.669686   3.501440
    25  H    3.437320   2.594968   4.481170   4.178112   2.817159
    26  H    5.695511   4.720835   6.084047   5.272554   3.787242
    27  O    7.419034   6.534890   4.753957   3.307326   3.609840
    28  H    7.874198   7.047908   5.339712   3.932728   4.093096
    29  H    4.948815   4.048689   2.158571   1.102799   2.147801
    30  H    6.835940   5.884129   4.480230   2.952863   2.885194
                   11         12         13         14         15
    11  C    0.000000
    12  C    1.532451   0.000000
    13  O    2.406697   1.435037   0.000000
    14  O    4.337450   5.766334   6.567614   0.000000
    15  O    3.792841   5.011823   5.294380   2.639439   0.000000
    16  O    2.440806   3.052171   2.707109   4.807884   2.864836
    17  H    3.017258   4.398169   5.353067   2.729962   4.060959
    18  H    3.293953   4.405314   5.350186   2.077335   2.656940
    19  H    4.641138   6.052876   6.681459   0.977101   2.024935
    20  H    4.139768   5.301120   5.332581   3.413357   0.987718
    21  H    2.452208   2.554264   1.853468   5.617223   3.810307
    22  H    2.176967   2.772956   3.255169   4.032121   2.684750
    23  H    1.100418   2.144619   2.619046   4.595086   4.097591
    24  H    2.154228   1.097177   2.095983   6.310963   5.897281
    25  H    2.164032   1.100730   2.095178   5.894370   5.136241
    26  H    3.252508   1.974609   0.968770   7.428651   6.122791
    27  O    4.821936   5.754219   5.340868   5.051145   2.744898
    28  H    5.419961   6.210086   5.707987   5.643563   3.146458
    29  H    2.734311   4.197466   4.557108   2.700855   2.076419
    30  H    4.026721   4.841548   4.364057   5.043597   2.738385
                   16         17         18         19         20
    16  O    0.000000
    17  H    4.576854   0.000000
    18  H    4.050928   3.094789   0.000000
    19  H    4.596656   3.473492   2.428492   0.000000
    20  H    2.685972   4.592474   3.608495   2.731553   0.000000
    21  H    0.978073   5.052084   4.664835   5.491225   3.658432
    22  H    2.079244   4.162339   2.504050   4.003860   3.181687
    23  H    2.603046   2.899872   4.014941   4.887443   4.258777
    24  H    4.026254   4.527951   5.043727   6.723182   6.209578
    25  H    3.464318   4.874391   4.223877   6.170517   5.544761
    26  H    3.523706   6.215569   6.068950   7.546768   6.168873
    27  O    2.751233   5.712352   5.240423   4.409120   1.785129
    28  H    3.160599   6.519824   5.669670   4.923496   2.236590
    29  H    2.642827   2.555593   3.064010   2.665946   2.221739
    30  H    1.830693   5.341708   4.924494   4.543061   1.966341
                   21         22         23         24         25
    21  H    0.000000
    22  H    2.437873   0.000000
    23  H    2.615047   3.061274   0.000000
    24  H    3.513466   3.773040   2.474869   0.000000
    25  H    3.024773   2.571223   3.058691   1.782229   0.000000
    26  H    2.608290   3.904645   3.534971   2.402691   2.308124
    27  O    3.532365   4.180057   4.672106   6.655021   6.172897
    28  H    3.858950   4.456013   5.395498   7.179582   6.509852
    29  H    3.430632   3.054310   2.548781   4.827650   4.717486
    30  H    2.558664   3.511200   3.898212   5.750104   5.290873
                   26         27         28         29         30
    26  H    0.000000
    27  O    6.125255   0.000000
    28  H    6.398943   0.969630   0.000000
    29  H    5.508623   3.157212   3.978444   0.000000
    30  H    5.144886   0.982649   1.540702   2.860575   0.000000
 Symmetry turned off by external request.
 Stoichiometry    C6H16O8
 Framework group  C1[X(C6H16O8)]
 Deg. of freedom    84
 Full point group                 C1      NOp   1
 Rotational constants (GHZ):      0.6804608      0.5387017      0.3292209
 Standard basis: 6-31G(d) (6D, 7F)
   242 basis functions,   456 primitive gaussians,   242 cartesian basis functions
    58 alpha electrons       58 beta electrons
       nuclear repulsion energy      1099.6364182531 Hartrees.
 NAtoms=   30 NActive=   30 NUniq=   30 SFac= 1.00D+00 NAtFMM=   60 NAOKFM=F Big=F
 Integral buffers will be    131072 words long.
 Raffenetti 2 integral format.
 Two-electron integral symmetry is turned off.
 One-electron integrals computed using PRISM.
 NBasis=   242 RedAO= T EigKep=  2.00D-03  NBF=   242
 NBsUse=   242 1.00D-06 EigRej= -1.00D+00 NBFU=   242
 Initial guess from the checkpoint file:  "/home/iawad/scratch/MAIN/PRO_Halides/direct/ircfo/glo_1w_Beta/glo_1w_Beta_ircfo_B3LYP_6-31G_d_B3LYP_6-31G_d.chk"
 B after Tr=    -0.169065   -3.181746    2.601922
         Rot=    0.697624   -0.481291   -0.423901   -0.319356 Ang= -91.53 deg.
 Requested convergence on RMS density matrix=1.00D-08 within 128 cycles.
 Requested convergence on MAX density matrix=1.00D-06.
 Requested convergence on             energy=1.00D-06.
 No special actions if energy rises.
 SCF Done:  E(RB3LYP) =  -839.957872905     A.U. after    5 cycles
            NFock=  5  Conv=0.68D-08     -V/T= 2.0086
 DoSCS=F DFT=T ScalE2(SS,OS)=  1.000000  1.000000
 Range of M.O.s used for correlation:     1   242
 NBasis=   242 NAE=    58 NBE=    58 NFC=     0 NFV=     0
 NROrb=    242 NOA=    58 NOB=    58 NVA=   184 NVB=   184
 Symmetrizing basis deriv contribution to polar:
 IMax=3 JMax=2 DiffMx= 0.00D+00
 G2DrvN: will do    31 centers at a time, making    1 passes.
 Calling FoFCou, ICntrl=  3107 FMM=F I1Cent=   0 AccDes= 0.00D+00.
 End of G2Drv F.D. properties file   721 does not exist.
 End of G2Drv F.D. properties file   722 does not exist.
 End of G2Drv F.D. properties file   788 does not exist.
          IDoAtm=111111111111111111111111111111
          Differentiating once with respect to nuclear coordinates.
          There are    93 degrees of freedom in the 1st order CPHF.  IDoFFX=6 NUNeed=     0.
     87 vectors produced by pass  0 Test12= 1.15D-14 1.08D-09 XBig12= 1.23D-01 9.69D-02.
 AX will form    87 AO Fock derivatives at one time.
     87 vectors produced by pass  1 Test12= 1.15D-14 1.08D-09 XBig12= 1.68D-02 2.69D-02.
     87 vectors produced by pass  2 Test12= 1.15D-14 1.08D-09 XBig12= 1.31D-04 1.36D-03.
     87 vectors produced by pass  3 Test12= 1.15D-14 1.08D-09 XBig12= 3.69D-07 8.79D-05.
     87 vectors produced by pass  4 Test12= 1.15D-14 1.08D-09 XBig12= 5.11D-10 2.46D-06.
     67 vectors produced by pass  5 Test12= 1.15D-14 1.08D-09 XBig12= 3.54D-13 6.26D-08.
      2 vectors produced by pass  6 Test12= 1.15D-14 1.08D-09 XBig12= 2.84D-16 1.23D-09.
 InvSVY:  IOpt=1 It=  1 EMax= 2.22D-16
 Solved reduced A of dimension   504 with    93 vectors.
 End of Minotr F.D. properties file   721 does not exist.
 End of Minotr F.D. properties file   722 does not exist.
 End of Minotr F.D. properties file   788 does not exist.

 **********************************************************************

            Population analysis using the SCF density.

 **********************************************************************

 Alpha  occ. eigenvalues --  -19.19099 -19.17034 -19.16358 -19.15873 -19.15261
 Alpha  occ. eigenvalues --  -19.13990 -19.13570 -19.12613 -10.28888 -10.26105
 Alpha  occ. eigenvalues --  -10.25482 -10.24918 -10.24164 -10.23884  -1.06416
 Alpha  occ. eigenvalues --   -1.05625  -1.04065  -1.02673  -1.01110  -1.00510
 Alpha  occ. eigenvalues --   -1.00076  -0.99344  -0.78307  -0.76101  -0.69756
 Alpha  occ. eigenvalues --   -0.63918  -0.61470  -0.59551  -0.56816  -0.55547
 Alpha  occ. eigenvalues --   -0.53645  -0.52836  -0.51337  -0.51294  -0.49594
 Alpha  occ. eigenvalues --   -0.47566  -0.46000  -0.45644  -0.45038  -0.43492
 Alpha  occ. eigenvalues --   -0.42359  -0.41100  -0.40600  -0.39784  -0.38407
 Alpha  occ. eigenvalues --   -0.36879  -0.36651  -0.34985  -0.34483  -0.33109
 Alpha  occ. eigenvalues --   -0.31015  -0.30684  -0.30483  -0.28243  -0.27657
 Alpha  occ. eigenvalues --   -0.27080  -0.26377  -0.25011
 Alpha virt. eigenvalues --    0.00866   0.03641   0.04564   0.06855   0.09292
 Alpha virt. eigenvalues --    0.10774   0.11628   0.12686   0.13224   0.14577
 Alpha virt. eigenvalues --    0.15394   0.15960   0.16807   0.18032   0.18928
 Alpha virt. eigenvalues --    0.19463   0.20801   0.22006   0.22482   0.24534
 Alpha virt. eigenvalues --    0.25164   0.25779   0.26937   0.27553   0.29790
 Alpha virt. eigenvalues --    0.30837   0.32180   0.36259   0.50551   0.51573
 Alpha virt. eigenvalues --    0.53727   0.56277   0.57610   0.57967   0.58793
 Alpha virt. eigenvalues --    0.60431   0.61439   0.62676   0.63727   0.66101
 Alpha virt. eigenvalues --    0.66818   0.67853   0.69381   0.71696   0.74720
 Alpha virt. eigenvalues --    0.76690   0.77067   0.78260   0.79401   0.80319
 Alpha virt. eigenvalues --    0.81020   0.81989   0.82963   0.83323   0.84628
 Alpha virt. eigenvalues --    0.85225   0.86227   0.87467   0.89327   0.89611
 Alpha virt. eigenvalues --    0.90548   0.91744   0.92281   0.93077   0.95114
 Alpha virt. eigenvalues --    0.96842   0.99020   1.00258   1.01291   1.03001
 Alpha virt. eigenvalues --    1.04480   1.05564   1.07255   1.07953   1.08984
 Alpha virt. eigenvalues --    1.10741   1.11750   1.13783   1.15031   1.18344
 Alpha virt. eigenvalues --    1.20409   1.21367   1.22205   1.24186   1.27748
 Alpha virt. eigenvalues --    1.29125   1.31730   1.32499   1.36411   1.38248
 Alpha virt. eigenvalues --    1.39906   1.41975   1.42968   1.47605   1.49821
 Alpha virt. eigenvalues --    1.50657   1.54064   1.57122   1.59132   1.61410
 Alpha virt. eigenvalues --    1.64198   1.65438   1.66211   1.68115   1.69984
 Alpha virt. eigenvalues --    1.71669   1.72255   1.72391   1.73497   1.74301
 Alpha virt. eigenvalues --    1.74709   1.75814   1.76728   1.77806   1.79291
 Alpha virt. eigenvalues --    1.80478   1.82405   1.83080   1.84137   1.87237
 Alpha virt. eigenvalues --    1.88305   1.89783   1.91965   1.93408   1.95586
 Alpha virt. eigenvalues --    1.96904   1.97798   1.99521   2.02020   2.03794
 Alpha virt. eigenvalues --    2.06265   2.07443   2.09374   2.12118   2.13213
 Alpha virt. eigenvalues --    2.14748   2.16510   2.21372   2.22762   2.25553
 Alpha virt. eigenvalues --    2.27508   2.29416   2.31956   2.34948   2.36305
 Alpha virt. eigenvalues --    2.41489   2.43572   2.46374   2.48318   2.49499
 Alpha virt. eigenvalues --    2.51101   2.53790   2.56285   2.56786   2.58044
 Alpha virt. eigenvalues --    2.58996   2.62825   2.64856   2.68537   2.70884
 Alpha virt. eigenvalues --    2.72943   2.74941   2.78712   2.82814   2.88463
 Alpha virt. eigenvalues --    2.94483   2.97588   2.98005   3.04857   3.05798
 Alpha virt. eigenvalues --    3.72360   3.75143   3.81167   3.85342   3.92511
 Alpha virt. eigenvalues --    3.95861   4.10002   4.14509   4.24957   4.37740
 Alpha virt. eigenvalues --    4.40419   4.52041   4.63535   4.65571
          Condensed to atoms (all electrons):
               1          2          3          4          5          6
     1  C    4.735680   0.076375  -0.000934   0.360409  -0.031981   0.027420
     2  O    0.076375   8.557427   0.003874  -0.042008   0.006700  -0.098326
     3  H   -0.000934   0.003874   0.365285   0.004756  -0.004575   0.224953
     4  O    0.360409  -0.042008   0.004756   8.292941   0.137385  -0.102207
     5  H   -0.031981   0.006700  -0.004575   0.137385   0.316027   0.126636
     6  O    0.027420  -0.098326   0.224953  -0.102207   0.126636   8.512153
     7  H   -0.011001   0.113654  -0.002987   0.012471  -0.019161   0.117887
     8  C    0.281126  -0.028388  -0.000191  -0.044992  -0.004189  -0.004269
     9  C   -0.016234  -0.002879  -0.000122   0.003218   0.000213   0.000083
    10  C   -0.008010  -0.035594   0.000045   0.000051   0.000025  -0.000302
    11  C   -0.003021   0.177608  -0.000309   0.001325  -0.000384   0.005878
    12  C    0.001172  -0.036913  -0.000061  -0.000048   0.000007  -0.000029
    13  O   -0.000006   0.001147   0.000000   0.000000   0.000000   0.000000
    14  O   -0.037727   0.000811  -0.000018   0.000340  -0.000103   0.000033
    15  O    0.001820   0.000019  -0.000001  -0.000013  -0.000002   0.000000
    16  O    0.000060   0.001533   0.000000   0.000000   0.000000   0.000000
    17  H    0.357111  -0.016851   0.000075  -0.042439   0.004375  -0.000517
    18  H   -0.048516  -0.000442   0.004775  -0.002336   0.003058   0.005581
    19  H    0.005875  -0.000057  -0.000001  -0.000146  -0.000003   0.000001
    20  H   -0.000069   0.000002   0.000000   0.000001   0.000000   0.000000
    21  H   -0.000006   0.000031   0.000000   0.000000   0.000000   0.000000
    22  H    0.000327   0.003042   0.000365   0.000009  -0.000030  -0.000096
    23  H   -0.001263  -0.035233   0.000018   0.000016   0.000027  -0.000167
    24  H   -0.000053   0.004285   0.000000   0.000001   0.000003   0.000014
    25  H   -0.000036   0.000799   0.000141   0.000006  -0.000006  -0.000012
    26  H    0.000001  -0.000087   0.000000   0.000000   0.000000   0.000000
    27  O    0.000000   0.000000   0.000000   0.000000   0.000000   0.000000
    28  H    0.000000   0.000000   0.000000   0.000000   0.000000   0.000000
    29  H   -0.004273  -0.000091   0.000004  -0.000002   0.000014  -0.000008
    30  H   -0.000001  -0.000003   0.000000   0.000000   0.000000   0.000000
               7          8          9         10         11         12
     1  C   -0.011001   0.281126  -0.016234  -0.008010  -0.003021   0.001172
     2  O    0.113654  -0.028388  -0.002879  -0.035594   0.177608  -0.036913
     3  H   -0.002987  -0.000191  -0.000122   0.000045  -0.000309  -0.000061
     4  O    0.012471  -0.044992   0.003218   0.000051   0.001325  -0.000048
     5  H   -0.019161  -0.004189   0.000213   0.000025  -0.000384   0.000007
     6  O    0.117887  -0.004269   0.000083  -0.000302   0.005878  -0.000029
     7  H    0.330487   0.000997  -0.001178  -0.000731  -0.007907  -0.004647
     8  C    0.000997   5.064807   0.274076  -0.032476  -0.002480  -0.000206
     9  C   -0.001178   0.274076   5.035416   0.297346  -0.024791   0.003921
    10  C   -0.000731  -0.032476   0.297346   5.039573   0.277216  -0.032131
    11  C   -0.007907  -0.002480  -0.024791   0.277216   4.925161   0.353411
    12  C   -0.004647  -0.000206   0.003921  -0.032131   0.353411   4.937569
    13  O    0.000041   0.000003   0.000003   0.006124  -0.040894   0.202010
    14  O   -0.000065   0.235157  -0.026893   0.003372   0.000029   0.000001
    15  O    0.000001  -0.039205   0.216368  -0.043866   0.003419  -0.000051
    16  O    0.000003   0.002283  -0.035986   0.198155  -0.024151  -0.000311
    17  H    0.001672  -0.077752  -0.001826   0.000406  -0.000587  -0.000067
    18  H    0.001048   0.315937  -0.050717  -0.004188   0.000392  -0.000017
    19  H    0.000001  -0.041139  -0.014553   0.001481  -0.000056   0.000001
    20  H    0.000000   0.003845  -0.015276  -0.002882  -0.000078   0.000003
    21  H    0.000007  -0.000108   0.003883  -0.020986  -0.010493  -0.004107
    22  H    0.001817  -0.004208  -0.054558   0.341848  -0.050246  -0.009545
    23  H    0.002602  -0.000188  -0.009933  -0.062322   0.362584  -0.051705
    24  H   -0.000282   0.000002  -0.000094   0.005890  -0.034960   0.366974
    25  H    0.004497  -0.000029  -0.000088  -0.013253  -0.032551   0.354149
    26  H   -0.000010   0.000000   0.000008  -0.000054   0.005061  -0.016249
    27  O    0.000000   0.000033   0.002909  -0.000114  -0.000011   0.000000
    28  H    0.000000  -0.000002  -0.000220   0.000122   0.000001   0.000000
    29  H    0.000053  -0.042943   0.343167  -0.053330  -0.003719  -0.000154
    30  H    0.000000   0.000085  -0.001468  -0.003852   0.000347  -0.000018
              13         14         15         16         17         18
     1  C   -0.000006  -0.037727   0.001820   0.000060   0.357111  -0.048516
     2  O    0.001147   0.000811   0.000019   0.001533  -0.016851  -0.000442
     3  H    0.000000  -0.000018  -0.000001   0.000000   0.000075   0.004775
     4  O    0.000000   0.000340  -0.000013   0.000000  -0.042439  -0.002336
     5  H    0.000000  -0.000103  -0.000002   0.000000   0.004375   0.003058
     6  O    0.000000   0.000033   0.000000   0.000000  -0.000517   0.005581
     7  H    0.000041  -0.000065   0.000001   0.000003   0.001672   0.001048
     8  C    0.000003   0.235157  -0.039205   0.002283  -0.077752   0.315937
     9  C    0.000003  -0.026893   0.216368  -0.035986  -0.001826  -0.050717
    10  C    0.006124   0.003372  -0.043866   0.198155   0.000406  -0.004188
    11  C   -0.040894   0.000029   0.003419  -0.024151  -0.000587   0.000392
    12  C    0.202010   0.000001  -0.000051  -0.000311  -0.000067  -0.000017
    13  O    8.265815   0.000000   0.000000  -0.020570   0.000001   0.000000
    14  O    0.000000   8.288527  -0.016160  -0.000010   0.003407  -0.040265
    15  O    0.000000  -0.016160   8.391171   0.000743  -0.000163  -0.001118
    16  O   -0.020570  -0.000010   0.000743   8.347263   0.000000  -0.000062
    17  H    0.000001   0.003407  -0.000163   0.000000   0.609611   0.006360
    18  H    0.000000  -0.040265  -0.001118  -0.000062   0.006360   0.708912
    19  H    0.000000   0.232405   0.043051  -0.000015  -0.000452   0.000255
    20  H    0.000000   0.000061   0.196762   0.002054   0.000005  -0.000271
    21  H    0.053657   0.000001  -0.000035   0.222896   0.000001   0.000005
    22  H   -0.000044  -0.000046   0.001426  -0.040958   0.000083   0.007789
    23  H    0.003803  -0.000002  -0.000031   0.005958   0.002069   0.000073
    24  H   -0.033120   0.000000   0.000000  -0.000266  -0.000002   0.000003
    25  H   -0.034884   0.000000  -0.000001   0.000180   0.000005  -0.000027
    26  H    0.235656   0.000000   0.000000   0.000813   0.000000   0.000000
    27  O    0.000000  -0.000001  -0.028433  -0.019483   0.000000   0.000000
    28  H    0.000000   0.000000   0.001853   0.001017   0.000000   0.000000
    29  H   -0.000003   0.001320  -0.039350   0.000194   0.006749   0.007717
    30  H    0.000017  -0.000001   0.005131   0.053497   0.000000   0.000001
              19         20         21         22         23         24
     1  C    0.005875  -0.000069  -0.000006   0.000327  -0.001263  -0.000053
     2  O   -0.000057   0.000002   0.000031   0.003042  -0.035233   0.004285
     3  H   -0.000001   0.000000   0.000000   0.000365   0.000018   0.000000
     4  O   -0.000146   0.000001   0.000000   0.000009   0.000016   0.000001
     5  H   -0.000003   0.000000   0.000000  -0.000030   0.000027   0.000003
     6  O    0.000001   0.000000   0.000000  -0.000096  -0.000167   0.000014
     7  H    0.000001   0.000000   0.000007   0.001817   0.002602  -0.000282
     8  C   -0.041139   0.003845  -0.000108  -0.004208  -0.000188   0.000002
     9  C   -0.014553  -0.015276   0.003883  -0.054558  -0.009933  -0.000094
    10  C    0.001481  -0.002882  -0.020986   0.341848  -0.062322   0.005890
    11  C   -0.000056  -0.000078  -0.010493  -0.050246   0.362584  -0.034960
    12  C    0.000001   0.000003  -0.004107  -0.009545  -0.051705   0.366974
    13  O    0.000000   0.000000   0.053657  -0.000044   0.003803  -0.033120
    14  O    0.232405   0.000061   0.000001  -0.000046  -0.000002   0.000000
    15  O    0.043051   0.196762  -0.000035   0.001426  -0.000031   0.000000
    16  O   -0.000015   0.002054   0.222896  -0.040958   0.005958  -0.000266
    17  H   -0.000452   0.000005   0.000001   0.000083   0.002069  -0.000002
    18  H    0.000255  -0.000271   0.000005   0.007789   0.000073   0.000003
    19  H    0.359342  -0.000590   0.000001  -0.000023  -0.000003   0.000000
    20  H   -0.000590   0.321414   0.000007  -0.000423  -0.000004   0.000000
    21  H    0.000001   0.000007   0.321053  -0.000176   0.000423   0.000682
    22  H   -0.000023  -0.000423  -0.000176   0.673814   0.007510  -0.000098
    23  H   -0.000003  -0.000004   0.000423   0.007510   0.622902  -0.007883
    24  H    0.000000   0.000000   0.000682  -0.000098  -0.007883   0.588006
    25  H    0.000000   0.000000   0.000370   0.005977   0.006793  -0.049826
    26  H    0.000000   0.000000  -0.001818  -0.000024  -0.000204  -0.002582
    27  O    0.000019   0.085312   0.000493  -0.000078  -0.000008   0.000000
    28  H   -0.000002  -0.003934  -0.000022   0.000009   0.000000   0.000000
    29  H   -0.000094  -0.005076  -0.000119   0.007672   0.006218   0.000008
    30  H   -0.000011  -0.011414  -0.001378   0.000591   0.000064   0.000001
              25         26         27         28         29         30
     1  C   -0.000036   0.000001   0.000000   0.000000  -0.004273  -0.000001
     2  O    0.000799  -0.000087   0.000000   0.000000  -0.000091  -0.000003
     3  H    0.000141   0.000000   0.000000   0.000000   0.000004   0.000000
     4  O    0.000006   0.000000   0.000000   0.000000  -0.000002   0.000000
     5  H   -0.000006   0.000000   0.000000   0.000000   0.000014   0.000000
     6  O   -0.000012   0.000000   0.000000   0.000000  -0.000008   0.000000
     7  H    0.004497  -0.000010   0.000000   0.000000   0.000053   0.000000
     8  C   -0.000029   0.000000   0.000033  -0.000002  -0.042943   0.000085
     9  C   -0.000088   0.000008   0.002909  -0.000220   0.343167  -0.001468
    10  C   -0.013253  -0.000054  -0.000114   0.000122  -0.053330  -0.003852
    11  C   -0.032551   0.005061  -0.000011   0.000001  -0.003719   0.000347
    12  C    0.354149  -0.016249   0.000000   0.000000  -0.000154  -0.000018
    13  O   -0.034884   0.235656   0.000000   0.000000  -0.000003   0.000017
    14  O    0.000000   0.000000  -0.000001   0.000000   0.001320  -0.000001
    15  O   -0.000001   0.000000  -0.028433   0.001853  -0.039350   0.005131
    16  O    0.000180   0.000813  -0.019483   0.001017   0.000194   0.053497
    17  H    0.000005   0.000000   0.000000   0.000000   0.006749   0.000000
    18  H   -0.000027   0.000000   0.000000   0.000000   0.007717   0.000001
    19  H    0.000000   0.000000   0.000019  -0.000002  -0.000094  -0.000011
    20  H    0.000000   0.000000   0.085312  -0.003934  -0.005076  -0.011414
    21  H    0.000370  -0.001818   0.000493  -0.000022  -0.000119  -0.001378
    22  H    0.005977  -0.000024  -0.000078   0.000009   0.007672   0.000591
    23  H    0.006793  -0.000204  -0.000008   0.000000   0.006218   0.000064
    24  H   -0.049826  -0.002582   0.000000   0.000000   0.000008   0.000001
    25  H    0.629157  -0.004996   0.000000   0.000000   0.000005  -0.000001
    26  H   -0.004996   0.370464   0.000000   0.000000   0.000000  -0.000002
    27  O    0.000000   0.000000   8.304404   0.240176   0.000820   0.215385
    28  H    0.000000   0.000000   0.240176   0.379649  -0.000028  -0.015082
    29  H    0.000005   0.000000   0.000820  -0.000028   0.643489   0.000525
    30  H   -0.000001  -0.000002   0.215385  -0.015082   0.000525   0.323451
 Mulliken charges:
               1
     1  C    0.315758
     2  O   -0.650432
     3  H    0.404909
     4  O   -0.578738
     5  H    0.465966
     6  O   -0.814709
     7  H    0.460734
     8  C    0.144415
     9  C    0.076205
    10  C    0.142442
    11  C    0.124206
    12  C   -0.062958
    13  O   -0.638755
    14  O   -0.644174
    15  O   -0.693337
    16  O   -0.694834
    17  H    0.148726
    18  H    0.086056
    19  H    0.414713
    20  H    0.430551
    21  H    0.435738
    22  H    0.108273
    23  H    0.147886
    24  H    0.163298
    25  H    0.133631
    26  H    0.414026
    27  O   -0.801426
    28  H    0.396462
    29  H    0.131234
    30  H    0.434136
 Sum of Mulliken charges =   0.00000
 Mulliken charges with hydrogens summed into heavy atoms:
               1
     1  C    0.464484
     2  O   -0.650432
     4  O   -0.578738
     6  O    0.516899
     8  C    0.230472
     9  C    0.207439
    10  C    0.250714
    11  C    0.272092
    12  C    0.233971
    13  O   -0.224729
    14  O   -0.229461
    15  O   -0.262786
    16  O   -0.259096
    27  O    0.029172
 APT charges:
               1
     1  C   -0.079911
     2  O   -0.553664
     3  H    0.678911
     4  O   -0.403705
     5  H    0.379231
     6  O   -0.976070
     7  H    0.364986
     8  C   -0.148433
     9  C   -0.126151
    10  C   -0.192856
    11  C   -0.326243
    12  C   -0.364700
    13  O   -1.355075
    14  O   -0.920335
    15  O   -0.981015
    16  O   -0.901590
    17  H    0.329128
    18  H    0.301712
    19  H    0.750284
    20  H    0.738639
    21  H    0.746993
    22  H    0.366020
    23  H    0.337161
    24  H    0.391332
    25  H    0.368414
    26  H    1.185449
    27  O   -1.129175
    28  H    1.100506
    29  H    0.274328
    30  H    0.145829
 Sum of APT charges =   0.00000
 APT charges with hydrogens summed into heavy atoms:
               1
     1  C    0.249217
     2  O   -0.553664
     4  O   -0.403705
     6  O    0.447057
     8  C    0.153279
     9  C    0.148177
    10  C    0.173164
    11  C    0.010918
    12  C    0.395047
    13  O   -0.169626
    14  O   -0.170051
    15  O   -0.242375
    16  O   -0.154596
    27  O    0.117160
 Electronic spatial extent (au):  <R**2>=           5273.5631
 Charge=              0.0000 electrons
 Dipole moment (field-independent basis, Debye):
    X=              0.9294    Y=             -3.0346    Z=              6.5135  Tot=              7.2456
 Quadrupole moment (field-independent basis, Debye-Ang):
   XX=            -83.2080   YY=            -80.4072   ZZ=            -59.1072
   XY=             -6.7065   XZ=              2.3195   YZ=            -12.6702
 Traceless Quadrupole moment (field-independent basis, Debye-Ang):
   XX=             -8.9672   YY=             -6.1664   ZZ=             15.1336
   XY=             -6.7065   XZ=              2.3195   YZ=            -12.6702
 Octapole moment (field-independent basis, Debye-Ang**2):
  XXX=             53.4845  YYY=            332.6126  ZZZ=           -173.5388  XYY=             13.9666
  XXY=            152.6881  XXZ=           -115.8747  XZZ=              4.4508  YZZ=             82.6854
  YYZ=            -78.9762  XYZ=             -3.5768
 Hexadecapole moment (field-independent basis, Debye-Ang**3):
 XXXX=           -557.9692 YYYY=          -2289.6419 ZZZZ=          -1508.0507 XXXY=           -437.5165
 XXXZ=            193.6626 YYYX=           -361.4332 YYYZ=            336.3669 ZZZX=            137.0049
 ZZZY=            287.7549 XXYY=           -723.9559 XXZZ=           -544.2667 YYZZ=           -782.3900
 XXYZ=            181.2807 YYXZ=             12.3057 ZZXY=           -114.5256
 N-N= 1.099636418253D+03 E-N=-4.171446355959D+03  KE= 8.327959359931D+02
  Exact polarizability:   0.000   0.000   0.000   0.000   0.000   0.000
 Approx polarizability: 133.743  13.281 136.259  -3.690  -5.482 146.162
 Calling FoFJK, ICntrl=    100147 FMM=F ISym2X=0 I1Cent= 0 IOpClX= 0 NMat=1 NMatS=1 NMatT=0.
 -------------------------------------------------------------------
 Center     Atomic                   Forces (Hartrees/Bohr)
 Number     Number              X              Y              Z
 -------------------------------------------------------------------
      1        6           0.000017900   -0.000066713   -0.000108569
      2        8          -0.000081635    0.000075385   -0.000004569
      3        1           0.000018908    0.000019175    0.000008799
      4        8           0.000005570    0.000001426    0.000009381
      5        1          -0.000007583   -0.000000372    0.000041694
      6        8          -0.000004052    0.000021657   -0.000016587
      7        1           0.000086418   -0.000101869    0.000018548
      8        6           0.000025451    0.000120663   -0.000057795
      9        6          -0.000077796    0.000043425    0.000279093
     10        6           0.000034525   -0.000074656   -0.000193189
     11        6          -0.000067127   -0.000079444   -0.000071111
     12        6           0.000061835   -0.000066265    0.000083742
     13        8           0.000003033    0.000034570    0.000023614
     14        8           0.000009576   -0.000012463   -0.000018207
     15        8          -0.000030676   -0.000022252   -0.000051041
     16        8          -0.000014328   -0.000014327   -0.000014705
     17        1          -0.000016147    0.000041984   -0.000045622
     18        1           0.000009124    0.000005355    0.000052018
     19        1           0.000010911    0.000019517    0.000022835
     20        1          -0.000013236   -0.000007067    0.000070927
     21        1          -0.000039701   -0.000026725    0.000015858
     22        1           0.000016336    0.000067608    0.000053651
     23        1           0.000002508   -0.000027506    0.000004535
     24        1          -0.000010004   -0.000005912    0.000032266
     25        1          -0.000018365    0.000046609   -0.000085790
     26        1           0.000012843   -0.000006526   -0.000014291
     27        8           0.000010651    0.000000973    0.000009679
     28        1           0.000001664   -0.000002307    0.000002348
     29        1           0.000031571    0.000013760   -0.000030400
     30        1           0.000021826    0.000002298   -0.000017113
 -------------------------------------------------------------------
 Cartesian Forces:  Max     0.000279093 RMS     0.000055375
 IRC-IRC-IRC-IRC-IRC-IRC-IRC-IRC-IRC-IRC-IRC-IRC-IRC-IRC-IRC-IRC-IRC-IRC
          ******** Start new reaction path calculation ********
 Supplied step size of   0.1000 bohr.
    Integration on MW PES will use step size of   0.1051 sqrt(amu)*bohr.
 Point Number:   0          Path Number:   1
 Calculating another point on the path.
 IRC-IRC-IRC-IRC-IRC-IRC-IRC-IRC-IRC-IRC-IRC-IRC-IRC-IRC-IRC-IRC-IRC-IRC
                          Input orientation:                          
 ---------------------------------------------------------------------
 Center     Atomic      Atomic             Coordinates (Angstroms)
 Number     Number       Type             X           Y           Z
 ---------------------------------------------------------------------
      1          6           0        0.091838    1.671009   -1.353213
      2          8           0        0.091888    1.669812    0.499708
      3          1           0        3.013884    1.671129    0.111479
      4          8           0        0.862832    2.643073   -1.632389
      5          1           0        1.878122    2.565453   -0.795402
      6          8           0        2.351053    2.372871    0.219256
      7          1           0        1.265213    1.908864    0.593611
      8          6           0        0.555315    0.232322   -1.583684
      9          6           0       -0.269895   -0.831294   -0.842663
     10          6           0       -0.085372   -0.767939    0.676946
     11          6           0       -0.519842    0.610686    1.210555
     12          6           0       -0.208848    0.814620    2.696586
     13          8           0       -0.910232   -0.187620    3.446452
     14          8           0        0.444731    0.014906   -2.976676
     15          8           0        0.158601   -2.070922   -1.384808
     16          8           0       -0.871894   -1.803419    1.274835
     17          1           0       -0.984981    1.822874   -1.510290
     18          1           0        1.608722    0.152067   -1.261475
     19          1           0        0.409571   -0.958131   -3.058045
     20          1           0       -0.550789   -2.738742   -1.222619
     21          1           0       -0.967526   -1.577822    2.221709
     22          1           0        0.981073   -0.935811    0.904870
     23          1           0       -1.609068    0.686889    1.076896
     24          1           0       -0.527805    1.822224    2.991255
     25          1           0        0.877029    0.733644    2.857791
     26          1           0       -0.629074   -0.141334    4.372385
     27          8           0       -1.821936   -3.725324   -0.449528
     28          1           0       -1.376382   -4.550834   -0.204173
     29          1           0       -1.337400   -0.666856   -1.065230
     30          1           0       -1.690881   -3.139858    0.328602
 ---------------------------------------------------------------------
                    Distance matrix (angstroms):
                    1          2          3          4          5
     1  C    0.000000
     2  O    1.852921   0.000000
     3  H    3.268589   2.947675   0.000000
     4  O    1.271722   2.467271   2.934753   0.000000
     5  H    2.074124   2.381200   1.706518   1.318099   0.000000
     6  O    2.840655   2.382598   0.971289   2.390899   1.135906
     7  H    2.285499   1.201106   1.829432   2.378245   1.654123
     8  C    1.528970   2.573259   3.314861   2.430773   2.795479
     9  C    2.579348   2.861534   4.237418   3.738712   4.019216
    10  C    3.178273   2.450605   3.984243   4.226951   4.139398
    11  C    2.841011   1.414661   3.849640   3.758286   3.687168
    12  C    4.150264   2.376567   4.219288   4.819934   4.428864
    13  O    5.243609   3.624583   5.475005   6.078750   5.774743
    14  O    2.345813   3.866323   4.345149   2.981472   3.649363
    15  O    3.742660   4.189145   4.939075   4.772733   4.979972
    16  O    4.461734   3.686873   5.340894   5.588606   5.561970
    17  H    1.098761   2.285424   4.317879   2.025351   3.042999
    18  H    2.148612   2.775986   2.483352   2.626602   2.472697
    19  H    3.149569   4.434480   4.872508   3.899566   4.437549
    20  H    4.458243   4.776483   5.825262   5.579442   5.849497
    21  H    4.945425   3.825542   5.555212   6.001686   5.862371
    22  H    3.561627   2.782818   3.399696   4.388630   3.994305
    23  H    3.125221   2.047568   4.824152   4.156581   4.381209
    24  H    4.391039   2.571975   4.567220   4.897524   4.547487
    25  H    4.384944   2.655827   3.603784   4.879328   4.207556
    26  H    6.048701   4.335628   5.891646   6.784985   6.349705
    27  O    5.796516   5.802695   7.267847   7.011678   7.306431
    28  H    6.495175   6.430218   7.621476   7.668519   7.847476
    29  H    2.755227   3.154665   5.077844   4.014763   4.567298
    30  H    5.399169   5.132296   6.732574   6.618853   6.822883
                    6          7          8          9         10
     6  O    0.000000
     7  H    1.238747   0.000000
     8  C    3.325239   2.838197   0.000000
     9  C    4.273606   3.453680   1.536673   0.000000
    10  C    4.001291   2.999383   2.553713   1.532082   0.000000
    11  C    3.511411   2.291791   3.017763   2.521405   1.540814
    12  C    3.888239   2.791546   4.386767   3.903722   2.568791
    13  O    5.254226   4.155299   5.256087   4.384160   2.947427
    14  O    4.405455   4.123981   1.414187   2.404320   3.773964
    15  O    5.208374   4.580112   2.345606   1.419227   2.451146
    16  O    5.379872   4.337319   3.788443   2.406497   1.431191
    17  H    3.797755   3.081747   2.215345   2.828724   3.507934
    18  H    2.770485   2.577922   1.104502   2.161389   2.733833
    19  H    5.060200   4.720845   1.900568   2.320706   3.772439
    20  H    6.052130   5.310066   3.190777   1.965102   2.776513
    21  H    5.534506   4.448911   4.480701   3.230228   1.954585
    22  H    3.646133   2.875725   2.781853   2.151677   1.103374
    23  H    4.388695   3.160424   3.459750   2.789797   2.144326
    24  H    4.034230   2.995182   4.962963   4.669754   3.501531
    25  H    3.438267   2.580376   4.481242   4.178257   2.817277
    26  H    5.696567   4.697954   6.084173   5.272740   3.787416
    27  O    7.419507   6.508664   4.754009   3.307385   3.609810
    28  H    7.874690   7.024399   5.339765   3.932806   4.093089
    29  H    4.949195   4.019911   2.158631   1.102789   2.147782
    30  H    6.836619   5.856476   4.480383   2.953054   2.885308
                   11         12         13         14         15
    11  C    0.000000
    12  C    1.531860   0.000000
    13  O    2.406020   1.434826   0.000000
    14  O    4.338001   5.766507   6.567611   0.000000
    15  O    3.793048   5.011901   5.294365   2.639430   0.000000
    16  O    2.440486   3.052071   2.707064   4.807822   2.864817
    17  H    3.014755   4.395084   5.349482   2.731869   4.060193
    18  H    3.294244   4.405540   5.350243   2.077402   2.657017
    19  H    4.641760   6.053170   6.681620   0.977067   2.025095
    20  H    4.140043   5.301271   5.332696   3.413262   0.987687
    21  H    2.452024   2.554385   1.853629   5.617336   3.810286
    22  H    2.176658   2.773115   3.255221   4.032112   2.684690
    23  H    1.100039   2.144838   2.620674   4.593592   4.097579
    24  H    2.153783   1.097191   2.095932   6.310976   5.897259
    25  H    2.163274   1.100760   2.095126   5.894444   5.136281
    26  H    3.251867   1.974523   0.968785   7.428739   6.122828
    27  O    4.822064   5.754232   5.340900   5.051097   2.744872
    28  H    5.420000   6.210124   5.708064   5.643510   3.146433
    29  H    2.734906   4.197578   4.557128   2.700818   2.076427
    30  H    4.026878   4.841660   4.364185   5.043633   2.738427
                   16         17         18         19         20
    16  O    0.000000
    17  H    4.573806   0.000000
    18  H    4.050956   3.095286   0.000000
    19  H    4.596793   3.474810   2.428613   0.000000
    20  H    2.686115   4.591254   3.608570   2.731603   0.000000
    21  H    0.978065   5.049044   4.664991   5.491467   3.658524
    22  H    2.079207   4.160373   2.504092   4.003974   3.181724
    23  H    2.604657   2.893696   4.013500   4.886586   4.259421
    24  H    4.026137   4.524700   5.043797   6.723323   6.209644
    25  H    3.464271   4.871717   4.223975   6.170716   5.544896
    26  H    3.523678   6.212137   6.069119   7.547001   6.169013
    27  O    2.751314   5.710359   5.240499   4.409233   1.785169
    28  H    3.160738   6.517920   5.669745   4.923589   2.236629
    29  H    2.642796   2.553631   3.064112   2.666095   2.221765
    30  H    1.830892   5.339337   4.924682   4.543259   1.966466
                   21         22         23         24         25
    21  H    0.000000
    22  H    2.437884   0.000000
    23  H    2.617458   3.061303   0.000000
    24  H    3.513669   3.773125   2.474447   0.000000
    25  H    3.024873   2.571343   3.058505   1.782239   0.000000
    26  H    2.608343   3.904796   3.536466   2.402777   2.308231
    27  O    3.532321   4.180028   4.673639   6.655003   6.172939
    28  H    3.858869   4.456003   5.397130   7.179604   6.509930
    29  H    3.430836   3.054332   2.548554   4.827633   4.717541
    30  H    2.558721   3.511302   3.900080   5.750193   5.291028
                   26         27         28         29         30
    26  H    0.000000
    27  O    6.125255   0.000000
    28  H    6.398988   0.969631   0.000000
    29  H    5.508680   3.157228   3.978469   0.000000
    30  H    5.144974   0.982565   1.540653   2.860673   0.000000
 Symmetry turned off by external request.
 Stoichiometry    C6H16O8
 Framework group  C1[X(C6H16O8)]
 Deg. of freedom    84
 Full point group                 C1      NOp   1
 Rotational constants (GHZ):      0.6803254      0.5386957      0.3291985
 Standard basis: 6-31G(d) (6D, 7F)
   242 basis functions,   456 primitive gaussians,   242 cartesian basis functions
    58 alpha electrons       58 beta electrons
       nuclear repulsion energy      1099.6700763706 Hartrees.
 NAtoms=   30 NActive=   30 NUniq=   30 SFac= 1.00D+00 NAtFMM=   60 NAOKFM=F Big=F
 Integral buffers will be    131072 words long.
 Raffenetti 2 integral format.
 Two-electron integral symmetry is turned off.
 One-electron integrals computed using PRISM.
 NBasis=   242 RedAO= T EigKep=  2.00D-03  NBF=   242
 NBsUse=   242 1.00D-06 EigRej= -1.00D+00 NBFU=   242
 Initial guess from the checkpoint file:  "/home/iawad/scratch/MAIN/PRO_Halides/direct/ircfo/glo_1w_Beta/glo_1w_Beta_ircfo_B3LYP_6-31G_d_B3LYP_6-31G_d.chk"
 B after Tr=     0.172218    3.154759   -2.550576
         Rot=    1.000000   -0.000020    0.000036    0.000007 Ang=   0.00 deg.
 ExpMin= 1.61D-01 ExpMax= 5.48D+03 ExpMxC= 8.25D+02 IAcc=1 IRadAn=         1 AccDes= 0.00D+00
 Harris functional with IExCor=  402 and IRadAn=       1 diagonalized for initial guess.
 HarFok:  IExCor=  402 AccDes= 0.00D+00 IRadAn=         1 IDoV= 1 UseB2=F ITyADJ=14
 ICtDFT=  3500011 ScaDFX=  1.000000  1.000000  1.000000  1.000000
 FoFCou: FMM=F IPFlag=           0 FMFlag=      100000 FMFlg1=           0
         NFxFlg=           0 DoJE=T BraDBF=F KetDBF=T FulRan=T
         wScrn=  0.000000 ICntrl=     500 IOpCl=  0 I1Cent=   200000004 NGrid=           0
         NMat0=    1 NMatS0=      1 NMatT0=    0 NMatD0=    1 NMtDS0=    0 NMtDT0=    0
 Symmetry not used in FoFCou.
 Requested convergence on RMS density matrix=1.00D-08 within 128 cycles.
 Requested convergence on MAX density matrix=1.00D-06.
 Requested convergence on             energy=1.00D-06.
 No special actions if energy rises.
 Integral accuracy reduced to 1.0D-05 until final iterations.
 Initial convergence to 1.0D-05 achieved.  Increase integral accuracy.
 SCF Done:  E(RB3LYP) =  -839.958292590     A.U. after   11 cycles
            NFock= 11  Conv=0.79D-08     -V/T= 2.0086
 DoSCS=F DFT=T ScalE2(SS,OS)=  1.000000  1.000000
 Range of M.O.s used for correlation:     1   242
 NBasis=   242 NAE=    58 NBE=    58 NFC=     0 NFV=     0
 NROrb=    242 NOA=    58 NOB=    58 NVA=   184 NVB=   184
 Symmetrizing basis deriv contribution to polar:
 IMax=3 JMax=2 DiffMx= 0.00D+00
 Calling FoFJK, ICntrl=      2147 FMM=F ISym2X=0 I1Cent= 0 IOpClX= 0 NMat=1 NMatS=1 NMatT=0.
 -------------------------------------------------------------------
 Center     Atomic                   Forces (Hartrees/Bohr)
 Number     Number              X              Y              Z
 -------------------------------------------------------------------
      1        6           0.001345006    0.002707189   -0.005990698
      2        8           0.001334521    0.000895981    0.003017174
      3        1           0.000264761    0.000336387   -0.000333960
      4        8          -0.003886181   -0.001901865   -0.002177204
      5        1           0.003221625   -0.000204181    0.003312857
      6        8           0.002318270    0.000649534   -0.000841042
      7        1          -0.005285266   -0.001903624    0.000874815
      8        6           0.000149028    0.000164563   -0.000039862
      9        6          -0.000056138    0.000110581    0.000106658
     10        6           0.000141879   -0.000187812   -0.000296142
     11        6           0.000661565   -0.000589562    0.001237743
     12        6          -0.000064967   -0.000262020    0.000466936
     13        8           0.000024922    0.000032620    0.000099136
     14        8          -0.000044943   -0.000127600    0.000047611
     15        8          -0.000054810   -0.000060485    0.000076174
     16        8          -0.000044468    0.000210024    0.000035790
     17        1          -0.000238683   -0.000131346    0.000477673
     18        1           0.000023595    0.000006148    0.000055096
     19        1           0.000023561    0.000019515    0.000002004
     20        1          -0.000014413   -0.000008526    0.000056604
     21        1          -0.000015207   -0.000073502    0.000034430
     22        1           0.000018791    0.000055840    0.000054000
     23        1           0.000191299    0.000275703   -0.000200187
     24        1          -0.000019075   -0.000011994    0.000038681
     25        1          -0.000022800    0.000045012   -0.000070169
     26        1          -0.000007054   -0.000020571   -0.000000042
     27        8          -0.000003224   -0.000019583    0.000009412
     28        1          -0.000000555   -0.000006879   -0.000005247
     29        1           0.000030145    0.000015439   -0.000027931
     30        1           0.000008813   -0.000014986   -0.000020312
 -------------------------------------------------------------------
 Cartesian Forces:  Max     0.005990698 RMS     0.001265353
 IRC-IRC-IRC-IRC-IRC-IRC-IRC-IRC-IRC-IRC-IRC-IRC-IRC-IRC-IRC-IRC-IRC-IRC
 Pt  1 Step number   1 out of a maximum of 500
 Modified Bulirsch-Stoer Extrapolation Cycles:
    EPS =    0.000010000000000
 Maximum DWI energy   std dev =  0.000002750 at pt     1
 Maximum DWI gradient std dev =  0.053389901 at pt     1
 CORRECTOR INTEGRATION CONVERGENCE:
   Recorrection delta-x convergence threshold:    0.010000
   Delta-x Convergence Met
 Point Number:   1          Path Number:   1
   CHANGE IN THE REACTION COORDINATE =    0.10504
   NET REACTION COORDINATE UP TO THIS POINT =    0.10504
  # OF POINTS ALONG THE PATH =   1
  # OF STEPS =   1

 Calculating another point on the path.
 IRC-IRC-IRC-IRC-IRC-IRC-IRC-IRC-IRC-IRC-IRC-IRC-IRC-IRC-IRC-IRC-IRC-IRC
                          Input orientation:                          
 ---------------------------------------------------------------------
 Center     Atomic      Atomic             Coordinates (Angstroms)
 Number     Number       Type             X           Y           Z
 ---------------------------------------------------------------------
      1          6           0        0.092595    1.672579   -1.356843
      2          8           0        0.092424    1.670223    0.501079
      3          1           0        3.016413    1.673378    0.109012
      4          8           0        0.861095    2.642273   -1.633403
      5          1           0        1.900716    2.563570   -0.771265
      6          8           0        2.352148    2.373163    0.218927
      7          1           0        1.227813    1.895737    0.599124
      8          6           0        0.555425    0.232420   -1.583692
      9          6           0       -0.269910   -0.831221   -0.842618
     10          6           0       -0.085279   -0.768043    0.676804
     11          6           0       -0.519485    0.610299    1.211314
     12          6           0       -0.208904    0.814468    2.696853
     13          8           0       -0.910208   -0.187607    3.446500
     14          8           0        0.444716    0.014852   -2.976650
     15          8           0        0.158554   -2.070942   -1.384766
     16          8           0       -0.871914   -1.803330    1.274844
     17          1           0       -0.986534    1.821958   -1.506993
     18          1           0        1.608784    0.152215   -1.261173
     19          1           0        0.409753   -0.958138   -3.058047
     20          1           0       -0.550760   -2.738772   -1.222230
     21          1           0       -0.967589   -1.578285    2.221849
     22          1           0        0.981135   -0.935489    0.905157
     23          1           0       -1.607830    0.688850    1.075447
     24          1           0       -0.527923    1.822090    2.991487
     25          1           0        0.877060    0.733884    2.857411
     26          1           0       -0.629075   -0.141519    4.372456
     27          8           0       -1.821934   -3.725334   -0.449524
     28          1           0       -1.376402   -4.550881   -0.204221
     29          1           0       -1.337327   -0.666736   -1.065349
     30          1           0       -1.690816   -3.139941    0.328530
 ---------------------------------------------------------------------
                    Distance matrix (angstroms):
                    1          2          3          4          5
     1  C    0.000000
     2  O    1.857923   0.000000
     3  H    3.270694   2.950159   0.000000
     4  O    1.267827   2.468147   2.936011   0.000000
     5  H    2.099064   2.384711   1.676934   1.352882   0.000000
     6  O    2.842437   2.383293   0.971096   2.393070   1.104774
     7  H    2.272515   1.161713   1.867818   2.382431   1.666363
     8  C    1.529617   2.574474   3.316333   2.429670   2.811424
     9  C    2.581638   2.862521   4.240110   3.737603   4.030052
    10  C    3.181823   2.451040   3.987909   4.226457   4.140136
    11  C    2.845789   1.415029   3.853282   3.758636   3.688260
    12  C    4.154481   2.375824   4.223425   4.820466   4.420147
    13  O    5.247667   3.623853   5.479092   6.078746   5.767131
    14  O    2.344316   3.867681   4.345761   2.980104   3.671461
    15  O    3.744206   4.190119   4.941524   4.771769   4.989009
    16  O    4.465199   3.687036   5.344694   5.587899   5.562720
    17  H    1.099718   2.284628   4.319390   2.025495   3.070423
    18  H    2.149299   2.776549   2.484504   2.626401   2.477876
    19  H    3.148866   4.435804   4.873379   3.898241   4.455870
    20  H    4.460050   4.777312   5.827863   5.578355   5.859004
    21  H    4.949661   3.825896   5.559646   6.001680   5.860108
    22  H    3.564852   2.782593   3.403291   4.388517   3.987409
    23  H    3.126532   2.045447   4.825652   4.153230   4.385751
    24  H    4.394926   2.570997   4.570896   4.898130   4.539425
    25  H    4.388220   2.654183   3.607378   4.879510   4.190812
    26  H    6.052819   4.334804   5.895794   6.785311   6.338391
    27  O    5.798803   5.803486   7.271015   7.010466   7.315187
    28  H    6.497534   6.430943   7.624719   7.667491   7.853436
    29  H    2.757180   3.155830   5.080385   4.013140   4.583262
    30  H    5.401980   5.132971   6.736040   6.617812   6.829252
                    6          7          8          9         10
     6  O    0.000000
     7  H    1.279302   0.000000
     8  C    3.325721   2.825493   0.000000
     9  C    4.274358   3.429008   1.536783   0.000000
    10  C    4.002234   2.970853   2.553678   1.531902   0.000000
    11  C    3.512663   2.253925   3.018325   2.521687   1.540799
    12  C    3.889555   2.762927   4.387031   3.903828   2.569090
    13  O    5.255258   4.125410   5.256171   4.384148   2.947648
    14  O    4.405864   4.115474   1.414187   2.404292   3.773797
    15  O    5.209006   4.562200   2.345752   1.419300   2.450933
    16  O    5.380765   4.306803   3.788510   2.406460   1.431177
    17  H    3.798608   3.056878   2.215886   2.827420   3.505615
    18  H    2.770540   2.577928   1.104543   2.161441   2.733584
    19  H    5.060536   4.710491   1.900625   2.320814   3.772308
    20  H    6.052741   5.287657   3.190969   1.965129   2.776108
    21  H    5.535909   4.418354   4.481112   3.230451   1.955026
    22  H    3.646610   2.858382   2.782015   2.151907   1.103369
    23  H    4.387706   3.118386   3.458181   2.789197   2.144671
    24  H    4.035539   2.968406   4.963159   4.669796   3.501782
    25  H    3.438709   2.563745   4.480882   4.177955   2.817255
    26  H    5.697641   4.672951   6.084288   5.272730   3.787623
    27  O    7.420340   6.480514   4.754155   3.307445   3.609731
    28  H    7.875501   6.999013   5.339931   3.932905   4.093051
    29  H    4.950008   3.989571   2.158628   1.102743   2.147786
    30  H    6.837535   5.826634   4.480514   2.953091   2.885298
                   11         12         13         14         15
    11  C    0.000000
    12  C    1.531330   0.000000
    13  O    2.405280   1.434556   0.000000
    14  O    4.338581   5.766736   6.567622   0.000000
    15  O    3.793207   5.012009   5.294368   2.639416   0.000000
    16  O    2.440051   3.051977   2.707049   4.807754   2.864787
    17  H    3.012549   4.392274   5.346145   2.733861   4.059659
    18  H    3.294323   4.405512   5.350045   2.077687   2.657229
    19  H    4.642298   6.053408   6.681703   0.977015   2.025167
    20  H    4.139975   5.301093   5.332418   3.413416   0.987695
    21  H    2.451913   2.554701   1.853928   5.617568   3.810325
    22  H    2.176018   2.772854   3.254985   4.032284   2.685077
    23  H    1.099602   2.145165   2.622355   4.592026   4.097464
    24  H    2.153491   1.097217   2.095725   6.311164   5.897333
    25  H    2.162232   1.100723   2.095352   5.894081   5.136085
    26  H    3.251162   1.974360   0.968790   7.428784   6.122796
    27  O    4.822082   5.754247   5.340951   5.051045   2.744818
    28  H    5.419947   6.210174   5.708175   5.643470   3.146407
    29  H    2.735485   4.197793   4.557277   2.700613   2.076411
    30  H    4.026863   4.841732   4.364328   5.043553   2.738305
                   16         17         18         19         20
    16  O    0.000000
    17  H    4.571047   0.000000
    18  H    4.050852   3.095827   0.000000
    19  H    4.596843   3.476251   2.428851   0.000000
    20  H    2.685809   4.590342   3.608733   2.731934   0.000000
    21  H    0.978068   5.046412   4.665165   5.491717   3.658163
    22  H    2.079329   4.158570   2.504002   4.004245   3.181872
    23  H    2.606204   2.887722   4.011779   4.885590   4.259731
    24  H    4.026024   4.521797   5.043720   6.723524   6.209460
    25  H    3.464230   4.868769   4.223327   6.170411   5.544500
    26  H    3.523604   6.208940   6.068942   7.547079   6.168660
    27  O    2.751378   5.708641   5.240609   4.409330   1.785011
    28  H    3.160882   6.516309   5.669885   4.923665   2.236463
    29  H    2.642907   2.551804   3.064082   2.666093   2.221853
    30  H    1.831021   5.337190   4.924713   4.543298   1.966092
                   21         22         23         24         25
    21  H    0.000000
    22  H    2.438112   0.000000
    23  H    2.619933   3.061081   0.000000
    24  H    3.514001   3.772833   2.474195   0.000000
    25  H    3.025359   2.570785   3.058121   1.782175   0.000000
    26  H    2.608448   3.904526   3.538042   2.402721   2.308708
    27  O    3.532132   4.180382   4.675083   6.654994   6.172926
    28  H    3.858662   4.456429   5.398694   7.179640   6.510025
    29  H    3.431223   3.054568   2.548292   4.827764   4.717340
    30  H    2.558610   3.511614   3.901848   5.750254   5.291101
                   26         27         28         29         30
    26  H    0.000000
    27  O    6.125205   0.000000
    28  H    6.398980   0.969639   0.000000
    29  H    5.508828   3.157389   3.978649   0.000000
    30  H    5.145014   0.982469   1.540595   2.860873   0.000000
 Symmetry turned off by external request.
 Stoichiometry    C6H16O8
 Framework group  C1[X(C6H16O8)]
 Deg. of freedom    84
 Full point group                 C1      NOp   1
 Rotational constants (GHZ):      0.6801439      0.5386595      0.3291681
 Standard basis: 6-31G(d) (6D, 7F)
   242 basis functions,   456 primitive gaussians,   242 cartesian basis functions
    58 alpha electrons       58 beta electrons
       nuclear repulsion energy      1099.7006980057 Hartrees.
 NAtoms=   30 NActive=   30 NUniq=   30 SFac= 1.00D+00 NAtFMM=   60 NAOKFM=F Big=F
 Integral buffers will be    131072 words long.
 Raffenetti 2 integral format.
 Two-electron integral symmetry is turned off.
 One-electron integrals computed using PRISM.
 NBasis=   242 RedAO= T EigKep=  2.01D-03  NBF=   242
 NBsUse=   242 1.00D-06 EigRej= -1.00D+00 NBFU=   242
 Initial guess from the checkpoint file:  "/home/iawad/scratch/MAIN/PRO_Halides/direct/ircfo/glo_1w_Beta/glo_1w_Beta_ircfo_B3LYP_6-31G_d_B3LYP_6-31G_d.chk"
 B after Tr=    -0.000096   -0.000094    0.000243
         Rot=    1.000000   -0.000019    0.000036    0.000003 Ang=   0.00 deg.
 ExpMin= 1.61D-01 ExpMax= 5.48D+03 ExpMxC= 8.25D+02 IAcc=1 IRadAn=         1 AccDes= 0.00D+00
 Harris functional with IExCor=  402 and IRadAn=       1 diagonalized for initial guess.
 HarFok:  IExCor=  402 AccDes= 0.00D+00 IRadAn=         1 IDoV= 1 UseB2=F ITyADJ=14
 ICtDFT=  3500011 ScaDFX=  1.000000  1.000000  1.000000  1.000000
 FoFCou: FMM=F IPFlag=           0 FMFlag=      100000 FMFlg1=           0
         NFxFlg=           0 DoJE=T BraDBF=F KetDBF=T FulRan=T
         wScrn=  0.000000 ICntrl=     500 IOpCl=  0 I1Cent=   200000004 NGrid=           0
         NMat0=    1 NMatS0=      1 NMatT0=    0 NMatD0=    1 NMtDS0=    0 NMtDT0=    0
 Symmetry not used in FoFCou.
 Requested convergence on RMS density matrix=1.00D-08 within 128 cycles.
 Requested convergence on MAX density matrix=1.00D-06.
 Requested convergence on             energy=1.00D-06.
 No special actions if energy rises.
 Integral accuracy reduced to 1.0D-05 until final iterations.
 Initial convergence to 1.0D-05 achieved.  Increase integral accuracy.
 SCF Done:  E(RB3LYP) =  -839.959437999     A.U. after   12 cycles
            NFock= 12  Conv=0.37D-08     -V/T= 2.0085
 DoSCS=F DFT=T ScalE2(SS,OS)=  1.000000  1.000000
 Range of M.O.s used for correlation:     1   242
 NBasis=   242 NAE=    58 NBE=    58 NFC=     0 NFV=     0
 NROrb=    242 NOA=    58 NOB=    58 NVA=   184 NVB=   184
 Symmetrizing basis deriv contribution to polar:
 IMax=3 JMax=2 DiffMx= 0.00D+00
 Calling FoFJK, ICntrl=      2147 FMM=F ISym2X=0 I1Cent= 0 IOpClX= 0 NMat=1 NMatS=1 NMatT=0.
 -------------------------------------------------------------------
 Center     Atomic                   Forces (Hartrees/Bohr)
 Number     Number              X              Y              Z
 -------------------------------------------------------------------
      1        6           0.002326637    0.005031991   -0.011433049
      2        8           0.001142414    0.001386206    0.005789992
      3        1           0.000594296    0.000659376   -0.000609894
      4        8          -0.007380667   -0.003402219   -0.004359976
      5        1           0.005420213   -0.000184191    0.005125295
      6        8           0.005930903    0.001083389   -0.000350661
      7        1          -0.009386545   -0.003328631    0.001752703
      8        6           0.000309627    0.000163451    0.000009115
      9        6           0.000024138    0.000171912   -0.000226953
     10        6           0.000245320   -0.000249192   -0.000234607
     11        6           0.001207472   -0.001117832    0.002511690
     12        6          -0.000224092   -0.000400103    0.000783104
     13        8           0.000074973    0.000005446    0.000164061
     14        8          -0.000087887   -0.000245171    0.000117338
     15        8          -0.000108515   -0.000048666    0.000242677
     16        8          -0.000065464    0.000418536    0.000065897
     17        1          -0.000399244   -0.000296933    0.000950160
     18        1           0.000022423    0.000022971    0.000020346
     19        1           0.000035327   -0.000004437   -0.000033469
     20        1           0.000002554   -0.000006651    0.000008223
     21        1           0.000034352   -0.000095554    0.000034204
     22        1           0.000005975   -0.000000967    0.000013538
     23        1           0.000346938    0.000552910   -0.000382288
     24        1          -0.000019938   -0.000018220    0.000023435
     25        1          -0.000000254    0.000011518    0.000005570
     26        1          -0.000022443   -0.000035554    0.000025447
     27        8          -0.000004090   -0.000042795    0.000005633
     28        1          -0.000006772   -0.000010134   -0.000015600
     29        1          -0.000002410    0.000011124    0.000003011
     30        1          -0.000015238   -0.000031580   -0.000004942
 -------------------------------------------------------------------
 Cartesian Forces:  Max     0.011433049 RMS     0.002336114
 IRC-IRC-IRC-IRC-IRC-IRC-IRC-IRC-IRC-IRC-IRC-IRC-IRC-IRC-IRC-IRC-IRC-IRC
 Pt  2 Step number   1 out of a maximum of 500
 Modified Bulirsch-Stoer Extrapolation Cycles:
    EPS =    0.000010000000000
 Maximum DWI energy   std dev =  0.000009719 at pt    49
 Maximum DWI gradient std dev =  0.040783279 at pt    55
 CORRECTOR INTEGRATION CONVERGENCE:
   Recorrection delta-x convergence threshold:    0.010000
   Delta-x Convergence Met
 Point Number:   2          Path Number:   1
   CHANGE IN THE REACTION COORDINATE =    0.10502
   NET REACTION COORDINATE UP TO THIS POINT =    0.21006
  # OF POINTS ALONG THE PATH =   2
  # OF STEPS =   1

 Calculating another point on the path.
 IRC-IRC-IRC-IRC-IRC-IRC-IRC-IRC-IRC-IRC-IRC-IRC-IRC-IRC-IRC-IRC-IRC-IRC
                          Input orientation:                          
 ---------------------------------------------------------------------
 Center     Atomic      Atomic             Coordinates (Angstroms)
 Number     Number       Type             X           Y           Z
 ---------------------------------------------------------------------
      1          6           0        0.093360    1.674258   -1.360922
      2          8           0        0.092554    1.670581    0.502646
      3          1           0        3.019514    1.675914    0.106492
      4          8           0        0.859148    2.641443   -1.634621
      5          1           0        1.922229    2.562730   -0.750725
      6          8           0        2.353905    2.373462    0.218970
      7          1           0        1.189378    1.882124    0.606164
      8          6           0        0.555552    0.232479   -1.583696
      9          6           0       -0.269905   -0.831156   -0.842707
     10          6           0       -0.085188   -0.768133    0.676729
     11          6           0       -0.519079    0.609876    1.212230
     12          6           0       -0.208981    0.814327    2.697147
     13          8           0       -0.910190   -0.187609    3.446544
     14          8           0        0.444690    0.014783   -2.976626
     15          8           0        0.158528   -2.070948   -1.384700
     16          8           0       -0.871932   -1.803214    1.274861
     17          1           0       -0.988166    1.820835   -1.503096
     18          1           0        1.608859    0.152367   -1.261098
     19          1           0        0.409904   -0.958167   -3.058204
     20          1           0       -0.550765   -2.738794   -1.222222
     21          1           0       -0.967407   -1.578684    2.222001
     22          1           0        0.981168   -0.935528    0.905181
     23          1           0       -1.606448    0.691116    1.073896
     24          1           0       -0.528006    1.822020    2.991576
     25          1           0        0.877048    0.733927    2.857480
     26          1           0       -0.629175   -0.141668    4.372562
     27          8           0       -1.821934   -3.725345   -0.449524
     28          1           0       -1.376434   -4.550931   -0.204288
     29          1           0       -1.337348   -0.666700   -1.065330
     30          1           0       -1.690899   -3.140083    0.328526
 ---------------------------------------------------------------------
                    Distance matrix (angstroms):
                    1          2          3          4          5
     1  C    0.000000
     2  O    1.863571   0.000000
     3  H    3.273482   2.953652   0.000000
     4  O    1.263642   2.469443   2.937840   0.000000
     5  H    2.122848   2.390518   1.650848   1.384777   0.000000
     6  O    2.845173   2.384999   0.970701   2.396228   1.078181
     7  H    2.261391   1.121824   1.908296   2.388877   1.685658
     8  C    1.530351   2.575913   3.318336   2.428553   2.826962
     9  C    2.584107   2.863572   4.243426   3.736421   4.041334
    10  C    3.185776   2.451372   3.992207   4.226029   4.142704
    11  C    2.851157   1.415168   3.857556   3.759167   3.691452
    12  C    4.159184   2.374854   4.228121   4.821148   4.414385
    13  O    5.252179   3.622831   5.483726   6.078843   5.762294
    14  O    2.342603   3.869238   4.346803   2.978607   3.691855
    15  O    3.745848   4.191118   4.944479   4.770740   4.998354
    16  O    4.468999   3.686978   5.349092   5.587191   5.565232
    17  H    1.100634   2.283316   4.321258   2.025652   3.096266
    18  H    2.150083   2.777580   2.486252   2.626231   2.483653
    19  H    3.148115   4.437418   4.874808   3.896871   4.473064
    20  H    4.461968   4.778245   5.831126   5.577175   5.868916
    21  H    4.954209   3.825889   5.564470   6.001609   5.859898
    22  H    3.568530   2.782710   3.407696   4.388646   3.983144
    23  H    3.127979   2.042618   4.827549   4.149579   4.391326
    24  H    4.399110   2.569592   4.574927   4.898710   4.533996
    25  H    4.392414   2.652922   3.611847   4.880360   4.178046
    26  H    6.057431   4.333750   5.900499   6.785798   6.330205
    27  O    5.801268   5.804129   7.274777   7.009184   7.324573
    28  H    6.500082   6.431555   7.628536   7.666416   7.860277
    29  H    2.759417   3.156906   5.083627   4.011546   4.599243
    30  H    5.405154   5.133568   6.740262   6.616852   6.836780
                    6          7          8          9         10
     6  O    0.000000
     7  H    1.321914   0.000000
     8  C    3.326783   2.813992   0.000000
     9  C    4.275642   3.404500   1.536804   0.000000
    10  C    4.003541   2.941659   2.553683   1.531920   0.000000
    11  C    3.514376   2.214668   3.019017   2.522187   1.540757
    12  C    3.891099   2.732729   4.387332   3.904087   2.569357
    13  O    5.256485   4.093866   5.256253   4.384267   2.947798
    14  O    4.406847   4.108273   1.414191   2.404136   3.773689
    15  O    5.210011   4.544553   2.345849   1.419294   2.450758
    16  O    5.381966   4.275263   3.788550   2.406539   1.431126
    17  H    3.800045   3.032231   2.216401   2.825786   3.502821
    18  H    2.771093   2.579669   1.104511   2.161510   2.733549
    19  H    5.061498   4.701321   1.900796   2.320927   3.772394
    20  H    6.053867   5.265356   3.191092   1.965196   2.776019
    21  H    5.537391   4.386324   4.481411   3.230749   1.955292
    22  H    3.647563   2.841114   2.782068   2.152020   1.103325
    23  H    4.386979   3.074722   3.456500   2.788732   2.145083
    24  H    4.036936   2.939934   4.963251   4.669870   3.501928
    25  H    3.439610   2.546435   4.480944   4.178082   2.817403
    26  H    5.698857   4.646356   6.084453   5.272902   3.787817
    27  O    7.421588   6.451836   4.754278   3.307524   3.609686
    28  H    7.876662   6.973121   5.340071   3.933028   4.093051
    29  H    4.951501   3.959133   2.158772   1.102743   2.147781
    30  H    6.838978   5.796175   4.480771   2.953329   2.885429
                   11         12         13         14         15
    11  C    0.000000
    12  C    1.530667   0.000000
    13  O    2.404394   1.434282   0.000000
    14  O    4.339297   5.766997   6.567631   0.000000
    15  O    3.793417   5.012120   5.294341   2.639393   0.000000
    16  O    2.439556   3.051872   2.707001   4.807676   2.864750
    17  H    3.009893   4.388876   5.342178   2.736090   4.058928
    18  H    3.294660   4.405728   5.350055   2.077801   2.657417
    19  H    4.643100   6.053827   6.681928   0.976983   2.025362
    20  H    4.140188   5.301221   5.332459   3.413364   0.987682
    21  H    2.451617   2.554892   1.854149   5.617729   3.810295
[...]
 78,0.00007504,0.00010158,-0.00012651,0.00002528,-0.00002419,-0.0001805
 3,-0.00011870,-0.00013981,-0.00095123,-0.00001003,0.00001032,-0.000010
 83,0.00001044,0.00000334,-0.00001334,-0.00004830,-0.00002691,0.0000812
 7,0.00001246,0.00001583,0.00007950,0.00019155,0.00084410,0.00196642,0.
 00012751,0.00008042,0.00008942,-0.00016982,0.00020022,0.00014671,-0.09
 961902,0.24339840,0.00011804,-0.00042071,-0.00028001,-0.00068517,0.000
 73247,0.00359316,-0.00006173,-0.00005211,-0.00000355,0.00001823,0.0002
 5624,0.00013563,-0.00003094,-0.00005351,-0.00007693,-0.00006415,0.0001
 0769,0.00012318,0.00030807,-0.00012299,-0.00039082,-0.00021496,-0.0001
 0062,0.00012939,0.00086166,-0.00146855,0.00113976,-0.00249527,0.002539
 49,-0.00724718,0.01578924,-0.02790634,-0.01389009,0.04384057,-0.081287
 72,-0.08957838,-0.00568078,0.02509975,0.00725430,0.00011337,0.00021529
 ,-0.00020593,-0.00004193,-0.00083289,-0.00122407,-0.00029556,-0.000038
 56,0.00148370,-0.00002233,0.00002730,-0.00000542,0.00003378,0.00002609
 ,-0.00001636,-0.00011999,-0.00012695,0.00019925,0.00024234,0.00022306,
 -0.00011987,-0.00005649,-0.00028159,-0.00159935,-0.00001672,0.00016866
 ,0.00016486,-0.00017286,0.00030646,0.00161681,-0.04783366,0.08046257,0
 .09422335,-0.00015682,-0.00015171,0.00006039,0.00238431,0.00107496,-0.
 00028766,0.00009177,0.00004946,-0.00016733,0.00022058,0.00015717,0.000
 07956,-0.00029527,-0.00001923,-0.00016911,0.00011281,-0.00030925,0.000
 74591,-0.00057804,0.00052255,-0.00129320,-0.00015991,-0.00004271,-0.00
 008427,0.00046119,-0.00006079,0.00010346,0.00001522,0.00064550,0.00081
 974,-0.01039753,-0.00125163,-0.00044467,-0.29533113,-0.01275691,-0.021
 72668,-0.00509567,-0.01017395,0.00524396,0.00008185,0.00006583,0.00000
 493,0.00005224,0.00000831,-0.00014289,0.00050135,-0.00003096,-0.000473
 16,0.00004619,0.00000475,0.00000700,0.00008054,-0.00000165,-0.00000642
 ,-0.00003726,-0.00003122,0.00003782,-0.00005445,-0.00000984,0.00003905
 ,-0.00048577,0.00056580,0.00074091,0.00086178,-0.00062164,-0.00043906,
 0.00088232,-0.00028501,-0.00162142,-0.01446686,-0.00016718,-0.00264078
 ,0.32054999,0.00006107,0.00010854,-0.00000350,0.00079153,0.00042570,-0
 .00020561,0.00004702,0.00006909,-0.00003539,-0.00008361,-0.00008336,-0
 .00003498,0.00014641,-0.00000800,0.00006578,-0.00024247,-0.00009409,-0
 .00018743,0.00029635,0.00028435,0.00048754,0.00000209,-0.00001583,-0.0
 0006392,0.00014488,-0.00002704,-0.00021006,-0.00192571,-0.00029273,0.0
 0068404,-0.00464362,0.00025929,-0.00114257,-0.00947818,-0.05461753,-0.
 00284378,-0.03496323,-0.01402864,0.00569085,-0.00000552,-0.00000257,0.
 00005029,0.00004255,0.00012706,0.00007074,0.00057608,0.00019408,-0.000
 94081,-0.00001418,-0.00001358,0.00000387,0.00001653,0.00001839,0.00000
 639,0.00000766,-0.00000065,-0.00001847,-0.00006267,-0.00005405,0.00004
 266,-0.00057680,0.00069304,0.00134402,0.00053216,0.00001858,-0.0000358
 0,-0.00048740,0.00031024,-0.00023116,0.02613198,0.00458649,0.00202650,
 0.02354048,0.06108758,-0.00013810,-0.00008308,-0.00001248,0.00154163,-
 0.00141617,0.00264198,0.00017860,0.00010819,-0.00010429,0.00013321,0.0
 0006823,0.00007147,-0.00021012,-0.00001145,-0.00014753,0.00037352,-0.0
 0024223,0.00027114,-0.00011146,0.00091782,-0.00051025,-0.00003953,-0.0
 0003211,0.00000048,-0.00009636,0.00017076,-0.00020196,-0.00161455,0.00
 174129,0.00204674,-0.03519585,-0.00346021,-0.00406514,-0.02318836,-0.0
 0468627,-0.05583676,0.02188605,0.01214558,-0.00147814,0.00004221,0.000
 02104,0.00003163,0.00013166,-0.00008340,0.00005124,0.00032336,-0.00042
 099,0.00043617,0.00004314,-0.00000497,0.00002193,0.00006380,0.00001085
 ,-0.00001665,-0.00001383,-0.00000577,0.00000660,-0.00001589,0.00003966
 ,-0.00002653,-0.00005593,-0.00031635,-0.00101939,0.00111937,-0.0004021
 1,0.00001593,-0.00116315,-0.00034662,-0.00644569,0.01314437,-0.0006406
 7,0.00344453,0.02134475,-0.00268264,0.05892533,0.00008643,-0.00005826,
 -0.00009174,0.00044518,-0.00050845,0.00141259,-0.00001799,-0.00004333,
 0.00012053,-0.00008669,0.00000661,0.00000067,0.00008907,-0.00001276,0.
 00006592,-0.00015115,0.00008115,-0.00017941,0.00031637,0.00005408,-0.0
 0013115,0.00004378,-0.00001359,0.00004718,-0.00006525,0.00004504,0.000
 05003,0.00037457,-0.00013206,-0.00009780,-0.00155348,-0.00231376,0.000
 34807,0.00335067,-0.00326437,0.01822321,-0.09395969,-0.01396655,-0.199
 17544,-0.00001685,0.00002358,-0.00005485,-0.00004947,0.00001275,-0.000
 02708,0.00018406,0.00060663,0.00103457,-0.00002670,0.00000759,-0.00000
 091,-0.00003000,-0.00000027,-0.00000742,0.00000092,-0.00000433,0.00002
 719,0.00005608,0.00003288,0.00001601,-0.00055955,-0.00076408,-0.000424
 57,-0.00016657,0.00001673,0.00004624,0.00027721,0.00006850,0.00019487,
 -0.00020520,-0.00019347,-0.00073827,0.00067301,0.00006227,0.00129260,0
 .09098781,0.00003922,-0.00009022,-0.00019084,0.00000209,-0.00069679,0.
 00269476,-0.00001791,0.00000233,0.00000888,-0.00004637,0.00001139,0.00
 007039,0.00004424,0.00000838,0.00001717,-0.00006732,-0.00001324,-0.000
 06695,0.00025079,0.00012932,0.00002872,-0.00005159,-0.00007318,0.00000
 284,0.00012984,0.00008081,0.00002855,-0.00080489,-0.00096020,0.0006673
 2,-0.00281169,-0.00522682,-0.00054345,0.01469147,-0.00090832,0.0359956
 3,-0.03113483,-0.03673241,-0.03009924,0.00005050,0.00005974,-0.0000933
 3,0.00004383,-0.00002323,-0.00017011,0.00097520,-0.00189093,-0.0037974
 3,-0.00000619,0.00001293,0.00000872,0.00001097,0.00001112,-0.00000443,
 -0.00004328,-0.00000880,0.00006042,0.00002411,0.00007412,0.00008580,-0
 .00183821,0.00470052,0.00253123,0.00018139,0.00015320,-0.00004990,0.00
 017203,-0.00001167,-0.00033889,0.00067500,-0.00043538,0.00047752,-0.00
 081839,0.00106424,-0.00033703,0.02021972,0.04061488,-0.00003153,0.0001
 0681,0.00006030,-0.00006946,0.00018393,-0.00142424,0.00006000,0.000050
 47,-0.00008114,0.00004347,-0.00004777,-0.00000456,-0.00008828,0.000018
 36,-0.00006732,0.00005934,-0.00012086,0.00021123,-0.00025020,-0.000014
 48,-0.00030609,-0.00001741,-0.00000093,-0.00009345,0.00008615,0.000046
 06,-0.00025079,-0.00033671,-0.00028878,0.00048369,0.00268972,0.0045127
 1,0.00108096,-0.00986921,-0.00338389,-0.01909436,-0.16955326,0.0093288
 1,-0.41646694,-0.00000536,-0.00001362,0.00009112,0.00000014,0.00014220
 ,0.00016910,0.00030315,-0.00063900,0.00046524,0.00001758,-0.00000834,-
 0.00000382,0.00002200,-0.00000449,0.00000626,0.00001954,0.00001174,-0.
 00004902,-0.00005701,-0.00005886,0.00001514,-0.00078446,0.00016992,-0.
 00198835,0.00019281,0.00001163,-0.00010855,-0.00002861,-0.00004739,0.0
 0048849,-0.00052016,-0.00105577,0.00114389,0.00002869,-0.00190451,0.00
 172960,0.17806132,-0.00698345,0.43398192,-0.00094141,0.00164730,0.0002
 4069,0.00022830,-0.00076909,-0.00044239,0.00020002,0.00013851,0.000074
 92,-0.00017690,-0.00130610,-0.00009154,0.00023312,0.00022030,0.0001719
 5,-0.00033813,-0.00036656,-0.00022131,0.00014782,0.00026492,0.00016801
 ,0.00109950,-0.00130900,0.00044551,-0.00372003,0.00601358,0.00263483,0
 .00057879,0.00009348,-0.00107728,-0.00106251,0.00049323,0.00029801,0.0
 0011871,-0.00011737,0.00023824,0.00033314,-0.00025138,-0.00093584,-0.0
 0025806,-0.00197919,0.00061931,-0.01162657,-0.01723846,0.00603897,0.00
 003134,-0.00532815,-0.00574241,0.00018311,-0.00011603,0.00003391,-0.00
 000143,0.00006729,-0.00007173,0.00046219,0.00134656,-0.00225870,-0.001
 09763,0.01027795,-0.00548074,-0.00182070,-0.00112671,0.00117651,-0.000
 08590,-0.00019457,0.00009426,0.00016235,-0.00005723,-0.00002113,0.0000
 0171,-0.00011143,-0.00018640,0.00004376,0.00005146,0.00002310,-0.00010
 475,-0.00015798,0.00005779,0.13773879,-0.00023393,0.00112595,-0.000014
 95,-0.00016060,-0.00088099,-0.00013181,0.00019995,0.00010851,0.0000545
 3,-0.00028533,-0.00089422,0.00000219,0.00021572,0.00019156,0.00010018,
 -0.00043137,-0.00035248,-0.00012330,0.00031373,0.00025736,0.00008377,0
 .00047354,-0.00004642,-0.00019443,-0.00005901,0.00290556,0.00126831,0.
 00079302,0.00202257,-0.00161113,-0.00025992,0.00077460,0.00025208,0.00
 010764,0.00009414,0.00024061,0.00013755,-0.00031934,-0.00095744,-0.000
 36739,-0.00089597,0.00092532,-0.01286674,-0.00585016,0.00496760,-0.006
 49519,-0.00529807,-0.00851678,0.00006195,-0.00003527,-0.00000996,-0.00
 011351,-0.00008896,0.00005257,0.00035740,0.00042521,-0.00138623,0.0059
 9193,-0.00664526,-0.00425168,-0.00188425,-0.00102857,0.00162585,-0.000
 59002,-0.00066217,0.00015807,-0.00007111,0.00005659,0.00002629,0.00000
 741,-0.00010614,-0.00012976,-0.00004221,0.00002309,-0.00002282,-0.0000
 5273,-0.00025225,0.00005684,-0.07661940,0.59888505,0.00031869,-0.00079
 827,-0.00056996,-0.00017348,-0.00108715,0.00059500,-0.00000066,0.00000
 614,-0.00010193,0.00016589,0.00063995,0.00027463,-0.00013018,-0.000032
 20,-0.00026042,-0.00009061,-0.00006564,0.00033371,0.00030663,0.0001097
 5,-0.00017954,-0.00038228,0.00076518,-0.00053153,0.00183336,-0.0045422
 9,-0.00304294,0.00045357,0.00372640,-0.00489724,-0.00037932,0.00029907
 ,0.00068380,0.00016687,0.00088905,-0.00028011,-0.00012534,-0.00091585,
 -0.00039102,0.00014723,0.00125485,0.00061453,0.00901472,0.01154149,0.0
 0166497,-0.00694718,-0.01150783,-0.00113040,-0.00003171,0.00003435,-0.
 00000519,0.00017147,0.00000391,0.00010767,-0.00049940,-0.00102601,0.00
 092613,-0.00374600,-0.00783067,-0.00469068,-0.00097465,-0.00031878,0.0
 0143524,-0.00068207,-0.00115263,0.00047261,-0.00006248,0.00011130,-0.0
 0001156,0.00000634,-0.00013838,0.00008135,-0.00007674,-0.00005851,0.00
 003290,0.00001179,-0.00011566,0.00000856,0.15846232,0.09179480,0.36419
 738,0.00009535,-0.00020318,0.00001233,-0.00001656,0.00015057,0.0000521
 9,-0.00002768,-0.00003093,-0.00000516,0.00001818,0.00015756,-0.0000044
 5,-0.00002440,-0.00003692,-0.00001191,0.00004523,0.00006646,0.00001774
 ,-0.00002141,-0.00004338,-0.00002258,-0.00007283,0.00015818,-0.0000027
 2,0.00025358,-0.00023249,-0.00016638,-0.00003710,-0.00005656,0.0001588
 5,0.00008968,-0.00008873,-0.00006548,0.00000800,0.00001295,-0.00004733
 ,-0.00008106,0.00003992,0.00013095,0.00001567,0.00014960,-0.00004516,-
 0.00255210,0.00055398,0.00040842,-0.00081842,0.00020629,-0.00053658,-0
 .00002229,0.00001114,-0.00000906,-0.00000424,-0.00001293,-0.00000406,-
 0.00004231,-0.00015936,0.00015543,0.00334390,-0.00398476,0.00011418,0.
 00004600,-0.00001604,-0.00022926,-0.00002808,-0.00003328,-0.00001190,-
 0.00002145,0.00000813,-0.00000137,-0.00000433,0.00002081,0.00002706,-0
 .00001039,-0.00001363,0.00000004,0.00004194,0.00000777,-0.00002413,-0.
 06112763,0.15837458,-0.03510015,0.05732999,0.00009948,-0.00025605,0.00
 001147,0.00001384,0.00025081,0.00002497,-0.00004413,-0.00002846,-0.000
 00916,0.00004984,0.00020994,-0.00000587,-0.00004622,-0.00004445,-0.000
 01812,0.00009575,0.00008311,0.00002047,-0.00007389,-0.00006297,-0.0000
 1618,-0.00017670,0.00013963,0.00002880,0.00048233,-0.00057012,-0.00020
 155,-0.00028856,-0.00020939,0.00039199,0.00014772,-0.00012979,-0.00009
 125,-0.00004478,-0.00004233,-0.00001579,-0.00001478,0.00010931,0.00014
 421,0.00008080,0.00020635,-0.00014473,0.00030419,0.00169588,-0.0004256
 0,-0.00006058,0.00107561,-0.00054597,-0.00002034,0.00001260,-0.0000030
 4,0.00000472,0.00000076,0.00000007,-0.00011084,-0.00016749,0.00027314,
 -0.00059365,-0.00383446,0.00171327,-0.00013679,-0.00008788,-0.00023351
 ,0.00006536,0.00004204,-0.00003746,-0.00000873,-0.00000180,0.00000831,
 -0.00000068,0.00003135,0.00002791,0.00000956,-0.00000182,-0.00000544,0
 .00001563,0.00002861,-0.00001825,0.12825461,-0.43469957,0.04753504,-0.
 14069351,0.46028776,-0.00003476,-0.00000104,0.00004715,0.00003904,0.00
 013937,-0.00008701,-0.00001044,-0.00000578,0.00001390,0.00001434,0.000
 00197,-0.00003063,-0.00000032,-0.00000743,0.00002536,0.00003683,0.0000
 2514,-0.00003834,-0.00005568,-0.00002295,0.00002669,0.00001185,-0.0000
 7511,0.00011043,-0.00024311,-0.00004757,0.00009706,-0.00013399,-0.0001
 0875,0.00021098,0.00003257,-0.00002775,-0.00003781,-0.00004062,-0.0001
 2300,0.00008278,0.00004271,0.00016339,-0.00007891,0.00004026,-0.000063
 18,-0.00021116,0.00187627,-0.00028371,-0.00059231,-0.00104876,0.000395
 08,-0.00143094,0.00000069,-0.00000440,0.00000918,-0.00000434,0.0000148
 6,-0.00003179,-0.00000265,0.00012994,0.00011691,-0.00310220,0.00325423
 ,0.00035403,-0.00021819,-0.00037733,-0.00000208,0.00001184,0.00000084,
 0.00003355,0.00000423,-0.00000514,-0.00000005,0.00000050,0.00002607,-0
 .00000911,0.00001648,0.00001319,-0.00001040,-0.00000809,-0.00004355,-0
 .00001048,-0.04658973,0.09813516,-0.05649824,0.03519968,-0.06083438,0.
 05028601,-0.00134494,0.00235528,-0.00084469,0.00069090,-0.00033533,0.0
 0018838,0.00018916,0.00014505,0.00009482,0.00078993,-0.00041222,0.0003
 7148,-0.00013849,0.00024540,-0.00010437,0.00010678,-0.00038573,-0.0001
 2353,-0.00035765,0.00013083,0.00025808,-0.01884910,-0.00036805,-0.0049
 7500,-0.27587040,0.03923941,-0.04614746,-0.00746664,-0.00075366,-0.001
 45965,-0.00013243,0.00094795,0.00007553,0.00041975,-0.00008023,-0.0001
 2085,0.00003430,-0.00010505,0.00003069,0.00222156,-0.00002700,0.000759
 14,-0.00259452,0.01134453,0.00208722,0.00153841,0.00064935,-0.00009030
 ,0.00096613,-0.00110181,0.00051296,-0.00134958,-0.00167076,0.00208406,
 -0.00044574,0.00068264,-0.00047690,-0.00034612,-0.00112820,0.00164381,
 -0.00002971,0.00017877,0.00004461,0.00046149,0.00000126,-0.00104285,0.
 00062925,-0.00040970,-0.00052406,0.00001037,-0.00002620,-0.00010543,0.
 00002750,0.00006742,0.00024315,-0.00002793,0.00000993,0.00001600,0.001
 00000,-0.00000273,-0.00036571,-0.00007993,-0.00016812,-0.00001185,0.30
 024174,-0.00209816,0.00001516,-0.00077157,0.00036306,0.00028786,0.0001
 4719,0.00015904,0.00008871,0.00009988,0.00079873,0.00028104,0.00034812
 ,-0.00008145,0.00018082,-0.00006460,0.00002951,-0.00028011,-0.00010797
 ,-0.00021615,0.00006445,0.00012996,-0.02097020,0.00369388,-0.00563646,
 0.03432303,-0.05631320,0.01087591,-0.00063415,0.00193247,0.00054147,-0
 .00061971,0.00016032,-0.00029915,-0.00015713,0.00007688,0.00005720,0.0
 0001600,0.00000312,0.00000553,0.00137163,0.00103042,0.00011840,0.03653
 335,-0.02443333,-0.00212230,0.00013674,0.00046049,-0.00036574,0.000709
 97,-0.00026804,0.00024012,-0.00262044,-0.00222628,0.00243273,-0.000151
 35,-0.00104698,0.00114371,0.00339636,0.00301604,-0.00066416,-0.0000424
 6,0.00006562,-0.00001392,-0.00027051,0.00023901,-0.00062605,0.00000453
 ,0.00002599,-0.00005298,0.00000668,0.00000025,0.00004259,0.00004973,-0
 .00002879,-0.00004609,-0.00000208,-0.00001055,0.00000311,-0.00112969,0
 .00042458,0.00039151,0.00019541,0.00009319,-0.00028642,-0.04946109,0.0
 7289424,0.00074618,-0.00015102,0.00091518,0.00030933,-0.00035963,0.000
 27838,0.00003359,0.00005118,-0.00014244,-0.00042023,-0.00005118,-0.000
 19251,-0.00002768,-0.00008406,-0.00005565,0.00001094,-0.00006308,0.000
 18395,-0.00007196,0.00023602,-0.00001350,0.01718015,-0.00233172,0.0042
 5449,-0.04707510,0.01053149,-0.06446043,-0.03397118,0.00305600,-0.0090
 9836,-0.00169526,0.00125887,0.00130609,0.00014060,0.00015617,-0.000099
 79,0.00012621,-0.00005415,0.00000040,-0.00158532,0.00049846,0.00104187
 ,0.01459746,-0.00874127,0.00385439,0.00158655,-0.00041800,0.00225684,-
 0.00041591,0.00005357,-0.00011376,0.00170270,0.00169999,-0.00159286,0.
 00026580,-0.00054085,0.00038301,0.00038597,0.00136241,0.00044482,0.000
 06740,-0.00015310,0.00012895,-0.00115102,-0.00001241,-0.00617073,0.000
 98404,-0.00034438,-0.00036665,0.00011626,-0.00002665,-0.00005407,0.000
 23947,0.00006687,0.00019173,-0.00004049,0.00001768,0.00004769,-0.00013
 221,-0.00019715,0.00013614,0.00000355,0.00001978,0.00002110,0.04823615
 ,-0.00563981,0.06728410,0.00029957,-0.00052460,0.00027093,-0.00019634,
 0.00149181,-0.00000088,-0.00013741,-0.00009886,0.00001066,0.00002639,0
 .00039829,-0.00012550,-0.00007164,-0.00012797,0.00004773,0.00028126,0.
 00029289,-0.00005368,-0.00030341,-0.00027622,-0.00000868,-0.00044147,-
 0.00009022,0.00006775,0.00099959,-0.00120278,0.00129536,-0.00261493,-0
 .00329116,0.00443549,0.00160187,-0.00048286,-0.00096490,-0.00018635,-0
 .00046922,-0.00008035,-0.00031273,0.00081379,0.00127658,0.00017877,0.0
 0025955,-0.00081266,-0.00108606,-0.00030911,-0.00223377,-0.00562629,0.
 00008918,-0.00126293,-0.00008004,0.00004315,-0.00003147,-0.00008722,-0
 .00001054,-0.00002850,-0.00009668,-0.00011599,0.00058290,0.00101514,0.
 00187423,0.00733004,0.00314741,0.00194184,-0.00218836,0.00060081,0.000
 82819,-0.00026861,-0.00013373,0.00000723,-0.00000456,-0.00000023,0.000
 17653,0.00011106,-0.00001734,-0.00002092,-0.00004144,0.00009413,0.0002
 7054,-0.00002194,-0.06020099,-0.06649899,-0.12129092,0.00370469,0.0128
 5845,0.01417745,-0.00029407,0.00036079,-0.00014603,0.05993730,-0.00000
 757,-0.00035985,0.00044141,0.00035593,0.00137020,-0.00026244,-0.000165
 70,-0.00009240,0.00001510,0.00009973,0.00028410,-0.00018520,-0.0000880
 0,-0.00013607,0.00008372,0.00041273,0.00033599,-0.00010501,-0.00044231
 ,-0.00026525,0.00002745,-0.00016770,-0.00052257,0.00064521,-0.00128927
 ,0.00192851,0.00177164,-0.00234079,-0.00610712,0.00360927,0.00004223,-
 0.00108369,-0.00048770,-0.00013520,-0.00056388,-0.00017131,-0.00009887
 ,0.00072624,0.00124832,0.00021112,-0.00042596,-0.00103069,-0.00230457,
 -0.00434420,-0.00073398,0.00142946,-0.00014973,0.00247209,-0.00002355,
 0.00000756,-0.00000272,0.00001923,0.00008870,-0.00012440,0.00001987,0.
 00041121,0.00007772,0.00344580,0.00657541,0.00108398,0.00233997,0.0012
 3753,-0.00320145,0.00125453,0.00149783,-0.00053584,0.00023026,-0.00025
 867,-0.00002928,-0.00000695,0.00016077,0.00008269,0.00008019,-0.000001
 05,0.00002297,0.00007691,0.00038240,-0.00005219,-0.04069086,-0.1492389
 5,-0.12951290,-0.01450766,-0.02413036,-0.03998175,0.00043806,-0.000427
 28,0.00015996,0.05181298,0.17310058,-0.00012678,0.00048281,0.00047632,
 0.00009381,0.00122426,-0.00045827,-0.00003881,-0.00003020,0.00008026,-
 0.00011678,-0.00037659,-0.00023823,0.00007850,-0.00000551,0.00020882,0
 .00015014,0.00013003,-0.00026820,-0.00031643,-0.00016481,0.00012073,-0
 .00008617,-0.00022694,0.00011956,0.00093857,0.00376080,0.00230855,0.00
 039689,-0.00390899,0.00639288,0.00064227,-0.00039340,-0.00076562,-0.00
 019594,-0.00076638,0.00019036,0.00014313,0.00071729,0.00034111,-0.0000
 9351,-0.00088161,-0.00036261,-0.00362173,-0.00462038,0.00097251,0.0016
 7242,0.00520857,-0.01044019,-0.00000141,-0.00000378,-0.00000707,-0.000
 25162,-0.00009642,0.00000113,0.00032545,0.00063831,-0.00070268,0.00828
 756,0.00329317,-0.00938147,-0.00112659,-0.00085650,-0.00210392,0.00094
 963,0.00166949,-0.00075743,0.00002882,-0.00012476,0.00005209,-0.000003
 21,0.00014128,-0.00003200,0.00006124,0.00004639,-0.00004420,0.00002442
 ,0.00013864,-0.00003411,-0.10752694,-0.18219673,-0.29897388,0.00000728
 ,0.01240686,0.00763410,-0.00025342,0.00011979,-0.00036838,0.09995921,0
 .16467533,0.30603988\\0.00000280,0.00001364,-0.00000298,-0.00000200,-0
 .00000326,0.00000032,0.00000345,0.00000492,0.00000630,-0.00000123,-0.0
 0000562,0.00000641,0.00001198,0.00000916,0.00001139,-0.00001422,-0.000
 01189,0.00000591,0.00000935,0.00000488,0.00000662,-0.00000692,-0.00000
 212,0.00000537,0.00000527,0.00001019,-0.00000012,0.00000138,0.00000010
 ,-0.00000050,-0.00000308,0.00000012,0.00000239,-0.00000628,-0.00001228
 ,0.00000249,-0.00000160,-0.00000354,-0.00000047,0.00000320,0.00000248,
 -0.00000180,0.00000444,-0.00001090,-0.00001715,-0.00001367,-0.00000810
 ,0.00000181,0.00000193,0.00000049,-0.00000055,0.00000312,0.00000336,0.
 00000189,0.00000555,0.00000535,-0.00000063,0.00000664,0.00000964,0.000
 01164,0.00000551,0.00000189,-0.00000711,-0.00000211,-0.00000089,0.0000
 0245,-0.00000111,-0.00000126,-0.00000145,-0.00000389,-0.00000401,0.000
 00216,-0.00000282,-0.00000252,0.00000037,-0.00000588,-0.00000662,-0.00
 000065,-0.00002463,-0.00001270,-0.00000414,0.00001187,0.00000301,-0.00
 001220,0.00000186,0.00000151,-0.00000241,0.00001110,0.00001497,-0.0000
 1536\\\@


 THE FIRST MORNING OF CREATION WROTE WHAT THE LAST DAWN OF
 RECKONING SHALL READ. -- OMAR KHAYYAM
 Job cpu time:       0 days  1 hours  5 minutes 30.8 seconds.
 File lengths (MBytes):  RWF=    221 Int=      0 D2E=      0 Chk=     10 Scr=      1
 Normal termination of Gaussian 09 at Tue Jun  7 23:32:06 2016.
