 Entering Gaussian System, Link 0=g09
 Initial command:
 /global/software/gaussian/g09.e01/l1.exe "/scratch/10447797.yak.local/Gau-15031.inp" -scrdir="/scratch/10447797.yak.local/"
 Entering Link 1 = /global/software/gaussian/g09.e01/l1.exe PID=     15032.
  
 Copyright (c) 1988,1990,1992,1993,1995,1998,2003,2009,2015,
            Gaussian, Inc.  All Rights Reserved.
  
 This is part of the Gaussian(R) 09 program.  It is based on
 the Gaussian(R) 03 system (copyright 2003, Gaussian, Inc.),
 the Gaussian(R) 98 system (copyright 1998, Gaussian, Inc.),
 the Gaussian(R) 94 system (copyright 1995, Gaussian, Inc.),
 the Gaussian 92(TM) system (copyright 1992, Gaussian, Inc.),
 the Gaussian 90(TM) system (copyright 1990, Gaussian, Inc.),
 the Gaussian 88(TM) system (copyright 1988, Gaussian, Inc.),
 the Gaussian 86(TM) system (copyright 1986, Carnegie Mellon
 University), and the Gaussian 82(TM) system (copyright 1983,
 Carnegie Mellon University). Gaussian is a federally registered
 trademark of Gaussian, Inc.
  
 This software contains proprietary and confidential information,
 including trade secrets, belonging to Gaussian, Inc.
  
 This software is provided under written license and may be
 used, copied, transmitted, or stored only in accord with that
 written license.
  
 The following legend is applicable only to US Government
 contracts under FAR:
  
                    RESTRICTED RIGHTS LEGEND
  
 Use, reproduction and disclosure by the US Government is
 subject to restrictions as set forth in subparagraphs (a)
 and (c) of the Commercial Computer Software - Restricted
 Rights clause in FAR 52.227-19.
  
 Gaussian, Inc.
 340 Quinnipiac St., Bldg. 40, Wallingford CT 06492
  
  
 ---------------------------------------------------------------
 Warning -- This program may not be used in any manner that
 competes with the business of Gaussian, Inc. or will provide
 assistance to any competitor of Gaussian, Inc.  The licensee
 of this program is prohibited from giving any competitor of
 Gaussian, Inc. access to this program.  By using this program,
 the user acknowledges that Gaussian, Inc. is engaged in the
 business of creating and licensing software in the field of
 computational chemistry and represents and warrants to the
 licensee that it is not a competitor of Gaussian, Inc. and that
 it will not use this program in any manner prohibited above.
 ---------------------------------------------------------------
  

 Cite this work as:
 Gaussian 09, Revision E.01,
 M. J. Frisch, G. W. Trucks, H. B. Schlegel, G. E. Scuseria, 
 M. A. Robb, J. R. Cheeseman, G. Scalmani, V. Barone, B. Mennucci, 
 G. A. Petersson, H. Nakatsuji, M. Caricato, X. Li, H. P. Hratchian, 
 A. F. Izmaylov, J. Bloino, G. Zheng, J. L. Sonnenberg, M. Hada, 
 M. Ehara, K. Toyota, R. Fukuda, J. Hasegawa, M. Ishida, T. Nakajima, 
 Y. Honda, O. Kitao, H. Nakai, T. Vreven, J. A. Montgomery, Jr., 
 J. E. Peralta, F. Ogliaro, M. Bearpark, J. J. Heyd, E. Brothers, 
 K. N. Kudin, V. N. Staroverov, T. Keith, R. Kobayashi, J. Normand, 
 K. Raghavachari, A. Rendell, J. C. Burant, S. S. Iyengar, J. Tomasi, 
 M. Cossi, N. Rega, J. M. Millam, M. Klene, J. E. Knox, J. B. Cross, 
 V. Bakken, C. Adamo, J. Jaramillo, R. Gomperts, R. E. Stratmann, 
 O. Yazyev, A. J. Austin, R. Cammi, C. Pomelli, J. W. Ochterski, 
 R. L. Martin, K. Morokuma, V. G. Zakrzewski, G. A. Voth, 
 P. Salvador, J. J. Dannenberg, S. Dapprich, A. D. Daniels, 
 O. Farkas, J. B. Foresman, J. V. Ortiz, J. Cioslowski, 
 and D. J. Fox, Gaussian, Inc., Wallingford CT, 2013.
 
 ******************************************
 Gaussian 09:  ES64L-G09RevE.01 30-Nov-2015
                 8-Jan-2017 
 ******************************************
 %nprocshared=12
 Will use up to   12 processors via shared memory.
 ---------------------------------------------------------------
 # IRC=(CalcFC,Reverse,MaxCycle=500,MaxPoints=10) B3LYP/6-31G(d)
 ---------------------------------------------------------------
 1/6=500,10=4,14=-1,18=10,22=2,26=3,38=1,42=10,44=3/1,23;
 2/12=2,17=6,18=5,29=1,40=1/2;
 3/5=1,6=6,7=1,11=2,16=1,25=1,30=1,71=2,74=-5,140=1/1,2,3;
 4//1;
 5/5=2,38=5/2;
 8/6=4,10=90,11=11/1;
 11/6=1,8=1,9=11,15=111,16=1/1,2,10;
 10/6=1,13=1/2;
 6/7=2,8=2,9=2,10=2,28=1/1;
 7/10=1,18=20,25=1/1,2,3,16;
 1/6=500,10=4,14=-1,18=10,22=2,26=3,42=10,44=3/23(2);
 2/29=1/2;
 99/5=20/99;
 2/29=1/2;
 3/5=1,6=6,7=1,11=2,16=1,25=1,30=1,71=2,74=-5,140=1/1,2,3;
 4/5=5,16=3,69=1/1;
 5/5=2,38=5/2;
 8/6=4,10=90,11=11/1;
 11/6=1,8=1,9=11,15=111,16=1/1,2,10;
 10/6=1,13=1/2;
 7/10=1,18=20,25=1/1,2,3,16;
 1/6=500,14=-1,18=10,22=2,26=3,42=10,44=3/23(-8);
 2/29=1/2;
 6/7=2,8=2,9=2,10=2,19=2,28=1/1;
 99/5=20,9=1/99;
 -------------------------------------
 glo_1w_beta_ts_chair2_B3LYP_631Gd.out
 -------------------------------------
 Symbolic Z-matrix:
 Charge =  0 Multiplicity = 1
 C                    -1.72019   0.46671  -0.50309 
 O                    -1.06169   0.82441   0.90172 
 C                    -1.59873  -1.04265  -0.71013 
 C                    -0.12349  -1.46713  -0.61846 
 C                     0.46858  -1.13462   0.77163 
 C                     0.31525   0.3397    1.1812 
 H                    -1.96431  -1.24839  -1.72601 
 H                     1.54267  -1.3351    0.75051 
 H                     0.38015   0.36102   2.27209 
 H                    -0.05511  -2.55148  -0.74745 
 O                    -2.33865  -1.78906   0.25451 
 O                     0.59225  -0.85607  -1.69659 
 O                    -0.0638   -2.00995   1.75485 
 H                     0.16621   0.02228  -1.85612 
 H                    -3.24986  -1.45597   0.27592 
 H                    -1.03182  -2.00222   1.64506 
 C                     1.3891    1.3071    0.62716 
 O                     2.66651   0.9009    1.05692 
 H                     1.19324   2.3076    1.02938 
 H                     1.32541   1.38055  -0.464 
 H                     3.04592   0.34007   0.34193 
 O                    -1.16243   1.19215  -1.4658 
 H                    -1.12912   2.40436  -0.86673 
 H                    -2.75693   0.74877  -0.23231 
 H                    -1.07086   2.00764   0.73223 
 O                    -1.07888   3.06358   0.04731 
 H                    -1.9106    3.55735   0.13778 
 O                     3.31708  -0.63091  -1.15749 
 H                     2.40219  -0.77905  -1.48974 
 H                     3.76671  -0.1325   -1.85583 
 
 IRC-IRC-IRC-IRC-IRC-IRC-IRC-IRC-IRC-IRC-IRC-IRC-IRC-IRC-IRC-IRC-IRC-IRC
 ------------------------------------------------------------------------
 INPUT DATA FOR L123
 ------------------------------------------------------------------------
 GENERAL PARAMETERS:
 Rxn path following direction = Reverse
 Maximum points per path      =  10
 Step size                    =   0.100 bohr
 Integration scheme           = HPC                                 
    Redo corrector integration= Yes                                 
    DWI Weight Power          =  2
    DWI will use Hessian update vectors when possible.
    Max correction cycles     = 500
 Initial Hessian              = CalcFC
 Hessian evaluation           = All updating
 Hessian updating method      = Bofill                              
 ------------------------------------------------------------------------
 IRC-IRC-IRC-IRC-IRC-IRC-IRC-IRC-IRC-IRC-IRC-IRC-IRC-IRC-IRC-IRC-IRC-IRC
                          Input orientation:                          
 ---------------------------------------------------------------------
 Center     Atomic      Atomic             Coordinates (Angstroms)
 Number     Number       Type             X           Y           Z
 ---------------------------------------------------------------------
      1          6           0       -1.720190    0.466710   -0.503090
      2          8           0       -1.061690    0.824410    0.901720
      3          6           0       -1.598730   -1.042650   -0.710130
      4          6           0       -0.123490   -1.467130   -0.618460
      5          6           0        0.468580   -1.134620    0.771630
      6          6           0        0.315250    0.339700    1.181200
      7          1           0       -1.964310   -1.248390   -1.726010
      8          1           0        1.542670   -1.335100    0.750510
      9          1           0        0.380150    0.361020    2.272090
     10          1           0       -0.055110   -2.551480   -0.747450
     11          8           0       -2.338650   -1.789060    0.254510
     12          8           0        0.592250   -0.856070   -1.696590
     13          8           0       -0.063800   -2.009950    1.754850
     14          1           0        0.166210    0.022280   -1.856120
     15          1           0       -3.249860   -1.455970    0.275920
     16          1           0       -1.031820   -2.002220    1.645060
     17          6           0        1.389100    1.307100    0.627160
     18          8           0        2.666510    0.900900    1.056920
     19          1           0        1.193240    2.307600    1.029380
     20          1           0        1.325410    1.380550   -0.464000
     21          1           0        3.045920    0.340070    0.341930
     22          8           0       -1.162430    1.192150   -1.465800
     23          1           0       -1.129120    2.404360   -0.866730
     24          1           0       -2.756930    0.748770   -0.232310
     25          1           0       -1.070860    2.007640    0.732230
     26          8           0       -1.078880    3.063580    0.047310
     27          1           0       -1.910600    3.557350    0.137780
     28          8           0        3.317080   -0.630910   -1.157490
     29          1           0        2.402190   -0.779050   -1.489740
     30          1           0        3.766710   -0.132500   -1.855830
 ---------------------------------------------------------------------
                    Distance matrix (angstroms):
                    1          2          3          4          5
     1  C    0.000000
     2  O    1.592188   0.000000
     3  C    1.528328   2.524358   0.000000
     4  C    2.510478   2.905567   1.537830   0.000000
     5  C    2.996645   2.489267   2.545160   1.547081   0.000000
     6  C    2.644992   1.486276   3.025118   2.587644   1.537816
     7  H    2.120541   3.466437   1.099086   2.159429   3.488567
     8  H    3.932466   3.386597   3.476692   2.160463   1.092844
     9  H    3.481985   2.042436   3.844462   3.457031   2.120410
    10  H    3.455673   3.889678   2.158871   1.094134   2.142276
    11  O    2.458648   2.979888   1.426583   2.402634   2.928523
    12  O    2.919172   3.508667   2.410043   1.431098   2.486965
    13  O    3.738418   3.123654   3.060687   2.435327   1.419983
    14  H    2.363623   3.123593   2.358470   1.958078   2.887025
    15  H    2.577488   3.221777   1.967068   3.251804   3.765075
    16  H    3.344251   2.922890   2.605587   2.496980   1.940827
    17  C    3.413415   2.512916   4.029491   3.396447   2.613470
    18  O    4.676033   3.732213   5.009204   4.024744   3.009257
    19  H    3.771659   2.702010   4.695228   4.324088   3.527102
    20  H    3.179986   2.805838   3.805663   3.198820   2.930362
    21  H    4.842097   4.173776   4.958984   3.772729   3.000339
    22  O    1.328221   2.398027   2.399109   2.978112   3.616648
    23  H    2.058175   2.372384   3.482375   4.007663   4.214410
    24  H    1.108021   2.040976   2.186075   3.463283   3.867683
    25  H    2.078969   1.195343   3.415160   3.846544   3.499318
    26  O    2.730925   2.396705   4.207741   4.677965   4.532566
    27  H    3.162124   2.961961   4.687880   5.386192   5.298759
    28  O    5.196835   5.052913   4.953266   3.581527   3.476950
    29  H    4.418078   4.504290   4.084683   2.758921   2.996510
    30  H    5.682872   5.642092   5.561380   4.294878   4.334219
                    6          7          8          9         10
     6  C    0.000000
     7  H    4.021230   0.000000
     8  H    2.120615   4.294133   0.000000
     9  H    1.093027   4.906271   2.558023   0.000000
    10  H    3.495108   2.510113   2.505268   4.217787   0.000000
    11  O    3.526125   2.086843   3.939129   4.010654   2.607636
    12  O    3.128621   2.586654   2.668533   4.156527   2.048013
    13  O    2.448185   4.038353   2.011186   2.467008   2.560241
    14  H    3.057496   2.484079   3.245249   4.147606   2.811116
    15  H    4.093162   2.388190   4.817488   4.523618   3.529002
    16  H    2.741232   3.577976   2.805934   2.823425   2.641922
    17  C    1.547894   4.828384   2.649532   2.149149   4.343263
    18  O    2.420499   5.814520   2.521230   2.644910   4.752041
    19  H    2.160219   5.496122   3.670032   2.448391   5.322233
    20  H    2.193280   4.396163   2.982782   3.069063   4.176965
    21  H    2.856735   5.648184   2.287552   3.291244   4.377693
    22  O    3.149098   2.582045   4.314694   4.128214   3.969502
    23  H    3.247005   3.844280   4.872113   4.037985   5.072285
    24  H    3.406411   2.616875   4.878013   4.032820   4.296144
    25  H    2.214701   4.176473   4.243204   2.681036   4.899671
    26  O    3.263254   4.745707   5.168694   3.792393   5.762694
    27  H    4.049247   5.154778   6.019683   4.474298   6.445485
    28  O    3.927154   5.347670   2.699051   4.622932   3.902357
    29  H    3.569431   4.398002   2.463064   4.420381   3.119427
    30  H    4.621591   5.840090   3.631199   5.362096   4.656853
                   11         12         13         14         15
    11  O    0.000000
    12  O    3.642449   0.000000
    13  O    2.734000   3.697875   0.000000
    14  H    3.742998   0.989171   4.149936   0.000000
    15  H    0.970418   4.360331   3.555996   4.289563   0.000000
    16  H    1.920123   3.888173   0.974257   4.218073   2.663200
    17  C    4.860164   3.273238   3.792812   3.051705   5.410903
    18  O    5.738586   3.869278   4.051512   3.938182   6.416247
    19  H    5.464183   4.219112   4.554964   3.821464   5.871397
    20  H    4.897757   2.656929   4.283537   2.264208   5.433822
    21  H    5.790892   3.406877   4.145998   3.636639   6.547287
    22  O    3.637385   2.706912   4.672582   1.812796   3.795193
    23  H    4.506097   3.779178   5.243446   2.886361   4.550312
    24  H    2.617734   3.992071   4.337314   3.421885   2.315633
    25  H    4.031183   4.106816   4.266257   3.488775   4.117384
    26  O    5.017775   4.604076   5.448558   3.797736   5.019138
    27  H    5.364788   5.395132   6.084440   4.559111   5.190961
    28  O    5.943260   2.786759   4.670527   3.292829   6.772008
    29  H    5.151514   1.823349   4.257180   2.403325   5.959987
    30  H    6.668819   3.259771   5.588796   3.603825   7.451724
                   16         17         18         19         20
    16  H    0.000000
    17  C    4.224757   0.000000
    18  O    4.738318   1.407646   0.000000
    19  H    4.889223   1.095966   2.037176   0.000000
    20  H    4.631177   1.095482   2.083701   1.762690   0.000000
    21  H    4.879799   1.939473   0.984730   2.788581   2.166166
    22  O    4.460774   3.302121   4.594532   3.608231   2.688577
    23  H    5.073116   3.126838   4.513051   2.999659   2.689813
    24  H    3.750796   4.270830   5.576644   4.430085   4.137430
    25  H    4.112634   2.559922   3.911295   2.303133   2.750694
    26  O    5.312001   3.084214   4.441221   2.588145   2.979033
    27  H    5.826917   4.023821   5.371357   3.462752   3.946183
    28  O    5.352355   3.264654   2.770071   4.234140   2.914387
    29  H    4.807862   3.140006   3.062283   4.163524   2.622112
    30  H    6.227196   3.727025   3.280620   4.571791   3.191623
                   21         22         23         24         25
    21  H    0.000000
    22  O    4.658770   0.000000
    23  H    4.811768   1.352571   0.000000
    24  H    5.845499   2.064101   2.406913   0.000000
    25  H    4.458812   2.346219   1.648470   2.314719   0.000000
    26  O    4.951594   2.408056   1.128080   2.872696   1.258646
    27  H    5.912669   2.953879   1.717305   2.956580   1.860144
    28  O    1.806818   4.846093   5.391299   6.297069   5.457747
    29  H    2.240945   4.073416   4.795038   5.525566   4.976431
    30  H    2.360722   5.118910   5.602065   6.780143   5.889001
                   26         27         28         29         30
    26  O    0.000000
    27  H    0.971469   0.000000
    28  O    5.867305   6.822601   0.000000
    29  H    5.407973   6.328771   0.984560   0.000000
    30  H    6.108732   7.058422   0.968637   1.553694   0.000000
 Symmetry turned off by external request.
 Stoichiometry    C6H16O8
 Framework group  C1[X(C6H16O8)]
 Deg. of freedom    84
 Full point group                 C1      NOp   1
 Rotational constants (GHZ):      0.7157412      0.5955980      0.4785327
 Standard basis: 6-31G(d) (6D, 7F)
   242 basis functions,   456 primitive gaussians,   242 cartesian basis functions
    58 alpha electrons       58 beta electrons
       nuclear repulsion energy      1150.5995817250 Hartrees.
 NAtoms=   30 NActive=   30 NUniq=   30 SFac= 1.00D+00 NAtFMM=   60 NAOKFM=F Big=F
 Integral buffers will be    131072 words long.
 Raffenetti 2 integral format.
 Two-electron integral symmetry is turned off.
 One-electron integrals computed using PRISM.
 NBasis=   242 RedAO= T EigKep=  1.81D-03  NBF=   242
 NBsUse=   242 1.00D-06 EigRej= -1.00D+00 NBFU=   242
 ExpMin= 1.61D-01 ExpMax= 5.48D+03 ExpMxC= 8.25D+02 IAcc=1 IRadAn=         1 AccDes= 0.00D+00
 Harris functional with IExCor=  402 and IRadAn=       1 diagonalized for initial guess.
 HarFok:  IExCor=  402 AccDes= 0.00D+00 IRadAn=         1 IDoV= 1 UseB2=F ITyADJ=14
 ICtDFT=  3500011 ScaDFX=  1.000000  1.000000  1.000000  1.000000
 FoFCou: FMM=F IPFlag=           0 FMFlag=      100000 FMFlg1=           0
         NFxFlg=           0 DoJE=T BraDBF=F KetDBF=T FulRan=T
         wScrn=  0.000000 ICntrl=     500 IOpCl=  0 I1Cent=   200000004 NGrid=           0
         NMat0=    1 NMatS0=      1 NMatT0=    0 NMatD0=    1 NMtDS0=    0 NMtDT0=    0
 Symmetry not used in FoFCou.
 Requested convergence on RMS density matrix=1.00D-08 within 128 cycles.
 Requested convergence on MAX density matrix=1.00D-06.
 Requested convergence on             energy=1.00D-06.
 No special actions if energy rises.
 Integral accuracy reduced to 1.0D-05 until final iterations.
 Initial convergence to 1.0D-05 achieved.  Increase integral accuracy.
 SCF Done:  E(RB3LYP) =  -839.963779356     A.U. after   14 cycles
            NFock= 14  Conv=0.63D-08     -V/T= 2.0086
 DoSCS=F DFT=T ScalE2(SS,OS)=  1.000000  1.000000
 Range of M.O.s used for correlation:     1   242
 NBasis=   242 NAE=    58 NBE=    58 NFC=     0 NFV=     0
 NROrb=    242 NOA=    58 NOB=    58 NVA=   184 NVB=   184
 Symmetrizing basis deriv contribution to polar:
 IMax=3 JMax=2 DiffMx= 0.00D+00
 G2DrvN: will do    31 centers at a time, making    1 passes.
 Calling FoFCou, ICntrl=  3107 FMM=F I1Cent=   0 AccDes= 0.00D+00.
 End of G2Drv F.D. properties file   721 does not exist.
 End of G2Drv F.D. properties file   722 does not exist.
 End of G2Drv F.D. properties file   788 does not exist.
          IDoAtm=111111111111111111111111111111
          Differentiating once with respect to nuclear coordinates.
          There are    93 degrees of freedom in the 1st order CPHF.  IDoFFX=6 NUNeed=     0.
     87 vectors produced by pass  0 Test12= 1.15D-14 1.08D-09 XBig12= 1.46D-01 7.82D-02.
 AX will form    87 AO Fock derivatives at one time.
     87 vectors produced by pass  1 Test12= 1.15D-14 1.08D-09 XBig12= 1.64D-02 2.15D-02.
     87 vectors produced by pass  2 Test12= 1.15D-14 1.08D-09 XBig12= 1.13D-04 1.31D-03.
     87 vectors produced by pass  3 Test12= 1.15D-14 1.08D-09 XBig12= 2.97D-07 5.70D-05.
     87 vectors produced by pass  4 Test12= 1.15D-14 1.08D-09 XBig12= 3.38D-10 1.67D-06.
     69 vectors produced by pass  5 Test12= 1.15D-14 1.08D-09 XBig12= 2.82D-13 6.71D-08.
      1 vectors produced by pass  6 Test12= 1.15D-14 1.08D-09 XBig12= 2.27D-16 1.57D-09.
 InvSVY:  IOpt=1 It=  1 EMax= 6.11D-16
 Solved reduced A of dimension   505 with    93 vectors.
 End of Minotr F.D. properties file   721 does not exist.
 End of Minotr F.D. properties file   722 does not exist.
 End of Minotr F.D. properties file   788 does not exist.

 **********************************************************************

            Population analysis using the SCF density.

 **********************************************************************

 Alpha  occ. eigenvalues --  -19.20865 -19.18675 -19.18574 -19.16098 -19.14487
 Alpha  occ. eigenvalues --  -19.13105 -19.13067 -19.11829 -10.30960 -10.26339
 Alpha  occ. eigenvalues --  -10.25148 -10.24644 -10.23646 -10.22497  -1.09052
 Alpha  occ. eigenvalues --   -1.05898  -1.03441  -1.02636  -1.00982  -1.00551
 Alpha  occ. eigenvalues --   -0.99451  -0.99152  -0.78211  -0.76565  -0.68953
 Alpha  occ. eigenvalues --   -0.65888  -0.63989  -0.58664  -0.56708  -0.55455
 Alpha  occ. eigenvalues --   -0.54405  -0.52935  -0.51963  -0.50207  -0.49006
 Alpha  occ. eigenvalues --   -0.47911  -0.47265  -0.45400  -0.44921  -0.43078
 Alpha  occ. eigenvalues --   -0.42671  -0.41463  -0.40515  -0.39656  -0.38560
 Alpha  occ. eigenvalues --   -0.38127  -0.36422  -0.35351  -0.33794  -0.33118
 Alpha  occ. eigenvalues --   -0.32088  -0.30972  -0.29600  -0.29100  -0.28276
 Alpha  occ. eigenvalues --   -0.26784  -0.25956  -0.24520
 Alpha virt. eigenvalues --    0.03447   0.04280   0.05413   0.06703   0.09467
 Alpha virt. eigenvalues --    0.11557   0.12163   0.12398   0.13325   0.15679
 Alpha virt. eigenvalues --    0.16117   0.16690   0.17712   0.18679   0.19805
 Alpha virt. eigenvalues --    0.21008   0.21819   0.22959   0.23419   0.23846
 Alpha virt. eigenvalues --    0.24640   0.25686   0.27177   0.28109   0.29059
 Alpha virt. eigenvalues --    0.29298   0.31894   0.32897   0.50290   0.51409
 Alpha virt. eigenvalues --    0.53356   0.55621   0.55926   0.57240   0.57686
 Alpha virt. eigenvalues --    0.58041   0.60004   0.61436   0.62206   0.64523
 Alpha virt. eigenvalues --    0.65997   0.67477   0.70511   0.71680   0.72889
 Alpha virt. eigenvalues --    0.75550   0.76673   0.78910   0.79629   0.80945
 Alpha virt. eigenvalues --    0.81183   0.82976   0.83692   0.83920   0.85552
 Alpha virt. eigenvalues --    0.86197   0.87215   0.88399   0.89516   0.90007
 Alpha virt. eigenvalues --    0.91006   0.93131   0.93741   0.95513   0.96609
 Alpha virt. eigenvalues --    0.97411   1.00286   1.00653   1.01127   1.05404
 Alpha virt. eigenvalues --    1.06077   1.07290   1.08562   1.09412   1.10906
 Alpha virt. eigenvalues --    1.11284   1.13473   1.15201   1.16852   1.18243
 Alpha virt. eigenvalues --    1.18318   1.20928   1.23687   1.25017   1.27046
 Alpha virt. eigenvalues --    1.30809   1.32716   1.34278   1.35293   1.38990
 Alpha virt. eigenvalues --    1.39956   1.40788   1.43292   1.47511   1.49288
 Alpha virt. eigenvalues --    1.52471   1.55052   1.57416   1.58072   1.59906
 Alpha virt. eigenvalues --    1.61500   1.64876   1.65434   1.67146   1.68411
 Alpha virt. eigenvalues --    1.69652   1.71350   1.72061   1.73495   1.73647
 Alpha virt. eigenvalues --    1.75000   1.76925   1.77645   1.78979   1.79428
 Alpha virt. eigenvalues --    1.81902   1.82795   1.84174   1.84582   1.86456
 Alpha virt. eigenvalues --    1.87761   1.90064   1.90961   1.92843   1.95149
 Alpha virt. eigenvalues --    1.96746   1.97254   1.99282   2.02916   2.05088
 Alpha virt. eigenvalues --    2.07322   2.09804   2.11568   2.14806   2.15747
 Alpha virt. eigenvalues --    2.17774   2.19758   2.22068   2.24912   2.29025
 Alpha virt. eigenvalues --    2.30780   2.34112   2.35106   2.37224   2.38745
 Alpha virt. eigenvalues --    2.41277   2.43537   2.45056   2.47484   2.49133
 Alpha virt. eigenvalues --    2.53136   2.55791   2.57718   2.59277   2.61951
 Alpha virt. eigenvalues --    2.62140   2.62673   2.64288   2.67811   2.71577
 Alpha virt. eigenvalues --    2.74271   2.77360   2.79703   2.87505   2.90687
 Alpha virt. eigenvalues --    2.92157   2.93985   2.98579   3.04509   3.07779
 Alpha virt. eigenvalues --    3.75736   3.75890   3.78379   3.84477   3.93723
 Alpha virt. eigenvalues --    4.00478   4.11064   4.13183   4.28756   4.32116
 Alpha virt. eigenvalues --    4.49027   4.57866   4.73295   4.81783
          Condensed to atoms (all electrons):
               1          2          3          4          5          6
     1  C    4.878101   0.089133   0.294500  -0.010267  -0.029201  -0.004603
     2  O    0.089133   8.592806  -0.013255  -0.011949  -0.019140   0.099940
     3  C    0.294500  -0.013255   5.008655   0.327086  -0.021132  -0.024684
     4  C   -0.010267  -0.011949   0.327086   4.917970   0.296875  -0.022816
     5  C   -0.029201  -0.019140  -0.021132   0.296875   4.960224   0.293438
     6  C   -0.004603   0.099940  -0.024684  -0.022816   0.293438   5.157126
     7  H   -0.063661   0.002924   0.375456  -0.044701   0.005997  -0.000119
     8  H    0.000229   0.003200   0.004708  -0.038024   0.369522  -0.061170
     9  H    0.001709  -0.031770   0.000263   0.004990  -0.043212   0.367554
    10  H    0.005978  -0.000070  -0.045057   0.376902  -0.058694   0.006614
    11  O   -0.033637   0.002137   0.185628  -0.042144   0.006388  -0.000563
    12  O    0.003667  -0.000465  -0.024792   0.203687  -0.040509   0.003112
    13  O   -0.000068   0.000875   0.000175  -0.032642   0.246111  -0.044739
    14  H   -0.009269   0.000328  -0.015004  -0.021714  -0.001003   0.001900
    15  H   -0.004341  -0.000187  -0.023938   0.005882  -0.000150  -0.000044
    16  H   -0.000045   0.002165  -0.000987  -0.011398  -0.029614  -0.004252
    17  C   -0.000463  -0.018791   0.000116  -0.001490  -0.022919   0.280126
    18  O    0.000012   0.001353  -0.000027   0.000170  -0.005923  -0.051873
    19  H   -0.000287   0.002566  -0.000068  -0.000065   0.004525  -0.046880
    20  H    0.002166   0.000786  -0.000783   0.002247  -0.010205  -0.044072
    21  H    0.000002  -0.000058   0.000004  -0.000237   0.001912  -0.001244
    22  O    0.237060  -0.062514  -0.043042   0.001125  -0.000491   0.005648
    23  H   -0.020975   0.009782   0.003247  -0.000079   0.000039  -0.000978
    24  H    0.360460  -0.054605  -0.069699   0.004958   0.000058   0.003539
    25  H   -0.017200   0.115447   0.002700  -0.000060   0.002040  -0.010140
    26  O    0.026129  -0.097139   0.000262  -0.000089  -0.000108   0.003862
    27  H    0.000778   0.003392   0.000068   0.000003   0.000003  -0.000104
    28  O   -0.000007   0.000001  -0.000011   0.001044  -0.000476  -0.000767
    29  H    0.000016   0.000000   0.000527  -0.004738   0.000726  -0.000465
    30  H    0.000000   0.000000  -0.000001  -0.000021   0.000111  -0.000013
               7          8          9         10         11         12
     1  C   -0.063661   0.000229   0.001709   0.005978  -0.033637   0.003667
     2  O    0.002924   0.003200  -0.031770  -0.000070   0.002137  -0.000465
     3  C    0.375456   0.004708   0.000263  -0.045057   0.185628  -0.024792
     4  C   -0.044701  -0.038024   0.004990   0.376902  -0.042144   0.203687
     5  C    0.005997   0.369522  -0.043212  -0.058694   0.006388  -0.040509
     6  C   -0.000119  -0.061170   0.367554   0.006614  -0.000563   0.003112
     7  H    0.596486  -0.000114   0.000022  -0.007809  -0.031967   0.002576
     8  H   -0.000114   0.566388   0.000501  -0.006147  -0.000056  -0.000257
     9  H    0.000022   0.000501   0.558168  -0.000189   0.000036  -0.000104
    10  H   -0.007809  -0.006147  -0.000189   0.582347   0.002223  -0.033606
    11  O   -0.031967  -0.000056   0.000036   0.002223   8.287950   0.001201
    12  O    0.002576  -0.000257  -0.000104  -0.033606   0.001201   8.352201
    13  O   -0.000271  -0.035995   0.003529   0.007934  -0.016944   0.001486
    14  H    0.001282  -0.000065   0.000029   0.003369   0.000204   0.202821
    15  H   -0.003022   0.000018  -0.000014  -0.000329   0.232100  -0.000094
    16  H    0.000555   0.005670  -0.000093  -0.000834   0.041211   0.000006
    17  C    0.000010  -0.003476  -0.042186  -0.000133   0.000012  -0.001759
    18  O    0.000000   0.017438   0.005488  -0.000003   0.000000  -0.000147
    19  H   -0.000001   0.000361  -0.007614   0.000007  -0.000000   0.000170
    20  H   -0.000012   0.000953   0.005688   0.000011  -0.000002   0.006451
    21  H    0.000000   0.001163  -0.000413   0.000004  -0.000000   0.000185
    22  O    0.004996  -0.000006  -0.000121  -0.000206   0.001650  -0.027644
    23  H   -0.000108  -0.000004  -0.000011   0.000008  -0.000052   0.000226
    24  H   -0.001533   0.000017  -0.000196  -0.000195   0.000389  -0.000311
    25  H   -0.000114  -0.000073  -0.002002   0.000011  -0.000068  -0.000013
    26  O    0.000015   0.000004   0.000021  -0.000000   0.000002  -0.000008
    27  H   -0.000002  -0.000000   0.000004   0.000000  -0.000001   0.000000
    28  O    0.000000   0.003749  -0.000001   0.000049   0.000000  -0.020679
    29  H   -0.000008   0.000427  -0.000008  -0.000408  -0.000004   0.058854
    30  H   -0.000000  -0.000169  -0.000000   0.000001  -0.000000   0.000885
              13         14         15         16         17         18
     1  C   -0.000068  -0.009269  -0.004341  -0.000045  -0.000463   0.000012
     2  O    0.000875   0.000328  -0.000187   0.002165  -0.018791   0.001353
     3  C    0.000175  -0.015004  -0.023938  -0.000987   0.000116  -0.000027
     4  C   -0.032642  -0.021714   0.005882  -0.011398  -0.001490   0.000170
     5  C    0.246111  -0.001003  -0.000150  -0.029614  -0.022919  -0.005923
     6  C   -0.044739   0.001900  -0.000044  -0.004252   0.280126  -0.051873
     7  H   -0.000271   0.001282  -0.003022   0.000555   0.000010   0.000000
     8  H   -0.035995  -0.000065   0.000018   0.005670  -0.003476   0.017438
     9  H    0.003529   0.000029  -0.000014  -0.000093  -0.042186   0.005488
    10  H    0.007934   0.003369  -0.000329  -0.000834  -0.000133  -0.000003
    11  O   -0.016944   0.000204   0.232100   0.041211   0.000012   0.000000
    12  O    0.001486   0.202821  -0.000094   0.000006  -0.001759  -0.000147
    13  O    8.285425  -0.000068   0.000739   0.231619   0.003333  -0.000005
    14  H   -0.000068   0.317934   0.000018   0.000016  -0.000848   0.000025
    15  H    0.000739   0.000018   0.378904  -0.000996   0.000000  -0.000000
    16  H    0.231619   0.000016  -0.000996   0.348043   0.000030  -0.000005
    17  C    0.003333  -0.000848   0.000000   0.000030   4.947269   0.248790
    18  O   -0.000005   0.000025  -0.000000  -0.000005   0.248790   8.309325
    19  H   -0.000061  -0.000095   0.000000   0.000002   0.368156  -0.036747
    20  H   -0.000013   0.004197   0.000000  -0.000000   0.343878  -0.028652
    21  H    0.000009  -0.000040   0.000000   0.000000  -0.024244   0.214934
    22  O    0.000002   0.072414   0.000035   0.000006  -0.001371   0.000024
    23  H   -0.000001  -0.000736  -0.000016   0.000001   0.000406  -0.000007
    24  H    0.000018   0.001626   0.009137  -0.000031   0.000046   0.000001
    25  H   -0.000039  -0.000103  -0.000021  -0.000004  -0.000590  -0.000077
    26  O    0.000000   0.000273   0.000002   0.000001  -0.001405   0.000028
    27  H   -0.000000  -0.000003  -0.000001  -0.000000   0.000076  -0.000001
    28  O    0.000006   0.000691  -0.000000  -0.000000   0.002347  -0.024760
    29  H   -0.000003  -0.001893   0.000000   0.000000   0.000422   0.002011
    30  H   -0.000000  -0.000024   0.000000   0.000000   0.000000   0.001302
              19         20         21         22         23         24
     1  C   -0.000287   0.002166   0.000002   0.237060  -0.020975   0.360460
     2  O    0.002566   0.000786  -0.000058  -0.062514   0.009782  -0.054605
     3  C   -0.000068  -0.000783   0.000004  -0.043042   0.003247  -0.069699
     4  C   -0.000065   0.002247  -0.000237   0.001125  -0.000079   0.004958
     5  C    0.004525  -0.010205   0.001912  -0.000491   0.000039   0.000058
     6  C   -0.046880  -0.044072  -0.001244   0.005648  -0.000978   0.003539
     7  H   -0.000001  -0.000012   0.000000   0.004996  -0.000108  -0.001533
     8  H    0.000361   0.000953   0.001163  -0.000006  -0.000004   0.000017
     9  H   -0.007614   0.005688  -0.000413  -0.000121  -0.000011  -0.000196
    10  H    0.000007   0.000011   0.000004  -0.000206   0.000008  -0.000195
    11  O   -0.000000  -0.000002  -0.000000   0.001650  -0.000052   0.000389
    12  O    0.000170   0.006451   0.000185  -0.027644   0.000226  -0.000311
    13  O   -0.000061  -0.000013   0.000009   0.000002  -0.000001   0.000018
    14  H   -0.000095   0.004197  -0.000040   0.072414  -0.000736   0.001626
    15  H    0.000000   0.000000   0.000000   0.000035  -0.000016   0.009137
    16  H    0.000002  -0.000000   0.000000   0.000006   0.000001  -0.000031
    17  C    0.368156   0.343878  -0.024244  -0.001371   0.000406   0.000046
    18  O   -0.036747  -0.028652   0.214934   0.000024  -0.000007   0.000001
    19  H    0.592144  -0.040165   0.004792   0.000196   0.000269  -0.000005
    20  H   -0.040165   0.633758  -0.007474   0.005530   0.000173   0.000098
    21  H    0.004792  -0.007474   0.311887  -0.000001  -0.000000  -0.000000
    22  O    0.000196   0.005530  -0.000001   8.477997   0.125748  -0.045681
    23  H    0.000269   0.000173  -0.000000   0.125748   0.316628  -0.005960
    24  H   -0.000005   0.000098  -0.000000  -0.045681  -0.005960   0.689090
    25  H    0.004110  -0.000653   0.000006   0.010435  -0.019847  -0.001562
    26  O    0.002730   0.000242  -0.000001  -0.095244   0.130633   0.003644
    27  H    0.000136   0.000047   0.000000   0.003730  -0.003133   0.000368
    28  O    0.000036   0.005170   0.065941  -0.000002   0.000000  -0.000000
    29  H    0.000028  -0.000343  -0.005249   0.000033  -0.000006   0.000001
    30  H    0.000009   0.000150  -0.003248   0.000000  -0.000000   0.000000
              25         26         27         28         29         30
     1  C   -0.017200   0.026129   0.000778  -0.000007   0.000016   0.000000
     2  O    0.115447  -0.097139   0.003392   0.000001   0.000000   0.000000
     3  C    0.002700   0.000262   0.000068  -0.000011   0.000527  -0.000001
     4  C   -0.000060  -0.000089   0.000003   0.001044  -0.004738  -0.000021
     5  C    0.002040  -0.000108   0.000003  -0.000476   0.000726   0.000111
     6  C   -0.010140   0.003862  -0.000104  -0.000767  -0.000465  -0.000013
     7  H   -0.000114   0.000015  -0.000002   0.000000  -0.000008  -0.000000
     8  H   -0.000073   0.000004  -0.000000   0.003749   0.000427  -0.000169
     9  H   -0.002002   0.000021   0.000004  -0.000001  -0.000008  -0.000000
    10  H    0.000011  -0.000000   0.000000   0.000049  -0.000408   0.000001
    11  O   -0.000068   0.000002  -0.000001   0.000000  -0.000004  -0.000000
    12  O   -0.000013  -0.000008   0.000000  -0.020679   0.058854   0.000885
    13  O   -0.000039   0.000000  -0.000000   0.000006  -0.000003  -0.000000
    14  H   -0.000103   0.000273  -0.000003   0.000691  -0.001893  -0.000024
    15  H   -0.000021   0.000002  -0.000001  -0.000000   0.000000   0.000000
    16  H   -0.000004   0.000001  -0.000000  -0.000000   0.000000   0.000000
    17  C   -0.000590  -0.001405   0.000076   0.002347   0.000422   0.000000
    18  O   -0.000077   0.000028  -0.000001  -0.024760   0.002011   0.001302
    19  H    0.004110   0.002730   0.000136   0.000036   0.000028   0.000009
    20  H   -0.000653   0.000242   0.000047   0.005170  -0.000343   0.000150
    21  H    0.000006  -0.000001   0.000000   0.065941  -0.005249  -0.003248
    22  O    0.010435  -0.095244   0.003730  -0.000002   0.000033   0.000000
    23  H   -0.019847   0.130633  -0.003133   0.000000  -0.000006  -0.000000
    24  H   -0.001562   0.003644   0.000368  -0.000000   0.000001   0.000000
    25  H    0.312197   0.131160  -0.003058   0.000000  -0.000000   0.000000
    26  O    0.131160   8.483745   0.226239   0.000000   0.000000   0.000000
    27  H   -0.003058   0.226239   0.360610  -0.000000  -0.000000   0.000000
    28  O    0.000000   0.000000  -0.000000   8.340488   0.207722   0.239617
    29  H   -0.000000   0.000000  -0.000000   0.207722   0.316531  -0.012854
    30  H    0.000000   0.000000   0.000000   0.239617  -0.012854   0.378332
 Mulliken charges:
               1
     1  C    0.294083
     2  O   -0.616894
     3  C    0.079086
     4  C    0.099499
     5  C    0.094812
     6  C    0.096666
     7  H    0.163124
     8  H    0.171208
     9  H    0.179932
    10  H    0.168221
    11  O   -0.635694
    12  O   -0.687141
    13  O   -0.650412
    14  H    0.443738
    15  H    0.406317
    16  H    0.418936
    17  C   -0.075343
    18  O   -0.652675
    19  H    0.151751
    20  H    0.120828
    21  H    0.441369
    22  O   -0.670307
    23  H    0.464753
    24  H    0.106328
    25  H    0.477516
    26  O   -0.814996
    27  H    0.410848
    28  O   -0.820158
    29  H    0.438681
    30  H    0.395923
 Sum of Mulliken charges =  -0.00000
 Mulliken charges with hydrogens summed into heavy atoms:
               1
     1  C    0.400411
     2  O   -0.139378
     3  C    0.242210
     4  C    0.267719
     5  C    0.266020
     6  C    0.276598
    11  O   -0.229377
    12  O   -0.243403
    13  O   -0.231476
    17  C    0.197236
    18  O   -0.211306
    22  O   -0.670307
    26  O    0.060606
    28  O    0.014446
 APT charges:
               1
     1  C   -0.294054
     2  O   -0.342924
     3  C   -0.353654
     4  C   -0.428594
     5  C   -0.289643
     6  C   -0.329328
     7  H    0.521063
     8  H    0.424097
     9  H    0.518547
    10  H    0.554252
    11  O   -0.912670
    12  O   -0.604586
    13  O   -0.651030
    14  H    0.425857
    15  H    0.792837
    16  H    0.516080
    17  C   -0.593596
    18  O   -0.602866
    19  H    0.497133
    20  H    0.221979
    21  H    0.474267
    22  O   -0.526279
    23  H    0.349658
    24  H    0.475196
    25  H    0.422711
    26  O   -1.245551
    27  H    0.927853
    28  O   -1.019724
    29  H    0.216495
    30  H    0.856473
 Sum of APT charges =  -0.00000
 APT charges with hydrogens summed into heavy atoms:
               1
     1  C    0.181142
     2  O    0.079787
     3  C    0.167409
     4  C    0.125658
     5  C    0.134454
     6  C    0.189219
    11  O   -0.119832
    12  O   -0.178729
    13  O   -0.134950
    17  C    0.125515
    18  O   -0.128599
    22  O   -0.526279
    26  O    0.031960
    28  O    0.053244
 Electronic spatial extent (au):  <R**2>=           2755.0385
 Charge=              0.0000 electrons
 Dipole moment (field-independent basis, Debye):
    X=             -5.4507    Y=              2.4521    Z=             -2.0499  Tot=              6.3186
 Quadrupole moment (field-independent basis, Debye-Ang):
   XX=            -73.9351   YY=            -85.2462   ZZ=            -88.5406
   XY=             -2.7002   XZ=             -9.9313   YZ=              3.3067
 Traceless Quadrupole moment (field-independent basis, Debye-Ang):
   XX=              8.6389   YY=             -2.6722   ZZ=             -5.9667
   XY=             -2.7002   XZ=             -9.9313   YZ=              3.3067
 Octapole moment (field-independent basis, Debye-Ang**2):
  XXX=            -55.3350  YYY=             35.8908  ZZZ=            -10.7376  XYY=            -31.3920
  XXY=             13.9194  XXZ=            -28.2053  XZZ=              9.0168  YZZ=              8.5571
  YYZ=             -6.2827  XYZ=            -11.3446
 Hexadecapole moment (field-independent basis, Debye-Ang**3):
 XXXX=          -1257.6981 YYYY=          -1075.4799 ZZZZ=           -649.1231 XXXY=             14.2995
 XXXZ=           -133.8879 YYYX=           -111.3993 YYYZ=             22.6485 ZZZX=            -69.7347
 ZZZY=              9.2090 XXYY=           -383.5654 XXZZ=           -311.4861 YYZZ=           -314.0733
 XXYZ=            -33.1561 YYXZ=            -16.6388 ZZXY=             14.8505
 N-N= 1.150599581725D+03 E-N=-4.273169385151D+03  KE= 8.327822298103D+02
  Exact polarizability:   0.000   0.000   0.000   0.000   0.000   0.000
 Approx polarizability: 138.639  -2.421 132.158  -2.715  -5.198 133.115
 Calling FoFJK, ICntrl=    100147 FMM=F ISym2X=0 I1Cent= 0 IOpClX= 0 NMat=1 NMatS=1 NMatT=0.
 -------------------------------------------------------------------
 Center     Atomic                   Forces (Hartrees/Bohr)
 Number     Number              X              Y              Z
 -------------------------------------------------------------------
      1        6           0.000013569    0.000001099    0.000011917
      2        8          -0.000007057   -0.000012668    0.000015317
      3        6           0.000016432    0.000012762   -0.000005282
      4        6          -0.000001314    0.000008234   -0.000017725
      5        6           0.000005411   -0.000001835   -0.000005551
      6        6           0.000016194    0.000003144    0.000002392
      7        1          -0.000004361    0.000006047   -0.000011506
      8        1           0.000003893   -0.000000762    0.000000845
      9        1           0.000006443    0.000001714   -0.000000018
     10        1           0.000001208    0.000007053   -0.000003497
     11        8          -0.000073561    0.000014065    0.000041830
     12        8          -0.000027000    0.000021907    0.000012096
     13        8           0.000017059    0.000003220   -0.000009735
     14        1           0.000008625   -0.000015249    0.000006649
     15        1           0.000070216   -0.000011000    0.000009576
     16        1          -0.000012383   -0.000004748    0.000002676
     17        6           0.000046917   -0.000089322   -0.000028167
     18        8          -0.000036946   -0.000033174   -0.000066547
     19        1          -0.000003291    0.000061236    0.000029998
     20        1          -0.000002708   -0.000002764    0.000008895
     21        1           0.000006453   -0.000002124    0.000017924
     22        8          -0.000006441    0.000013780   -0.000000359
     23        1           0.000004090   -0.000000163    0.000003011
     24        1          -0.000002413    0.000009395    0.000013889
     25        1          -0.000001337    0.000002762    0.000008422
     26        8          -0.000019915    0.000000595    0.000021066
     27        1           0.000021373   -0.000004920    0.000004194
     28        8           0.000002108    0.000062261   -0.000117929
     29        1          -0.000012095   -0.000003121   -0.000017528
     30        1          -0.000029173   -0.000047421    0.000073147
 -------------------------------------------------------------------
 Cartesian Forces:  Max     0.000117929 RMS     0.000027631
 IRC-IRC-IRC-IRC-IRC-IRC-IRC-IRC-IRC-IRC-IRC-IRC-IRC-IRC-IRC-IRC-IRC-IRC
          ******** Start new reaction path calculation ********
 Supplied step size of   0.1000 bohr.
    Integration on MW PES will use step size of   0.1069 sqrt(amu)*bohr.
 Point Number:   0          Path Number:   1
 Calculating another point on the path.
 IRC-IRC-IRC-IRC-IRC-IRC-IRC-IRC-IRC-IRC-IRC-IRC-IRC-IRC-IRC-IRC-IRC-IRC
                          Input orientation:                          
 ---------------------------------------------------------------------
 Center     Atomic      Atomic             Coordinates (Angstroms)
 Number     Number       Type             X           Y           Z
 ---------------------------------------------------------------------
      1          6           0       -1.716308    0.483030   -0.508456
      2          8           0       -1.059138    0.840177    0.891042
      3          6           0       -1.595708   -1.025866   -0.719826
      4          6           0       -0.120497   -1.450497   -0.627765
      5          6           0        0.471853   -1.117958    0.762238
      6          6           0        0.317364    0.356365    1.171193
      7          1           0       -1.961262   -1.231774   -1.735753
      8          1           0        1.545814   -1.319133    0.740856
      9          1           0        0.382266    0.378025    2.262200
     10          1           0       -0.052162   -2.534765   -0.757187
     11          8           0       -2.335613   -1.772312    0.244924
     12          8           0        0.595277   -0.839451   -1.706109
     13          8           0       -0.060775   -1.993352    1.745377
     14          1           0        0.171159    0.038933   -1.865658
     15          1           0       -3.246827   -1.439274    0.266607
     16          1           0       -1.028774   -1.984740    1.636043
     17          6           0        1.392024    1.323608    0.617793
     18          8           0        2.669592    0.917598    1.047483
     19          1           0        1.196303    2.324154    1.020092
     20          1           0        1.328819    1.397367   -0.473505
     21          1           0        3.048907    0.356641    0.332700
     22          8           0       -1.159096    1.211169   -1.474998
     23          1           0       -1.126131    2.392616   -0.893782
     24          1           0       -2.753845    0.764890   -0.242777
     25          1           0       -1.070822    2.062087    0.708941
     26          8           0       -1.075764    3.078619    0.038434
     27          1           0       -1.907876    3.571760    0.131693
     28          8           0        3.320126   -0.614261   -1.166948
     29          1           0        2.405289   -0.762444   -1.499069
     30          1           0        3.769720   -0.115826   -1.865282
 ---------------------------------------------------------------------
                    Distance matrix (angstroms):
                    1          2          3          4          5
     1  C    0.000000
     2  O    1.586828   0.000000
     3  C    1.528394   2.522879   0.000000
     4  C    2.509856   2.904309   1.537867   0.000000
     5  C    2.994307   2.488938   2.545545   1.547116   0.000000
     6  C    2.640660   1.485703   3.024294   2.587029   1.537771
     7  H    2.122926   3.465092   1.099153   2.159606   3.488978
     8  H    3.930651   3.386879   3.476889   2.160318   1.092851
     9  H    3.477293   2.042376   3.843925   3.456611   2.120348
    10  H    3.455190   3.888559   2.158867   1.094101   2.142566
    11  O    2.457172   2.978583   1.426669   2.402477   2.928764
    12  O    2.920061   3.507625   2.409963   1.431271   2.487074
    13  O    3.735374   3.123380   3.060927   2.435171   1.420060
    14  H    2.366801   3.123302   2.359777   1.958531   2.886980
    15  H    2.576522   3.220528   1.967270   3.251764   3.765299
    16  H    3.340878   2.921661   2.605949   2.497040   1.940806
    17  C    3.411266   2.513278   4.029366   3.396291   2.613202
    18  O    4.673961   3.732813   5.009313   4.024789   3.009138
    19  H    3.769549   2.702934   4.695239   4.324047   3.526961
    20  H    3.179628   2.806205   3.805994   3.199163   2.930583
    21  H    4.840536   4.173917   4.958990   3.772713   3.000026
    22  O    1.332244   2.397034   2.401092   2.980094   3.618018
    23  H    2.035511   2.366464   3.454965   3.981405   4.197628
    24  H    1.107481   2.040404   2.185329   3.462756   3.867854
    25  H    2.095740   1.235460   3.442721   3.876615   3.534879
    26  O    2.728822   2.395379   4.206197   4.676457   4.531034
    27  H    3.160180   2.959479   4.686224   5.384660   5.296617
    28  O    5.196472   5.052590   4.953257   3.581605   3.476799
    29  H    4.418154   4.503696   4.084677   2.759018   2.996344
    30  H    5.682966   5.641731   5.561299   4.294948   4.334058
                    6          7          8          9         10
     6  C    0.000000
     7  H    4.020530   0.000000
     8  H    2.121691   4.294277   0.000000
     9  H    1.093150   4.905834   2.559038   0.000000
    10  H    3.494830   2.509988   2.505080   4.217792   0.000000
    11  O    3.525270   2.086960   3.939137   4.010015   2.607625
    12  O    3.128271   2.586637   2.668568   4.156332   2.047858
    13  O    2.448233   4.038579   2.011160   2.467148   2.560474
    14  H    3.056894   2.485718   3.244678   4.147138   2.811139
    15  H    4.092194   2.388552   4.817547   4.522752   3.529042
    16  H    2.740246   3.578477   2.805869   2.822369   2.642697
    17  C    1.548130   4.828425   2.650071   2.148910   4.343189
    18  O    2.421418   5.814724   2.521876   2.645475   4.752220
    19  H    2.160453   5.496320   3.670650   2.448041   5.322263
    20  H    2.193572   4.396623   2.983477   3.069056   4.177230
    21  H    2.857342   5.648306   2.287815   3.291566   4.377753
    22  O    3.148484   2.584461   4.316130   4.127538   3.971471
    23  H    3.239462   3.813472   4.856791   4.036590   5.044914
    24  H    3.405661   2.616072   4.878294   4.032339   4.295513
    25  H    2.247270   4.197491   4.275564   2.712957   4.931353
    26  O    3.261076   4.744612   5.167813   3.790012   5.761151
    27  H    4.046112   5.154042   6.018296   4.470319   6.443868
    28  O    3.927544   5.347703   2.699026   4.623279   3.902380
    29  H    3.569519   4.398075   2.462898   4.420457   3.119388
    30  H    4.621894   5.840058   3.631206   5.362354   4.656815
                   11         12         13         14         15
    11  O    0.000000
    12  O    3.642373   0.000000
    13  O    2.734064   3.697925   0.000000
    14  H    3.744206   0.988378   4.150126   0.000000
    15  H    0.970410   4.360409   3.555938   4.291186   0.000000
    16  H    1.920460   3.888343   0.974192   4.218649   2.663202
    17  C    4.859942   3.273248   3.792663   3.050971   5.410711
    18  O    5.738624   3.869402   4.051616   3.937081   6.416279
    19  H    5.464097   4.219218   4.554903   3.821087   5.871332
    20  H    4.898069   2.657208   4.283852   2.263539   5.434229
    21  H    5.790787   3.407005   4.145871   3.635265   6.547210
    22  O    3.639160   2.708557   4.673979   1.815580   3.796928
    23  H    4.483986   3.750917   5.228466   2.857854   4.530700
    24  H    2.617282   3.991475   4.337428   3.422923   2.315349
    25  H    4.064188   4.126412   4.305923   3.502031   4.146105
    26  O    5.016114   4.602943   5.446903   3.797377   5.017662
    27  H    5.362359   5.394634   6.081631   4.559897   5.188589
    28  O    5.943219   2.786791   4.670548   3.291026   6.772046
    29  H    5.151457   1.823442   4.257116   2.401652   5.960045
    30  H    6.668734   3.259763   5.588797   3.601887   7.451738
                   16         17         18         19         20
    16  H    0.000000
    17  C    4.224011   0.000000
    18  O    4.737920   1.407714   0.000000
    19  H    4.888449   1.096013   2.037089   0.000000
    20  H    4.631100   1.095613   2.083568   1.762762   0.000000
    21  H    4.879370   1.939475   0.984615   2.788504   2.166052
    22  O    4.461995   3.301610   4.594339   3.607231   2.688379
    23  H    5.056752   3.125499   4.511286   3.010199   2.682151
    24  H    3.750506   4.270946   5.576895   4.430555   4.137803
    25  H    4.151878   2.572794   3.926215   2.303334   2.756503
    26  O    5.309630   3.083132   4.440258   2.587501   2.978374
    27  H    5.823280   4.022415   5.369960   3.461460   3.945941
    28  O    5.352373   3.264692   2.770107   4.234153   2.914243
    29  H    4.807882   3.139972   3.062242   4.163522   2.622090
    30  H    6.227171   3.727072   3.280617   4.571800   3.191362
                   21         22         23         24         25
    21  H    0.000000
    22  O    4.658893   0.000000
    23  H    4.804206   1.317086   0.000000
    24  H    5.845492   2.064161   2.392228   0.000000
    25  H    4.474625   2.345515   1.637385   2.328316   0.000000
    26  O    4.950623   2.405159   1.158517   2.871999   1.217761
    27  H    5.911607   2.952036   1.747313   2.955404   1.820162
    28  O    1.806974   4.846702   5.374489   6.296767   5.473775
    29  H    2.240977   4.074380   4.774066   5.525187   4.993659
    30  H    2.360915   5.119225   5.586183   6.779755   5.899217
                   26         27         28         29         30
    26  O    0.000000
    27  H    0.971749   0.000000
    28  O    5.866359   6.822115   0.000000
    29  H    5.406979   6.328358   0.984474   0.000000
    30  H    6.107972   7.058420   0.968630   1.553672   0.000000
 Symmetry turned off by external request.
 Stoichiometry    C6H16O8
 Framework group  C1[X(C6H16O8)]
 Deg. of freedom    84
 Full point group                 C1      NOp   1
 Rotational constants (GHZ):      0.7159349      0.5956816      0.4785918
 Standard basis: 6-31G(d) (6D, 7F)
   242 basis functions,   456 primitive gaussians,   242 cartesian basis functions
    58 alpha electrons       58 beta electrons
       nuclear repulsion energy      1150.6366750203 Hartrees.
 NAtoms=   30 NActive=   30 NUniq=   30 SFac= 1.00D+00 NAtFMM=   60 NAOKFM=F Big=F
 Integral buffers will be    131072 words long.
 Raffenetti 2 integral format.
 Two-electron integral symmetry is turned off.
 One-electron integrals computed using PRISM.
 NBasis=   242 RedAO= T EigKep=  1.81D-03  NBF=   242
 NBsUse=   242 1.00D-06 EigRej= -1.00D+00 NBFU=   242
 Initial guess from the checkpoint file:  "/scratch/10447797.yak.local/Gau-15032.chk"
 B after Tr=     0.005697    0.031541   -0.018069
         Rot=    1.000000    0.000072    0.000021   -0.000001 Ang=   0.01 deg.
 ExpMin= 1.61D-01 ExpMax= 5.48D+03 ExpMxC= 8.25D+02 IAcc=1 IRadAn=         1 AccDes= 0.00D+00
 Harris functional with IExCor=  402 and IRadAn=       1 diagonalized for initial guess.
 HarFok:  IExCor=  402 AccDes= 0.00D+00 IRadAn=         1 IDoV= 1 UseB2=F ITyADJ=14
 ICtDFT=  3500011 ScaDFX=  1.000000  1.000000  1.000000  1.000000
 FoFCou: FMM=F IPFlag=           0 FMFlag=      100000 FMFlg1=           0
         NFxFlg=           0 DoJE=T BraDBF=F KetDBF=T FulRan=T
         wScrn=  0.000000 ICntrl=     500 IOpCl=  0 I1Cent=   200000004 NGrid=           0
         NMat0=    1 NMatS0=      1 NMatT0=    0 NMatD0=    1 NMtDS0=    0 NMtDT0=    0
 Symmetry not used in FoFCou.
 Requested convergence on RMS density matrix=1.00D-08 within 128 cycles.
 Requested convergence on MAX density matrix=1.00D-06.
 Requested convergence on             energy=1.00D-06.
 No special actions if energy rises.
 Integral accuracy reduced to 1.0D-05 until final iterations.
 Initial convergence to 1.0D-05 achieved.  Increase integral accuracy.
 SCF Done:  E(RB3LYP) =  -839.964175688     A.U. after   11 cycles
            NFock= 11  Conv=0.78D-08     -V/T= 2.0086
 DoSCS=F DFT=T ScalE2(SS,OS)=  1.000000  1.000000
 Range of M.O.s used for correlation:     1   242
 NBasis=   242 NAE=    58 NBE=    58 NFC=     0 NFV=     0
 NROrb=    242 NOA=    58 NOB=    58 NVA=   184 NVB=   184
 Symmetrizing basis deriv contribution to polar:
 IMax=3 JMax=2 DiffMx= 0.00D+00
 Calling FoFJK, ICntrl=      2147 FMM=F ISym2X=0 I1Cent= 0 IOpClX= 0 NMat=1 NMatS=1 NMatT=0.
 -------------------------------------------------------------------
 Center     Atomic                   Forces (Hartrees/Bohr)
 Number     Number              X              Y              Z
 -------------------------------------------------------------------
      1        6           0.001223222   -0.000526911    0.005908077
      2        8          -0.000878288   -0.002614677   -0.002219779
      3        6           0.000025757    0.000185055   -0.000385385
      4        6          -0.000044404   -0.000039282    0.000180958
      5        6           0.000376970    0.000007297    0.000064260
      6        6          -0.001310913   -0.000004463   -0.000828154
      7        1          -0.000002466   -0.000006255   -0.000050070
      8        1           0.000018940   -0.000087344   -0.000026485
      9        1          -0.000102217    0.000042969   -0.000055494
     10        1          -0.000006954    0.000013653   -0.000040903
     11        8          -0.000041709    0.000185575   -0.000249993
     12        8          -0.000022160   -0.000051234   -0.000153730
     13        8           0.000024171   -0.000115357   -0.000079441
     14        1           0.000259283   -0.000030893   -0.000006144
     15        1           0.000070585   -0.000006581    0.000025439
     16        1          -0.000008373    0.000096459    0.000054763
     17        6          -0.000100272   -0.000299071    0.000070897
     18        8           0.000080983    0.000041256   -0.000072893
     19        1           0.000001272    0.000048695    0.000045619
     20        1           0.000043895    0.000016979   -0.000001689
     21        1           0.000001965   -0.000012493    0.000044672
     22        8           0.000581333    0.004579866    0.000462342
     23        1           0.000008295   -0.004081667   -0.002926993
     24        1           0.000014716   -0.000049348   -0.000121544
     25        1          -0.000344830    0.005049051   -0.001605732
     26        8           0.000063165   -0.002068161    0.001635162
     27        1           0.000049774   -0.000257393    0.000425841
     28        8           0.000048593    0.000039545   -0.000161148
     29        1           0.000000091   -0.000009590   -0.000003703
     30        1          -0.000030423   -0.000045680    0.000071251
 -------------------------------------------------------------------
 Cartesian Forces:  Max     0.005908077 RMS     0.001222826
 IRC-IRC-IRC-IRC-IRC-IRC-IRC-IRC-IRC-IRC-IRC-IRC-IRC-IRC-IRC-IRC-IRC-IRC
 Pt  1 Step number   1 out of a maximum of 500
 Modified Bulirsch-Stoer Extrapolation Cycles:
    EPS =    0.000010000000000
 Maximum DWI energy   std dev =  0.000004495 at pt    53
 Maximum DWI gradient std dev =  0.070718919 at pt     1
 CORRECTOR INTEGRATION CONVERGENCE:
   Recorrection delta-x convergence threshold:    0.010000
   Delta-x Convergence Met
 Point Number:   1          Path Number:   1
   CHANGE IN THE REACTION COORDINATE =    0.10680
   NET REACTION COORDINATE UP TO THIS POINT =    0.10680
  # OF POINTS ALONG THE PATH =   1
  # OF STEPS =   1

 Calculating another point on the path.
 IRC-IRC-IRC-IRC-IRC-IRC-IRC-IRC-IRC-IRC-IRC-IRC-IRC-IRC-IRC-IRC-IRC-IRC
                          Input orientation:                          
 ---------------------------------------------------------------------
 Center     Atomic      Atomic             Coordinates (Angstroms)
 Number     Number       Type             X           Y           Z
 ---------------------------------------------------------------------
      1          6           0       -1.715626    0.482676   -0.504847
      2          8           0       -1.059522    0.838891    0.890088
      3          6           0       -1.595707   -1.025768   -0.720083
      4          6           0       -0.120522   -1.450517   -0.627644
      5          6           0        0.472091   -1.117953    0.762284
      6          6           0        0.316592    0.356345    1.170708
      7          1           0       -1.961268   -1.231919   -1.736063
      8          1           0        1.545933   -1.319810    0.740626
      9          1           0        0.381618    0.378298    2.261824
     10          1           0       -0.052236   -2.534690   -0.757501
     11          8           0       -2.335604   -1.772225    0.244807
     12          8           0        0.595270   -0.839482   -1.706178
     13          8           0       -0.060769   -1.993405    1.745341
     14          1           0        0.173101    0.038816   -1.865797
     15          1           0       -3.246731   -1.439191    0.266844
     16          1           0       -1.028750   -1.984041    1.636450
     17          6           0        1.391954    1.323465    0.617850
     18          8           0        2.669631    0.917615    1.047455
     19          1           0        1.196360    2.324150    1.020236
     20          1           0        1.329156    1.397510   -0.473574
     21          1           0        3.048918    0.356518    0.332942
     22          8           0       -1.158812    1.213279   -1.474839
     23          1           0       -1.126119    2.362645   -0.913892
     24          1           0       -2.753685    0.764612   -0.243761
     25          1           0       -1.073563    2.099354    0.696626
     26          8           0       -1.075709    3.077742    0.039133
     27          1           0       -1.907971    3.570363    0.134877
     28          8           0        3.320126   -0.614261   -1.166996
     29          1           0        2.405379   -0.762490   -1.499096
     30          1           0        3.769759   -0.115868   -1.865202
 ---------------------------------------------------------------------
                    Distance matrix (angstroms):
                    1          2          3          4          5
     1  C    0.000000
     2  O    1.582152   0.000000
     3  C    1.528434   2.521328   0.000000
     4  C    2.509317   2.902864   1.537897   0.000000
     5  C    2.992280   2.488254   2.545918   1.547155   0.000000
     6  C    2.636922   1.485021   3.023609   2.586482   1.537707
     7  H    2.125104   3.463822   1.099248   2.159797   3.489407
     8  H    3.929113   3.386846   3.477073   2.160167   1.092864
     9  H    3.473297   2.042226   3.843564   3.456261   2.120277
    10  H    3.454736   3.887187   2.158831   1.094055   2.142851
    11  O    2.455796   2.977029   1.426765   2.402344   2.928994
    12  O    2.920880   3.506546   2.409868   1.431417   2.487171
    13  O    3.732676   3.122637   3.061155   2.435027   1.420126
    14  H    2.369913   3.123200   2.361076   1.958916   2.886922
    15  H    2.575531   3.219002   1.967441   3.251680   3.765407
    16  H    3.337910   2.920094   2.606334   2.497128   1.940824
    17  C    3.409461   2.513694   4.029277   3.396148   2.612954
    18  O    4.672183   3.733302   5.009395   4.024794   3.008994
    19  H    3.767834   2.704059   4.695349   4.324096   3.526922
    20  H    3.179402   2.806673   3.806293   3.199463   2.930778
    21  H    4.839285   4.174011   4.959043   3.772724   2.999739
    22  O    1.335929   2.396435   2.402886   2.981878   3.619282
    23  H    2.012243   2.362331   3.426283   3.953906   4.180718
    24  H    1.106896   2.039931   2.184778   3.462328   3.868049
    25  H    2.114103   1.275301   3.470747   3.906862   3.569933
    26  O    2.727596   2.395171   4.205425   4.675694   4.530176
    27  H    3.159122   2.958234   4.685390   5.383832   5.295152
    28  O    5.196201   5.052183   4.953229   3.581659   3.476655
    29  H    4.418332   4.503128   4.084711   2.759164   2.996297
    30  H    5.683156   5.641377   5.561244   4.295011   4.333874
                    6          7          8          9         10
     6  C    0.000000
     7  H    4.020018   0.000000
     8  H    2.122674   4.294435   0.000000
     9  H    1.093272   4.905610   2.559931   0.000000
    10  H    3.494583   2.509820   2.504888   4.217826   0.000000
    11  O    3.524521   2.087080   3.939143   4.009539   2.607631
    12  O    3.127960   2.586655   2.668581   4.156161   2.047677
    13  O    2.448250   4.038802   2.011138   2.467274   2.560719
    14  H    3.056432   2.487394   3.244067   4.146804   2.811055
    15  H    4.091234   2.388935   4.817505   4.521961   3.529051
    16  H    2.739392   3.578983   2.805833   2.821503   2.643444
    17  C    1.548346   4.828560   2.650602   2.148667   4.343114
    18  O    2.422191   5.814954   2.522482   2.645857   4.752351
    19  H    2.160762   5.496674   3.671352   2.447792   5.322375
    20  H    2.193850   4.397120   2.984142   3.069043   4.177446
    21  H    2.857876   5.648528   2.288066   3.291740   4.377820
    22  O    3.148027   2.586729   4.317461   4.127077   3.973205
    23  H    3.232989   3.780784   4.841257   4.036840   5.016131
    24  H    3.404997   2.615535   4.878581   4.032036   4.295015
    25  H    2.279335   4.219404   4.307480   2.743980   4.963060
    26  O    3.259597   4.744335   5.167550   3.788292   5.760341
    27  H    4.043704   5.154140   6.017489   4.467146   6.442962
    28  O    3.927868   5.347752   2.698996   4.623506   3.902378
    29  H    3.569689   4.398196   2.462845   4.420580   3.119380
    30  H    4.622131   5.840112   3.631145   5.362466   4.656753
                   11         12         13         14         15
    11  O    0.000000
    12  O    3.642303   0.000000
    13  O    2.734117   3.697960   0.000000
    14  H    3.745413   0.987478   4.150293   0.000000
    15  H    0.970335   4.360440   3.555764   4.292775   0.000000
    16  H    1.920782   3.888523   0.974131   4.219257   2.663104
    17  C    4.859748   3.273248   3.792528   3.050316   5.410441
    18  O    5.738629   3.869478   4.051687   3.935986   6.416170
    19  H    5.464097   4.219386   4.554935   3.820864   5.871235
    20  H    4.898343   2.657449   4.284131   2.262918   5.434504
    21  H    5.790716   3.407171   4.145740   3.633966   6.547070
    22  O    3.640777   2.710009   4.675262   1.818297   3.798481
    23  H    4.461232   3.720822   5.213604   2.827415   4.510553
    24  H    2.617066   3.990899   4.337624   3.424012   2.315289
    25  H    4.097074   4.146713   4.344679   3.516533   4.174767
    26  O    5.015159   4.602492   5.445896   3.797810   5.016759
    27  H    5.360803   5.394667   6.079578   4.561291   5.187034
    28  O    5.943176   2.786805   4.670567   3.289163   6.772002
    29  H    5.151474   1.823543   4.257160   2.399922   5.960102
    30  H    6.668666   3.259798   5.588749   3.599982   7.451707
                   16         17         18         19         20
    16  H    0.000000
    17  C    4.223381   0.000000
    18  O    4.737568   1.407741   0.000000
    19  H    4.887877   1.096148   2.037059   0.000000
    20  H    4.631070   1.095734   2.083435   1.762886   0.000000
    21  H    4.879008   1.939508   0.984488   2.788533   2.166036
    22  O    4.463170   3.301196   4.594166   3.606421   2.688207
    23  H    5.040576   3.125191   4.510290   3.022622   2.674648
    24  H    3.750425   4.270949   5.577007   4.430880   4.137990
    25  H    4.190393   2.585920   3.940951   2.303868   2.763153
    26  O    5.308039   3.082493   4.439644   2.587038   2.978159
    27  H    5.820580   4.021357   5.368828   3.460315   3.945947
    28  O    5.352413   3.264707   2.770123   4.234221   2.914106
    29  H    4.808022   3.140016   3.062271   4.163665   2.622127
    30  H    6.227144   3.727088   3.280539   4.571851   3.191156
                   21         22         23         24         25
    21  H    0.000000
    22  O    4.659088   0.000000
    23  H    4.796881   1.279364   0.000000
    24  H    5.845453   2.064091   2.377342   0.000000
    25  H    4.490500   2.346840   1.632744   2.342792   0.000000
    26  O    4.950145   2.403173   1.192545   2.871620   1.178789
    27  H    5.910903   2.950977   1.780391   2.954799   1.782040
    28  O    1.807147   4.847221   5.356783   6.296414   5.490109
    29  H    2.241134   4.075256   4.751885   5.524839   5.011426
    30  H    2.361058   5.119553   5.569347   6.779353   5.909986
                   26         27         28         29         30
    26  O    0.000000
    27  H    0.971854   0.000000
    28  O    5.865919   6.821946   0.000000
    29  H    5.406617   6.328386   0.984390   0.000000
    30  H    6.107716   7.058698   0.968534   1.553604   0.000000
 Symmetry turned off by external request.
 Stoichiometry    C6H16O8
 Framework group  C1[X(C6H16O8)]
 Deg. of freedom    84
 Full point group                 C1      NOp   1
 Rotational constants (GHZ):      0.7160452      0.5957432      0.4786250
 Standard basis: 6-31G(d) (6D, 7F)
   242 basis functions,   456 primitive gaussians,   242 cartesian basis functions
    58 alpha electrons       58 beta electrons
       nuclear repulsion energy      1150.6628429088 Hartrees.
 NAtoms=   30 NActive=   30 NUniq=   30 SFac= 1.00D+00 NAtFMM=   60 NAOKFM=F Big=F
 Integral buffers will be    131072 words long.
 Raffenetti 2 integral format.
 Two-electron integral symmetry is turned off.
 One-electron integrals computed using PRISM.
 NBasis=   242 RedAO= T EigKep=  1.81D-03  NBF=   242
 NBsUse=   242 1.00D-06 EigRej= -1.00D+00 NBFU=   242
 Initial guess from the checkpoint file:  "/scratch/10447797.yak.local/Gau-15032.chk"
 B after Tr=    -0.000006    0.000049   -0.000243
         Rot=    1.000000    0.000074    0.000018    0.000000 Ang=   0.01 deg.
 ExpMin= 1.61D-01 ExpMax= 5.48D+03 ExpMxC= 8.25D+02 IAcc=1 IRadAn=         1 AccDes= 0.00D+00
 Harris functional with IExCor=  402 and IRadAn=       1 diagonalized for initial guess.
 HarFok:  IExCor=  402 AccDes= 0.00D+00 IRadAn=         1 IDoV= 1 UseB2=F ITyADJ=14
 ICtDFT=  3500011 ScaDFX=  1.000000  1.000000  1.000000  1.000000
 FoFCou: FMM=F IPFlag=           0 FMFlag=      100000 FMFlg1=           0
         NFxFlg=           0 DoJE=T BraDBF=F KetDBF=T FulRan=T
         wScrn=  0.000000 ICntrl=     500 IOpCl=  0 I1Cent=   200000004 NGrid=           0
         NMat0=    1 NMatS0=      1 NMatT0=    0 NMatD0=    1 NMtDS0=    0 NMtDT0=    0
 Symmetry not used in FoFCou.
 Requested convergence on RMS density matrix=1.00D-08 within 128 cycles.
 Requested convergence on MAX density matrix=1.00D-06.
 Requested convergence on             energy=1.00D-06.
 No special actions if energy rises.
 Integral accuracy reduced to 1.0D-05 until final iterations.
 Initial convergence to 1.0D-05 achieved.  Increase integral accuracy.
 SCF Done:  E(RB3LYP) =  -839.965456050     A.U. after   11 cycles
            NFock= 11  Conv=0.70D-08     -V/T= 2.0087
 DoSCS=F DFT=T ScalE2(SS,OS)=  1.000000  1.000000
 Range of M.O.s used for correlation:     1   242
 NBasis=   242 NAE=    58 NBE=    58 NFC=     0 NFV=     0
 NROrb=    242 NOA=    58 NOB=    58 NVA=   184 NVB=   184
 Symmetrizing basis deriv contribution to polar:
 IMax=3 JMax=2 DiffMx= 0.00D+00
 Calling FoFJK, ICntrl=      2147 FMM=F ISym2X=0 I1Cent= 0 IOpClX= 0 NMat=1 NMatS=1 NMatT=0.
 -------------------------------------------------------------------
 Center     Atomic                   Forces (Hartrees/Bohr)
 Number     Number              X              Y              Z
 -------------------------------------------------------------------
      1        6           0.002318837   -0.001218616    0.012239458
      2        8          -0.001735357   -0.006248195   -0.004286211
      3        6          -0.000005343    0.000324195   -0.000857016
      4        6          -0.000093738   -0.000086460    0.000427491
      5        6           0.000805410    0.000016649    0.000156670
      6        6          -0.002652038   -0.000079915   -0.001668339
      7        1           0.000004904   -0.000053417   -0.000086427
      8        1           0.000030401   -0.000188815   -0.000059477
      9        1          -0.000203621    0.000080797   -0.000108835
     10        1          -0.000016951    0.000015895   -0.000081639
     11        8           0.000068552    0.000398809   -0.000577665
     12        8          -0.000015728   -0.000151148   -0.000339193
     13        8           0.000022380   -0.000248865   -0.000157422
     14        1           0.000560169   -0.000041731   -0.000040684
     15        1           0.000004145    0.000014030    0.000046754
     16        1           0.000006231    0.000207354    0.000112372
     17        6          -0.000288018   -0.000422837    0.000202484
     18        8           0.000231570    0.000105228   -0.000068298
     19        1           0.000005590   -0.000023293    0.000026435
     20        1           0.000097149    0.000042755   -0.000021675
     21        1          -0.000008654   -0.000022722    0.000067340
     22        8           0.001232220    0.009363253    0.000698074
     23        1           0.000046494   -0.009028488   -0.006540495
     24        1           0.000049568   -0.000085510   -0.000304634
     25        1          -0.000738403    0.010293678   -0.003160717
     26        8           0.000097665   -0.002505986    0.003614407
     27        1           0.000088907   -0.000411545    0.000893308
     28        8           0.000041362   -0.000033326   -0.000154546
     29        1           0.000036391   -0.000012102    0.000019739
     30        1           0.000009906    0.000000332    0.000008743
 -------------------------------------------------------------------
 Cartesian Forces:  Max     0.012239458 RMS     0.002541119
 IRC-IRC-IRC-IRC-IRC-IRC-IRC-IRC-IRC-IRC-IRC-IRC-IRC-IRC-IRC-IRC-IRC-IRC
 Pt  2 Step number   1 out of a maximum of 500
 Modified Bulirsch-Stoer Extrapolation Cycles:
    EPS =    0.000010000000000
 Maximum DWI energy   std dev =  0.000009468 at pt    65
 Maximum DWI gradient std dev =  0.036132228 at pt    55
 CORRECTOR INTEGRATION CONVERGENCE:
   Recorrection delta-x convergence threshold:    0.010000
   Delta-x Convergence Met
 Point Number:   2          Path Number:   1
   CHANGE IN THE REACTION COORDINATE =    0.10678
   NET REACTION COORDINATE UP TO THIS POINT =    0.21358
  # OF POINTS ALONG THE PATH =   2
  # OF STEPS =   1

 Calculating another point on the path.
 IRC-IRC-IRC-IRC-IRC-IRC-IRC-IRC-IRC-IRC-IRC-IRC-IRC-IRC-IRC-IRC-IRC-IRC
                          Input orientation:                          
 ---------------------------------------------------------------------
 Center     Atomic      Atomic             Coordinates (Angstroms)
 Number     Number       Type             X           Y           Z
 ---------------------------------------------------------------------
      1          6           0       -1.715015    0.482310   -0.501373
      2          8           0       -1.059882    0.837422    0.889221
      3          6           0       -1.595710   -1.025683   -0.720334
      4          6           0       -0.120547   -1.450543   -0.627519
      5          6           0        0.472320   -1.117948    0.762332
      6          6           0        0.315869    0.356307    1.170248
      7          1           0       -1.961241   -1.232149   -1.736357
      8          1           0        1.546039   -1.320452    0.740423
      9          1           0        0.380943    0.378564    2.261468
     10          1           0       -0.052296   -2.534630   -0.757780
     11          8           0       -2.335588   -1.772132    0.244683
     12          8           0        0.595263   -0.839517   -1.706251
     13          8           0       -0.060764   -1.993459    1.745305
     14          1           0        0.175111    0.038660   -1.865985
     15          1           0       -3.246736   -1.439178    0.266993
     16          1           0       -1.028717   -1.983346    1.636850
     17          6           0        1.391870    1.323358    0.617907
     18          8           0        2.669680    0.917635    1.047442
     19          1           0        1.196344    2.324071    1.020288
     20          1           0        1.329492    1.397665   -0.473651
     21          1           0        3.048902    0.356435    0.333161
     22          8           0       -1.158544    1.215265   -1.474720
     23          1           0       -1.125946    2.330869   -0.936507
     24          1           0       -2.753467    0.764405   -0.244863
     25          1           0       -1.076158    2.134590    0.685934
     26          8           0       -1.075678    3.077404    0.039911
     27          1           0       -1.907925    3.569374    0.137935
     28          8           0        3.320136   -0.614270   -1.167028
     29          1           0        2.405507   -0.762530   -1.499038
     30          1           0        3.769803   -0.115852   -1.865175
 ---------------------------------------------------------------------
                    Distance matrix (angstroms):
                    1          2          3          4          5
     1  C    0.000000
     2  O    1.577674   0.000000
     3  C    1.528469   2.519710   0.000000
     4  C    2.508817   2.901316   1.537929   0.000000
     5  C    2.990353   2.487412   2.546284   1.547190   0.000000
     6  C    2.633379   1.484298   3.022967   2.585949   1.537628
     7  H    2.127247   3.462547   1.099338   2.159948   3.489801
     8  H    3.927656   3.386649   3.477252   2.160022   1.092867
     9  H    3.469452   2.041958   3.843203   3.455918   2.120214
    10  H    3.454317   3.885689   2.158808   1.094015   2.143116
    11  O    2.454428   2.975336   1.426837   2.402199   2.929209
    12  O    2.921702   3.505439   2.409783   1.431572   2.487275
    13  O    3.730086   3.121699   3.061377   2.434877   1.420189
    14  H    2.373092   3.123201   2.362445   1.959320   2.886888
    15  H    2.574620   3.217515   1.967658   3.251667   3.765625
    16  H    3.335036   2.918331   2.606706   2.497202   1.940827
    17  C    3.407769   2.514127   4.029208   3.396030   2.612739
    18  O    4.670535   3.733779   5.009498   4.024815   3.008867
    19  H    3.766106   2.705154   4.695336   4.324024   3.526790
    20  H    3.179256   2.807205   3.806609   3.199778   2.930990
    21  H    4.838099   4.174046   4.959085   3.772729   2.999461
    22  O    1.339510   2.395979   2.404592   2.983575   3.620498
    23  H    1.988345   2.359668   3.396152   3.924969   4.163514
    24  H    1.106236   2.039536   2.184236   3.461891   3.868256
    25  H    2.132572   1.313101   3.497834   3.935928   3.603141
    26  O    2.726950   2.395641   4.205203   4.675473   4.529809
    27  H    3.158464   2.957561   4.684938   5.383326   5.293999
    28  O    5.195992   5.051745   4.953215   3.581721   3.476518
    29  H    4.418559   4.502505   4.084772   2.759321   2.996218
    30  H    5.683395   5.641036   5.561221   4.295115   4.333749
                    6          7          8          9         10
     6  C    0.000000
     7  H    4.019549   0.000000
     8  H    2.123579   4.294560   0.000000
     9  H    1.093385   4.905388   2.560797   0.000000
    10  H    3.494331   2.509610   2.504698   4.217849   0.000000
    11  O    3.523797   2.087160   3.939136   4.009047   2.607634
    12  O    3.127667   2.586654   2.668611   4.156013   2.047520
    13  O    2.448253   4.038983   2.011105   2.467392   2.560932
    14  H    3.056046   2.489128   3.243453   4.146537   2.810987
    15  H    4.090451   2.389303   4.817564   4.521302   3.529110
    16  H    2.738540   3.579445   2.805776   2.820623   2.644156
    17  C    1.548563   4.828720   2.651134   2.148464   4.343064
    18  O    2.422932   5.815200   2.523067   2.646275   4.752485
    19  H    2.160977   5.496921   3.671942   2.447529   5.322368
    20  H    2.194142   4.397644   2.984799   3.069069   4.177680
    21  H    2.858354   5.648720   2.288320   3.291939   4.377880
    22  O    3.147627   2.588941   4.318737   4.126644   3.974858
    23  H    3.227405   3.746008   4.825324   4.038472   4.985755
    24  H    3.404395   2.615035   4.878849   4.031761   4.294536
    25  H    2.309673   4.240966   4.337765   2.772919   4.993417
    26  O    3.258594   4.744639   5.167713   3.786924   5.760082
    27  H    4.041624   5.154651   6.016914   4.464255   6.442400
    28  O    3.928168   5.347790   2.698978   4.623760   3.902379
    29  H    3.569800   4.398335   2.462752   4.420674   3.119390
    30  H    4.622379   5.840169   3.631161   5.362649   4.656743
                   11         12         13         14         15
    11  O    0.000000
    12  O    3.642225   0.000000
    13  O    2.734168   3.697999   0.000000
    14  H    3.746664   0.986528   4.150489   0.000000
    15  H    0.970334   4.360532   3.555707   4.294488   0.000000
    16  H    1.921106   3.888699   0.974062   4.219900   2.663125
    17  C    4.859558   3.273274   3.792420   3.049701   5.410306
[...]
 Alpha  occ. eigenvalues --  -19.14481 -19.12797 -19.11424 -10.31695 -10.26867
 Alpha  occ. eigenvalues --  -10.25258 -10.23670 -10.23175 -10.21994  -1.09269
 Alpha  occ. eigenvalues --   -1.06064  -1.03847  -1.02260  -1.01707  -1.00435
 Alpha  occ. eigenvalues --   -1.00006  -0.98823  -0.78531  -0.76613  -0.69204
 Alpha  occ. eigenvalues --   -0.66227  -0.63516  -0.58455  -0.56712  -0.55794
 Alpha  occ. eigenvalues --   -0.54113  -0.53365  -0.52775  -0.49959  -0.49175
 Alpha  occ. eigenvalues --   -0.48442  -0.46762  -0.45417  -0.44662  -0.43439
 Alpha  occ. eigenvalues --   -0.41850  -0.41063  -0.39959  -0.39687  -0.38551
 Alpha  occ. eigenvalues --   -0.37992  -0.36552  -0.35294  -0.33120  -0.32253
 Alpha  occ. eigenvalues --   -0.31546  -0.31208  -0.30387  -0.29691  -0.29227
 Alpha  occ. eigenvalues --   -0.28815  -0.25735  -0.23836
 Alpha virt. eigenvalues --    0.03265   0.04843   0.06666   0.07157   0.09291
 Alpha virt. eigenvalues --    0.12050   0.12306   0.12781   0.13381   0.15877
 Alpha virt. eigenvalues --    0.16219   0.17050   0.17619   0.18477   0.19914
 Alpha virt. eigenvalues --    0.20935   0.22215   0.23168   0.23667   0.24277
 Alpha virt. eigenvalues --    0.24840   0.25841   0.26910   0.28050   0.28786
 Alpha virt. eigenvalues --    0.29373   0.31515   0.33160   0.49966   0.51756
 Alpha virt. eigenvalues --    0.53912   0.54707   0.56273   0.57390   0.57683
 Alpha virt. eigenvalues --    0.58281   0.60292   0.61457   0.63496   0.65562
 Alpha virt. eigenvalues --    0.65798   0.70823   0.71277   0.71899   0.73844
 Alpha virt. eigenvalues --    0.76314   0.76867   0.78917   0.79604   0.81031
 Alpha virt. eigenvalues --    0.81740   0.82757   0.83789   0.84148   0.86158
 Alpha virt. eigenvalues --    0.86372   0.87309   0.88512   0.89228   0.90025
 Alpha virt. eigenvalues --    0.91135   0.93250   0.94203   0.95381   0.97320
 Alpha virt. eigenvalues --    0.97529   1.00756   1.01057   1.01851   1.05899
 Alpha virt. eigenvalues --    1.06418   1.07191   1.08193   1.09640   1.11037
 Alpha virt. eigenvalues --    1.11731   1.13719   1.14752   1.15941   1.18179
 Alpha virt. eigenvalues --    1.18706   1.21141   1.23245   1.25115   1.27370
 Alpha virt. eigenvalues --    1.30766   1.32385   1.34526   1.35154   1.39332
 Alpha virt. eigenvalues --    1.39469   1.40896   1.43042   1.47309   1.49133
 Alpha virt. eigenvalues --    1.52475   1.54650   1.57090   1.58551   1.60198
 Alpha virt. eigenvalues --    1.61182   1.64087   1.65377   1.67085   1.68940
 Alpha virt. eigenvalues --    1.70335   1.71309   1.71987   1.73223   1.73685
 Alpha virt. eigenvalues --    1.74698   1.75785   1.76970   1.78547   1.80217
 Alpha virt. eigenvalues --    1.81812   1.82105   1.82871   1.84471   1.87332
 Alpha virt. eigenvalues --    1.87707   1.90124   1.90847   1.92481   1.95688
 Alpha virt. eigenvalues --    1.96356   1.97340   2.01595   2.03789   2.04214
 Alpha virt. eigenvalues --    2.06259   2.10922   2.12136   2.12553   2.15552
 Alpha virt. eigenvalues --    2.16037   2.20404   2.22625   2.24490   2.30116
 Alpha virt. eigenvalues --    2.32535   2.33770   2.35021   2.37404   2.38295
 Alpha virt. eigenvalues --    2.41488   2.43309   2.46433   2.46886   2.49485
 Alpha virt. eigenvalues --    2.52608   2.56816   2.57149   2.59538   2.61448
 Alpha virt. eigenvalues --    2.62625   2.64396   2.67474   2.68177   2.71473
 Alpha virt. eigenvalues --    2.74240   2.77325   2.80623   2.88710   2.90027
 Alpha virt. eigenvalues --    2.91942   2.94272   2.99784   3.04482   3.08581
 Alpha virt. eigenvalues --    3.75352   3.75745   3.78578   3.83967   3.93538
 Alpha virt. eigenvalues --    4.01564   4.07201   4.13378   4.29090   4.33467
 Alpha virt. eigenvalues --    4.49821   4.58445   4.73769   4.82302
          Condensed to atoms (all electrons):
               1          2          3          4          5          6
     1  C    4.832182   0.162428   0.296389  -0.012173  -0.030052  -0.010721
     2  O    0.162428   8.490443  -0.018236  -0.013776  -0.020933   0.127760
     3  C    0.296389  -0.018236   4.978194   0.324477  -0.019528  -0.024617
     4  C   -0.012173  -0.013776   0.324477   4.936097   0.297868  -0.023331
     5  C   -0.030052  -0.020933  -0.019528   0.297868   4.960187   0.294914
     6  C   -0.010721   0.127760  -0.024617  -0.023331   0.294914   5.122750
     7  H   -0.062143   0.002961   0.371793  -0.047046   0.005923  -0.000071
     8  H    0.000290   0.003306   0.004807  -0.039899   0.367164  -0.059408
     9  H    0.002515  -0.032433   0.000279   0.005121  -0.043465   0.367490
    10  H    0.005972  -0.000048  -0.045868   0.377546  -0.057154   0.006394
    11  O   -0.034279   0.000808   0.198266  -0.041639   0.005782  -0.000623
    12  O    0.003954  -0.000591  -0.026335   0.199825  -0.039919   0.003225
    13  O   -0.000161   0.000473   0.000000  -0.032918   0.247059  -0.043852
    14  H   -0.007302   0.000409  -0.012662  -0.021283  -0.001133   0.001732
    15  H   -0.004092  -0.000027  -0.021963   0.005748  -0.000143  -0.000031
    16  H   -0.000040   0.002923  -0.000704  -0.011735  -0.029637  -0.004271
    17  C   -0.001281  -0.024315   0.000207  -0.001878  -0.026354   0.279658
    18  O    0.000005   0.001299  -0.000026   0.000194  -0.005049  -0.050470
    19  H   -0.000317   0.002853  -0.000076  -0.000064   0.004637  -0.044787
    20  H    0.002274   0.001204  -0.000716   0.002254  -0.010197  -0.044843
    21  H    0.000004  -0.000060   0.000004  -0.000245   0.001873  -0.001233
    22  O    0.206337  -0.056207  -0.037749   0.000562  -0.000430   0.004465
    23  H   -0.023263   0.006431   0.004560  -0.000264   0.000012  -0.001069
    24  H    0.373409  -0.052779  -0.056889   0.004862  -0.000058   0.003620
    25  H   -0.013152   0.074670   0.001458   0.000066   0.001282  -0.006310
    26  O    0.022664  -0.072509   0.000496  -0.000087  -0.000082   0.003688
    27  H    0.000779   0.002717   0.000046   0.000003   0.000002  -0.000084
    28  O   -0.000006   0.000001  -0.000011   0.001008  -0.000469  -0.000762
    29  H    0.000010  -0.000001   0.000523  -0.004529   0.000787  -0.000455
    30  H    0.000000   0.000000  -0.000001  -0.000021   0.000111  -0.000014
               7          8          9         10         11         12
     1  C   -0.062143   0.000290   0.002515   0.005972  -0.034279   0.003954
     2  O    0.002961   0.003306  -0.032433  -0.000048   0.000808  -0.000591
     3  C    0.371793   0.004807   0.000279  -0.045868   0.198266  -0.026335
     4  C   -0.047046  -0.039899   0.005121   0.377546  -0.041639   0.199825
     5  C    0.005923   0.367164  -0.043465  -0.057154   0.005782  -0.039919
     6  C   -0.000071  -0.059408   0.367490   0.006394  -0.000623   0.003225
     7  H    0.605046  -0.000105   0.000022  -0.007605  -0.032057   0.002822
     8  H   -0.000105   0.573479   0.000528  -0.006227  -0.000070  -0.000257
     9  H    0.000022   0.000528   0.564709  -0.000186   0.000033  -0.000106
    10  H   -0.007605  -0.006227  -0.000186   0.578126   0.002609  -0.033297
    11  O   -0.032057  -0.000070   0.000033   0.002609   8.277717   0.001230
    12  O    0.002822  -0.000257  -0.000106  -0.033297   0.001230   8.338740
    13  O   -0.000279  -0.036297   0.003184   0.008069  -0.016387   0.001488
    14  H    0.001017  -0.000090   0.000031   0.003700   0.000120   0.214968
    15  H   -0.003157   0.000018  -0.000016  -0.000316   0.231045  -0.000091
    16  H    0.000559   0.005829  -0.000120  -0.000960   0.039502   0.000005
    17  C    0.000012  -0.002996  -0.043645  -0.000151   0.000011  -0.001809
    18  O    0.000000   0.016951   0.005525  -0.000003   0.000000  -0.000139
    19  H   -0.000001   0.000339  -0.007551   0.000006  -0.000000   0.000164
    20  H   -0.000011   0.000980   0.005922   0.000002  -0.000001   0.006032
    21  H    0.000000   0.001190  -0.000416   0.000004  -0.000000   0.000178
    22  O    0.005381  -0.000003  -0.000123  -0.000171   0.001446  -0.022830
    23  H   -0.000149  -0.000002  -0.000000   0.000012  -0.000058   0.000322
    24  H   -0.002063   0.000019  -0.000190  -0.000179  -0.001168  -0.000216
    25  H   -0.000080  -0.000046  -0.001053   0.000005  -0.000027  -0.000001
    26  O    0.000015   0.000003   0.000027  -0.000000   0.000001  -0.000004
    27  H   -0.000002  -0.000000   0.000009   0.000000  -0.000000  -0.000000
    28  O    0.000000   0.003700  -0.000001   0.000049   0.000000  -0.020467
    29  H   -0.000009   0.000402  -0.000008  -0.000407  -0.000004   0.057629
    30  H   -0.000000  -0.000162  -0.000000   0.000001  -0.000000   0.000874
              13         14         15         16         17         18
     1  C   -0.000161  -0.007302  -0.004092  -0.000040  -0.001281   0.000005
     2  O    0.000473   0.000409  -0.000027   0.002923  -0.024315   0.001299
     3  C    0.000000  -0.012662  -0.021963  -0.000704   0.000207  -0.000026
     4  C   -0.032918  -0.021283   0.005748  -0.011735  -0.001878   0.000194
     5  C    0.247059  -0.001133  -0.000143  -0.029637  -0.026354  -0.005049
     6  C   -0.043852   0.001732  -0.000031  -0.004271   0.279658  -0.050470
     7  H   -0.000279   0.001017  -0.003157   0.000559   0.000012   0.000000
     8  H   -0.036297  -0.000090   0.000018   0.005829  -0.002996   0.016951
     9  H    0.003184   0.000031  -0.000016  -0.000120  -0.043645   0.005525
    10  H    0.008069   0.003700  -0.000316  -0.000960  -0.000151  -0.000003
    11  O   -0.016387   0.000120   0.231045   0.039502   0.000011   0.000000
    12  O    0.001488   0.214968  -0.000091   0.000005  -0.001809  -0.000139
    13  O    8.284883  -0.000069   0.000734   0.231807   0.003371  -0.000006
    14  H   -0.000069   0.315129   0.000006   0.000016  -0.000502   0.000006
    15  H    0.000734   0.000006   0.378641  -0.000874   0.000001  -0.000000
    16  H    0.231807   0.000016  -0.000874   0.349589   0.000061  -0.000006
    17  C    0.003371  -0.000502   0.000001   0.000061   4.959690   0.246336
    18  O   -0.000006   0.000006  -0.000000  -0.000006   0.246336   8.310600
    19  H   -0.000061  -0.000094   0.000000   0.000001   0.366571  -0.036407
    20  H   -0.000017   0.004450   0.000000  -0.000001   0.340187  -0.029661
    21  H    0.000009  -0.000051   0.000000   0.000000  -0.024218   0.215921
    22  O    0.000002   0.055382   0.000017   0.000011  -0.000679   0.000020
    23  H   -0.000000  -0.000247  -0.000016   0.000001   0.000958  -0.000005
    24  H    0.000016   0.001038   0.008076  -0.000032   0.000035   0.000001
    25  H   -0.000014  -0.000072  -0.000015  -0.000009  -0.001913  -0.000060
    26  O    0.000000   0.000135   0.000001   0.000001  -0.000719   0.000029
    27  H   -0.000000   0.000001  -0.000001  -0.000000   0.000030  -0.000001
    28  O    0.000006   0.000826  -0.000000  -0.000000   0.002243  -0.024457
    29  H   -0.000004  -0.002222   0.000000   0.000001   0.000398   0.002026
    30  H   -0.000000  -0.000028   0.000000   0.000000   0.000002   0.001302
              19         20         21         22         23         24
     1  C   -0.000317   0.002274   0.000004   0.206337  -0.023263   0.373409
     2  O    0.002853   0.001204  -0.000060  -0.056207   0.006431  -0.052779
     3  C   -0.000076  -0.000716   0.000004  -0.037749   0.004560  -0.056889
     4  C   -0.000064   0.002254  -0.000245   0.000562  -0.000264   0.004862
     5  C    0.004637  -0.010197   0.001873  -0.000430   0.000012  -0.000058
     6  C   -0.044787  -0.044843  -0.001233   0.004465  -0.001069   0.003620
     7  H   -0.000001  -0.000011   0.000000   0.005381  -0.000149  -0.002063
     8  H    0.000339   0.000980   0.001190  -0.000003  -0.000002   0.000019
     9  H   -0.007551   0.005922  -0.000416  -0.000123  -0.000000  -0.000190
    10  H    0.000006   0.000002   0.000004  -0.000171   0.000012  -0.000179
    11  O   -0.000000  -0.000001  -0.000000   0.001446  -0.000058  -0.001168
    12  O    0.000164   0.006032   0.000178  -0.022830   0.000322  -0.000216
    13  O   -0.000061  -0.000017   0.000009   0.000002  -0.000000   0.000016
    14  H   -0.000094   0.004450  -0.000051   0.055382  -0.000247   0.001038
    15  H    0.000000   0.000000   0.000000   0.000017  -0.000016   0.008076
    16  H    0.000001  -0.000001   0.000000   0.000011   0.000001  -0.000032
    17  C    0.366571   0.340187  -0.024218  -0.000679   0.000958   0.000035
    18  O   -0.036407  -0.029661   0.215921   0.000020  -0.000005   0.000001
    19  H    0.592884  -0.040846   0.004832   0.000122  -0.000018  -0.000002
    20  H   -0.040846   0.655806  -0.007742   0.004744   0.000157   0.000079
    21  H    0.004832  -0.007742   0.313178   0.000000  -0.000000  -0.000000
    22  O    0.000122   0.004744   0.000000   8.415018   0.186875  -0.043027
    23  H   -0.000018   0.000157  -0.000000   0.186875   0.292430  -0.003874
    24  H   -0.000002   0.000079  -0.000000  -0.043027  -0.003874   0.645849
    25  H    0.003763  -0.000505   0.000003   0.010271  -0.015654  -0.002235
    26  O    0.004331  -0.000063  -0.000000  -0.078201   0.101769   0.002391
    27  H    0.000072   0.000052   0.000000   0.002839  -0.004924   0.000578
    28  O    0.000036   0.005175   0.064658  -0.000001  -0.000000  -0.000000
    29  H    0.000028  -0.000359  -0.005200   0.000020  -0.000007   0.000001
    30  H    0.000009   0.000154  -0.003199   0.000000  -0.000000   0.000000
              25         26         27         28         29         30
     1  C   -0.013152   0.022664   0.000779  -0.000006   0.000010   0.000000
     2  O    0.074670  -0.072509   0.002717   0.000001  -0.000001   0.000000
     3  C    0.001458   0.000496   0.000046  -0.000011   0.000523  -0.000001
     4  C    0.000066  -0.000087   0.000003   0.001008  -0.004529  -0.000021
     5  C    0.001282  -0.000082   0.000002  -0.000469   0.000787   0.000111
     6  C   -0.006310   0.003688  -0.000084  -0.000762  -0.000455  -0.000014
     7  H   -0.000080   0.000015  -0.000002   0.000000  -0.000009  -0.000000
     8  H   -0.000046   0.000003  -0.000000   0.003700   0.000402  -0.000162
     9  H   -0.001053   0.000027   0.000009  -0.000001  -0.000008  -0.000000
    10  H    0.000005  -0.000000   0.000000   0.000049  -0.000407   0.000001
    11  O   -0.000027   0.000001  -0.000000   0.000000  -0.000004  -0.000000
    12  O   -0.000001  -0.000004  -0.000000  -0.020467   0.057629   0.000874
    13  O   -0.000014   0.000000  -0.000000   0.000006  -0.000004  -0.000000
    14  H   -0.000072   0.000135   0.000001   0.000826  -0.002222  -0.000028
    15  H   -0.000015   0.000001  -0.000001  -0.000000   0.000000   0.000000
    16  H   -0.000009   0.000001  -0.000000  -0.000000   0.000001   0.000000
    17  C   -0.001913  -0.000719   0.000030   0.002243   0.000398   0.000002
    18  O   -0.000060   0.000029  -0.000001  -0.024457   0.002026   0.001302
    19  H    0.003763   0.004331   0.000072   0.000036   0.000028   0.000009
    20  H   -0.000505  -0.000063   0.000052   0.005175  -0.000359   0.000154
    21  H    0.000003  -0.000000   0.000000   0.064658  -0.005200  -0.003199
    22  O    0.010271  -0.078201   0.002839  -0.000001   0.000020   0.000000
    23  H   -0.015654   0.101769  -0.004924  -0.000000  -0.000007  -0.000000
    24  H   -0.002235   0.002391   0.000578  -0.000000   0.000001   0.000000
    25  H    0.330468   0.172483  -0.003821   0.000000  -0.000000   0.000000
    26  O    0.172483   8.425667   0.230814   0.000000   0.000000   0.000000
    27  H   -0.003821   0.230814   0.370930  -0.000000  -0.000000   0.000000
    28  O    0.000000   0.000000  -0.000000   8.339237   0.208765   0.239519
    29  H   -0.000000   0.000000  -0.000000   0.208765   0.317364  -0.012960
    30  H    0.000000   0.000000   0.000000   0.239519  -0.012960   0.379018
 Mulliken charges:
               1
     1  C    0.289770
     2  O   -0.588771
     3  C    0.083886
     4  C    0.095258
     5  C    0.097002
     6  C    0.101258
     7  H    0.159229
     8  H    0.166556
     9  H    0.173918
    10  H    0.170078
    11  O   -0.632255
    12  O   -0.685394
    13  O   -0.651036
    14  H    0.446790
    15  H    0.406456
    16  H    0.418083
    17  C   -0.069315
    18  O   -0.653926
    19  H    0.149574
    20  H    0.105490
    21  H    0.440508
    22  O   -0.654091
    23  H    0.456027
    24  H    0.122737
    25  H    0.450499
    26  O   -0.812849
    27  H    0.399962
    28  O   -0.819046
    29  H    0.438210
    30  H    0.395394
 Sum of Mulliken charges =  -0.00000
 Mulliken charges with hydrogens summed into heavy atoms:
               1
     1  C    0.412506
     2  O   -0.588771
     3  C    0.243114
     4  C    0.265336
     5  C    0.263558
     6  C    0.275175
    11  O   -0.225800
    12  O   -0.238603
    13  O   -0.232953
    17  C    0.185750
    18  O   -0.213418
    22  O   -0.198065
    26  O    0.037612
    28  O    0.014558
 APT charges:
               1
     1  C   -0.302370
     2  O   -0.363267
     3  C   -0.354582
     4  C   -0.423405
     5  C   -0.287279
     6  C   -0.324900
     7  H    0.516512
     8  H    0.419044
     9  H    0.511533
    10  H    0.555308
    11  O   -0.908598
    12  O   -0.612150
    13  O   -0.650359
    14  H    0.438035
    15  H    0.794581
    16  H    0.514701
    17  C   -0.585852
    18  O   -0.605373
    19  H    0.493452
    20  H    0.214902
    21  H    0.474468
    22  O   -0.557005
    23  H    0.527146
    24  H    0.517546
    25  H    0.225969
    26  O   -1.194320
    27  H    0.914303
    28  O   -1.020682
    29  H    0.214341
    30  H    0.858300
 Sum of APT charges =  -0.00000
 APT charges with hydrogens summed into heavy atoms:
               1
     1  C    0.215176
     2  O   -0.363267
     3  C    0.161930
     4  C    0.131903
     5  C    0.131766
     6  C    0.186632
    11  O   -0.114017
    12  O   -0.174115
    13  O   -0.135658
    17  C    0.122502
    18  O   -0.130905
    22  O   -0.029859
    26  O   -0.054047
    28  O    0.051959
 Electronic spatial extent (au):  <R**2>=           2757.1231
 Charge=              0.0000 electrons
 Dipole moment (field-independent basis, Debye):
    X=             -5.7102    Y=              2.2521    Z=             -2.8770  Tot=              6.7791
 Quadrupole moment (field-independent basis, Debye-Ang):
   XX=            -73.5486   YY=            -86.2982   ZZ=            -87.3980
   XY=             -2.6552   XZ=             -9.2870   YZ=              2.4309
 Traceless Quadrupole moment (field-independent basis, Debye-Ang):
   XX=              8.8663   YY=             -3.8832   ZZ=             -4.9831
   XY=             -2.6552   XZ=             -9.2870   YZ=              2.4309
 Octapole moment (field-independent basis, Debye-Ang**2):
  XXX=            -58.8599  YYY=             27.1873  ZZZ=            -10.6104  XYY=            -30.8313
  XXY=             12.2872  XXZ=            -28.2030  XZZ=              7.5567  YZZ=              9.2489
  YYZ=             -5.9070  XYZ=            -10.7095
 Hexadecapole moment (field-independent basis, Debye-Ang**3):
 XXXX=          -1251.2802 YYYY=          -1092.9211 ZZZZ=           -644.7525 XXXY=             13.0053
 XXXZ=           -132.2523 YYYX=           -107.2128 YYYZ=             24.0456 ZZZX=            -66.9612
 ZZZY=              4.4551 XXYY=           -385.3329 XXZZ=           -309.3227 YYZZ=           -310.0097
 XXYZ=            -34.6203 YYXZ=            -16.9929 ZZXY=             12.8263
 N-N= 1.150714573678D+03 E-N=-4.273525362348D+03  KE= 8.329185618565D+02
  Exact polarizability:   0.000   0.000   0.000   0.000   0.000   0.000
 Approx polarizability: 137.107  -2.349 125.850  -1.584  -4.385 129.510

 This type of calculation cannot be archived.


 It takes a long time to grow an old friend.
                            -- John Leonard
 Job cpu time:       0 days  2 hours 23 minutes 44.8 seconds.
 File lengths (MBytes):  RWF=    220 Int=      0 D2E=      0 Chk=      9 Scr=      1
 Normal termination of Gaussian 09 at Sun Jan  8 16:22:14 2017.
