 Entering Gaussian System, Link 0=g09
 Initial command:
 /global/software/gaussian/g09.e01/l1.exe "/scratch/10447782.yak.local/Gau-14676.inp" -scrdir="/scratch/10447782.yak.local/"
 Entering Link 1 = /global/software/gaussian/g09.e01/l1.exe PID=     14677.
  
 Copyright (c) 1988,1990,1992,1993,1995,1998,2003,2009,2015,
            Gaussian, Inc.  All Rights Reserved.
  
 This is part of the Gaussian(R) 09 program.  It is based on
 the Gaussian(R) 03 system (copyright 2003, Gaussian, Inc.),
 the Gaussian(R) 98 system (copyright 1998, Gaussian, Inc.),
 the Gaussian(R) 94 system (copyright 1995, Gaussian, Inc.),
 the Gaussian 92(TM) system (copyright 1992, Gaussian, Inc.),
 the Gaussian 90(TM) system (copyright 1990, Gaussian, Inc.),
 the Gaussian 88(TM) system (copyright 1988, Gaussian, Inc.),
 the Gaussian 86(TM) system (copyright 1986, Carnegie Mellon
 University), and the Gaussian 82(TM) system (copyright 1983,
 Carnegie Mellon University). Gaussian is a federally registered
 trademark of Gaussian, Inc.
  
 This software contains proprietary and confidential information,
 including trade secrets, belonging to Gaussian, Inc.
  
 This software is provided under written license and may be
 used, copied, transmitted, or stored only in accord with that
 written license.
  
 The following legend is applicable only to US Government
 contracts under FAR:
  
                    RESTRICTED RIGHTS LEGEND
  
 Use, reproduction and disclosure by the US Government is
 subject to restrictions as set forth in subparagraphs (a)
 and (c) of the Commercial Computer Software - Restricted
 Rights clause in FAR 52.227-19.
  
 Gaussian, Inc.
 340 Quinnipiac St., Bldg. 40, Wallingford CT 06492
  
  
 ---------------------------------------------------------------
 Warning -- This program may not be used in any manner that
 competes with the business of Gaussian, Inc. or will provide
 assistance to any competitor of Gaussian, Inc.  The licensee
 of this program is prohibited from giving any competitor of
 Gaussian, Inc. access to this program.  By using this program,
 the user acknowledges that Gaussian, Inc. is engaged in the
 business of creating and licensing software in the field of
 computational chemistry and represents and warrants to the
 licensee that it is not a competitor of Gaussian, Inc. and that
 it will not use this program in any manner prohibited above.
 ---------------------------------------------------------------
  

 Cite this work as:
 Gaussian 09, Revision E.01,
 M. J. Frisch, G. W. Trucks, H. B. Schlegel, G. E. Scuseria, 
 M. A. Robb, J. R. Cheeseman, G. Scalmani, V. Barone, B. Mennucci, 
 G. A. Petersson, H. Nakatsuji, M. Caricato, X. Li, H. P. Hratchian, 
 A. F. Izmaylov, J. Bloino, G. Zheng, J. L. Sonnenberg, M. Hada, 
 M. Ehara, K. Toyota, R. Fukuda, J. Hasegawa, M. Ishida, T. Nakajima, 
 Y. Honda, O. Kitao, H. Nakai, T. Vreven, J. A. Montgomery, Jr., 
 J. E. Peralta, F. Ogliaro, M. Bearpark, J. J. Heyd, E. Brothers, 
 K. N. Kudin, V. N. Staroverov, T. Keith, R. Kobayashi, J. Normand, 
 K. Raghavachari, A. Rendell, J. C. Burant, S. S. Iyengar, J. Tomasi, 
 M. Cossi, N. Rega, J. M. Millam, M. Klene, J. E. Knox, J. B. Cross, 
 V. Bakken, C. Adamo, J. Jaramillo, R. Gomperts, R. E. Stratmann, 
 O. Yazyev, A. J. Austin, R. Cammi, C. Pomelli, J. W. Ochterski, 
 R. L. Martin, K. Morokuma, V. G. Zakrzewski, G. A. Voth, 
 P. Salvador, J. J. Dannenberg, S. Dapprich, A. D. Daniels, 
 O. Farkas, J. B. Foresman, J. V. Ortiz, J. Cioslowski, 
 and D. J. Fox, Gaussian, Inc., Wallingford CT, 2013.
 
 ******************************************
 Gaussian 09:  ES64L-G09RevE.01 30-Nov-2015
                 8-Jan-2017 
 ******************************************
 %nprocshared=12
 Will use up to   12 processors via shared memory.
 ----------------------------------------------------------------
 # IRC=(CalcFC,Forward,MaxCycle=1000,MaxPoints=10) B3LYP/6-31G(d)
 ----------------------------------------------------------------
 1/6=1000,10=4,14=-1,18=10,22=1,26=3,38=1,42=10,44=3/1,23;
 2/12=2,17=6,18=5,29=1,40=1/2;
 3/5=1,6=6,7=1,11=2,16=1,25=1,30=1,71=2,74=-5,140=1/1,2,3;
 4//1;
 5/5=2,38=5/2;
 8/6=4,10=90,11=11/1;
 11/6=1,8=1,9=11,15=111,16=1/1,2,10;
 10/6=1,13=1/2;
 6/7=2,8=2,9=2,10=2,28=1/1;
 7/10=1,18=20,25=1/1,2,3,16;
 1/6=1000,10=4,14=-1,18=10,22=1,26=3,42=10,44=3/23(2);
 2/29=1/2;
 99/5=20/99;
 2/29=1/2;
 3/5=1,6=6,7=1,11=2,16=1,25=1,30=1,71=2,74=-5,140=1/1,2,3;
 4/5=5,16=3,69=1/1;
 5/5=2,38=5/2;
 8/6=4,10=90,11=11/1;
 11/6=1,8=1,9=11,15=111,16=1/1,2,10;
 10/6=1,13=1/2;
 7/10=1,18=20,25=1/1,2,3,16;
 1/6=1000,14=-1,18=10,22=1,26=3,42=10,44=3/23(-8);
 2/29=1/2;
 6/7=2,8=2,9=2,10=2,19=2,28=1/1;
 99/5=20,9=1/99;
 -------------------------------------
 glo_1w_beta_ts_chair2_B3LYP_631Gd.out
 -------------------------------------
 Symbolic Z-matrix:
 Charge =  0 Multiplicity = 1
 C                    -1.72019   0.46671  -0.50309 
 O                    -1.06169   0.82441   0.90172 
 C                    -1.59873  -1.04265  -0.71013 
 C                    -0.12349  -1.46713  -0.61846 
 C                     0.46858  -1.13462   0.77163 
 C                     0.31525   0.3397    1.1812 
 H                    -1.96431  -1.24839  -1.72601 
 H                     1.54267  -1.3351    0.75051 
 H                     0.38015   0.36102   2.27209 
 H                    -0.05511  -2.55148  -0.74745 
 O                    -2.33865  -1.78906   0.25451 
 O                     0.59225  -0.85607  -1.69659 
 O                    -0.0638   -2.00995   1.75485 
 H                     0.16621   0.02228  -1.85612 
 H                    -3.24986  -1.45597   0.27592 
 H                    -1.03182  -2.00222   1.64506 
 C                     1.3891    1.3071    0.62716 
 O                     2.66651   0.9009    1.05692 
 H                     1.19324   2.3076    1.02938 
 H                     1.32541   1.38055  -0.464 
 H                     3.04592   0.34007   0.34193 
 O                    -1.16243   1.19215  -1.4658 
 H                    -1.12912   2.40436  -0.86673 
 H                    -2.75693   0.74877  -0.23231 
 H                    -1.07086   2.00764   0.73223 
 O                    -1.07888   3.06358   0.04731 
 H                    -1.9106    3.55735   0.13778 
 O                     3.31708  -0.63091  -1.15749 
 H                     2.40219  -0.77905  -1.48974 
 H                     3.76671  -0.1325   -1.85583 
 
 IRC-IRC-IRC-IRC-IRC-IRC-IRC-IRC-IRC-IRC-IRC-IRC-IRC-IRC-IRC-IRC-IRC-IRC
 ------------------------------------------------------------------------
 INPUT DATA FOR L123
 ------------------------------------------------------------------------
 GENERAL PARAMETERS:
 Rxn path following direction = Forward
 Maximum points per path      =  10
 Step size                    =   0.100 bohr
 Integration scheme           = HPC                                 
    Redo corrector integration= Yes                                 
    DWI Weight Power          =  2
    DWI will use Hessian update vectors when possible.
    Max correction cycles     =1000
 Initial Hessian              = CalcFC
 Hessian evaluation           = All updating
 Hessian updating method      = Bofill                              
 ------------------------------------------------------------------------
 IRC-IRC-IRC-IRC-IRC-IRC-IRC-IRC-IRC-IRC-IRC-IRC-IRC-IRC-IRC-IRC-IRC-IRC
                          Input orientation:                          
 ---------------------------------------------------------------------
 Center     Atomic      Atomic             Coordinates (Angstroms)
 Number     Number       Type             X           Y           Z
 ---------------------------------------------------------------------
      1          6           0       -1.720190    0.466710   -0.503090
      2          8           0       -1.061690    0.824410    0.901720
      3          6           0       -1.598730   -1.042650   -0.710130
      4          6           0       -0.123490   -1.467130   -0.618460
      5          6           0        0.468580   -1.134620    0.771630
      6          6           0        0.315250    0.339700    1.181200
      7          1           0       -1.964310   -1.248390   -1.726010
      8          1           0        1.542670   -1.335100    0.750510
      9          1           0        0.380150    0.361020    2.272090
     10          1           0       -0.055110   -2.551480   -0.747450
     11          8           0       -2.338650   -1.789060    0.254510
     12          8           0        0.592250   -0.856070   -1.696590
     13          8           0       -0.063800   -2.009950    1.754850
     14          1           0        0.166210    0.022280   -1.856120
     15          1           0       -3.249860   -1.455970    0.275920
     16          1           0       -1.031820   -2.002220    1.645060
     17          6           0        1.389100    1.307100    0.627160
     18          8           0        2.666510    0.900900    1.056920
     19          1           0        1.193240    2.307600    1.029380
     20          1           0        1.325410    1.380550   -0.464000
     21          1           0        3.045920    0.340070    0.341930
     22          8           0       -1.162430    1.192150   -1.465800
     23          1           0       -1.129120    2.404360   -0.866730
     24          1           0       -2.756930    0.748770   -0.232310
     25          1           0       -1.070860    2.007640    0.732230
     26          8           0       -1.078880    3.063580    0.047310
     27          1           0       -1.910600    3.557350    0.137780
     28          8           0        3.317080   -0.630910   -1.157490
     29          1           0        2.402190   -0.779050   -1.489740
     30          1           0        3.766710   -0.132500   -1.855830
 ---------------------------------------------------------------------
                    Distance matrix (angstroms):
                    1          2          3          4          5
     1  C    0.000000
     2  O    1.592188   0.000000
     3  C    1.528328   2.524358   0.000000
     4  C    2.510478   2.905567   1.537830   0.000000
     5  C    2.996645   2.489267   2.545160   1.547081   0.000000
     6  C    2.644992   1.486276   3.025118   2.587644   1.537816
     7  H    2.120541   3.466437   1.099086   2.159429   3.488567
     8  H    3.932466   3.386597   3.476692   2.160463   1.092844
     9  H    3.481985   2.042436   3.844462   3.457031   2.120410
    10  H    3.455673   3.889678   2.158871   1.094134   2.142276
    11  O    2.458648   2.979888   1.426583   2.402634   2.928523
    12  O    2.919172   3.508667   2.410043   1.431098   2.486965
    13  O    3.738418   3.123654   3.060687   2.435327   1.419983
    14  H    2.363623   3.123593   2.358470   1.958078   2.887025
    15  H    2.577488   3.221777   1.967068   3.251804   3.765075
    16  H    3.344251   2.922890   2.605587   2.496980   1.940827
    17  C    3.413415   2.512916   4.029491   3.396447   2.613470
    18  O    4.676033   3.732213   5.009204   4.024744   3.009257
    19  H    3.771659   2.702010   4.695228   4.324088   3.527102
    20  H    3.179986   2.805838   3.805663   3.198820   2.930362
    21  H    4.842097   4.173776   4.958984   3.772729   3.000339
    22  O    1.328221   2.398027   2.399109   2.978112   3.616648
    23  H    2.058175   2.372384   3.482375   4.007663   4.214410
    24  H    1.108021   2.040976   2.186075   3.463283   3.867683
    25  H    2.078969   1.195343   3.415160   3.846544   3.499318
    26  O    2.730925   2.396705   4.207741   4.677965   4.532566
    27  H    3.162124   2.961961   4.687880   5.386192   5.298759
    28  O    5.196835   5.052913   4.953266   3.581527   3.476950
    29  H    4.418078   4.504290   4.084683   2.758921   2.996510
    30  H    5.682872   5.642092   5.561380   4.294878   4.334219
                    6          7          8          9         10
     6  C    0.000000
     7  H    4.021230   0.000000
     8  H    2.120615   4.294133   0.000000
     9  H    1.093027   4.906271   2.558023   0.000000
    10  H    3.495108   2.510113   2.505268   4.217787   0.000000
    11  O    3.526125   2.086843   3.939129   4.010654   2.607636
    12  O    3.128621   2.586654   2.668533   4.156527   2.048013
    13  O    2.448185   4.038353   2.011186   2.467008   2.560241
    14  H    3.057496   2.484079   3.245249   4.147606   2.811116
    15  H    4.093162   2.388190   4.817488   4.523618   3.529002
    16  H    2.741232   3.577976   2.805934   2.823425   2.641922
    17  C    1.547894   4.828384   2.649532   2.149149   4.343263
    18  O    2.420499   5.814520   2.521230   2.644910   4.752041
    19  H    2.160219   5.496122   3.670032   2.448391   5.322233
    20  H    2.193280   4.396163   2.982782   3.069063   4.176965
    21  H    2.856735   5.648184   2.287552   3.291244   4.377693
    22  O    3.149098   2.582045   4.314694   4.128214   3.969502
    23  H    3.247005   3.844280   4.872113   4.037985   5.072285
    24  H    3.406411   2.616875   4.878013   4.032820   4.296144
    25  H    2.214701   4.176473   4.243204   2.681036   4.899671
    26  O    3.263254   4.745707   5.168694   3.792393   5.762694
    27  H    4.049247   5.154778   6.019683   4.474298   6.445485
    28  O    3.927154   5.347670   2.699051   4.622932   3.902357
    29  H    3.569431   4.398002   2.463064   4.420381   3.119427
    30  H    4.621591   5.840090   3.631199   5.362096   4.656853
                   11         12         13         14         15
    11  O    0.000000
    12  O    3.642449   0.000000
    13  O    2.734000   3.697875   0.000000
    14  H    3.742998   0.989171   4.149936   0.000000
    15  H    0.970418   4.360331   3.555996   4.289563   0.000000
    16  H    1.920123   3.888173   0.974257   4.218073   2.663200
    17  C    4.860164   3.273238   3.792812   3.051705   5.410903
    18  O    5.738586   3.869278   4.051512   3.938182   6.416247
    19  H    5.464183   4.219112   4.554964   3.821464   5.871397
    20  H    4.897757   2.656929   4.283537   2.264208   5.433822
    21  H    5.790892   3.406877   4.145998   3.636639   6.547287
    22  O    3.637385   2.706912   4.672582   1.812796   3.795193
    23  H    4.506097   3.779178   5.243446   2.886361   4.550312
    24  H    2.617734   3.992071   4.337314   3.421885   2.315633
    25  H    4.031183   4.106816   4.266257   3.488775   4.117384
    26  O    5.017775   4.604076   5.448558   3.797736   5.019138
    27  H    5.364788   5.395132   6.084440   4.559111   5.190961
    28  O    5.943260   2.786759   4.670527   3.292829   6.772008
    29  H    5.151514   1.823349   4.257180   2.403325   5.959987
    30  H    6.668819   3.259771   5.588796   3.603825   7.451724
                   16         17         18         19         20
    16  H    0.000000
    17  C    4.224757   0.000000
    18  O    4.738318   1.407646   0.000000
    19  H    4.889223   1.095966   2.037176   0.000000
    20  H    4.631177   1.095482   2.083701   1.762690   0.000000
    21  H    4.879799   1.939473   0.984730   2.788581   2.166166
    22  O    4.460774   3.302121   4.594532   3.608231   2.688577
    23  H    5.073116   3.126838   4.513051   2.999659   2.689813
    24  H    3.750796   4.270830   5.576644   4.430085   4.137430
    25  H    4.112634   2.559922   3.911295   2.303133   2.750694
    26  O    5.312001   3.084214   4.441221   2.588145   2.979033
    27  H    5.826917   4.023821   5.371357   3.462752   3.946183
    28  O    5.352355   3.264654   2.770071   4.234140   2.914387
    29  H    4.807862   3.140006   3.062283   4.163524   2.622112
    30  H    6.227196   3.727025   3.280620   4.571791   3.191623
                   21         22         23         24         25
    21  H    0.000000
    22  O    4.658770   0.000000
    23  H    4.811768   1.352571   0.000000
    24  H    5.845499   2.064101   2.406913   0.000000
    25  H    4.458812   2.346219   1.648470   2.314719   0.000000
    26  O    4.951594   2.408056   1.128080   2.872696   1.258646
    27  H    5.912669   2.953879   1.717305   2.956580   1.860144
    28  O    1.806818   4.846093   5.391299   6.297069   5.457747
    29  H    2.240945   4.073416   4.795038   5.525566   4.976431
    30  H    2.360722   5.118910   5.602065   6.780143   5.889001
                   26         27         28         29         30
    26  O    0.000000
    27  H    0.971469   0.000000
    28  O    5.867305   6.822601   0.000000
    29  H    5.407973   6.328771   0.984560   0.000000
    30  H    6.108732   7.058422   0.968637   1.553694   0.000000
 Symmetry turned off by external request.
 Stoichiometry    C6H16O8
 Framework group  C1[X(C6H16O8)]
 Deg. of freedom    84
 Full point group                 C1      NOp   1
 Rotational constants (GHZ):      0.7157412      0.5955980      0.4785327
 Standard basis: 6-31G(d) (6D, 7F)
   242 basis functions,   456 primitive gaussians,   242 cartesian basis functions
    58 alpha electrons       58 beta electrons
       nuclear repulsion energy      1150.5995817250 Hartrees.
 NAtoms=   30 NActive=   30 NUniq=   30 SFac= 1.00D+00 NAtFMM=   60 NAOKFM=F Big=F
 Integral buffers will be    131072 words long.
 Raffenetti 2 integral format.
 Two-electron integral symmetry is turned off.
 One-electron integrals computed using PRISM.
 NBasis=   242 RedAO= T EigKep=  1.81D-03  NBF=   242
 NBsUse=   242 1.00D-06 EigRej= -1.00D+00 NBFU=   242
 ExpMin= 1.61D-01 ExpMax= 5.48D+03 ExpMxC= 8.25D+02 IAcc=1 IRadAn=         1 AccDes= 0.00D+00
 Harris functional with IExCor=  402 and IRadAn=       1 diagonalized for initial guess.
 HarFok:  IExCor=  402 AccDes= 0.00D+00 IRadAn=         1 IDoV= 1 UseB2=F ITyADJ=14
 ICtDFT=  3500011 ScaDFX=  1.000000  1.000000  1.000000  1.000000
 FoFCou: FMM=F IPFlag=           0 FMFlag=      100000 FMFlg1=           0
         NFxFlg=           0 DoJE=T BraDBF=F KetDBF=T FulRan=T
         wScrn=  0.000000 ICntrl=     500 IOpCl=  0 I1Cent=   200000004 NGrid=           0
         NMat0=    1 NMatS0=      1 NMatT0=    0 NMatD0=    1 NMtDS0=    0 NMtDT0=    0
 Symmetry not used in FoFCou.
 Requested convergence on RMS density matrix=1.00D-08 within 128 cycles.
 Requested convergence on MAX density matrix=1.00D-06.
 Requested convergence on             energy=1.00D-06.
 No special actions if energy rises.
 Integral accuracy reduced to 1.0D-05 until final iterations.
 Initial convergence to 1.0D-05 achieved.  Increase integral accuracy.
 SCF Done:  E(RB3LYP) =  -839.963779356     A.U. after   14 cycles
            NFock= 14  Conv=0.63D-08     -V/T= 2.0086
 DoSCS=F DFT=T ScalE2(SS,OS)=  1.000000  1.000000
 Range of M.O.s used for correlation:     1   242
 NBasis=   242 NAE=    58 NBE=    58 NFC=     0 NFV=     0
 NROrb=    242 NOA=    58 NOB=    58 NVA=   184 NVB=   184
 Symmetrizing basis deriv contribution to polar:
 IMax=3 JMax=2 DiffMx= 0.00D+00
 G2DrvN: will do    31 centers at a time, making    1 passes.
 Calling FoFCou, ICntrl=  3107 FMM=F I1Cent=   0 AccDes= 0.00D+00.
 End of G2Drv F.D. properties file   721 does not exist.
 End of G2Drv F.D. properties file   722 does not exist.
 End of G2Drv F.D. properties file   788 does not exist.
          IDoAtm=111111111111111111111111111111
          Differentiating once with respect to nuclear coordinates.
          There are    93 degrees of freedom in the 1st order CPHF.  IDoFFX=6 NUNeed=     0.
     87 vectors produced by pass  0 Test12= 1.15D-14 1.08D-09 XBig12= 1.46D-01 7.82D-02.
 AX will form    87 AO Fock derivatives at one time.
     87 vectors produced by pass  1 Test12= 1.15D-14 1.08D-09 XBig12= 1.64D-02 2.15D-02.
     87 vectors produced by pass  2 Test12= 1.15D-14 1.08D-09 XBig12= 1.13D-04 1.31D-03.
     87 vectors produced by pass  3 Test12= 1.15D-14 1.08D-09 XBig12= 2.97D-07 5.70D-05.
     87 vectors produced by pass  4 Test12= 1.15D-14 1.08D-09 XBig12= 3.38D-10 1.67D-06.
     69 vectors produced by pass  5 Test12= 1.15D-14 1.08D-09 XBig12= 2.82D-13 6.71D-08.
      1 vectors produced by pass  6 Test12= 1.15D-14 1.08D-09 XBig12= 2.27D-16 1.57D-09.
 InvSVY:  IOpt=1 It=  1 EMax= 4.44D-16
 Solved reduced A of dimension   505 with    93 vectors.
 End of Minotr F.D. properties file   721 does not exist.
 End of Minotr F.D. properties file   722 does not exist.
 End of Minotr F.D. properties file   788 does not exist.

 **********************************************************************

            Population analysis using the SCF density.

 **********************************************************************

 Alpha  occ. eigenvalues --  -19.20865 -19.18675 -19.18574 -19.16098 -19.14487
 Alpha  occ. eigenvalues --  -19.13105 -19.13067 -19.11829 -10.30960 -10.26339
 Alpha  occ. eigenvalues --  -10.25148 -10.24644 -10.23646 -10.22497  -1.09052
 Alpha  occ. eigenvalues --   -1.05898  -1.03441  -1.02636  -1.00982  -1.00551
 Alpha  occ. eigenvalues --   -0.99451  -0.99152  -0.78211  -0.76565  -0.68953
 Alpha  occ. eigenvalues --   -0.65888  -0.63989  -0.58664  -0.56708  -0.55455
 Alpha  occ. eigenvalues --   -0.54405  -0.52935  -0.51963  -0.50207  -0.49006
 Alpha  occ. eigenvalues --   -0.47911  -0.47265  -0.45400  -0.44921  -0.43078
 Alpha  occ. eigenvalues --   -0.42671  -0.41463  -0.40515  -0.39656  -0.38560
 Alpha  occ. eigenvalues --   -0.38127  -0.36422  -0.35351  -0.33794  -0.33118
 Alpha  occ. eigenvalues --   -0.32088  -0.30972  -0.29600  -0.29100  -0.28276
 Alpha  occ. eigenvalues --   -0.26784  -0.25956  -0.24520
 Alpha virt. eigenvalues --    0.03447   0.04280   0.05413   0.06703   0.09467
 Alpha virt. eigenvalues --    0.11557   0.12163   0.12398   0.13325   0.15679
 Alpha virt. eigenvalues --    0.16117   0.16690   0.17712   0.18679   0.19805
 Alpha virt. eigenvalues --    0.21008   0.21819   0.22959   0.23419   0.23846
 Alpha virt. eigenvalues --    0.24640   0.25686   0.27177   0.28109   0.29059
 Alpha virt. eigenvalues --    0.29298   0.31894   0.32897   0.50290   0.51409
 Alpha virt. eigenvalues --    0.53356   0.55621   0.55926   0.57240   0.57686
 Alpha virt. eigenvalues --    0.58041   0.60004   0.61436   0.62206   0.64523
 Alpha virt. eigenvalues --    0.65997   0.67477   0.70511   0.71680   0.72889
 Alpha virt. eigenvalues --    0.75550   0.76673   0.78910   0.79629   0.80945
 Alpha virt. eigenvalues --    0.81183   0.82976   0.83692   0.83920   0.85552
 Alpha virt. eigenvalues --    0.86197   0.87215   0.88399   0.89516   0.90007
 Alpha virt. eigenvalues --    0.91006   0.93131   0.93741   0.95513   0.96609
 Alpha virt. eigenvalues --    0.97411   1.00286   1.00653   1.01127   1.05404
 Alpha virt. eigenvalues --    1.06077   1.07290   1.08562   1.09412   1.10906
 Alpha virt. eigenvalues --    1.11284   1.13473   1.15201   1.16852   1.18243
 Alpha virt. eigenvalues --    1.18318   1.20928   1.23687   1.25017   1.27046
 Alpha virt. eigenvalues --    1.30809   1.32716   1.34278   1.35293   1.38990
 Alpha virt. eigenvalues --    1.39956   1.40788   1.43292   1.47511   1.49288
 Alpha virt. eigenvalues --    1.52471   1.55052   1.57416   1.58072   1.59906
 Alpha virt. eigenvalues --    1.61500   1.64876   1.65434   1.67146   1.68411
 Alpha virt. eigenvalues --    1.69652   1.71350   1.72061   1.73495   1.73647
 Alpha virt. eigenvalues --    1.75000   1.76925   1.77645   1.78979   1.79428
 Alpha virt. eigenvalues --    1.81902   1.82795   1.84174   1.84582   1.86456
 Alpha virt. eigenvalues --    1.87761   1.90064   1.90961   1.92843   1.95149
 Alpha virt. eigenvalues --    1.96746   1.97254   1.99282   2.02916   2.05088
 Alpha virt. eigenvalues --    2.07322   2.09804   2.11568   2.14806   2.15747
 Alpha virt. eigenvalues --    2.17774   2.19758   2.22068   2.24912   2.29025
 Alpha virt. eigenvalues --    2.30780   2.34112   2.35106   2.37224   2.38745
 Alpha virt. eigenvalues --    2.41277   2.43537   2.45056   2.47484   2.49133
 Alpha virt. eigenvalues --    2.53136   2.55791   2.57718   2.59277   2.61951
 Alpha virt. eigenvalues --    2.62140   2.62673   2.64288   2.67811   2.71577
 Alpha virt. eigenvalues --    2.74271   2.77360   2.79703   2.87505   2.90687
 Alpha virt. eigenvalues --    2.92157   2.93985   2.98579   3.04509   3.07779
 Alpha virt. eigenvalues --    3.75736   3.75890   3.78379   3.84477   3.93723
 Alpha virt. eigenvalues --    4.00478   4.11064   4.13183   4.28756   4.32116
 Alpha virt. eigenvalues --    4.49027   4.57866   4.73295   4.81783
          Condensed to atoms (all electrons):
               1          2          3          4          5          6
     1  C    4.878101   0.089133   0.294500  -0.010267  -0.029201  -0.004603
     2  O    0.089133   8.592806  -0.013255  -0.011949  -0.019140   0.099940
     3  C    0.294500  -0.013255   5.008655   0.327086  -0.021132  -0.024684
     4  C   -0.010267  -0.011949   0.327086   4.917970   0.296875  -0.022816
     5  C   -0.029201  -0.019140  -0.021132   0.296875   4.960224   0.293438
     6  C   -0.004603   0.099940  -0.024684  -0.022816   0.293438   5.157126
     7  H   -0.063661   0.002924   0.375456  -0.044701   0.005997  -0.000119
     8  H    0.000229   0.003200   0.004708  -0.038024   0.369522  -0.061170
     9  H    0.001709  -0.031770   0.000263   0.004990  -0.043212   0.367554
    10  H    0.005978  -0.000070  -0.045057   0.376902  -0.058694   0.006614
    11  O   -0.033637   0.002137   0.185628  -0.042144   0.006388  -0.000563
    12  O    0.003667  -0.000465  -0.024792   0.203687  -0.040509   0.003112
    13  O   -0.000068   0.000875   0.000175  -0.032642   0.246111  -0.044739
    14  H   -0.009269   0.000328  -0.015004  -0.021714  -0.001003   0.001900
    15  H   -0.004341  -0.000187  -0.023938   0.005882  -0.000150  -0.000044
    16  H   -0.000045   0.002165  -0.000987  -0.011398  -0.029614  -0.004252
    17  C   -0.000463  -0.018791   0.000116  -0.001490  -0.022919   0.280126
    18  O    0.000012   0.001353  -0.000027   0.000170  -0.005923  -0.051873
    19  H   -0.000287   0.002566  -0.000068  -0.000065   0.004525  -0.046880
    20  H    0.002166   0.000786  -0.000783   0.002247  -0.010205  -0.044072
    21  H    0.000002  -0.000058   0.000004  -0.000237   0.001912  -0.001244
    22  O    0.237060  -0.062514  -0.043042   0.001125  -0.000491   0.005648
    23  H   -0.020975   0.009782   0.003247  -0.000079   0.000039  -0.000978
    24  H    0.360460  -0.054605  -0.069699   0.004958   0.000058   0.003539
    25  H   -0.017200   0.115447   0.002700  -0.000060   0.002040  -0.010140
    26  O    0.026129  -0.097139   0.000262  -0.000089  -0.000108   0.003862
    27  H    0.000778   0.003392   0.000068   0.000003   0.000003  -0.000104
    28  O   -0.000007   0.000001  -0.000011   0.001044  -0.000476  -0.000767
    29  H    0.000016   0.000000   0.000527  -0.004738   0.000726  -0.000465
    30  H    0.000000   0.000000  -0.000001  -0.000021   0.000111  -0.000013
               7          8          9         10         11         12
     1  C   -0.063661   0.000229   0.001709   0.005978  -0.033637   0.003667
     2  O    0.002924   0.003200  -0.031770  -0.000070   0.002137  -0.000465
     3  C    0.375456   0.004708   0.000263  -0.045057   0.185628  -0.024792
     4  C   -0.044701  -0.038024   0.004990   0.376902  -0.042144   0.203687
     5  C    0.005997   0.369522  -0.043212  -0.058694   0.006388  -0.040509
     6  C   -0.000119  -0.061170   0.367554   0.006614  -0.000563   0.003112
     7  H    0.596486  -0.000114   0.000022  -0.007809  -0.031967   0.002576
     8  H   -0.000114   0.566388   0.000501  -0.006147  -0.000056  -0.000257
     9  H    0.000022   0.000501   0.558168  -0.000189   0.000036  -0.000104
    10  H   -0.007809  -0.006147  -0.000189   0.582347   0.002223  -0.033606
    11  O   -0.031967  -0.000056   0.000036   0.002223   8.287950   0.001201
    12  O    0.002576  -0.000257  -0.000104  -0.033606   0.001201   8.352201
    13  O   -0.000271  -0.035995   0.003529   0.007934  -0.016944   0.001486
    14  H    0.001282  -0.000065   0.000029   0.003369   0.000204   0.202821
    15  H   -0.003022   0.000018  -0.000014  -0.000329   0.232100  -0.000094
    16  H    0.000555   0.005670  -0.000093  -0.000834   0.041211   0.000006
    17  C    0.000010  -0.003476  -0.042186  -0.000133   0.000012  -0.001759
    18  O    0.000000   0.017438   0.005488  -0.000003   0.000000  -0.000147
    19  H   -0.000001   0.000361  -0.007614   0.000007  -0.000000   0.000170
    20  H   -0.000012   0.000953   0.005688   0.000011  -0.000002   0.006451
    21  H    0.000000   0.001163  -0.000413   0.000004  -0.000000   0.000185
    22  O    0.004996  -0.000006  -0.000121  -0.000206   0.001650  -0.027644
    23  H   -0.000108  -0.000004  -0.000011   0.000008  -0.000052   0.000226
    24  H   -0.001533   0.000017  -0.000196  -0.000195   0.000389  -0.000311
    25  H   -0.000114  -0.000073  -0.002002   0.000011  -0.000068  -0.000013
    26  O    0.000015   0.000004   0.000021  -0.000000   0.000002  -0.000008
    27  H   -0.000002  -0.000000   0.000004   0.000000  -0.000001   0.000000
    28  O    0.000000   0.003749  -0.000001   0.000049   0.000000  -0.020679
    29  H   -0.000008   0.000427  -0.000008  -0.000408  -0.000004   0.058854
    30  H   -0.000000  -0.000169  -0.000000   0.000001  -0.000000   0.000885
              13         14         15         16         17         18
     1  C   -0.000068  -0.009269  -0.004341  -0.000045  -0.000463   0.000012
     2  O    0.000875   0.000328  -0.000187   0.002165  -0.018791   0.001353
     3  C    0.000175  -0.015004  -0.023938  -0.000987   0.000116  -0.000027
     4  C   -0.032642  -0.021714   0.005882  -0.011398  -0.001490   0.000170
     5  C    0.246111  -0.001003  -0.000150  -0.029614  -0.022919  -0.005923
     6  C   -0.044739   0.001900  -0.000044  -0.004252   0.280126  -0.051873
     7  H   -0.000271   0.001282  -0.003022   0.000555   0.000010   0.000000
     8  H   -0.035995  -0.000065   0.000018   0.005670  -0.003476   0.017438
     9  H    0.003529   0.000029  -0.000014  -0.000093  -0.042186   0.005488
    10  H    0.007934   0.003369  -0.000329  -0.000834  -0.000133  -0.000003
    11  O   -0.016944   0.000204   0.232100   0.041211   0.000012   0.000000
    12  O    0.001486   0.202821  -0.000094   0.000006  -0.001759  -0.000147
    13  O    8.285425  -0.000068   0.000739   0.231619   0.003333  -0.000005
    14  H   -0.000068   0.317934   0.000018   0.000016  -0.000848   0.000025
    15  H    0.000739   0.000018   0.378904  -0.000996   0.000000  -0.000000
    16  H    0.231619   0.000016  -0.000996   0.348043   0.000030  -0.000005
    17  C    0.003333  -0.000848   0.000000   0.000030   4.947269   0.248790
    18  O   -0.000005   0.000025  -0.000000  -0.000005   0.248790   8.309325
    19  H   -0.000061  -0.000095   0.000000   0.000002   0.368156  -0.036747
    20  H   -0.000013   0.004197   0.000000  -0.000000   0.343878  -0.028652
    21  H    0.000009  -0.000040   0.000000   0.000000  -0.024244   0.214934
    22  O    0.000002   0.072414   0.000035   0.000006  -0.001371   0.000024
    23  H   -0.000001  -0.000736  -0.000016   0.000001   0.000406  -0.000007
    24  H    0.000018   0.001626   0.009137  -0.000031   0.000046   0.000001
    25  H   -0.000039  -0.000103  -0.000021  -0.000004  -0.000590  -0.000077
    26  O    0.000000   0.000273   0.000002   0.000001  -0.001405   0.000028
    27  H   -0.000000  -0.000003  -0.000001  -0.000000   0.000076  -0.000001
    28  O    0.000006   0.000691  -0.000000  -0.000000   0.002347  -0.024760
    29  H   -0.000003  -0.001893   0.000000   0.000000   0.000422   0.002011
    30  H   -0.000000  -0.000024   0.000000   0.000000   0.000000   0.001302
              19         20         21         22         23         24
     1  C   -0.000287   0.002166   0.000002   0.237060  -0.020975   0.360460
     2  O    0.002566   0.000786  -0.000058  -0.062514   0.009782  -0.054605
     3  C   -0.000068  -0.000783   0.000004  -0.043042   0.003247  -0.069699
     4  C   -0.000065   0.002247  -0.000237   0.001125  -0.000079   0.004958
     5  C    0.004525  -0.010205   0.001912  -0.000491   0.000039   0.000058
     6  C   -0.046880  -0.044072  -0.001244   0.005648  -0.000978   0.003539
     7  H   -0.000001  -0.000012   0.000000   0.004996  -0.000108  -0.001533
     8  H    0.000361   0.000953   0.001163  -0.000006  -0.000004   0.000017
     9  H   -0.007614   0.005688  -0.000413  -0.000121  -0.000011  -0.000196
    10  H    0.000007   0.000011   0.000004  -0.000206   0.000008  -0.000195
    11  O   -0.000000  -0.000002  -0.000000   0.001650  -0.000052   0.000389
    12  O    0.000170   0.006451   0.000185  -0.027644   0.000226  -0.000311
    13  O   -0.000061  -0.000013   0.000009   0.000002  -0.000001   0.000018
    14  H   -0.000095   0.004197  -0.000040   0.072414  -0.000736   0.001626
    15  H    0.000000   0.000000   0.000000   0.000035  -0.000016   0.009137
    16  H    0.000002  -0.000000   0.000000   0.000006   0.000001  -0.000031
    17  C    0.368156   0.343878  -0.024244  -0.001371   0.000406   0.000046
    18  O   -0.036747  -0.028652   0.214934   0.000024  -0.000007   0.000001
    19  H    0.592144  -0.040165   0.004792   0.000196   0.000269  -0.000005
    20  H   -0.040165   0.633758  -0.007474   0.005530   0.000173   0.000098
    21  H    0.004792  -0.007474   0.311887  -0.000001  -0.000000  -0.000000
    22  O    0.000196   0.005530  -0.000001   8.477997   0.125748  -0.045681
    23  H    0.000269   0.000173  -0.000000   0.125748   0.316628  -0.005960
    24  H   -0.000005   0.000098  -0.000000  -0.045681  -0.005960   0.689090
    25  H    0.004110  -0.000653   0.000006   0.010435  -0.019847  -0.001562
    26  O    0.002730   0.000242  -0.000001  -0.095244   0.130633   0.003644
    27  H    0.000136   0.000047   0.000000   0.003730  -0.003133   0.000368
    28  O    0.000036   0.005170   0.065941  -0.000002   0.000000  -0.000000
    29  H    0.000028  -0.000343  -0.005249   0.000033  -0.000006   0.000001
    30  H    0.000009   0.000150  -0.003248   0.000000  -0.000000   0.000000
              25         26         27         28         29         30
     1  C   -0.017200   0.026129   0.000778  -0.000007   0.000016   0.000000
     2  O    0.115447  -0.097139   0.003392   0.000001   0.000000   0.000000
     3  C    0.002700   0.000262   0.000068  -0.000011   0.000527  -0.000001
     4  C   -0.000060  -0.000089   0.000003   0.001044  -0.004738  -0.000021
     5  C    0.002040  -0.000108   0.000003  -0.000476   0.000726   0.000111
     6  C   -0.010140   0.003862  -0.000104  -0.000767  -0.000465  -0.000013
     7  H   -0.000114   0.000015  -0.000002   0.000000  -0.000008  -0.000000
     8  H   -0.000073   0.000004  -0.000000   0.003749   0.000427  -0.000169
     9  H   -0.002002   0.000021   0.000004  -0.000001  -0.000008  -0.000000
    10  H    0.000011  -0.000000   0.000000   0.000049  -0.000408   0.000001
    11  O   -0.000068   0.000002  -0.000001   0.000000  -0.000004  -0.000000
    12  O   -0.000013  -0.000008   0.000000  -0.020679   0.058854   0.000885
    13  O   -0.000039   0.000000  -0.000000   0.000006  -0.000003  -0.000000
    14  H   -0.000103   0.000273  -0.000003   0.000691  -0.001893  -0.000024
    15  H   -0.000021   0.000002  -0.000001  -0.000000   0.000000   0.000000
    16  H   -0.000004   0.000001  -0.000000  -0.000000   0.000000   0.000000
    17  C   -0.000590  -0.001405   0.000076   0.002347   0.000422   0.000000
    18  O   -0.000077   0.000028  -0.000001  -0.024760   0.002011   0.001302
    19  H    0.004110   0.002730   0.000136   0.000036   0.000028   0.000009
    20  H   -0.000653   0.000242   0.000047   0.005170  -0.000343   0.000150
    21  H    0.000006  -0.000001   0.000000   0.065941  -0.005249  -0.003248
    22  O    0.010435  -0.095244   0.003730  -0.000002   0.000033   0.000000
    23  H   -0.019847   0.130633  -0.003133   0.000000  -0.000006  -0.000000
    24  H   -0.001562   0.003644   0.000368  -0.000000   0.000001   0.000000
    25  H    0.312197   0.131160  -0.003058   0.000000  -0.000000   0.000000
    26  O    0.131160   8.483745   0.226239   0.000000   0.000000   0.000000
    27  H   -0.003058   0.226239   0.360610  -0.000000  -0.000000   0.000000
    28  O    0.000000   0.000000  -0.000000   8.340488   0.207722   0.239617
    29  H   -0.000000   0.000000  -0.000000   0.207722   0.316531  -0.012854
    30  H    0.000000   0.000000   0.000000   0.239617  -0.012854   0.378332
 Mulliken charges:
               1
     1  C    0.294083
     2  O   -0.616894
     3  C    0.079086
     4  C    0.099499
     5  C    0.094812
     6  C    0.096666
     7  H    0.163124
     8  H    0.171208
     9  H    0.179932
    10  H    0.168221
    11  O   -0.635694
    12  O   -0.687141
    13  O   -0.650412
    14  H    0.443738
    15  H    0.406317
    16  H    0.418936
    17  C   -0.075343
    18  O   -0.652675
    19  H    0.151751
    20  H    0.120828
    21  H    0.441369
    22  O   -0.670307
    23  H    0.464753
    24  H    0.106328
    25  H    0.477516
    26  O   -0.814996
    27  H    0.410848
    28  O   -0.820158
    29  H    0.438681
    30  H    0.395923
 Sum of Mulliken charges =  -0.00000
 Mulliken charges with hydrogens summed into heavy atoms:
               1
     1  C    0.400411
     2  O   -0.139378
     3  C    0.242210
     4  C    0.267719
     5  C    0.266020
     6  C    0.276598
    11  O   -0.229377
    12  O   -0.243403
    13  O   -0.231476
    17  C    0.197236
    18  O   -0.211306
    22  O   -0.670307
    26  O    0.060606
    28  O    0.014446
 APT charges:
               1
     1  C   -0.294054
     2  O   -0.342924
     3  C   -0.353654
     4  C   -0.428594
     5  C   -0.289643
     6  C   -0.329328
     7  H    0.521063
     8  H    0.424097
     9  H    0.518547
    10  H    0.554252
    11  O   -0.912670
    12  O   -0.604586
    13  O   -0.651030
    14  H    0.425857
    15  H    0.792837
    16  H    0.516080
    17  C   -0.593596
    18  O   -0.602866
    19  H    0.497133
    20  H    0.221979
    21  H    0.474267
    22  O   -0.526279
    23  H    0.349658
    24  H    0.475196
    25  H    0.422711
    26  O   -1.245551
    27  H    0.927853
    28  O   -1.019724
    29  H    0.216495
    30  H    0.856473
 Sum of APT charges =  -0.00000
 APT charges with hydrogens summed into heavy atoms:
               1
     1  C    0.181142
     2  O    0.079787
     3  C    0.167409
     4  C    0.125658
     5  C    0.134454
     6  C    0.189219
    11  O   -0.119832
    12  O   -0.178729
    13  O   -0.134950
    17  C    0.125515
    18  O   -0.128599
    22  O   -0.526279
    26  O    0.031960
    28  O    0.053244
 Electronic spatial extent (au):  <R**2>=           2755.0385
 Charge=             -0.0000 electrons
 Dipole moment (field-independent basis, Debye):
    X=             -5.4507    Y=              2.4521    Z=             -2.0499  Tot=              6.3186
 Quadrupole moment (field-independent basis, Debye-Ang):
   XX=            -73.9351   YY=            -85.2462   ZZ=            -88.5406
   XY=             -2.7002   XZ=             -9.9313   YZ=              3.3067
 Traceless Quadrupole moment (field-independent basis, Debye-Ang):
   XX=              8.6389   YY=             -2.6722   ZZ=             -5.9667
   XY=             -2.7002   XZ=             -9.9313   YZ=              3.3067
 Octapole moment (field-independent basis, Debye-Ang**2):
  XXX=            -55.3350  YYY=             35.8908  ZZZ=            -10.7376  XYY=            -31.3920
  XXY=             13.9194  XXZ=            -28.2053  XZZ=              9.0168  YZZ=              8.5571
  YYZ=             -6.2827  XYZ=            -11.3446
 Hexadecapole moment (field-independent basis, Debye-Ang**3):
 XXXX=          -1257.6981 YYYY=          -1075.4799 ZZZZ=           -649.1231 XXXY=             14.2995
 XXXZ=           -133.8879 YYYX=           -111.3993 YYYZ=             22.6485 ZZZX=            -69.7347
 ZZZY=              9.2090 XXYY=           -383.5654 XXZZ=           -311.4861 YYZZ=           -314.0733
 XXYZ=            -33.1561 YYXZ=            -16.6388 ZZXY=             14.8505
 N-N= 1.150599581725D+03 E-N=-4.273169385151D+03  KE= 8.327822298103D+02
  Exact polarizability:   0.000   0.000   0.000   0.000   0.000   0.000
 Approx polarizability: 138.639  -2.421 132.158  -2.715  -5.198 133.115
 Calling FoFJK, ICntrl=    100147 FMM=F ISym2X=0 I1Cent= 0 IOpClX= 0 NMat=1 NMatS=1 NMatT=0.
 -------------------------------------------------------------------
 Center     Atomic                   Forces (Hartrees/Bohr)
 Number     Number              X              Y              Z
 -------------------------------------------------------------------
      1        6           0.000013569    0.000001099    0.000011917
      2        8          -0.000007057   -0.000012668    0.000015317
      3        6           0.000016432    0.000012762   -0.000005282
      4        6          -0.000001314    0.000008234   -0.000017725
      5        6           0.000005411   -0.000001835   -0.000005551
      6        6           0.000016194    0.000003144    0.000002392
      7        1          -0.000004361    0.000006047   -0.000011506
      8        1           0.000003893   -0.000000762    0.000000845
      9        1           0.000006443    0.000001714   -0.000000018
     10        1           0.000001208    0.000007053   -0.000003497
     11        8          -0.000073561    0.000014065    0.000041830
     12        8          -0.000027000    0.000021907    0.000012096
     13        8           0.000017059    0.000003220   -0.000009735
     14        1           0.000008625   -0.000015249    0.000006649
     15        1           0.000070216   -0.000011000    0.000009576
     16        1          -0.000012383   -0.000004748    0.000002676
     17        6           0.000046917   -0.000089322   -0.000028167
     18        8          -0.000036946   -0.000033174   -0.000066547
     19        1          -0.000003291    0.000061236    0.000029998
     20        1          -0.000002708   -0.000002764    0.000008895
     21        1           0.000006453   -0.000002124    0.000017924
     22        8          -0.000006441    0.000013780   -0.000000359
     23        1           0.000004090   -0.000000163    0.000003011
     24        1          -0.000002413    0.000009395    0.000013889
     25        1          -0.000001337    0.000002762    0.000008422
     26        8          -0.000019915    0.000000595    0.000021066
     27        1           0.000021373   -0.000004920    0.000004194
     28        8           0.000002108    0.000062261   -0.000117929
     29        1          -0.000012095   -0.000003121   -0.000017528
     30        1          -0.000029173   -0.000047421    0.000073147
 -------------------------------------------------------------------
 Cartesian Forces:  Max     0.000117929 RMS     0.000027631
 IRC-IRC-IRC-IRC-IRC-IRC-IRC-IRC-IRC-IRC-IRC-IRC-IRC-IRC-IRC-IRC-IRC-IRC
          ******** Start new reaction path calculation ********
 Supplied step size of   0.1000 bohr.
    Integration on MW PES will use step size of   0.1069 sqrt(amu)*bohr.
 Point Number:   0          Path Number:   1
 Calculating another point on the path.
 IRC-IRC-IRC-IRC-IRC-IRC-IRC-IRC-IRC-IRC-IRC-IRC-IRC-IRC-IRC-IRC-IRC-IRC
                          Input orientation:                          
 ---------------------------------------------------------------------
 Center     Atomic      Atomic             Coordinates (Angstroms)
 Number     Number       Type             X           Y           Z
 ---------------------------------------------------------------------
      1          6           0       -1.718029    0.483711   -0.516594
      2          8           0       -1.058199    0.841964    0.893527
      3          6           0       -1.595709   -1.026113   -0.719305
      4          6           0       -0.120440   -1.450442   -0.628026
      5          6           0        0.471351   -1.117961    0.762151
      6          6           0        0.319180    0.356356    1.172337
      7          1           0       -1.961314   -1.231684   -1.735137
      8          1           0        1.545569   -1.317746    0.741293
      9          1           0        0.384078    0.377336    2.263110
     10          1           0       -0.052014   -2.534873   -0.756583
     11          8           0       -2.335643   -1.772486    0.245226
     12          8           0        0.595266   -0.839368   -1.705941
     13          8           0       -0.060782   -1.993227    1.745453
     14          1           0        0.167304    0.038948   -1.865453
     15          1           0       -3.246849   -1.439345    0.266363
     16          1           0       -1.028822   -1.986378    1.635207
     17          6           0        1.392219    1.323913    0.617657
     18          8           0        2.669471    0.917524    1.047486
     19          1           0        1.196220    2.324367    1.019797
     20          1           0        1.328044    1.397054   -0.473365
     21          1           0        3.048976    0.356820    0.332290
     22          8           0       -1.159721    1.206452   -1.475472
     23          1           0       -1.126066    2.449425   -0.858549
     24          1           0       -2.753972    0.765972   -0.240714
     25          1           0       -1.064855    1.986515    0.736649
     26          8           0       -1.075952    3.081862    0.037316
     27          1           0       -1.907280    3.576261    0.124997
     28          8           0        3.320077   -0.614237   -1.166903
     29          1           0        2.405134   -0.762334   -1.499281
     30          1           0        3.769744   -0.115853   -1.865248
 ---------------------------------------------------------------------
                    Distance matrix (angstroms):
                    1          2          3          4          5
     1  C    0.000000
     2  O    1.597549   0.000000
     3  C    1.528274   2.525838   0.000000
     4  C    2.511106   2.906827   1.537792   0.000000
     5  C    2.998988   2.489596   2.544776   1.547046   0.000000
     6  C    2.649325   1.486850   3.025942   2.588260   1.537862
     7  H    2.118164   3.467782   1.099019   2.159252   3.488157
     8  H    3.934285   3.386315   3.476496   2.160608   1.092838
     9  H    3.486678   2.042498   3.845000   3.457452   2.120473
    10  H    3.456161   3.890798   2.158875   1.094167   2.141987
    11  O    2.460131   2.981193   1.426497   2.402791   2.928281
    12  O    2.918290   3.509710   2.410124   1.430926   2.486855
    13  O    3.741463   3.123928   3.060448   2.435482   1.419907
    14  H    2.360448   3.123886   2.357165   1.957627   2.887072
    15  H    2.578460   3.223026   1.966867   3.251844   3.764851
    16  H    3.347625   2.924120   2.605225   2.496920   1.940849
    17  C    3.415568   2.512554   4.029616   3.396602   2.613738
    18  O    4.678108   3.731613   5.009095   4.024699   3.009376
    19  H    3.773773   2.701087   4.695217   4.324130   3.527243
    20  H    3.180350   2.805472   3.805333   3.198477   2.930141
    21  H    4.843660   4.173636   4.958977   3.772744   3.000652
    22  O    1.324202   2.399024   2.397128   2.976130   3.615280
    23  H    2.081198   2.378719   3.509888   4.034028   4.231389
    24  H    1.108584   2.041549   2.186822   3.463811   3.867511
    25  H    2.062928   1.155271   3.387851   3.816664   3.463863
    26  O    2.733033   2.398032   4.209285   4.679472   4.534098
    27  H    3.164067   2.964449   4.689538   5.387725   5.300903
    28  O    5.197202   5.053237   4.953276   3.581450   3.477101
    29  H    4.418006   4.504884   4.084689   2.758823   2.996675
    30  H    5.682781   5.642454   5.561461   4.294808   4.334380
                    6          7          8          9         10
     6  C    0.000000
     7  H    4.021931   0.000000
     8  H    2.119539   4.293989   0.000000
     9  H    1.092904   4.906709   2.557008   0.000000
    10  H    3.495386   2.510238   2.505455   4.217783   0.000000
    11  O    3.526980   2.086726   3.939122   4.011294   2.607646
    12  O    3.128972   2.586671   2.668497   4.156722   2.048168
    13  O    2.448136   4.038128   2.011212   2.466868   2.560008
    14  H    3.058100   2.482439   3.245821   4.148075   2.811094
    15  H    4.094129   2.387829   4.817429   4.524485   3.528962
    16  H    2.742219   3.577475   2.806001   2.824482   2.641148
    17  C    1.547660   4.828344   2.648993   2.149389   4.343338
    18  O    2.419580   5.814315   2.520583   2.644346   4.751862
    19  H    2.159985   5.495925   3.669414   2.448741   5.322202
    20  H    2.192987   4.395704   2.982088   3.069070   4.176701
    21  H    2.856128   5.648062   2.287288   3.290922   4.377634
    22  O    3.149714   2.579629   4.313260   4.128891   3.967534
    23  H    3.254868   3.875127   4.887607   4.039658   5.099727
    24  H    3.407162   2.617678   4.877732   4.033302   4.296775
    25  H    2.182382   4.155740   4.210994   2.649329   4.868115
    26  O    3.265432   4.746803   5.169575   3.794774   5.764238
    27  H    4.052386   5.155518   6.021071   4.478278   6.447105
    28  O    3.926765   5.347638   2.699077   4.622586   3.902334
    29  H    3.569344   4.397930   2.463231   4.420306   3.119467
    30  H    4.621288   5.840123   3.631193   5.361839   4.656891
                   11         12         13         14         15
    11  O    0.000000
    12  O    3.642525   0.000000
    13  O    2.733935   3.697825   0.000000
    14  H    3.741791   0.989967   4.149746   0.000000
    15  H    0.970426   4.360253   3.556054   4.287940   0.000000
    16  H    1.919786   3.888003   0.974322   4.217497   2.663198
    17  C    4.860386   3.273229   3.792961   3.052439   5.411096
    18  O    5.738549   3.869154   4.051408   3.939283   6.416216
    19  H    5.464269   4.219006   4.555024   3.821842   5.871461
    20  H    4.897445   2.656650   4.283222   2.264879   5.433416
    21  H    5.790997   3.406750   4.146124   3.638014   6.547364
    22  O    3.635611   2.705267   4.671185   1.810012   3.793460
    23  H    4.528347   3.807521   5.258594   2.914972   4.570085
    24  H    2.618187   3.992668   4.337200   3.420847   2.315918
    25  H    3.998311   4.087525   4.226605   3.475941   4.088861
    26  O    5.019437   4.605210   5.450214   3.798097   5.020614
    27  H    5.367220   5.395633   6.087251   4.558330   5.193336
    28  O    5.943301   2.786726   4.670507   3.294632   6.771970
    29  H    5.151570   1.823257   4.257245   2.404999   5.959929
    30  H    6.668904   3.259779   5.588794   3.605764   7.451710
                   16         17         18         19         20
    16  H    0.000000
    17  C    4.225504   0.000000
    18  O    4.738717   1.407579   0.000000
    19  H    4.889997   1.095920   2.037264   0.000000
    20  H    4.631254   1.095352   2.083834   1.762618   0.000000
    21  H    4.880227   1.939471   0.984845   2.788658   2.166281
    22  O    4.459554   3.302633   4.594726   3.609233   2.688777
    23  H    5.089659   3.128533   4.515063   2.989454   2.697871
    24  H    3.751086   4.270714   5.576393   4.429616   4.137057
    25  H    4.073400   2.547629   3.896736   2.303645   2.745462
    26  O    5.314371   3.085296   4.442185   2.588791   2.979693
    27  H    5.830556   4.025231   5.372758   3.464047   3.946429
    28  O    5.352338   3.264616   2.770036   4.234126   2.914530
    29  H    4.807843   3.140040   3.062323   4.163527   2.622134
    30  H    6.227222   3.726979   3.280624   4.571782   3.191884
                   21         22         23         24         25
    21  H    0.000000
    22  O    4.658648   0.000000
    23  H    4.819550   1.388060   0.000000
    24  H    5.845506   2.064047   2.421944   0.000000
    25  H    4.443312   2.347547   1.662133   2.301755   0.000000
    26  O    4.952565   2.410956   1.097753   2.873395   1.299606
    27  H    5.913734   2.955731   1.687430   2.957762   1.900287
    28  O    1.806662   4.845484   5.408262   6.297370   5.441971
    29  H    2.240913   4.072453   4.816151   5.525946   4.959473
    30  H    2.360530   5.118597   5.618100   6.780530   5.879045
                   26         27         28         29         30
    26  O    0.000000
    27  H    0.971197   0.000000
    28  O    5.868251   6.823090   0.000000
    29  H    5.408968   6.329187   0.984647   0.000000
    30  H    6.109493   7.058427   0.968645   1.553715   0.000000
 Symmetry turned off by external request.
 Stoichiometry    C6H16O8
 Framework group  C1[X(C6H16O8)]
 Deg. of freedom    84
 Full point group                 C1      NOp   1
 Rotational constants (GHZ):      0.7155413      0.5955133      0.4784713
 Standard basis: 6-31G(d) (6D, 7F)
   242 basis functions,   456 primitive gaussians,   242 cartesian basis functions
    58 alpha electrons       58 beta electrons
       nuclear repulsion energy      1150.5864581780 Hartrees.
 NAtoms=   30 NActive=   30 NUniq=   30 SFac= 1.00D+00 NAtFMM=   60 NAOKFM=F Big=F
 Integral buffers will be    131072 words long.
 Raffenetti 2 integral format.
 Two-electron integral symmetry is turned off.
 One-electron integrals computed using PRISM.
 NBasis=   242 RedAO= T EigKep=  1.81D-03  NBF=   242
 NBsUse=   242 1.00D-06 EigRej= -1.00D+00 NBFU=   242
 Initial guess from the checkpoint file:  "/scratch/10447782.yak.local/Gau-14677.chk"
 B after Tr=     0.005724    0.031427   -0.017590
         Rot=    1.000000   -0.000072   -0.000021    0.000001 Ang=  -0.01 deg.
 ExpMin= 1.61D-01 ExpMax= 5.48D+03 ExpMxC= 8.25D+02 IAcc=1 IRadAn=         1 AccDes= 0.00D+00
 Harris functional with IExCor=  402 and IRadAn=       1 diagonalized for initial guess.
 HarFok:  IExCor=  402 AccDes= 0.00D+00 IRadAn=         1 IDoV= 1 UseB2=F ITyADJ=14
 ICtDFT=  3500011 ScaDFX=  1.000000  1.000000  1.000000  1.000000
 FoFCou: FMM=F IPFlag=           0 FMFlag=      100000 FMFlg1=           0
         NFxFlg=           0 DoJE=T BraDBF=F KetDBF=T FulRan=T
         wScrn=  0.000000 ICntrl=     500 IOpCl=  0 I1Cent=   200000004 NGrid=           0
         NMat0=    1 NMatS0=      1 NMatT0=    0 NMatD0=    1 NMtDS0=    0 NMtDT0=    0
 Symmetry not used in FoFCou.
 Requested convergence on RMS density matrix=1.00D-08 within 128 cycles.
 Requested convergence on MAX density matrix=1.00D-06.
 Requested convergence on             energy=1.00D-06.
 No special actions if energy rises.
 Integral accuracy reduced to 1.0D-05 until final iterations.
 Initial convergence to 1.0D-05 achieved.  Increase integral accuracy.
 SCF Done:  E(RB3LYP) =  -839.964094045     A.U. after   11 cycles
            NFock= 11  Conv=0.94D-08     -V/T= 2.0086
 DoSCS=F DFT=T ScalE2(SS,OS)=  1.000000  1.000000
 Range of M.O.s used for correlation:     1   242
 NBasis=   242 NAE=    58 NBE=    58 NFC=     0 NFV=     0
 NROrb=    242 NOA=    58 NOB=    58 NVA=   184 NVB=   184
 Symmetrizing basis deriv contribution to polar:
 IMax=3 JMax=2 DiffMx= 0.00D+00
 Calling FoFJK, ICntrl=      2147 FMM=F ISym2X=0 I1Cent= 0 IOpClX= 0 NMat=1 NMatS=1 NMatT=0.
 -------------------------------------------------------------------
 Center     Atomic                   Forces (Hartrees/Bohr)
 Number     Number              X              Y              Z
 -------------------------------------------------------------------
      1        6          -0.001254192    0.000450403   -0.005769206
      2        8           0.000932222    0.000534262    0.002570114
      3        6           0.000020227   -0.000166079    0.000357899
      4        6           0.000034462    0.000043045   -0.000197879
      5        6          -0.000344054    0.000000109   -0.000063736
      6        6           0.001291114   -0.000023675    0.000816186
      7        1          -0.000008844    0.000004061    0.000023381
      8        1          -0.000011064    0.000078743    0.000025490
      9        1           0.000117663   -0.000041039    0.000055086
     10        1           0.000010312    0.000000940    0.000030972
     11        8          -0.000102424   -0.000142124    0.000318850
     12        8          -0.000047705    0.000118990    0.000163052
     13        8           0.000006126    0.000116021    0.000055452
     14        1          -0.000203643   -0.000031447    0.000018859
     15        1           0.000067879   -0.000014746   -0.000004252
     16        1          -0.000013688   -0.000101283   -0.000046563
     17        6           0.000181253    0.000136317   -0.000119549
     18        8          -0.000146846   -0.000112758   -0.000063547
     19        1          -0.000007912    0.000073259    0.000010149
     20        1          -0.000048916   -0.000021014    0.000015640
     21        1           0.000009992    0.000008875   -0.000004114
     22        8          -0.000600130   -0.004380151   -0.000421418
     23        1          -0.000004813    0.002579899    0.001093405
     24        1          -0.000000581    0.000081033    0.000125451
     25        1           0.000370312   -0.003609409    0.001612242
     26        8          -0.000271559    0.004093332   -0.000201417
     27        1           0.000117389    0.000286234   -0.000368084
     28        8          -0.000046657    0.000083268   -0.000078617
     29        1          -0.000018391    0.000003925   -0.000029154
     30        1          -0.000027532   -0.000048990    0.000075310
 -------------------------------------------------------------------
 Cartesian Forces:  Max     0.005769206 RMS     0.001087065
 IRC-IRC-IRC-IRC-IRC-IRC-IRC-IRC-IRC-IRC-IRC-IRC-IRC-IRC-IRC-IRC-IRC-IRC
 Pt  1 Step number   1 out of a maximum of1000
 Modified Bulirsch-Stoer Extrapolation Cycles:
    EPS =    0.000010000000000
 Maximum DWI energy   std dev =  0.000004672 at pt     1
 Maximum DWI gradient std dev =  0.088837845 at pt     1
 CORRECTOR INTEGRATION CONVERGENCE:
   Recorrection delta-x convergence threshold:    0.010000
   Delta-x Convergence Met
 Point Number:   1          Path Number:   1
   CHANGE IN THE REACTION COORDINATE =    0.10670
   NET REACTION COORDINATE UP TO THIS POINT =    0.10670
  # OF POINTS ALONG THE PATH =   1
  # OF STEPS =   1

 Calculating another point on the path.
 IRC-IRC-IRC-IRC-IRC-IRC-IRC-IRC-IRC-IRC-IRC-IRC-IRC-IRC-IRC-IRC-IRC-IRC
                          Input orientation:                          
 ---------------------------------------------------------------------
 Center     Atomic      Atomic             Coordinates (Angstroms)
 Number     Number       Type             X           Y           Z
 ---------------------------------------------------------------------
      1          6           0       -1.719236    0.484018   -0.521564
      2          8           0       -1.057552    0.842217    0.895319
      3          6           0       -1.595729   -1.026295   -0.719056
      4          6           0       -0.120407   -1.450392   -0.628171
      5          6           0        0.471081   -1.117956    0.762111
      6          6           0        0.320329    0.356309    1.173082
      7          1           0       -1.961365   -1.231932   -1.734838
      8          1           0        1.545433   -1.317057    0.741492
      9          1           0        0.385532    0.376840    2.263736
     10          1           0       -0.051938   -2.534894   -0.756290
     11          8           0       -2.335667   -1.772569    0.245434
     12          8           0        0.595238   -0.839300   -1.705832
     13          8           0       -0.060788   -1.993153    1.745488
     14          1           0        0.165335    0.038782   -1.865426
     15          1           0       -3.246758   -1.439281    0.266422
     16          1           0       -1.028843   -1.987408    1.634736
     17          6           0        1.392364    1.324080    0.617577
     18          8           0        2.669383    0.917445    1.047447
     19          1           0        1.196225    2.324596    1.019631
     20          1           0        1.327579    1.396862   -0.473300
     21          1           0        3.049061    0.356842    0.332135
     22          8           0       -1.160071    1.203648   -1.475887
     23          1           0       -1.126097    2.476000   -0.844313
     24          1           0       -2.753924    0.766960   -0.239672
     25          1           0       -1.061575    1.949739    0.751984
     26          8           0       -1.076094    3.084600    0.037090
     27          1           0       -1.906722    3.579945    0.121420
     28          8           0        3.320007   -0.614210   -1.166921
     29          1           0        2.405077   -0.762235   -1.499611
     30          1           0        3.769890   -0.115922   -1.865079
 ---------------------------------------------------------------------
                    Distance matrix (angstroms):
                    1          2          3          4          5
     1  C    0.000000
     2  O    1.604272   0.000000
     3  C    1.528169   2.527286   0.000000
     4  C    2.511884   2.907803   1.537756   0.000000
     5  C    3.001938   2.489325   2.544398   1.547015   0.000000
     6  C    2.654800   1.487218   3.027055   2.589001   1.537881
     7  H    2.115453   3.469394   1.098995   2.159065   3.487770
     8  H    3.936654   3.385507   3.476297   2.160735   1.092839
     9  H    3.492769   2.042458   3.845937   3.458016   2.120521
    10  H    3.456705   3.891522   2.158830   1.094188   2.141683
    11  O    2.461800   2.982119   1.426421   2.402990   2.928022
    12  O    2.917267   3.510726   2.410192   1.430711   2.486726
    13  O    3.745178   3.123403   3.060202   2.435652   1.419819
    14  H    2.357076   3.124528   2.355822   1.957061   2.887122
    15  H    2.579404   3.223874   1.966627   3.251844   3.764477
    16  H    3.351749   2.924780   2.604887   2.496876   1.940926
    17  C    3.418391   2.512254   4.029832   3.396771   2.614037
    18  O    4.680772   3.730797   5.008975   4.024583   3.009452
    19  H    3.776629   2.700447   4.695371   4.324270   3.527508
    20  H    3.180990   2.805281   3.804972   3.198047   2.929870
    21  H    4.845785   4.173372   4.959046   3.772772   3.000981
    22  O    1.319570   2.400783   2.394835   2.973794   3.613743
    23  H    2.103324   2.387523   3.535861   4.058902   4.248305
    24  H    1.109098   2.042437   2.187919   3.464534   3.867446
    25  H    2.050069   1.116766   3.362448   3.788339   3.429269
    26  O    2.736558   2.401079   4.212034   4.682099   4.536615
    27  H    3.167545   2.969034   4.692607   5.390463   5.304216
    28  O    5.197745   5.053418   4.953267   3.581326   3.477255
    29  H    4.418108   4.505525   4.084781   2.758811   2.997042
    30  H    5.682910   5.642874   5.561656   4.294784   4.334552
                    6          7          8          9         10
     6  C    0.000000
     7  H    4.023014   0.000000
     8  H    2.118326   4.293843   0.000000
     9  H    1.092794   4.907613   2.555756   0.000000
    10  H    3.495728   2.510215   2.505607   4.217835   0.000000
    11  O    3.528027   2.086592   3.939099   4.012285   2.607682
    12  O    3.129409   2.586739   2.668429   4.156975   2.048293
    13  O    2.448034   4.037861   2.011233   2.466708   2.559776
    14  H    3.058983   2.480851   3.246381   4.148825   2.810907
    15  H    4.095154   2.387524   4.817232   4.525604   3.528906
    16  H    2.743428   3.576922   2.806092   2.825909   2.640282
    17  C    1.547393   4.828514   2.648469   2.149608   4.343408
    18  O    2.418410   5.814185   2.519895   2.643405   4.751599
    19  H    2.159837   5.496032   3.668917   2.449240   5.322260
    20  H    2.192687   4.395360   2.981365   3.069082   4.176345
    21  H    2.855375   5.648092   2.287009   3.290269   4.377556
    22  O    3.150652   2.577048   4.311667   4.130046   3.965158
    23  H    3.264219   3.903776   4.902972   4.043695   5.125488
    24  H    3.408159   2.619015   4.877528   4.034282   4.297658
    25  H    2.150814   4.137262   4.179540   2.617923   4.837994
    26  O    3.268646   4.749303   5.171380   3.798193   5.766893
    27  H    4.056795   5.157793   6.023495   4.483730   6.449950
    28  O    3.926268   5.347616   2.699101   4.621983   3.902263
    29  H    3.569398   4.397927   2.463606   4.420275   3.119578
    30  H    4.620920   5.840353   3.631136   5.361326   4.656953
                   11         12         13         14         15
    11  O    0.000000
    12  O    3.642613   0.000000
    13  O    2.733843   3.697750   0.000000
    14  H    3.740553   0.990613   4.149529   0.000000
    15  H    0.970364   4.360125   3.555955   4.286237   0.000000
    16  H    1.919403   3.887825   0.974387   4.216947   2.663057
    17  C    4.860652   3.273202   3.793134   3.053342   5.411185
    18  O    5.738460   3.868950   4.051256   3.940448   6.415986
    19  H    5.464468   4.218954   4.555207   3.822465   5.871473
    20  H    4.897065   2.656291   4.282848   2.265658   5.432813
    21  H    5.791132   3.406657   4.146227   3.639548   6.547344
    22  O    3.633571   2.703261   4.669606   1.807030   3.791435
    23  H    4.549830   3.833592   5.274020   2.941174   4.589157
    24  H    2.619060   3.993317   4.337289   3.419853   2.316574
    25  H    3.966798   4.069966   4.187484   3.465242   4.061558
    26  O    5.022153   4.607398   5.452801   3.799700   5.022935
    27  H    5.371106   5.397071   6.091346   4.558598   5.197052
    28  O    5.943331   2.786657   4.670480   3.296401   6.771825
    29  H    5.151758   1.823180   4.257501   2.406635   5.959908
    30  H    6.669076   3.259916   5.588764   3.607873   7.451706
                   16         17         18         19         20
    16  H    0.000000
    17  C    4.226441   0.000000
    18  O    4.739193   1.407450   0.000000
    19  H    4.891080   1.095970   2.037411   0.000000
    20  H    4.631395   1.095220   2.083974   1.762608   0.000000
    21  H    4.880735   1.939503   0.984938   2.788854   2.166533
    22  O    4.458255   3.303334   4.594980   3.610577   2.689036
    23  H    5.106580   3.131563   4.518132   2.981676   2.706052
    24  H    3.751780   4.270476   5.575983   4.428968   4.136427
    25  H    4.035028   2.536006   3.882392   2.304303   2.741359
    26  O    5.317891   3.087018   4.443644   2.589677   2.981040
    27  H    5.835770   4.027290   5.374678   3.465684   3.947182
    28  O    5.352331   3.264538   2.769964   4.234151   2.914667
    29  H    4.808012   3.140188   3.062464   4.163704   2.622216
    30  H    6.227279   3.726905   3.280514   4.571809   3.192248
                   21         22         23         24         25
    21  H    0.000000
    22  O    4.658628   0.000000
    23  H    4.827712   1.420887   0.000000
    24  H    5.845494   2.063805   2.436438   0.000000
    25  H    4.428422   2.351545   1.682046   2.290502   0.000000
    26  O    4.954252   2.415394   1.072271   2.874573   1.341340
    27  H    5.915453   2.958997   1.661538   2.959903   1.941509
    28  O    1.806522   4.844705   5.424141   6.297623   5.427180
    29  H    2.241058   4.071307   4.835781   5.526407   4.943901
    30  H    2.360265   5.118325   5.633003   6.780972   5.870181
                   26         27         28         29         30
    26  O    0.000000
    27  H    0.970784   0.000000
    28  O    5.869968   6.824181   0.000000
    29  H    5.410927   6.330393   0.984728   0.000000
    30  H    6.111068   7.059004   0.968561   1.553706   0.000000
 Symmetry turned off by external request.
 Stoichiometry    C6H16O8
 Framework group  C1[X(C6H16O8)]
 Deg. of freedom    84
 Full point group                 C1      NOp   1
 Rotational constants (GHZ):      0.7152052      0.5953878      0.4783682
 Standard basis: 6-31G(d) (6D, 7F)
   242 basis functions,   456 primitive gaussians,   242 cartesian basis functions
    58 alpha electrons       58 beta electrons
       nuclear repulsion energy      1150.5289899609 Hartrees.
 NAtoms=   30 NActive=   30 NUniq=   30 SFac= 1.00D+00 NAtFMM=   60 NAOKFM=F Big=F
 Integral buffers will be    131072 words long.
 Raffenetti 2 integral format.
 Two-electron integral symmetry is turned off.
 One-electron integrals computed using PRISM.
 NBasis=   242 RedAO= T EigKep=  1.81D-03  NBF=   242
 NBsUse=   242 1.00D-06 EigRej= -1.00D+00 NBFU=   242
 Initial guess from the checkpoint file:  "/scratch/10447782.yak.local/Gau-14677.chk"
 B after Tr=     0.000025   -0.000056    0.000220
         Rot=    1.000000   -0.000069   -0.000024    0.000004 Ang=  -0.01 deg.
 ExpMin= 1.61D-01 ExpMax= 5.48D+03 ExpMxC= 8.25D+02 IAcc=1 IRadAn=         1 AccDes= 0.00D+00
 Harris functional with IExCor=  402 and IRadAn=       1 diagonalized for initial guess.
 HarFok:  IExCor=  402 AccDes= 0.00D+00 IRadAn=         1 IDoV= 1 UseB2=F ITyADJ=14
 ICtDFT=  3500011 ScaDFX=  1.000000  1.000000  1.000000  1.000000
 FoFCou: FMM=F IPFlag=           0 FMFlag=      100000 FMFlg1=           0
         NFxFlg=           0 DoJE=T BraDBF=F KetDBF=T FulRan=T
         wScrn=  0.000000 ICntrl=     500 IOpCl=  0 I1Cent=   200000004 NGrid=           0
         NMat0=    1 NMatS0=      1 NMatT0=    0 NMatD0=    1 NMtDS0=    0 NMtDT0=    0
 Symmetry not used in FoFCou.
 Requested convergence on RMS density matrix=1.00D-08 within 128 cycles.
 Requested convergence on MAX density matrix=1.00D-06.
 Requested convergence on             energy=1.00D-06.
 No special actions if energy rises.
 Integral accuracy reduced to 1.0D-05 until final iterations.
 Initial convergence to 1.0D-05 achieved.  Increase integral accuracy.
 SCF Done:  E(RB3LYP) =  -839.964830861     A.U. after   11 cycles
            NFock= 11  Conv=0.96D-08     -V/T= 2.0085
 DoSCS=F DFT=T ScalE2(SS,OS)=  1.000000  1.000000
 Range of M.O.s used for correlation:     1   242
 NBasis=   242 NAE=    58 NBE=    58 NFC=     0 NFV=     0
 NROrb=    242 NOA=    58 NOB=    58 NVA=   184 NVB=   184
 Symmetrizing basis deriv contribution to polar:
 IMax=3 JMax=2 DiffMx= 0.00D+00
 Calling FoFJK, ICntrl=      2147 FMM=F ISym2X=0 I1Cent= 0 IOpClX= 0 NMat=1 NMatS=1 NMatT=0.
 -------------------------------------------------------------------
 Center     Atomic                   Forces (Hartrees/Bohr)
 Number     Number              X              Y              Z
 -------------------------------------------------------------------
      1        6          -0.002561635    0.000587512   -0.010353922
      2        8           0.001888003   -0.001339955    0.005248244
      3        6          -0.000060782   -0.000394860    0.000538016
      4        6           0.000053112    0.000084524   -0.000274709
      5        6          -0.000550760    0.000017312   -0.000078492
      6        6           0.002327904   -0.000132670    0.001539240
      7        1          -0.000006511   -0.000060364    0.000050812
      8        1          -0.000026736    0.000116811    0.000034870
      9        1           0.000246745   -0.000088159    0.000108910
     10        1           0.000014892   -0.000008139    0.000056760
     11        8          -0.000046804   -0.000223047    0.000532015
     12        8          -0.000074919    0.000202845    0.000266987
     13        8          -0.000019411    0.000191609    0.000107648
     14        1          -0.000323390   -0.000058799    0.000005825
     15        1          -0.000002261   -0.000001012   -0.000007446
     16        1          -0.000001403   -0.000169670   -0.000085412
     17        6           0.000246694    0.000402586   -0.000160540
     18        8          -0.000176504   -0.000184255   -0.000052823
     19        1          -0.000008922    0.000028005   -0.000041437
     20        1          -0.000076474   -0.000031591    0.000007293
     21        1           0.000001965    0.000020575   -0.000028562
     22        8          -0.000982293   -0.007640363   -0.001034424
     23        1          -0.000022646    0.003614060    0.001066149
     24        1           0.000018844    0.000162724    0.000150351
     25        1           0.000590380   -0.004423451    0.002519915
     26        8          -0.000493772    0.008622825    0.000491504
     27        1           0.000175330    0.000644172   -0.000601517
     28        8          -0.000142512    0.000049670    0.000007800
     29        1          -0.000000642    0.000016398   -0.000026269
     30        1           0.000014507   -0.000005295    0.000013214
 -------------------------------------------------------------------
 Cartesian Forces:  Max     0.010353922 RMS     0.001924515
 IRC-IRC-IRC-IRC-IRC-IRC-IRC-IRC-IRC-IRC-IRC-IRC-IRC-IRC-IRC-IRC-IRC-IRC
 Pt  2 Step number   1 out of a maximum of1000
 Modified Bulirsch-Stoer Extrapolation Cycles:
    EPS =    0.000010000000000
 Maximum DWI energy   std dev =  0.000016242 at pt    36
 Maximum DWI gradient std dev =  0.084326896 at pt    37
 CORRECTOR INTEGRATION CONVERGENCE:
   Recorrection delta-x convergence threshold:    0.010000
   Delta-x Convergence Met
 Point Number:   2          Path Number:   1
   CHANGE IN THE REACTION COORDINATE =    0.10652
   NET REACTION COORDINATE UP TO THIS POINT =    0.21322
  # OF POINTS ALONG THE PATH =   2
  # OF STEPS =   1

 Calculating another point on the path.
 IRC-IRC-IRC-IRC-IRC-IRC-IRC-IRC-IRC-IRC-IRC-IRC-IRC-IRC-IRC-IRC-IRC-IRC
                          Input orientation:                          
 ---------------------------------------------------------------------
 Center     Atomic      Atomic             Coordinates (Angstroms)
 Number     Number       Type             X           Y           Z
 ---------------------------------------------------------------------
      1          6           0       -1.721027    0.484243   -0.528067
      2          8           0       -1.056572    0.841271    0.898064
      3          6           0       -1.595830   -1.026615   -0.718823
      4          6           0       -0.120379   -1.450324   -0.628294
      5          6           0        0.470801   -1.117934    0.762084
      6          6           0        0.321799    0.356181    1.174102
      7          1           0       -1.961372   -1.232970   -1.734516
      8          1           0        1.545261   -1.316444    0.741658
      9          1           0        0.387884    0.376049    2.264656
     10          1           0       -0.051857   -2.534921   -0.755890
     11          8           0       -2.335690   -1.772645    0.245697
     12          8           0        0.595192   -0.839206   -1.705708
     13          8           0       -0.060804   -1.993069    1.745537
     14          1           0        0.163165    0.038315   -1.865586
     15          1           0       -3.246789   -1.439335    0.266415
     16          1           0       -1.028829   -1.988636    1.634114
     17          6           0        1.392513    1.324323    0.617487
     18          8           0        2.669320    0.917367    1.047413
     19          1           0        1.196170    2.324859    1.019292
     20          1           0        1.327064    1.396621   -0.473290
     21          1           0        3.049096    0.356980    0.331896
     22          8           0       -1.160478    1.200105   -1.476630
     23          1           0       -1.126117    2.501106   -0.834370
     24          1           0       -2.753840    0.768461   -0.238942
     25          1           0       -1.058039    1.919257    0.768439
     26          8           0       -1.076308    3.089001    0.037355
     27          1           0       -1.905977    3.585829    0.117306
     28          8           0        3.319941   -0.614189   -1.166918
     29          1           0        2.405034   -0.762094   -1.499807
     30          1           0        3.770013   -0.115948   -1.864992
 ---------------------------------------------------------------------
                    Distance matrix (angstroms):
                    1          2          3          4          5
     1  C    0.000000
     2  O    1.613325   0.000000
     3  C    1.527990   2.528660   0.000000
     4  C    2.512901   2.908201   1.537752   0.000000
     5  C    3.005923   2.487939   2.544089   1.546973   0.000000
     6  C    2.662126   1.487082   3.028628   2.589906   1.537848
     7  H    2.112370   3.471544   1.099016   2.158756   3.487364
     8  H    3.939963   3.383745   3.476126   2.160798   1.092834
     9  H    3.501216   2.042170   3.847562   3.458776   2.120515
    10  H    3.457366   3.891489   2.158752   1.094224   2.141324
    11  O    2.463750   2.982328   1.426273   2.403197   2.927745
    12  O    2.916029   3.511688   2.410319   1.430499   2.486595
    13  O    3.750025   3.121418   3.059969   2.435815   1.419735
    14  H    2.353293   3.125741   2.354401   1.956358   2.887248
    15  H    2.580562   3.224469   1.966392   3.251932   3.764235
    16  H    3.356977   2.924195   2.604475   2.496709   1.940992
    17  C    3.422304   2.511987   4.030239   3.396981   2.614399
    18  O    4.684537   3.729660   5.009008   4.024472   3.009543
    19  H    3.780506   2.700107   4.695603   4.324332   3.527767
    20  H    3.182184   2.805485   3.804690   3.197532   2.929560
    21  H    4.848691   4.172719   4.959201   3.772782   3.001339
    22  O    1.313943   2.403898   2.392088   2.970901   3.611955
    23  H    2.124966   2.400253   3.560730   4.082619   4.265708
    24  H    1.109539   2.044212   2.189423   3.465504   3.867667
    25  H    2.044443   1.085752   3.343550   3.766184   3.400283
    26  O    2.742286   2.406969   4.216634   4.686402   4.540604
    27  H    3.173413   2.977192   4.697866   5.395101   5.309445
    28  O    5.198658   5.053353   4.953351   3.581206   3.477414
    29  H    4.418372   4.505915   4.084950   2.758787   2.997337
    30  H    5.683231   5.643284   5.561949   4.294779   4.334778
                    6          7          8          9         10
     6  C    0.000000
     7  H    4.024714   0.000000
     8  H    2.116965   4.293585   0.000000
     9  H    1.092736   4.909310   2.554130   0.000000
    10  H    3.496134   2.509787   2.505618   4.217916   0.000000
    11  O    3.529317   2.086291   3.939019   4.013843   2.607707
    12  O    3.130015   2.586870   2.668330   4.157356   2.048481
    13  O    2.447836   4.037410   2.011228   2.466480   2.559457
    14  H    3.060377   2.479315   3.247042   4.150116   2.810552
    15  H    4.096656   2.387176   4.817125   4.527630   3.528881
    16  H    2.744809   3.576079   2.806111   2.827789   2.639133
    17  C    1.547110   4.829101   2.648095   2.149808   4.343517
    18  O    2.416989   5.814326   2.519307   2.641904   4.751315
    19  H    2.159673   5.496515   3.668519   2.449923   5.322246
    20  H    2.192481   4.395367   2.980676   3.069198   4.175920
    21  H    2.854375   5.648255   2.286870   3.289069   4.377474
    22  O    3.152099   2.574450   4.309854   4.132035   3.962187
    23  H    3.275839   3.930807   4.918721   4.051177   5.149929
    24  H    3.409725   2.621159   4.877568   4.036387   4.298869
    25  H    2.124082   4.125207   4.153029   2.590531   4.814113
    26  O    3.273408   4.754188   5.174612   3.803267   5.771242
    27  H    4.063303   5.162668   6.027698   4.491726   6.454751
    28  O    3.925666   5.347647   2.699133   4.620956   3.902202
    29  H    3.569341   4.397990   2.463875   4.419892   3.119718
    30  H    4.620517   5.840679   3.631162   5.360490   4.657062
                   11         12         13         14         15
    11  O    0.000000
    12  O    3.642713   0.000000
    13  O    2.733717   3.697678   0.000000
    14  H    3.739167   0.991086   4.149325   0.000000
    15  H    0.970374   4.360073   3.555970   4.284468   0.000000
    16  H    1.918916   3.887550   0.974427   4.216312   2.663021
    17  C    4.860961   3.273196   3.793379   3.054630   5.411486
[...]
 Alpha  occ. eigenvalues --  -10.25239 -10.24793 -10.23737 -10.22581  -1.09210
 Alpha  occ. eigenvalues --   -1.05982  -1.03515  -1.02873  -1.01304  -1.00643
 Alpha  occ. eigenvalues --   -1.00258  -0.99245  -0.78396  -0.76390  -0.69072
 Alpha  occ. eigenvalues --   -0.65852  -0.63909  -0.58605  -0.56735  -0.55775
 Alpha  occ. eigenvalues --   -0.54544  -0.52982  -0.51799  -0.50299  -0.48492
 Alpha  occ. eigenvalues --   -0.47784  -0.47165  -0.45547  -0.44937  -0.43057
 Alpha  occ. eigenvalues --   -0.42669  -0.41529  -0.40644  -0.39863  -0.38603
 Alpha  occ. eigenvalues --   -0.37978  -0.36448  -0.35491  -0.34097  -0.33119
 Alpha  occ. eigenvalues --   -0.32228  -0.30997  -0.29667  -0.29114  -0.28382
 Alpha  occ. eigenvalues --   -0.26246  -0.25877  -0.24696
 Alpha virt. eigenvalues --    0.02485   0.03871   0.04916   0.06744   0.09700
 Alpha virt. eigenvalues --    0.10869   0.12041   0.12195   0.13288   0.15561
 Alpha virt. eigenvalues --    0.16089   0.16629   0.17627   0.18700   0.19727
 Alpha virt. eigenvalues --    0.20970   0.22073   0.22831   0.23346   0.23926
 Alpha virt. eigenvalues --    0.25034   0.25704   0.27108   0.28071   0.28987
 Alpha virt. eigenvalues --    0.29700   0.32206   0.33235   0.50695   0.51412
 Alpha virt. eigenvalues --    0.53439   0.55892   0.56880   0.57512   0.58081
 Alpha virt. eigenvalues --    0.58300   0.60104   0.61393   0.63604   0.65008
 Alpha virt. eigenvalues --    0.69413   0.69910   0.71711   0.72947   0.74004
 Alpha virt. eigenvalues --    0.75287   0.76623   0.78901   0.79650   0.80803
 Alpha virt. eigenvalues --    0.81358   0.82789   0.83688   0.84222   0.85336
 Alpha virt. eigenvalues --    0.86179   0.87395   0.88338   0.89693   0.90147
 Alpha virt. eigenvalues --    0.90887   0.92680   0.93255   0.95709   0.96571
 Alpha virt. eigenvalues --    0.97401   1.00294   1.01451   1.01775   1.04747
 Alpha virt. eigenvalues --    1.06117   1.07913   1.08946   1.09391   1.10646
 Alpha virt. eigenvalues --    1.11390   1.13013   1.15382   1.17100   1.17865
 Alpha virt. eigenvalues --    1.18822   1.20069   1.23184   1.24545   1.26816
 Alpha virt. eigenvalues --    1.30588   1.31832   1.33766   1.35147   1.37180
 Alpha virt. eigenvalues --    1.38941   1.39933   1.43298   1.46440   1.48021
 Alpha virt. eigenvalues --    1.51156   1.54810   1.55739   1.57720   1.58723
 Alpha virt. eigenvalues --    1.59340   1.63760   1.65279   1.67071   1.67702
 Alpha virt. eigenvalues --    1.70038   1.71600   1.71934   1.73025   1.73894
 Alpha virt. eigenvalues --    1.74699   1.76127   1.77776   1.78647   1.78702
 Alpha virt. eigenvalues --    1.81615   1.82894   1.83990   1.84607   1.85622
 Alpha virt. eigenvalues --    1.86835   1.89398   1.90381   1.91669   1.93565
 Alpha virt. eigenvalues --    1.96862   1.97077   1.98969   2.02955   2.05070
 Alpha virt. eigenvalues --    2.08194   2.08801   2.11507   2.15512   2.16176
 Alpha virt. eigenvalues --    2.19139   2.19743   2.21755   2.26027   2.29050
 Alpha virt. eigenvalues --    2.31051   2.34656   2.35258   2.37014   2.38918
 Alpha virt. eigenvalues --    2.40424   2.42608   2.45085   2.47873   2.49119
 Alpha virt. eigenvalues --    2.52619   2.55268   2.56700   2.59767   2.61517
 Alpha virt. eigenvalues --    2.62489   2.63589   2.64554   2.66493   2.72561
 Alpha virt. eigenvalues --    2.74704   2.76979   2.78990   2.84153   2.91307
 Alpha virt. eigenvalues --    2.93034   2.94932   2.98446   3.04204   3.06905
 Alpha virt. eigenvalues --    3.74479   3.75782   3.78584   3.84095   3.93669
 Alpha virt. eigenvalues --    3.99488   4.11867   4.12946   4.28217   4.30400
 Alpha virt. eigenvalues --    4.47061   4.57034   4.72768   4.80958
          Condensed to atoms (all electrons):
               1          2          3          4          5          6
     1  C    4.865891   0.056241   0.289088  -0.009476  -0.026818  -0.002515
     2  O    0.056241   8.541527  -0.013449  -0.010312  -0.022225   0.106827
     3  C    0.289088  -0.013449   5.044497   0.328094  -0.024305  -0.022886
     4  C   -0.009476  -0.010312   0.328094   4.909865   0.298651  -0.022552
     5  C   -0.026818  -0.022225  -0.024305   0.298651   4.961996   0.291403
     6  C   -0.002515   0.106827  -0.022886  -0.022552   0.291403   5.160576
     7  H   -0.064555   0.002609   0.374331  -0.043056   0.005995  -0.000142
     8  H    0.000190   0.003297   0.004756  -0.037435   0.370263  -0.061837
     9  H    0.001162  -0.032236   0.000181   0.005017  -0.043589   0.368290
    10  H    0.005767  -0.000086  -0.044844   0.376927  -0.059213   0.006729
    11  O   -0.031808   0.002654   0.179709  -0.042184   0.006878  -0.000794
    12  O    0.003437  -0.000364  -0.023873   0.204980  -0.040798   0.003226
    13  O   -0.000019   0.001075   0.000097  -0.032495   0.245586  -0.045096
    14  H   -0.010599   0.000257  -0.015912  -0.022272  -0.000694   0.001767
    15  H   -0.004184  -0.000149  -0.025425   0.005790  -0.000118  -0.000062
    16  H   -0.000019   0.002026  -0.001021  -0.011319  -0.029595  -0.004236
    17  C   -0.000472  -0.018718   0.000164  -0.001565  -0.022180   0.281486
    18  O    0.000012   0.001432  -0.000023   0.000163  -0.005871  -0.052660
    19  H   -0.000203   0.002133  -0.000063  -0.000063   0.004473  -0.046797
    20  H    0.002033   0.000764  -0.000732   0.002259  -0.010364  -0.043124
    21  H    0.000000  -0.000060   0.000005  -0.000232   0.001932  -0.001245
    22  O    0.296458  -0.058137  -0.048524   0.001314  -0.000266   0.005919
    23  H   -0.010824   0.006338   0.002100  -0.000046   0.000033  -0.000357
    24  H    0.351588  -0.046990  -0.079235   0.004461   0.000217   0.003031
    25  H   -0.012472   0.157606   0.002953  -0.000135   0.002906  -0.012847
    26  O    0.014647  -0.063257   0.000322  -0.000055  -0.000095   0.000561
    27  H    0.000881   0.002239   0.000040   0.000001   0.000003  -0.000018
    28  O   -0.000007   0.000000  -0.000011   0.001038  -0.000481  -0.000778
    29  H    0.000019   0.000001   0.000524  -0.004754   0.000712  -0.000476
    30  H    0.000000   0.000000  -0.000001  -0.000021   0.000111  -0.000012
               7          8          9         10         11         12
     1  C   -0.064555   0.000190   0.001162   0.005767  -0.031808   0.003437
     2  O    0.002609   0.003297  -0.032236  -0.000086   0.002654  -0.000364
     3  C    0.374331   0.004756   0.000181  -0.044844   0.179709  -0.023873
     4  C   -0.043056  -0.037435   0.005017   0.376927  -0.042184   0.204980
     5  C    0.005995   0.370263  -0.043589  -0.059213   0.006878  -0.040798
     6  C   -0.000142  -0.061837   0.368290   0.006729  -0.000794   0.003226
     7  H    0.596088  -0.000116   0.000021  -0.008405  -0.032514   0.002493
     8  H   -0.000116   0.565266   0.000348  -0.006235  -0.000054  -0.000292
     9  H    0.000021   0.000348   0.559425  -0.000192   0.000044  -0.000101
    10  H   -0.008405  -0.006235  -0.000192   0.583673   0.002031  -0.033764
    11  O   -0.032514  -0.000054   0.000044   0.002031   8.290149   0.001177
    12  O    0.002493  -0.000292  -0.000101  -0.033764   0.001177   8.357424
    13  O   -0.000276  -0.035897   0.003453   0.008011  -0.017063   0.001481
    14  H    0.001534  -0.000051   0.000027   0.003247   0.000245   0.199169
    15  H   -0.002627   0.000017  -0.000013  -0.000338   0.233020  -0.000094
    16  H    0.000552   0.005612  -0.000115  -0.000781   0.041333   0.000006
    17  C    0.000008  -0.003450  -0.042870  -0.000128   0.000007  -0.001936
    18  O    0.000000   0.017294   0.005699  -0.000002   0.000000  -0.000146
    19  H   -0.000001   0.000357  -0.007539   0.000006  -0.000000   0.000167
    20  H   -0.000006   0.000890   0.005679   0.000017  -0.000002   0.006850
    21  H    0.000000   0.001141  -0.000416   0.000003  -0.000000   0.000182
    22  O    0.003935  -0.000008  -0.000121  -0.000221   0.001792  -0.030890
    23  H   -0.000063  -0.000003  -0.000011   0.000004  -0.000032   0.000142
    24  H    0.000033   0.000013  -0.000176  -0.000198   0.001837  -0.000350
    25  H   -0.000108  -0.000101  -0.002652   0.000014  -0.000047  -0.000025
    26  O    0.000007   0.000002   0.000004  -0.000000   0.000001  -0.000006
    27  H   -0.000001  -0.000000   0.000003   0.000000  -0.000000   0.000000
    28  O    0.000000   0.003794  -0.000000   0.000050   0.000000  -0.020674
    29  H   -0.000008   0.000429  -0.000008  -0.000415  -0.000004   0.058743
    30  H   -0.000000  -0.000172  -0.000000   0.000001  -0.000000   0.000884
              13         14         15         16         17         18
     1  C   -0.000019  -0.010599  -0.004184  -0.000019  -0.000472   0.000012
     2  O    0.001075   0.000257  -0.000149   0.002026  -0.018718   0.001432
     3  C    0.000097  -0.015912  -0.025425  -0.001021   0.000164  -0.000023
     4  C   -0.032495  -0.022272   0.005790  -0.011319  -0.001565   0.000163
     5  C    0.245586  -0.000694  -0.000118  -0.029595  -0.022180  -0.005871
     6  C   -0.045096   0.001767  -0.000062  -0.004236   0.281486  -0.052660
     7  H   -0.000276   0.001534  -0.002627   0.000552   0.000008   0.000000
     8  H   -0.035897  -0.000051   0.000017   0.005612  -0.003450   0.017294
     9  H    0.003453   0.000027  -0.000013  -0.000115  -0.042870   0.005699
    10  H    0.008011   0.003247  -0.000338  -0.000781  -0.000128  -0.000002
    11  O   -0.017063   0.000245   0.233020   0.041333   0.000007   0.000000
    12  O    0.001481   0.199169  -0.000094   0.000006  -0.001936  -0.000146
    13  O    8.286167  -0.000070   0.000742   0.231974   0.003341  -0.000003
    14  H   -0.000070   0.320092   0.000024   0.000015  -0.000713   0.000019
    15  H    0.000742   0.000024   0.378580  -0.001036  -0.000000  -0.000000
    16  H    0.231974   0.000015  -0.001036   0.346762   0.000018  -0.000004
    17  C    0.003341  -0.000713  -0.000000   0.000018   4.944130   0.249060
    18  O   -0.000003   0.000019  -0.000000  -0.000004   0.249060   8.309203
    19  H   -0.000060  -0.000087   0.000000   0.000002   0.368437  -0.036351
    20  H   -0.000011   0.003828   0.000000   0.000000   0.344917  -0.028821
    21  H    0.000008  -0.000039   0.000000   0.000000  -0.024052   0.214715
    22  O    0.000002   0.078334   0.000074   0.000002  -0.001511   0.000020
    23  H   -0.000000  -0.000660  -0.000011   0.000001   0.000214  -0.000007
    24  H    0.000016   0.001875   0.008994  -0.000030   0.000033   0.000001
    25  H   -0.000069  -0.000059  -0.000018  -0.000005   0.000035  -0.000062
    26  O    0.000000   0.000206   0.000001   0.000000  -0.001112   0.000026
    27  H   -0.000000  -0.000003  -0.000001  -0.000000   0.000075  -0.000001
    28  O    0.000006   0.000634  -0.000000  -0.000000   0.002354  -0.024874
    29  H   -0.000003  -0.001708   0.000000   0.000000   0.000456   0.002015
    30  H   -0.000000  -0.000022   0.000000   0.000000   0.000001   0.001307
              19         20         21         22         23         24
     1  C   -0.000203   0.002033   0.000000   0.296458  -0.010824   0.351588
     2  O    0.002133   0.000764  -0.000060  -0.058137   0.006338  -0.046990
     3  C   -0.000063  -0.000732   0.000005  -0.048524   0.002100  -0.079235
     4  C   -0.000063   0.002259  -0.000232   0.001314  -0.000046   0.004461
     5  C    0.004473  -0.010364   0.001932  -0.000266   0.000033   0.000217
     6  C   -0.046797  -0.043124  -0.001245   0.005919  -0.000357   0.003031
     7  H   -0.000001  -0.000006   0.000000   0.003935  -0.000063   0.000033
     8  H    0.000357   0.000890   0.001141  -0.000008  -0.000003   0.000013
     9  H   -0.007539   0.005679  -0.000416  -0.000121  -0.000011  -0.000176
    10  H    0.000006   0.000017   0.000003  -0.000221   0.000004  -0.000198
    11  O   -0.000000  -0.000002  -0.000000   0.001792  -0.000032   0.001837
    12  O    0.000167   0.006850   0.000182  -0.030890   0.000142  -0.000350
    13  O   -0.000060  -0.000011   0.000008   0.000002  -0.000000   0.000016
    14  H   -0.000087   0.003828  -0.000039   0.078334  -0.000660   0.001875
    15  H    0.000000   0.000000   0.000000   0.000074  -0.000011   0.008994
    16  H    0.000002   0.000000   0.000000   0.000002   0.000001  -0.000030
    17  C    0.368437   0.344917  -0.024052  -0.001511   0.000214   0.000033
    18  O   -0.036351  -0.028821   0.214715   0.000020  -0.000007   0.000001
    19  H    0.587103  -0.039720   0.004706   0.000192   0.000150  -0.000006
    20  H   -0.039720   0.629824  -0.007418   0.004640   0.000349   0.000072
    21  H    0.004706  -0.007418   0.311542  -0.000001  -0.000000  -0.000000
    22  O    0.000192   0.004640  -0.000001   8.373533   0.088106  -0.044507
    23  H    0.000150   0.000349  -0.000000   0.088106   0.321374  -0.005723
    24  H   -0.000006   0.000072  -0.000000  -0.044507  -0.005723   0.695841
    25  H    0.004408  -0.000664   0.000007   0.006467  -0.014997   0.000088
    26  O    0.003424   0.000357  -0.000001  -0.060425   0.173442   0.003985
    27  H    0.000087   0.000027   0.000000   0.002226  -0.006688   0.000237
    28  O    0.000036   0.005183   0.066163  -0.000002   0.000000  -0.000000
    29  H    0.000029  -0.000385  -0.005258   0.000040  -0.000004   0.000001
    30  H    0.000009   0.000144  -0.003256   0.000000  -0.000000   0.000000
              25         26         27         28         29         30
     1  C   -0.012472   0.014647   0.000881  -0.000007   0.000019   0.000000
     2  O    0.157606  -0.063257   0.002239   0.000000   0.000001   0.000000
     3  C    0.002953   0.000322   0.000040  -0.000011   0.000524  -0.000001
     4  C   -0.000135  -0.000055   0.000001   0.001038  -0.004754  -0.000021
     5  C    0.002906  -0.000095   0.000003  -0.000481   0.000712   0.000111
     6  C   -0.012847   0.000561  -0.000018  -0.000778  -0.000476  -0.000012
     7  H   -0.000108   0.000007  -0.000001   0.000000  -0.000008  -0.000000
     8  H   -0.000101   0.000002  -0.000000   0.003794   0.000429  -0.000172
     9  H   -0.002652   0.000004   0.000003  -0.000000  -0.000008  -0.000000
    10  H    0.000014  -0.000000   0.000000   0.000050  -0.000415   0.000001
    11  O   -0.000047   0.000001  -0.000000   0.000000  -0.000004  -0.000000
    12  O   -0.000025  -0.000006   0.000000  -0.020674   0.058743   0.000884
    13  O   -0.000069   0.000000  -0.000000   0.000006  -0.000003  -0.000000
    14  H   -0.000059   0.000206  -0.000003   0.000634  -0.001708  -0.000022
    15  H   -0.000018   0.000001  -0.000001  -0.000000   0.000000   0.000000
    16  H   -0.000005   0.000000  -0.000000  -0.000000   0.000000   0.000000
    17  C    0.000035  -0.001112   0.000075   0.002354   0.000456   0.000001
    18  O   -0.000062   0.000026  -0.000001  -0.024874   0.002015   0.001307
    19  H    0.004408   0.003424   0.000087   0.000036   0.000029   0.000009
    20  H   -0.000664   0.000357   0.000027   0.005183  -0.000385   0.000144
    21  H    0.000007  -0.000001   0.000000   0.066163  -0.005258  -0.003256
    22  O    0.006467  -0.060425   0.002226  -0.000002   0.000040   0.000000
    23  H   -0.014997   0.173442  -0.006688   0.000000  -0.000004  -0.000000
    24  H    0.000088   0.003985   0.000237  -0.000000   0.000001   0.000000
    25  H    0.299159   0.108018  -0.004036   0.000000   0.000000   0.000000
    26  O    0.108018   8.398627   0.233893   0.000000   0.000000   0.000000
    27  H   -0.004036   0.233893   0.367046  -0.000000  -0.000000   0.000000
    28  O    0.000000   0.000000  -0.000000   8.340612   0.207638   0.239610
    29  H    0.000000   0.000000  -0.000000   0.207638   0.316326  -0.012786
    30  H    0.000000   0.000000   0.000000   0.239610  -0.012786   0.378152
 Mulliken charges:
               1
     1  C    0.286557
     2  O   -0.621045
     3  C    0.073442
     4  C    0.099410
     5  C    0.095455
     6  C    0.088622
     7  H    0.164270
     8  H    0.171984
     9  H    0.180687
    10  H    0.168341
    11  O   -0.636373
    12  O   -0.687051
    13  O   -0.650896
    14  H    0.441617
    15  H    0.406834
    16  H    0.419858
    17  C   -0.076032
    18  O   -0.652141
    19  H    0.155169
    20  H    0.123414
    21  H    0.441574
    22  O   -0.618443
    23  H    0.447173
    24  H    0.104889
    25  H    0.466634
    26  O   -0.812573
    27  H    0.403988
    28  O   -0.820292
    29  H    0.438875
    30  H    0.396052
 Sum of Mulliken charges =  -0.00000
 Mulliken charges with hydrogens summed into heavy atoms:
               1
     1  C    0.391446
     2  O   -0.154411
     3  C    0.237713
     4  C    0.267751
     5  C    0.267439
     6  C    0.269309
    11  O   -0.229539
    12  O   -0.245434
    13  O   -0.231038
    17  C    0.202551
    18  O   -0.210567
    22  O   -0.618443
    26  O    0.038588
    28  O    0.014635
 APT charges:
               1
     1  C   -0.306022
     2  O   -0.434060
     3  C   -0.357688
     4  C   -0.428520
     5  C   -0.291035
     6  C   -0.339481
     7  H    0.522123
     8  H    0.425319
     9  H    0.517833
    10  H    0.551580
    11  O   -0.912356
    12  O   -0.604101
    13  O   -0.652938
    14  H    0.425072
    15  H    0.794562
    16  H    0.516853
    17  C   -0.594304
    18  O   -0.603243
    19  H    0.501994
    20  H    0.223393
    21  H    0.474079
    22  O   -0.479669
    23  H    0.294406
    24  H    0.461460
    25  H    0.539826
    26  O   -1.231727
    27  H    0.933426
    28  O   -1.022819
    29  H    0.216432
    30  H    0.859606
 Sum of APT charges =  -0.00000
 APT charges with hydrogens summed into heavy atoms:
               1
     1  C    0.155438
     2  O    0.105767
     3  C    0.164436
     4  C    0.123060
     5  C    0.134284
     6  C    0.178351
    11  O   -0.117794
    12  O   -0.179029
    13  O   -0.136085
    17  C    0.131083
    18  O   -0.129165
    22  O   -0.479669
    26  O   -0.003895
    28  O    0.053219
 Electronic spatial extent (au):  <R**2>=           2773.7566
 Charge=              0.0000 electrons
 Dipole moment (field-independent basis, Debye):
    X=             -5.4080    Y=              2.2799    Z=             -2.1132  Tot=              6.2378
 Quadrupole moment (field-independent basis, Debye-Ang):
   XX=            -73.7637   YY=            -85.4387   ZZ=            -88.0442
   XY=             -2.4889   XZ=             -9.5728   YZ=              2.9182
 Traceless Quadrupole moment (field-independent basis, Debye-Ang):
   XX=              8.6519   YY=             -3.0232   ZZ=             -5.6287
   XY=             -2.4889   XZ=             -9.5728   YZ=              2.9182
 Octapole moment (field-independent basis, Debye-Ang**2):
  XXX=            -56.1756  YYY=             31.4556  ZZZ=             -8.4424  XYY=            -31.7006
  XXY=             12.4744  XXZ=            -28.2294  XZZ=              8.3547  YZZ=              7.7609
  YYZ=             -6.8651  XYZ=            -10.8324
 Hexadecapole moment (field-independent basis, Debye-Ang**3):
 XXXX=          -1259.1885 YYYY=          -1079.6317 ZZZZ=           -654.9697 XXXY=             13.8080
 XXXZ=           -134.5005 YYYX=           -115.4816 YYYZ=             15.6496 ZZZX=            -71.1795
 ZZZY=              8.3389 XXYY=           -384.8043 XXZZ=           -311.2228 YYZZ=           -315.3112
 XXYZ=            -35.3318 YYXZ=            -14.8447 ZZXY=             14.3188
 N-N= 1.146980459443D+03 E-N=-4.266031930321D+03  KE= 8.329210140720D+02
  Exact polarizability:   0.000   0.000   0.000   0.000   0.000   0.000
 Approx polarizability: 138.701  -1.975 129.038  -3.267  -6.570 135.894

 This type of calculation cannot be archived.


  ON THE CHOICE OF THE CORRECT LANGUAGE -
 I SPEAK SPANISH TO GOD, ITALIAN TO WOMEN,
 FRENCH TO MEN, AND GERMAN TO MY HORSE.
          -- CHARLES V
 Job cpu time:       0 days  2 hours 26 minutes 11.3 seconds.
 File lengths (MBytes):  RWF=    220 Int=      0 D2E=      0 Chk=      9 Scr=      1
 Normal termination of Gaussian 09 at Sun Jan  8 16:00:14 2017.
