 Entering Gaussian System, Link 0=g09
 Initial command:
 /global/software/gaussian/g09.e01/l1.exe "/scratch/10462936.yak.local/Gau-29766.inp" -scrdir="/scratch/10462936.yak.local/"
 Entering Link 1 = /global/software/gaussian/g09.e01/l1.exe PID=     29767.
  
 Copyright (c) 1988,1990,1992,1993,1995,1998,2003,2009,2015,
            Gaussian, Inc.  All Rights Reserved.
  
 This is part of the Gaussian(R) 09 program.  It is based on
 the Gaussian(R) 03 system (copyright 2003, Gaussian, Inc.),
 the Gaussian(R) 98 system (copyright 1998, Gaussian, Inc.),
 the Gaussian(R) 94 system (copyright 1995, Gaussian, Inc.),
 the Gaussian 92(TM) system (copyright 1992, Gaussian, Inc.),
 the Gaussian 90(TM) system (copyright 1990, Gaussian, Inc.),
 the Gaussian 88(TM) system (copyright 1988, Gaussian, Inc.),
 the Gaussian 86(TM) system (copyright 1986, Carnegie Mellon
 University), and the Gaussian 82(TM) system (copyright 1983,
 Carnegie Mellon University). Gaussian is a federally registered
 trademark of Gaussian, Inc.
  
 This software contains proprietary and confidential information,
 including trade secrets, belonging to Gaussian, Inc.
  
 This software is provided under written license and may be
 used, copied, transmitted, or stored only in accord with that
 written license.
  
 The following legend is applicable only to US Government
 contracts under FAR:
  
                    RESTRICTED RIGHTS LEGEND
  
 Use, reproduction and disclosure by the US Government is
 subject to restrictions as set forth in subparagraphs (a)
 and (c) of the Commercial Computer Software - Restricted
 Rights clause in FAR 52.227-19.
  
 Gaussian, Inc.
 340 Quinnipiac St., Bldg. 40, Wallingford CT 06492
  
  
 ---------------------------------------------------------------
 Warning -- This program may not be used in any manner that
 competes with the business of Gaussian, Inc. or will provide
 assistance to any competitor of Gaussian, Inc.  The licensee
 of this program is prohibited from giving any competitor of
 Gaussian, Inc. access to this program.  By using this program,
 the user acknowledges that Gaussian, Inc. is engaged in the
 business of creating and licensing software in the field of
 computational chemistry and represents and warrants to the
 licensee that it is not a competitor of Gaussian, Inc. and that
 it will not use this program in any manner prohibited above.
 ---------------------------------------------------------------
  

 Cite this work as:
 Gaussian 09, Revision E.01,
 M. J. Frisch, G. W. Trucks, H. B. Schlegel, G. E. Scuseria, 
 M. A. Robb, J. R. Cheeseman, G. Scalmani, V. Barone, B. Mennucci, 
 G. A. Petersson, H. Nakatsuji, M. Caricato, X. Li, H. P. Hratchian, 
 A. F. Izmaylov, J. Bloino, G. Zheng, J. L. Sonnenberg, M. Hada, 
 M. Ehara, K. Toyota, R. Fukuda, J. Hasegawa, M. Ishida, T. Nakajima, 
 Y. Honda, O. Kitao, H. Nakai, T. Vreven, J. A. Montgomery, Jr., 
 J. E. Peralta, F. Ogliaro, M. Bearpark, J. J. Heyd, E. Brothers, 
 K. N. Kudin, V. N. Staroverov, T. Keith, R. Kobayashi, J. Normand, 
 K. Raghavachari, A. Rendell, J. C. Burant, S. S. Iyengar, J. Tomasi, 
 M. Cossi, N. Rega, J. M. Millam, M. Klene, J. E. Knox, J. B. Cross, 
 V. Bakken, C. Adamo, J. Jaramillo, R. Gomperts, R. E. Stratmann, 
 O. Yazyev, A. J. Austin, R. Cammi, C. Pomelli, J. W. Ochterski, 
 R. L. Martin, K. Morokuma, V. G. Zakrzewski, G. A. Voth, 
 P. Salvador, J. J. Dannenberg, S. Dapprich, A. D. Daniels, 
 O. Farkas, J. B. Foresman, J. V. Ortiz, J. Cioslowski, 
 and D. J. Fox, Gaussian, Inc., Wallingford CT, 2013.
 
 ******************************************
 Gaussian 09:  ES64L-G09RevE.01 30-Nov-2015
                15-Jan-2017 
 ******************************************
 %NPROCS=4
 Will use up to    4 processors via shared memory.
 -----------------------------------------
 # opt=(MaxCycle=1000) freq B3LYP/6-31G(d)
 -----------------------------------------
 1/6=1000,14=-1,18=20,19=15,26=3,38=1/1,3;
 2/9=110,12=2,17=6,18=5,40=1/2;
 3/5=1,6=6,7=1,11=2,16=1,25=1,30=1,71=1,74=-5/1,2,3;
 4//1;
 5/5=2,38=5/2;
 6/7=2,8=2,9=2,10=2,28=1/1;
 7//1,2,3,16;
 1/6=1000,14=-1,18=20,19=15,26=3/3(2);
 2/9=110/2;
 99//99;
 2/9=110/2;
 3/5=1,6=6,7=1,11=2,16=1,25=1,30=1,71=1,74=-5/1,2,3;
 4/5=5,16=3,69=1/1;
 5/5=2,38=5/2;
 7//1,2,3,16;
 1/6=1000,14=-1,18=20,19=15,26=3/3(-5);
 2/9=110/2;
 6/7=2,8=2,9=2,10=2,19=2,28=1/1;
 99/9=1/99;
 ------------------------------------------------
 ./boats/5/glo_2w_beta_ts_boat5_B3LYP_631Gd_r.out
 ------------------------------------------------
 Symbolic Z-matrix:
 Charge =  0 Multiplicity = 1
 O                     0.38649   0.78802  -0.59315 
 C                    -1.41768  -0.17375   0.74586 
 C                     0.18808  -1.80547  -0.36408 
 C                    -0.42522  -1.34366   0.96105 
 C                     1.06794  -0.74905  -1.09529 
 C                    -1.02586   0.72292  -0.45016 
 H                    -1.00741  -2.18122   1.36756 
 H                    -1.40559   0.25156  -1.36437 
 H                    -1.43212   0.42772   1.66416 
 H                     0.86184  -2.65081  -0.17461 
 C                    -1.61893   2.12479  -0.35982 
 H                    -1.26265   2.72254  -1.20493 
 H                    -1.26169   2.61089   0.5651 
 H                     0.73894  -0.60369  -2.15052 
 O                     2.28463  -0.74522  -0.79774 
 O                    -3.03289   2.08956  -0.42463 
 H                    -3.33224   1.29768   0.05745 
 O                    -0.94771  -2.22397  -1.13452 
 H                    -0.66048  -2.3625   -2.0509 
 O                     0.6357   -1.01859   1.86915 
 H                     0.2513   -0.96132   2.75773 
 O                    -2.75666  -0.64883   0.58914 
 H                    -2.73617  -1.24577  -0.18174 
 O                     3.82975   1.25198  -0.39994 
 H                     2.75455   1.38699   0.73851 
 H                     4.65169   0.83917  -0.09435 
 H                     3.31751   0.50272  -0.82164 
 O                     1.87928   1.32671   1.25181 
 H                     0.9821    1.12109   0.26316 
 H                     1.83278   0.41721   1.6092 
 
 Add virtual bond connecting atoms H29        and O28        Dist= 2.55D+00.
 Add virtual bond connecting atoms O15        and H27        Dist= 3.06D+00.
 Add virtual bond connecting atoms H25        and O24        Dist= 2.97D+00.

 GradGradGradGradGradGradGradGradGradGradGradGradGradGradGradGradGradGrad
 Berny optimization.
 Initialization pass.
                           ----------------------------
                           !    Initial Parameters    !
                           ! (Angstroms and Degrees)  !
 --------------------------                            --------------------------
 ! Name  Definition              Value          Derivative Info.                !
 --------------------------------------------------------------------------------
 ! R1    R(1,6)                  1.4211         estimate D2E/DX2                !
 ! R2    R(1,29)                 1.095          estimate D2E/DX2                !
 ! R3    R(2,4)                  1.5492         estimate D2E/DX2                !
 ! R4    R(2,6)                  1.5453         estimate D2E/DX2                !
 ! R5    R(2,9)                  1.0978         estimate D2E/DX2                !
 ! R6    R(2,22)                 1.4294         estimate D2E/DX2                !
 ! R7    R(3,4)                  1.5315         estimate D2E/DX2                !
 ! R8    R(3,5)                  1.5572         estimate D2E/DX2                !
 ! R9    R(3,10)                 1.0975         estimate D2E/DX2                !
 ! R10   R(3,18)                 1.4348         estimate D2E/DX2                !
 ! R11   R(4,7)                  1.098          estimate D2E/DX2                !
 ! R12   R(4,20)                 1.4338         estimate D2E/DX2                !
 ! R13   R(5,14)                 1.1148         estimate D2E/DX2                !
 ! R14   R(5,15)                 1.2526         estimate D2E/DX2                !
 ! R15   R(6,8)                  1.0964         estimate D2E/DX2                !
 ! R16   R(6,11)                 1.5248         estimate D2E/DX2                !
 ! R17   R(11,12)                1.0947         estimate D2E/DX2                !
 ! R18   R(11,13)                1.1043         estimate D2E/DX2                !
 ! R19   R(11,16)                1.4159         estimate D2E/DX2                !
 ! R20   R(15,27)                1.6201         estimate D2E/DX2                !
 ! R21   R(16,17)                0.9742         estimate D2E/DX2                !
 ! R22   R(18,19)                0.9703         estimate D2E/DX2                !
 ! R23   R(20,21)                0.9699         estimate D2E/DX2                !
 ! R24   R(22,23)                0.9752         estimate D2E/DX2                !
 ! R25   R(24,25)                1.5717         estimate D2E/DX2                !
 ! R26   R(24,26)                0.9692         estimate D2E/DX2                !
 ! R27   R(24,27)                1.0008         estimate D2E/DX2                !
 ! R28   R(25,28)                1.0165         estimate D2E/DX2                !
 ! R29   R(28,29)                1.3508         estimate D2E/DX2                !
 ! R30   R(28,30)                0.9783         estimate D2E/DX2                !
 ! A1    A(6,1,29)             118.4155         estimate D2E/DX2                !
 ! A2    A(4,2,6)              112.5361         estimate D2E/DX2                !
 ! A3    A(4,2,9)              107.8168         estimate D2E/DX2                !
 ! A4    A(4,2,22)             111.3676         estimate D2E/DX2                !
 ! A5    A(6,2,9)              109.4404         estimate D2E/DX2                !
 ! A6    A(6,2,22)             110.2132         estimate D2E/DX2                !
 ! A7    A(9,2,22)             105.1581         estimate D2E/DX2                !
 ! A8    A(4,3,5)              115.3411         estimate D2E/DX2                !
 ! A9    A(4,3,10)             109.1925         estimate D2E/DX2                !
 ! A10   A(4,3,18)             103.6247         estimate D2E/DX2                !
 ! A11   A(5,3,10)             104.8767         estimate D2E/DX2                !
 ! A12   A(5,3,18)             113.1416         estimate D2E/DX2                !
 ! A13   A(10,3,18)            110.7326         estimate D2E/DX2                !
 ! A14   A(2,4,3)              111.3513         estimate D2E/DX2                !
 ! A15   A(2,4,7)              106.7255         estimate D2E/DX2                !
 ! A16   A(2,4,20)             113.0032         estimate D2E/DX2                !
 ! A17   A(3,4,7)              107.6169         estimate D2E/DX2                !
 ! A18   A(3,4,20)             108.6667         estimate D2E/DX2                !
 ! A19   A(7,4,20)             109.3157         estimate D2E/DX2                !
 ! A20   A(3,5,14)             111.4796         estimate D2E/DX2                !
 ! A21   A(3,5,15)             116.0642         estimate D2E/DX2                !
 ! A22   A(14,5,15)            120.7379         estimate D2E/DX2                !
 ! A23   A(1,6,2)              110.8828         estimate D2E/DX2                !
 ! A24   A(1,6,8)              106.2605         estimate D2E/DX2                !
 ! A25   A(1,6,11)             110.5118         estimate D2E/DX2                !
 ! A26   A(2,6,8)              107.943          estimate D2E/DX2                !
 ! A27   A(2,6,11)             112.8914         estimate D2E/DX2                !
 ! A28   A(8,6,11)             108.0552         estimate D2E/DX2                !
 ! A29   A(6,11,12)            109.2489         estimate D2E/DX2                !
 ! A30   A(6,11,13)            109.1779         estimate D2E/DX2                !
 ! A31   A(6,11,16)            111.2737         estimate D2E/DX2                !
 ! A32   A(12,11,13)           107.5149         estimate D2E/DX2                !
 ! A33   A(12,11,16)           107.6533         estimate D2E/DX2                !
 ! A34   A(13,11,16)           111.8615         estimate D2E/DX2                !
 ! A35   A(5,15,27)            128.18           estimate D2E/DX2                !
 ! A36   A(11,16,17)           107.724          estimate D2E/DX2                !
 ! A37   A(3,18,19)            108.3269         estimate D2E/DX2                !
 ! A38   A(4,20,21)            107.4808         estimate D2E/DX2                !
 ! A39   A(2,22,23)            105.6903         estimate D2E/DX2                !
 ! A40   A(25,24,26)           112.8515         estimate D2E/DX2                !
 ! A41   A(25,24,27)            91.1103         estimate D2E/DX2                !
 ! A42   A(26,24,27)           104.3614         estimate D2E/DX2                !
 ! A43   A(24,25,28)           161.757          estimate D2E/DX2                !
 ! A44   A(15,27,24)           153.7364         estimate D2E/DX2                !
 ! A45   A(25,28,29)           102.2016         estimate D2E/DX2                !
 ! A46   A(25,28,30)           106.2924         estimate D2E/DX2                !
 ! A47   A(29,28,30)            95.4105         estimate D2E/DX2                !
 ! A48   L(1,29,28,4,-1)       176.4958         estimate D2E/DX2                !
 ! A49   L(1,29,28,4,-2)       168.5176         estimate D2E/DX2                !
 ! D1    D(29,1,6,2)           -55.9192         estimate D2E/DX2                !
 ! D2    D(29,1,6,8)          -172.968          estimate D2E/DX2                !
 ! D3    D(29,1,6,11)           70.0429         estimate D2E/DX2                !
 ! D4    D(6,1,28,25)         -173.3371         estimate D2E/DX2                !
 ! D5    D(6,1,28,30)           79.7372         estimate D2E/DX2                !
 ! D6    D(6,2,4,3)            -31.2034         estimate D2E/DX2                !
 ! D7    D(6,2,4,7)           -148.3829         estimate D2E/DX2                !
 ! D8    D(6,2,4,20)            91.4321         estimate D2E/DX2                !
 ! D9    D(9,2,4,3)           -151.991          estimate D2E/DX2                !
 ! D10   D(9,2,4,7)             90.8296         estimate D2E/DX2                !
 ! D11   D(9,2,4,20)           -29.3555         estimate D2E/DX2                !
 ! D12   D(22,2,4,3)            93.1321         estimate D2E/DX2                !
 ! D13   D(22,2,4,7)           -24.0473         estimate D2E/DX2                !
 ! D14   D(22,2,4,20)         -144.2324         estimate D2E/DX2                !
 ! D15   D(4,2,6,1)            -32.8769         estimate D2E/DX2                !
 ! D16   D(4,2,6,8)             83.1349         estimate D2E/DX2                !
 ! D17   D(4,2,6,11)          -157.501          estimate D2E/DX2                !
 ! D18   D(9,2,6,1)             86.9747         estimate D2E/DX2                !
 ! D19   D(9,2,6,8)           -157.0134         estimate D2E/DX2                !
 ! D20   D(9,2,6,11)           -37.6494         estimate D2E/DX2                !
 ! D21   D(22,2,6,1)          -157.8465         estimate D2E/DX2                !
 ! D22   D(22,2,6,8)           -41.8347         estimate D2E/DX2                !
 ! D23   D(22,2,6,11)           77.5294         estimate D2E/DX2                !
 ! D24   D(4,2,22,23)          -58.7993         estimate D2E/DX2                !
 ! D25   D(6,2,22,23)           66.8355         estimate D2E/DX2                !
 ! D26   D(9,2,22,23)         -175.3119         estimate D2E/DX2                !
 ! D27   D(5,3,4,2)             63.8177         estimate D2E/DX2                !
 ! D28   D(5,3,4,7)           -179.5456         estimate D2E/DX2                !
 ! D29   D(5,3,4,20)           -61.2778         estimate D2E/DX2                !
 ! D30   D(10,3,4,2)          -178.4307         estimate D2E/DX2                !
 ! D31   D(10,3,4,7)           -61.794          estimate D2E/DX2                !
 ! D32   D(10,3,4,20)           56.4739         estimate D2E/DX2                !
 ! D33   D(18,3,4,2)           -60.3922         estimate D2E/DX2                !
 ! D34   D(18,3,4,7)            56.2445         estimate D2E/DX2                !
 ! D35   D(18,3,4,20)          174.5123         estimate D2E/DX2                !
 ! D36   D(4,3,5,14)          -126.8849         estimate D2E/DX2                !
 ! D37   D(4,3,5,15)            89.6099         estimate D2E/DX2                !
 ! D38   D(10,3,5,14)          112.972          estimate D2E/DX2                !
 ! D39   D(10,3,5,15)          -30.5332         estimate D2E/DX2                !
 ! D40   D(18,3,5,14)           -7.8164         estimate D2E/DX2                !
 ! D41   D(18,3,5,15)         -151.3217         estimate D2E/DX2                !
 ! D42   D(4,3,18,19)          168.718          estimate D2E/DX2                !
 ! D43   D(5,3,18,19)           43.0893         estimate D2E/DX2                !
 ! D44   D(10,3,18,19)         -74.3181         estimate D2E/DX2                !
 ! D45   D(2,4,20,21)           70.8075         estimate D2E/DX2                !
 ! D46   D(3,4,20,21)         -165.0729         estimate D2E/DX2                !
 ! D47   D(7,4,20,21)          -47.8843         estimate D2E/DX2                !
 ! D48   D(3,5,15,27)         -151.0891         estimate D2E/DX2                !
 ! D49   D(14,5,15,27)          68.9943         estimate D2E/DX2                !
 ! D50   D(1,6,11,12)           52.2243         estimate D2E/DX2                !
 ! D51   D(1,6,11,13)          -65.0955         estimate D2E/DX2                !
 ! D52   D(1,6,11,16)          170.9529         estimate D2E/DX2                !
 ! D53   D(2,6,11,12)          177.0506         estimate D2E/DX2                !
 ! D54   D(2,6,11,13)           59.7309         estimate D2E/DX2                !
 ! D55   D(2,6,11,16)          -64.2207         estimate D2E/DX2                !
 ! D56   D(8,6,11,12)          -63.6502         estimate D2E/DX2                !
 ! D57   D(8,6,11,13)          179.0301         estimate D2E/DX2                !
 ! D58   D(8,6,11,16)           55.0785         estimate D2E/DX2                !
 ! D59   D(6,11,16,17)          36.9969         estimate D2E/DX2                !
 ! D60   D(12,11,16,17)        156.678          estimate D2E/DX2                !
 ! D61   D(13,11,16,17)        -85.4187         estimate D2E/DX2                !
 ! D62   D(5,15,27,24)          97.4726         estimate D2E/DX2                !
 ! D63   D(26,24,25,28)       -127.8326         estimate D2E/DX2                !
 ! D64   D(27,24,25,28)        -21.7286         estimate D2E/DX2                !
 ! D65   D(25,24,27,15)        -25.8868         estimate D2E/DX2                !
 ! D66   D(26,24,27,15)         88.0613         estimate D2E/DX2                !
 ! D67   D(24,25,28,29)        -18.8409         estimate D2E/DX2                !
 ! D68   D(24,25,28,30)         80.5812         estimate D2E/DX2                !
 --------------------------------------------------------------------------------
 Trust Radius=3.00D-01 FncErr=1.00D-07 GrdErr=1.00D-06
 Number of steps in this run=    180 maximum allowed number of steps=    180.
 GradGradGradGradGradGradGradGradGradGradGradGradGradGradGradGradGradGrad

                          Input orientation:                          
 ---------------------------------------------------------------------
 Center     Atomic      Atomic             Coordinates (Angstroms)
 Number     Number       Type             X           Y           Z
 ---------------------------------------------------------------------
      1          8           0        0.386490    0.788020   -0.593150
      2          6           0       -1.417680   -0.173750    0.745860
      3          6           0        0.188080   -1.805470   -0.364080
      4          6           0       -0.425220   -1.343660    0.961050
      5          6           0        1.067940   -0.749050   -1.095290
      6          6           0       -1.025860    0.722920   -0.450160
      7          1           0       -1.007410   -2.181220    1.367560
      8          1           0       -1.405590    0.251560   -1.364370
      9          1           0       -1.432120    0.427720    1.664160
     10          1           0        0.861840   -2.650810   -0.174610
     11          6           0       -1.618930    2.124790   -0.359820
     12          1           0       -1.262650    2.722540   -1.204930
     13          1           0       -1.261690    2.610890    0.565100
     14          1           0        0.738940   -0.603690   -2.150520
     15          8           0        2.284630   -0.745220   -0.797740
     16          8           0       -3.032890    2.089560   -0.424630
     17          1           0       -3.332240    1.297680    0.057450
     18          8           0       -0.947710   -2.223970   -1.134520
     19          1           0       -0.660480   -2.362500   -2.050900
     20          8           0        0.635700   -1.018590    1.869150
     21          1           0        0.251300   -0.961320    2.757730
     22          8           0       -2.756660   -0.648830    0.589140
     23          1           0       -2.736170   -1.245770   -0.181740
     24          8           0        3.829750    1.251980   -0.399940
     25          1           0        2.754550    1.386990    0.738510
     26          1           0        4.651690    0.839170   -0.094350
     27          1           0        3.317510    0.502720   -0.821640
     28          8           0        1.879280    1.326710    1.251810
     29          1           0        0.982100    1.121090    0.263160
     30          1           0        1.832780    0.417210    1.609200
 ---------------------------------------------------------------------
                    Distance matrix (angstroms):
                    1          2          3          4          5
     1  O    0.000000
     2  C    2.443968   0.000000
     3  C    2.611136   2.544198   0.000000
     4  C    2.760158   1.549185   1.531462   0.000000
     5  C    1.754737   3.146285   1.557191   2.609908   0.000000
     6  C    1.421062   1.545317   2.806032   2.573526   2.639486
     7  H    3.821482   2.141207   2.137513   1.098045   3.524744
     8  H    2.023393   2.152697   2.787783   2.985537   2.681786
     9  H    2.921063   1.097839   3.424316   2.155458   3.905080
    10  H    3.496668   3.489886   1.097475   2.157519   2.122927
    11  C    2.421385   2.558577   4.325765   3.898690   4.002392
    12  H    2.614633   3.495442   4.828511   4.682600   4.182775
    13  H    2.716780   2.794857   4.740195   4.061394   4.412853
    14  H    2.118131   3.636602   2.222406   3.403629   1.114846
    15  O    2.448595   4.051713   2.389082   3.285538   1.252551
    16  O    3.662590   3.016873   5.054659   4.528471   5.032325
    17  H    3.809460   2.510887   4.711675   4.030377   4.987935
    18  O    3.338451   2.821365   1.434831   2.332243   2.497954
    19  H    3.625873   3.631232   1.968679   3.188295   2.550264
    20  O    3.064126   2.488354   2.409743   1.433830   3.007888
    21  H    3.782441   2.730088   3.234545   1.957530   3.944328
    22  O    3.652635   1.429381   3.304230   2.461040   4.180301
    23  H    3.749209   1.935997   2.982910   2.579930   3.943673
    24  O    3.479745   5.557075   4.755107   5.166663   3.480693
    25  H    2.782048   4.454601   4.241966   4.197250   3.281790
    26  H    4.294572   6.210412   5.195256   5.626156   4.045688
    27  H    2.953723   5.033557   3.915410   4.538186   2.588895
    28  O    2.433616   3.657501   3.909196   3.539228   3.236654
    29  H    1.094967   2.769215   3.096555   2.922771   2.313045
    30  H    2.660752   3.414686   3.396937   2.935869   3.042928
                    6          7          8          9         10
     6  C    0.000000
     7  H    3.426146   0.000000
     8  H    1.096428   3.679729   0.000000
     9  H    2.173140   2.659872   3.033765   0.000000
    10  H    3.875744   2.468380   3.870468   4.256839   0.000000
    11  C    1.524839   4.679692   2.136264   2.647912   5.384689
    12  H    2.150402   5.543439   2.480241   3.677852   5.869234
    13  H    2.156571   4.865482   3.051229   2.450145   5.722066
    14  H    2.786689   4.232638   2.438953   4.508779   2.847811
    15  O    3.638075   4.193823   3.864242   4.609877   2.458434
    16  O    2.428276   5.055104   2.628585   3.112430   6.140239
    17  H    2.430516   4.384515   2.613029   2.636058   5.764957
    18  O    3.026321   2.503157   2.527990   3.885707   2.092389
    19  H    3.495095   3.440798   2.803537   4.709822   2.433320
    20  O    3.342579   2.074394   4.029367   2.531741   2.625307
    21  H    3.841661   2.237204   4.605222   2.441153   3.438859
    22  O    2.440801   2.452352   2.540137   2.017185   4.205328
    23  H    2.621631   2.502800   2.326167   2.812199   3.862624
    24  O    4.884606   6.189429   5.416618   5.712021   4.908262
    25  H    4.018137   5.223042   4.797715   4.393772   4.551919
    26  H    5.689876   6.579160   6.216822   6.346211   5.152608
    27  H    4.364785   5.540854   4.760810   5.361326   4.048915
    28  O    3.420687   4.544442   4.334826   3.455949   4.346323
    29  H    2.167780   4.010374   3.017615   2.876112   3.799123
    30  H    3.536417   3.857059   4.399613   3.265379   3.679327
                   11         12         13         14         15
    11  C    0.000000
    12  H    1.094738   0.000000
    13  H    1.104260   1.773548   0.000000
    14  H    4.026259   3.995536   4.659467   0.000000
    15  O    4.864824   4.977385   5.069240   2.058932   0.000000
    16  O    1.415883   2.035505   2.094875   4.945603   6.037484
    17  H    1.947731   2.811945   2.503878   5.006480   6.037716
    18  O    4.467931   4.957026   5.134507   2.549971   3.570454
    19  H    4.890210   5.189981   5.651506   2.249825   3.586039
    20  O    4.464583   5.200938   4.298111   4.042344   3.147380
    21  H    4.768748   5.618322   4.456170   4.945362   4.101524
    22  O    3.144507   4.100840   3.586264   4.441508   5.229468
    23  H    3.555364   4.354958   4.195913   4.045337   5.083152
    24  O    5.518290   5.361259   5.357303   4.007636   2.556257
    25  H    4.569246   4.658170   4.202164   4.046231   2.669683
    26  H    6.406557   6.305544   6.208215   4.649655   2.933943
    27  H    5.216592   5.104153   5.228432   3.104688   1.620113
    28  O    3.933415   4.225593   3.462135   4.074637   2.942424
    29  H    2.856724   3.123913   2.710215   2.976549   2.511017
    30  H    4.325179   4.776564   3.934224   4.046507   2.710862
                   16         17         18         19         20
    16  O    0.000000
    17  H    0.974210   0.000000
    18  O    4.843393   4.416876   0.000000
    19  H    5.300370   4.998035   0.970280   0.000000
    20  O    5.327342   4.938817   3.603077   4.342001   0.000000
    21  H    5.497380   5.023580   4.263979   5.090930   0.969854
    22  O    2.933055   2.098306   2.953704   3.781593   3.644620
    23  H    3.357300   2.623290   2.250168   3.008211   3.953134
    24  O    6.913608   7.176726   5.953651   5.996024   4.528379
    25  H    5.944826   6.125425   5.500364   5.788084   3.399219
    26  H    7.792646   7.998526   6.466689   6.503686   4.840948
    27  H    6.557687   6.754549   5.071965   5.054203   4.092290
    28  O    5.246123   5.346707   5.127745   5.564939   2.725442
    29  H    4.187020   4.322850   4.106958   4.493144   2.697671
    30  H    5.532446   5.464484   4.715396   5.228715   1.887352
                   21         22         23         24         25
    21  H    0.000000
    22  O    3.721324   0.000000
    23  H    4.200759   0.975199   0.000000
    24  O    5.260692   6.926193   7.028348   0.000000
    25  H    3.982219   5.877100   6.158433   1.571735   0.000000
    26  H    5.544327   7.587157   7.676919   0.969218   2.143106
    27  H    4.935276   6.341286   6.333540   1.000805   1.879608
    28  O    3.186408   5.082699   5.474952   2.556990   1.016468
    29  H    3.330673   4.149362   4.430067   2.926763   1.854249
    30  H    2.391766   4.820780   5.181532   2.953197   1.596319
                   26         27         28         29         30
    26  H    0.000000
    27  H    1.556337   0.000000
    28  O    3.120272   2.654555   0.000000
    29  H    3.697727   2.648266   1.350792   0.000000
    30  H    3.320600   2.849687   0.978305   1.740956   0.000000
 Stoichiometry    C6H16O8
 Framework group  C1[X(C6H16O8)]
 Deg. of freedom    84
 Full point group                 C1      NOp   1
 Largest Abelian subgroup         C1      NOp   1
 Largest concise Abelian subgroup C1      NOp   1
                         Standard orientation:                         
 ---------------------------------------------------------------------
 Center     Atomic      Atomic             Coordinates (Angstroms)
 Number     Number       Type             X           Y           Z
 ---------------------------------------------------------------------
      1          8           0        0.377387    0.782167   -0.595742
      2          6           0       -1.432422   -0.186810    0.730400
      3          6           0        0.191029   -1.811924   -0.363379
      4          6           0       -0.435486   -1.350967    0.955853
      5          6           0        1.071126   -0.752143   -1.089423
      6          6           0       -1.035709    0.709740   -0.464096
      7          1           0       -1.016461   -2.190891    1.359210
      8          1           0       -1.405465    0.234655   -1.380464
      9          1           0       -1.457548    0.416272    1.647412
     10          1           0        0.867749   -2.653277   -0.166847
     11          6           0       -1.637000    2.108566   -0.381227
     12          1           0       -1.277074    2.706658   -1.224548
     13          1           0       -1.289899    2.598290    0.545640
     14          1           0        0.749937   -0.610507   -2.147562
     15          8           0        2.285320   -0.741222   -0.782016
     16          8           0       -3.050177    2.065615   -0.457444
     17          1           0       -3.349185    1.273030    0.023689
     18          8           0       -0.936203   -2.237948   -1.142218
     19          1           0       -0.640797   -2.376627   -2.055973
     20          8           0        0.616262   -1.018519    1.871916
     21          1           0        0.224352   -0.961672    2.757237
     22          8           0       -2.767518   -0.669370    0.563718
     23          1           0       -2.737565   -1.267617   -0.205839
     24          8           0        3.816427    1.264989   -0.375471
     25          1           0        2.731303    1.396322    0.753957
     26          1           0        4.638058    0.857170   -0.062439
     27          1           0        3.311655    0.512207   -0.799895
     28          8           0        1.852226    1.332287    1.260250
     29          1           0        0.964225    1.120018    0.264742
     30          1           0        1.807700    0.423213    1.618972
 ---------------------------------------------------------------------
 Rotational constants (GHZ):      0.8306269      0.4956109      0.4080895
 Standard basis: 6-31G(d) (6D, 7F)
 There are   242 symmetry adapted cartesian basis functions of A   symmetry.
 There are   242 symmetry adapted basis functions of A   symmetry.
   242 basis functions,   456 primitive gaussians,   242 cartesian basis functions
    58 alpha electrons       58 beta electrons
       nuclear repulsion energy      1130.3627961219 Hartrees.
 NAtoms=   30 NActive=   30 NUniq=   30 SFac= 1.00D+00 NAtFMM=   60 NAOKFM=F Big=F
 Integral buffers will be    131072 words long.
 Raffenetti 2 integral format.
 Two-electron integral symmetry is turned on.
 One-electron integrals computed using PRISM.
 NBasis=   242 RedAO= T EigKep=  1.56D-03  NBF=   242
 NBsUse=   242 1.00D-06 EigRej= -1.00D+00 NBFU=   242
 ExpMin= 1.61D-01 ExpMax= 5.48D+03 ExpMxC= 8.25D+02 IAcc=1 IRadAn=         1 AccDes= 0.00D+00
 Harris functional with IExCor=  402 and IRadAn=       1 diagonalized for initial guess.
 HarFok:  IExCor=  402 AccDes= 0.00D+00 IRadAn=         1 IDoV= 1 UseB2=F ITyADJ=14
 ICtDFT=  3500011 ScaDFX=  1.000000  1.000000  1.000000  1.000000
 FoFCou: FMM=F IPFlag=           0 FMFlag=      100000 FMFlg1=           0
         NFxFlg=           0 DoJE=T BraDBF=F KetDBF=T FulRan=T
         wScrn=  0.000000 ICntrl=     500 IOpCl=  0 I1Cent=   200000004 NGrid=           0
         NMat0=    1 NMatS0=      1 NMatT0=    0 NMatD0=    1 NMtDS0=    0 NMtDT0=    0
 Petite list used in FoFCou.
 Requested convergence on RMS density matrix=1.00D-08 within 128 cycles.
 Requested convergence on MAX density matrix=1.00D-06.
 Requested convergence on             energy=1.00D-06.
 No special actions if energy rises.
 Integral accuracy reduced to 1.0D-05 until final iterations.
 Initial convergence to 1.0D-05 achieved.  Increase integral accuracy.
 SCF Done:  E(RB3LYP) =  -839.963900711     A.U. after   14 cycles
            NFock= 14  Conv=0.68D-08     -V/T= 2.0084

 **********************************************************************

            Population analysis using the SCF density.

 **********************************************************************

 Orbital symmetries:
       Occupied  (A) (A) (A) (A) (A) (A) (A) (A) (A) (A) (A) (A)
                 (A) (A) (A) (A) (A) (A) (A) (A) (A) (A) (A) (A)
                 (A) (A) (A) (A) (A) (A) (A) (A) (A) (A) (A) (A)
                 (A) (A) (A) (A) (A) (A) (A) (A) (A) (A) (A) (A)
                 (A) (A) (A) (A) (A) (A) (A) (A) (A) (A)
       Virtual   (A) (A) (A) (A) (A) (A) (A) (A) (A) (A) (A) (A)
                 (A) (A) (A) (A) (A) (A) (A) (A) (A) (A) (A) (A)
                 (A) (A) (A) (A) (A) (A) (A) (A) (A) (A) (A) (A)
                 (A) (A) (A) (A) (A) (A) (A) (A) (A) (A) (A) (A)
                 (A) (A) (A) (A) (A) (A) (A) (A) (A) (A) (A) (A)
                 (A) (A) (A) (A) (A) (A) (A) (A) (A) (A) (A) (A)
                 (A) (A) (A) (A) (A) (A) (A) (A) (A) (A) (A) (A)
                 (A) (A) (A) (A) (A) (A) (A) (A) (A) (A) (A) (A)
                 (A) (A) (A) (A) (A) (A) (A) (A) (A) (A) (A) (A)
                 (A) (A) (A) (A) (A) (A) (A) (A) (A) (A) (A) (A)
                 (A) (A) (A) (A) (A) (A) (A) (A) (A) (A) (A) (A)
                 (A) (A) (A) (A) (A) (A) (A) (A) (A) (A) (A) (A)
                 (A) (A) (A) (A) (A) (A) (A) (A) (A) (A) (A) (A)
                 (A) (A) (A) (A) (A) (A) (A) (A) (A) (A) (A) (A)
                 (A) (A) (A) (A) (A) (A) (A) (A) (A) (A) (A) (A)
                 (A) (A) (A) (A)
 The electronic state is 1-A.
 Alpha  occ. eigenvalues --  -19.18849 -19.18136 -19.17658 -19.17136 -19.14971
 Alpha  occ. eigenvalues --  -19.14023 -19.13417 -19.09979 -10.28575 -10.26505
 Alpha  occ. eigenvalues --  -10.25710 -10.25388 -10.24995 -10.23075  -1.07261
 Alpha  occ. eigenvalues --   -1.05187  -1.04815  -1.04173  -1.01456  -1.00808
 Alpha  occ. eigenvalues --   -1.00198  -0.98478  -0.79184  -0.75583  -0.69522
 Alpha  occ. eigenvalues --   -0.65777  -0.62344  -0.59663  -0.57245  -0.54855
 Alpha  occ. eigenvalues --   -0.53710  -0.52485  -0.51971  -0.50862  -0.50478
 Alpha  occ. eigenvalues --   -0.47293  -0.46434  -0.44897  -0.43931  -0.43301
 Alpha  occ. eigenvalues --   -0.41873  -0.41704  -0.40230  -0.39750  -0.38851
 Alpha  occ. eigenvalues --   -0.38078  -0.37391  -0.36050  -0.34530  -0.33183
 Alpha  occ. eigenvalues --   -0.32481  -0.30879  -0.29906  -0.29734  -0.27456
 Alpha  occ. eigenvalues --   -0.27070  -0.25304  -0.23374
 Alpha virt. eigenvalues --    0.01956   0.04542   0.05898   0.07679   0.08663
 Alpha virt. eigenvalues --    0.09264   0.11400   0.11939   0.12851   0.13939
 Alpha virt. eigenvalues --    0.15347   0.15827   0.16397   0.18661   0.19617
 Alpha virt. eigenvalues --    0.20226   0.21035   0.21993   0.22567   0.23701
 Alpha virt. eigenvalues --    0.25783   0.26355   0.26479   0.28751   0.30153
 Alpha virt. eigenvalues --    0.31516   0.31940   0.35656   0.51267   0.52928
 Alpha virt. eigenvalues --    0.54569   0.56296   0.56608   0.57659   0.58098
 Alpha virt. eigenvalues --    0.59699   0.61522   0.62711   0.63570   0.65904
 Alpha virt. eigenvalues --    0.68518   0.70077   0.71972   0.73487   0.74682
 Alpha virt. eigenvalues --    0.75890   0.76676   0.78551   0.79438   0.80464
 Alpha virt. eigenvalues --    0.80507   0.82167   0.82408   0.83295   0.84225
 Alpha virt. eigenvalues --    0.85270   0.86749   0.87094   0.88496   0.90086
 Alpha virt. eigenvalues --    0.90725   0.90977   0.92689   0.93698   0.94493
 Alpha virt. eigenvalues --    0.96634   0.97584   0.98601   1.01116   1.02045
 Alpha virt. eigenvalues --    1.05028   1.06188   1.07190   1.07771   1.09472
 Alpha virt. eigenvalues --    1.09775   1.11064   1.14346   1.15526   1.16671
 Alpha virt. eigenvalues --    1.20487   1.20524   1.24681   1.24949   1.27058
 Alpha virt. eigenvalues --    1.30029   1.31434   1.33133   1.34373   1.37931
 Alpha virt. eigenvalues --    1.38963   1.41159   1.42498   1.46757   1.49503
 Alpha virt. eigenvalues --    1.49856   1.53893   1.56298   1.58072   1.58449
 Alpha virt. eigenvalues --    1.60772   1.62923   1.63813   1.67015   1.68239
 Alpha virt. eigenvalues --    1.70130   1.71372   1.71913   1.72753   1.73801
 Alpha virt. eigenvalues --    1.75882   1.76416   1.77829   1.78574   1.79204
 Alpha virt. eigenvalues --    1.80076   1.81100   1.82023   1.82171   1.86669
 Alpha virt. eigenvalues --    1.88539   1.90576   1.92098   1.94146   1.97257
 Alpha virt. eigenvalues --    1.97466   2.00168   2.00846   2.02464   2.05770
 Alpha virt. eigenvalues --    2.06482   2.07816   2.08839   2.12152   2.14370
 Alpha virt. eigenvalues --    2.16356   2.21083   2.23565   2.25660   2.26529
 Alpha virt. eigenvalues --    2.29887   2.32206   2.34795   2.36575   2.38808
 Alpha virt. eigenvalues --    2.40763   2.42007   2.45246   2.46007   2.49751
 Alpha virt. eigenvalues --    2.51703   2.53218   2.55507   2.57062   2.58930
 Alpha virt. eigenvalues --    2.62648   2.65347   2.67373   2.68722   2.72902
 Alpha virt. eigenvalues --    2.73477   2.76356   2.80209   2.86081   2.89177
 Alpha virt. eigenvalues --    2.90659   2.91585   3.01518   3.03301   3.12642
 Alpha virt. eigenvalues --    3.71160   3.75977   3.80438   3.85037   3.91557
 Alpha virt. eigenvalues --    3.98551   4.04413   4.17668   4.29869   4.37993
 Alpha virt. eigenvalues --    4.42744   4.55130   4.65955   4.77328
          Condensed to atoms (all electrons):
               1          2          3          4          5          6
     1  O    8.620461  -0.038874  -0.024394   0.002786   0.043726   0.135253
     2  C   -0.038874   5.093933  -0.044728   0.304397  -0.015757   0.287917
     3  C   -0.024394  -0.044728   5.166634   0.331861   0.248816   0.001441
     4  C    0.002786   0.304397   0.331861   4.964566  -0.024414  -0.041227
     5  C    0.043726  -0.015757   0.248816  -0.024414   4.722159  -0.008779
     6  C    0.135253   0.287917   0.001441  -0.041227  -0.008779   5.022247
     7  H    0.000034  -0.065456  -0.036978   0.363953   0.004089   0.006202
     8  H   -0.035554  -0.060436  -0.004186  -0.006894  -0.001353   0.356031
     9  H    0.002428   0.360953   0.004377  -0.048389   0.000477  -0.047613
    10  H    0.002570   0.005922   0.350537  -0.036150  -0.047902  -0.000015
    11  C   -0.028723  -0.033103   0.000111   0.003732   0.000253   0.349404
    12  H    0.002790   0.006529   0.000010  -0.000126  -0.000055  -0.031023
    13  H    0.002347  -0.016705   0.000028  -0.000286  -0.000060  -0.042239
    14  H   -0.042658   0.001442  -0.116505   0.002492   0.351378  -0.003028
    15  O   -0.049108   0.000553  -0.055359  -0.001950   0.419080   0.000872
    16  O    0.001518   0.003550  -0.000001   0.000107   0.000000  -0.033163
    17  H    0.000083   0.001259  -0.000008   0.000558  -0.000009  -0.010127
    18  O    0.000923   0.005703   0.171557  -0.046192  -0.022052  -0.007319
    19  H   -0.000325  -0.000030  -0.036055   0.006940  -0.001064  -0.000271
    20  O   -0.001186  -0.037135  -0.041817   0.193947   0.000920   0.001466
    21  H    0.000060  -0.002229   0.006392  -0.019119   0.000069  -0.000218
    22  O    0.001640   0.197568   0.000379  -0.026825   0.000221  -0.031474
    23  H    0.000018  -0.030815  -0.000797  -0.008054   0.000280  -0.004655
    24  O   -0.000195   0.000001  -0.000087  -0.000001   0.001929   0.000008
    25  H    0.005382  -0.000014   0.000022  -0.000009  -0.000591  -0.000139
    26  H   -0.000001  -0.000000  -0.000003  -0.000000  -0.000037   0.000000
    27  H    0.000779  -0.000012   0.001634  -0.000035  -0.004052   0.000021
    28  O   -0.090306   0.000415  -0.000508   0.001538   0.004954   0.004333
    29  H    0.122237  -0.001087  -0.000504  -0.002095  -0.003024  -0.008470
    30  H    0.006989   0.000347  -0.001774  -0.002939   0.000529  -0.000283
               7          8          9         10         11         12
     1  O    0.000034  -0.035554   0.002428   0.002570  -0.028723   0.002790
     2  C   -0.065456  -0.060436   0.360953   0.005922  -0.033103   0.006529
     3  C   -0.036978  -0.004186   0.004377   0.350537   0.000111   0.000010
     4  C    0.363953  -0.006894  -0.048389  -0.036150   0.003732  -0.000126
     5  C    0.004089  -0.001353   0.000477  -0.047902   0.000253  -0.000055
     6  C    0.006202   0.356031  -0.047613  -0.000015   0.349404  -0.031023
     7  H    0.604646  -0.000358  -0.000068  -0.008190  -0.000153   0.000003
     8  H   -0.000358   0.610171   0.005884   0.000236  -0.041971  -0.008547
     9  H   -0.000068   0.005884   0.600417  -0.000174  -0.006178   0.000030
    10  H   -0.008190   0.000236  -0.000174   0.591959   0.000014  -0.000000
    11  C   -0.000153  -0.041971  -0.006178   0.000014   4.836895   0.371647
    12  H    0.000003  -0.008547   0.000030  -0.000000   0.371647   0.585821
    13  H   -0.000005   0.007096   0.006617  -0.000000   0.351404  -0.049907
    14  H   -0.000272   0.008050   0.000013   0.004759  -0.000301   0.000009
    15  O   -0.000159   0.000214   0.000004   0.006502  -0.000047   0.000000
    16  O    0.000003   0.005513   0.000067  -0.000000   0.265944  -0.038193
    17  H    0.000005  -0.000176  -0.001217   0.000001  -0.035231   0.005422
    18  O    0.001522   0.010091   0.000068  -0.033587   0.000297  -0.000000
    19  H   -0.000298   0.001077   0.000016  -0.001236  -0.000021   0.000000
    20  O   -0.028009  -0.000028   0.001764   0.003667  -0.000093   0.000002
    21  H   -0.007179   0.000012   0.004645  -0.000220  -0.000004  -0.000000
    22  O    0.007752   0.001104  -0.036663  -0.000148  -0.000931  -0.000223
    23  H    0.001053   0.006134   0.006627   0.000099  -0.000211   0.000018
    24  O   -0.000000  -0.000000   0.000000   0.000002  -0.000000   0.000000
    25  H    0.000000   0.000012   0.000013  -0.000006  -0.000005   0.000000
    26  H    0.000000   0.000000  -0.000000  -0.000000  -0.000000   0.000000
    27  H    0.000002  -0.000011  -0.000001  -0.000047   0.000001   0.000001
    28  O   -0.000036  -0.000168   0.000118   0.000034  -0.000081   0.000014
    29  H    0.000037   0.002714   0.001079  -0.000168  -0.003347  -0.000174
    30  H    0.000310   0.000043   0.000016   0.000048  -0.000029   0.000000
              13         14         15         16         17         18
     1  O    0.002347  -0.042658  -0.049108   0.001518   0.000083   0.000923
     2  C   -0.016705   0.001442   0.000553   0.003550   0.001259   0.005703
     3  C    0.000028  -0.116505  -0.055359  -0.000001  -0.000008   0.171557
     4  C   -0.000286   0.002492  -0.001950   0.000107   0.000558  -0.046192
     5  C   -0.000060   0.351378   0.419080   0.000000  -0.000009  -0.022052
     6  C   -0.042239  -0.003028   0.000872  -0.033163  -0.010127  -0.007319
     7  H   -0.000005  -0.000272  -0.000159   0.000003   0.000005   0.001522
     8  H    0.007096   0.008050   0.000214   0.005513  -0.000176   0.010091
     9  H    0.006617   0.000013   0.000004   0.000067  -0.001217   0.000068
    10  H   -0.000000   0.004759   0.006502  -0.000000   0.000001  -0.033587
    11  C    0.351404  -0.000301  -0.000047   0.265944  -0.035231   0.000297
    12  H   -0.049907   0.000009   0.000000  -0.038193   0.005422  -0.000000
    13  H    0.650513  -0.000001   0.000003  -0.039532  -0.000497  -0.000006
    14  H   -0.000001   0.723718  -0.040924   0.000004   0.000001   0.005371
    15  O    0.000003  -0.040924   8.256753   0.000000   0.000000   0.001602
    16  O   -0.039532   0.000004   0.000000   8.251648   0.232559  -0.000002
    17  H   -0.000497   0.000001   0.000000   0.232559   0.359598   0.000001
    18  O   -0.000006   0.005371   0.001602  -0.000002   0.000001   8.311138
    19  H    0.000000   0.011900   0.000154   0.000000  -0.000002   0.237694
    20  O   -0.000013   0.000058   0.000589   0.000000  -0.000008   0.001154
    21  H    0.000003   0.000011   0.000085   0.000000  -0.000002  -0.000095
    22  O    0.000274   0.000009  -0.000000  -0.009359   0.036730  -0.005998
    23  H    0.000021  -0.000051  -0.000002   0.000596  -0.001127   0.023774
    24  O    0.000000   0.000195  -0.041162  -0.000000  -0.000000   0.000000
    25  H    0.000010   0.000055   0.002843   0.000000   0.000000  -0.000000
    26  H   -0.000000   0.000005   0.002368   0.000000   0.000000  -0.000000
    27  H   -0.000001  -0.002233   0.078137   0.000000   0.000000  -0.000009
    28  O    0.000266  -0.000063  -0.004625   0.000000  -0.000000  -0.000000
    29  H    0.003346   0.001982   0.005806   0.000035   0.000006  -0.000041
    30  H   -0.000011   0.000231   0.006918   0.000000   0.000000   0.000010
              19         20         21         22         23         24
     1  O   -0.000325  -0.001186   0.000060   0.001640   0.000018  -0.000195
     2  C   -0.000030  -0.037135  -0.002229   0.197568  -0.030815   0.000001
     3  C   -0.036055  -0.041817   0.006392   0.000379  -0.000797  -0.000087
     4  C    0.006940   0.193947  -0.019119  -0.026825  -0.008054  -0.000001
     5  C   -0.001064   0.000920   0.000069   0.000221   0.000280   0.001929
     6  C   -0.000271   0.001466  -0.000218  -0.031474  -0.004655   0.000008
     7  H   -0.000298  -0.028009  -0.007179   0.007752   0.001053  -0.000000
     8  H    0.001077  -0.000028   0.000012   0.001104   0.006134  -0.000000
     9  H    0.000016   0.001764   0.004645  -0.036663   0.006627   0.000000
    10  H   -0.001236   0.003667  -0.000220  -0.000148   0.000099   0.000002
    11  C   -0.000021  -0.000093  -0.000004  -0.000931  -0.000211  -0.000000
    12  H    0.000000   0.000002  -0.000000  -0.000223   0.000018   0.000000
    13  H    0.000000  -0.000013   0.000003   0.000274   0.000021   0.000000
    14  H    0.011900   0.000058   0.000011   0.000009  -0.000051   0.000195
    15  O    0.000154   0.000589   0.000085  -0.000000  -0.000002  -0.041162
    16  O    0.000000   0.000000   0.000000  -0.009359   0.000596  -0.000000
    17  H   -0.000002  -0.000008  -0.000002   0.036730  -0.001127  -0.000000
    18  O    0.237694   0.001154  -0.000095  -0.005998   0.023774   0.000000
    19  H    0.375267  -0.000086   0.000008   0.000266  -0.000800   0.000000
    20  O   -0.000086   8.279469   0.232871   0.001471   0.000019  -0.000009
    21  H    0.000008   0.232871   0.373857   0.000013   0.000006   0.000001
    22  O    0.000266   0.001471   0.000013   8.271922   0.233857   0.000000
    23  H   -0.000800   0.000019   0.000006   0.233857   0.355226  -0.000000
    24  O    0.000000  -0.000009   0.000001   0.000000  -0.000000   8.370549
    25  H    0.000000   0.000244   0.000004   0.000000   0.000000   0.106795
    26  H   -0.000000   0.000001  -0.000000  -0.000000   0.000000   0.239359
    27  H   -0.000006   0.000017  -0.000005  -0.000000   0.000000   0.186080
    28  O   -0.000000  -0.018007   0.001174   0.000001  -0.000000  -0.054693
    29  H    0.000010   0.002332   0.000045   0.000000   0.000010   0.001622
    30  H    0.000002   0.042844  -0.002658  -0.000003   0.000001   0.001936
              25         26         27         28         29         30
     1  O    0.005382  -0.000001   0.000779  -0.090306   0.122237   0.006989
     2  C   -0.000014  -0.000000  -0.000012   0.000415  -0.001087   0.000347
     3  C    0.000022  -0.000003   0.001634  -0.000508  -0.000504  -0.001774
     4  C   -0.000009  -0.000000  -0.000035   0.001538  -0.002095  -0.002939
     5  C   -0.000591  -0.000037  -0.004052   0.004954  -0.003024   0.000529
     6  C   -0.000139   0.000000   0.000021   0.004333  -0.008470  -0.000283
     7  H    0.000000   0.000000   0.000002  -0.000036   0.000037   0.000310
     8  H    0.000012   0.000000  -0.000011  -0.000168   0.002714   0.000043
     9  H    0.000013  -0.000000  -0.000001   0.000118   0.001079   0.000016
    10  H   -0.000006  -0.000000  -0.000047   0.000034  -0.000168   0.000048
    11  C   -0.000005  -0.000000   0.000001  -0.000081  -0.003347  -0.000029
    12  H    0.000000   0.000000   0.000001   0.000014  -0.000174   0.000000
    13  H    0.000010  -0.000000  -0.000001   0.000266   0.003346  -0.000011
    14  H    0.000055   0.000005  -0.002233  -0.000063   0.001982   0.000231
    15  O    0.002843   0.002368   0.078137  -0.004625   0.005806   0.006918
    16  O    0.000000   0.000000   0.000000   0.000000   0.000035   0.000000
    17  H    0.000000   0.000000   0.000000  -0.000000   0.000006   0.000000
    18  O   -0.000000  -0.000000  -0.000009  -0.000000  -0.000041   0.000010
    19  H    0.000000  -0.000000  -0.000006  -0.000000   0.000010   0.000002
    20  O    0.000244   0.000001   0.000017  -0.018007   0.002332   0.042844
    21  H    0.000004  -0.000000  -0.000005   0.001174   0.000045  -0.002658
    22  O    0.000000  -0.000000  -0.000000   0.000001   0.000000  -0.000003
    23  H    0.000000   0.000000   0.000000  -0.000000   0.000010   0.000001
    24  O    0.106795   0.239359   0.186080  -0.054693   0.001622   0.001936
    25  H    0.293541  -0.004915  -0.013996   0.178990  -0.008753  -0.003549
    26  H   -0.004915   0.379487  -0.014046   0.002563  -0.000084   0.000044
    27  H   -0.013996  -0.014046   0.325937   0.007257  -0.000424  -0.000654
    28  O    0.178990   0.002563   0.007257   8.463650   0.139166   0.211747
    29  H   -0.008753  -0.000084  -0.000424   0.139166   0.291276  -0.016955
    30  H   -0.003549   0.000044  -0.000654   0.211747  -0.016955   0.326845
 Mulliken charges:
               1
     1  O   -0.640702
     2  C    0.075890
     3  C    0.079905
     4  C    0.087828
     5  C    0.330268
     6  C    0.104848
     7  H    0.157552
     8  H    0.145300
     9  H    0.144691
    10  H    0.161494
    11  C   -0.029276
    12  H    0.155950
    13  H    0.127335
    14  H    0.094353
    15  O   -0.589148
    16  O   -0.641294
    17  H    0.412182
    18  O   -0.655606
    19  H    0.406860
    20  O   -0.636445
    21  H    0.412475
    22  O   -0.641583
    23  H    0.418773
    24  O   -0.812329
    25  H    0.444068
    26  H    0.395259
    27  H    0.435664
    28  O   -0.847728
    29  H    0.473422
    30  H    0.429994
 Sum of Mulliken charges =  -0.00000
 Mulliken charges with hydrogens summed into heavy atoms:
               1
     1  O   -0.167279
     2  C    0.220581
     3  C    0.241399
     4  C    0.245380
     5  C    0.424621
     6  C    0.250148
    11  C    0.254009
    15  O   -0.589148
    16  O   -0.229112
    18  O   -0.248747
    20  O   -0.223970
    22  O   -0.222810
    24  O    0.018595
    28  O    0.026334
 Electronic spatial extent (au):  <R**2>=           3001.5954
 Charge=              0.0000 electrons
 Dipole moment (field-independent basis, Debye):
    X=              0.4137    Y=             -3.8244    Z=              1.2169  Tot=              4.0346
 Quadrupole moment (field-independent basis, Debye-Ang):
   XX=            -91.1209   YY=            -90.0493   ZZ=            -73.6705
   XY=              3.0443   XZ=              2.6697   YZ=              2.9730
 Traceless Quadrupole moment (field-independent basis, Debye-Ang):
   XX=             -6.1740   YY=             -5.1024   ZZ=             11.2764
   XY=              3.0443   XZ=              2.6697   YZ=              2.9730
 Octapole moment (field-independent basis, Debye-Ang**2):
  XXX=             86.6018  YYY=            -21.1875  ZZZ=             13.8753  XYY=              5.5486
  XXY=            -26.6242  XXZ=             16.2343  XZZ=             -1.4002  YZZ=            -20.8675
  YYZ=             -5.2819  XYZ=             -6.4589
 Hexadecapole moment (field-independent basis, Debye-Ang**3):
 XXXX=          -1684.5782 YYYY=          -1078.2037 ZZZZ=           -420.3429 XXXY=             87.4061
 XXXZ=             67.3416 YYYX=             28.9050 YYYZ=             16.5015 ZZZX=             10.7107
 ZZZY=              6.7066 XXYY=           -613.2379 XXZZ=           -427.6523 YYZZ=           -242.3621
 XXYZ=             45.0480 YYXZ=             -7.7256 ZZXY=              5.6052
 N-N= 1.130362796122D+03 E-N=-4.232881859436D+03  KE= 8.329550885115D+02
 Calling FoFJK, ICntrl=      2127 FMM=F ISym2X=0 I1Cent= 0 IOpClX= 0 NMat=1 NMatS=1 NMatT=0.
 ***** Axes restored to original set *****
 -------------------------------------------------------------------
 Center     Atomic                   Forces (Hartrees/Bohr)
 Number     Number              X              Y              Z
 -------------------------------------------------------------------
      1        8          -0.005507661    0.007641215   -0.003725853
      2        6           0.000059676    0.000276954    0.001075045
      3        6          -0.000161439   -0.002376951    0.000563384
      4        6          -0.000226194   -0.000102468    0.000378941
      5        6           0.005814465   -0.011850257   -0.003140417
      6        6          -0.001572199    0.002462937    0.002544837
      7        1          -0.000118483   -0.000017598   -0.000129855
      8        1           0.000017555    0.000101807    0.000164168
      9        1          -0.000015866   -0.000082928    0.000132383
     10        1          -0.000257562   -0.000307208    0.000259003
     11        6          -0.001836577    0.001604977    0.001328500
     12        1          -0.000064853    0.000034694    0.000055539
     13        1          -0.000137025    0.000153528    0.000064591
     14        1           0.000163866   -0.000030893    0.000032274
     15        8           0.001591738   -0.005401751   -0.002046931
     16        8          -0.001604593    0.000147511   -0.000442426
     17        1          -0.000081739    0.000113400    0.000123701
     18        8          -0.000112236    0.000951417   -0.000678495
     19        1           0.000040627   -0.000443437    0.000072080
     20        8          -0.001203885   -0.002748375   -0.000634305
     21        1          -0.000041891    0.000198384   -0.000043897
     22        8           0.000233941    0.000831436   -0.000651208
     23        1           0.000017576   -0.000014049    0.000022340
     24        8           0.007162439    0.002629892   -0.003946553
     25        1          -0.003431643    0.000271479    0.002222418
     26        1           0.000189451    0.000084636    0.000036222
     27        1           0.000782152    0.000671748    0.000129231
     28        8           0.001536481    0.004755252    0.006894134
     29        1          -0.001695039    0.000517948   -0.000569605
     30        1           0.000458918   -0.000073301   -0.000089243
 -------------------------------------------------------------------
 Cartesian Forces:  Max     0.011850257 RMS     0.002440626

 GradGradGradGradGradGradGradGradGradGradGradGradGradGradGradGradGradGrad
 Berny optimization.
 FormGI is forming the generalized inverse of G from B-inverse, IUseBI=4.
 Internal  Forces:  Max     0.022592779 RMS     0.005130023
 Search for a local minimum.
 Step number   1 out of a maximum of  180
 All quantities printed in internal units (Hartrees-Bohrs-Radians)
 Mixed Optimization -- RFO/linear search
 Second derivative matrix not updated -- first step.
 ITU=  0
     Eigenvalues ---    0.00230   0.00230   0.00278   0.00423   0.00437
     Eigenvalues ---    0.00608   0.00874   0.00987   0.01231   0.01244
     Eigenvalues ---    0.01303   0.01482   0.01936   0.02097   0.02821
     Eigenvalues ---    0.03307   0.03867   0.04141   0.04393   0.04627
     Eigenvalues ---    0.04802   0.04911   0.04995   0.05348   0.05924
     Eigenvalues ---    0.05984   0.07033   0.07149   0.07390   0.07678
     Eigenvalues ---    0.07931   0.08682   0.09045   0.09500   0.10036
     Eigenvalues ---    0.10633   0.11475   0.11743   0.13892   0.14183
     Eigenvalues ---    0.14934   0.15806   0.16000   0.16000   0.16000
     Eigenvalues ---    0.16000   0.16292   0.16864   0.17050   0.17499
     Eigenvalues ---    0.18648   0.19663   0.19874   0.20368   0.21629
     Eigenvalues ---    0.22028   0.22925   0.26834   0.27409   0.27911
     Eigenvalues ---    0.29126   0.29905   0.32092   0.33215   0.33754
     Eigenvalues ---    0.33899   0.33922   0.33963   0.34080   0.34271
     Eigenvalues ---    0.40303   0.40444   0.41078   0.41261   0.43086
     Eigenvalues ---    0.44362   0.46813   0.51715   0.52329   0.52526
     Eigenvalues ---    0.53320   0.53407   0.53537   0.80417
 RFO step:  Lambda=-2.87227784D-02 EMin= 2.30000000D-03
 Linear search not attempted -- first point.
 Maximum step size (   0.300) exceeded in Quadratic search.
    -- Step size scaled by   0.922
 Iteration  1 RMS(Cart)=  0.20964922 RMS(Int)=  0.01014594
 Iteration  2 RMS(Cart)=  0.02194645 RMS(Int)=  0.00281465
 Iteration  3 RMS(Cart)=  0.00051205 RMS(Int)=  0.00281113
 Iteration  4 RMS(Cart)=  0.00000529 RMS(Int)=  0.00281113
 Iteration  5 RMS(Cart)=  0.00000009 RMS(Int)=  0.00281113
 Variable       Old X    -DE/DX   Delta X   Delta X   Delta X     New X
                                 (Linear)    (Quad)   (Total)
    R1        2.68542  -0.00097   0.00000  -0.00195  -0.00217   2.68325
    R2        2.06919   0.00449   0.00000   0.00876   0.00578   2.07497
    R3        2.92753   0.01212   0.00000   0.04001   0.04046   2.96800
    R4        2.92023   0.00183   0.00000   0.01052   0.01244   2.93267
    R5        2.07461   0.00006   0.00000   0.00016   0.00016   2.07477
    R6        2.70114  -0.00044   0.00000  -0.00092  -0.00092   2.70022
    R7        2.89404   0.00837   0.00000   0.02252   0.02024   2.91429
    R8        2.94267   0.00185   0.00000   0.00191   0.00111   2.94378
    R9        2.07393   0.00012   0.00000   0.00031   0.00031   2.07424
   R10        2.71144   0.00023   0.00000   0.00049   0.00049   2.71193
   R11        2.07500   0.00003   0.00000   0.00007   0.00007   2.07508
   R12        2.70955  -0.00193   0.00000  -0.00411  -0.00411   2.70543
   R13        2.10675  -0.00009   0.00000  -0.00023  -0.00023   2.10652
   R14        2.36698   0.00195   0.00000   0.00286   0.00460   2.37158
   R15        2.07195  -0.00018   0.00000  -0.00046  -0.00046   2.07149
   R16        2.88153   0.00340   0.00000   0.00956   0.00956   2.89109
   R17        2.06876  -0.00004   0.00000  -0.00010  -0.00010   2.06865
   R18        2.08675   0.00007   0.00000   0.00019   0.00019   2.08694
   R19        2.67563   0.00169   0.00000   0.00339   0.00339   2.67902
   R20        3.06157   0.00870   0.00000   0.06321   0.06365   3.12522
   R21        1.84099  -0.00001   0.00000  -0.00002  -0.00002   1.84097
   R22        1.83356   0.00001   0.00000   0.00001   0.00001   1.83358
   R23        1.83276  -0.00001   0.00000  -0.00001  -0.00001   1.83275
   R24        1.84286  -0.00001   0.00000  -0.00001  -0.00001   1.84285
   R25        2.97015   0.00986   0.00000   0.07621   0.07791   3.04806
   R26        1.83156   0.00014   0.00000   0.00023   0.00023   1.83178
   R27        1.89125   0.00820   0.00000   0.01455   0.01607   1.90732
   R28        1.92085   0.00485   0.00000   0.01003   0.01107   1.93192
   R29        2.55263   0.00615   0.00000   0.02523   0.02259   2.57521
   R30        1.84873   0.00001   0.00000   0.00002   0.00002   1.84875
    A1        2.06674   0.00577   0.00000   0.02730   0.03655   2.10329
    A2        1.96412   0.01633   0.00000   0.11140   0.11228   2.07641
    A3        1.88176  -0.00437   0.00000  -0.02728  -0.02957   1.85219
    A4        1.94373  -0.00530   0.00000  -0.02431  -0.02244   1.92129
    A5        1.91010  -0.00460   0.00000  -0.03465  -0.03273   1.87736
    A6        1.92358  -0.00616   0.00000  -0.02642  -0.03013   1.89345
    A7        1.83536   0.00313   0.00000  -0.00786  -0.00905   1.82630
    A8        2.01308   0.00742   0.00000   0.04884   0.03834   2.05142
    A9        1.90577  -0.00397   0.00000  -0.03048  -0.02766   1.87810
   A10        1.80859  -0.00023   0.00000   0.00498   0.00813   1.81672
   A11        1.83044  -0.00102   0.00000  -0.01649  -0.01395   1.81649
   A12        1.97469  -0.00350   0.00000  -0.00634  -0.00334   1.97136
   A13        1.93265   0.00118   0.00000  -0.00229  -0.00397   1.92868
   A14        1.94345   0.02259   0.00000   0.12814   0.12771   2.07115
   A15        1.86271  -0.00579   0.00000  -0.04213  -0.04112   1.82159
   A16        1.97228  -0.00615   0.00000  -0.01104  -0.01247   1.95980
   A17        1.87827  -0.00621   0.00000  -0.04541  -0.04191   1.83636
   A18        1.89659  -0.00821   0.00000  -0.01974  -0.02465   1.87194
   A19        1.90792   0.00364   0.00000  -0.01412  -0.01589   1.89203
   A20        1.94569  -0.00490   0.00000  -0.00832  -0.00831   1.93738
   A21        2.02570   0.01605   0.00000   0.06005   0.06042   2.08613
   A22        2.10727  -0.00534   0.00000   0.00046  -0.00217   2.10510
   A23        1.93527  -0.00100   0.00000   0.02242   0.02359   1.95886
   A24        1.85460  -0.00056   0.00000  -0.00556  -0.00813   1.84647
   A25        1.92879   0.00235   0.00000   0.00598   0.00831   1.93710
   A26        1.88396  -0.00125   0.00000  -0.00705  -0.00690   1.87706
   A27        1.97033   0.00033   0.00000  -0.01262  -0.01451   1.95582
   A28        1.88592   0.00000   0.00000  -0.00390  -0.00345   1.88247
   A29        1.90675  -0.00016   0.00000  -0.00098  -0.00098   1.90577
   A30        1.90551   0.00013   0.00000   0.00153   0.00153   1.90704
   A31        1.94209   0.00055   0.00000   0.00215   0.00215   1.94424
   A32        1.87649  -0.00000   0.00000  -0.00044  -0.00044   1.87605
   A33        1.87890  -0.00030   0.00000  -0.00207  -0.00207   1.87683
   A34        1.95235  -0.00023   0.00000  -0.00037  -0.00037   1.95198
   A35        2.23716  -0.01255   0.00000  -0.06600  -0.07111   2.16606
   A36        1.88014   0.00015   0.00000   0.00072   0.00072   1.88086
   A37        1.89066   0.00010   0.00000   0.00050   0.00050   1.89116
   A38        1.87589  -0.00003   0.00000  -0.00013  -0.00013   1.87576
   A39        1.84464  -0.00002   0.00000  -0.00012  -0.00012   1.84453
   A40        1.96963  -0.00034   0.00000  -0.00238  -0.00662   1.96301
   A41        1.59018   0.00890   0.00000   0.08635   0.08859   1.67877
   A42        1.82145  -0.00593   0.00000  -0.00977  -0.00663   1.81482
   A43        2.82319   0.00555   0.00000   0.03870   0.03822   2.86141
   A44        2.68321   0.00555   0.00000   0.04813   0.05022   2.73343
   A45        1.78376   0.00423   0.00000   0.03315   0.02890   1.81265
   A46        1.85515  -0.00831   0.00000  -0.03409  -0.03577   1.81938
   A47        1.66523   0.00545   0.00000   0.00845   0.00566   1.67089
   A48        3.08043   0.01431   0.00000   0.10251   0.09709   3.17752
   A49        2.94119   0.00496   0.00000   0.02906   0.01950   2.96069
    D1       -0.97597  -0.00555   0.00000  -0.02605  -0.02422  -1.00020
    D2       -3.01886  -0.00322   0.00000  -0.02615  -0.02354  -3.04240
    D3        1.22248  -0.00412   0.00000  -0.02146  -0.01909   1.20339
    D4       -3.02530  -0.01493   0.00000  -0.21986  -0.22225   3.03564
    D5        1.39168  -0.00896   0.00000  -0.19821  -0.19915   1.19253
    D6       -0.54460  -0.00029   0.00000  -0.05849  -0.05451  -0.59912
    D7       -2.58977  -0.00156   0.00000  -0.04794  -0.04563  -2.63539
    D8        1.59579   0.00145   0.00000   0.00416   0.00629   1.60209
    D9       -2.65274  -0.00175   0.00000  -0.06605  -0.06296  -2.71571
   D10        1.58528  -0.00302   0.00000  -0.05550  -0.05407   1.53120
   D11       -0.51235  -0.00001   0.00000  -0.00340  -0.00215  -0.51450
   D12        1.62546  -0.00013   0.00000  -0.02776  -0.02484   1.60062
   D13       -0.41970  -0.00140   0.00000  -0.01721  -0.01595  -0.43566
   D14       -2.51733   0.00161   0.00000   0.03489   0.03597  -2.48136
   D15       -0.57381   0.00074   0.00000  -0.00169   0.00334  -0.57047
   D16        1.45098  -0.00121   0.00000  -0.00023   0.00236   1.45334
   D17       -2.74891  -0.00184   0.00000  -0.01748  -0.01498  -2.76389
   D18        1.51800   0.00263   0.00000   0.01219   0.01539   1.53338
   D19       -2.74040   0.00068   0.00000   0.01365   0.01441  -2.72599
   D20       -0.65711   0.00005   0.00000  -0.00360  -0.00293  -0.66004
   D21       -2.75494   0.00031   0.00000  -0.03201  -0.02848  -2.78342
   D22       -0.73015  -0.00164   0.00000  -0.03055  -0.02945  -0.75961
   D23        1.35314  -0.00227   0.00000  -0.04780  -0.04680   1.30635
   D24       -1.02624  -0.00625   0.00000  -0.05175  -0.05197  -1.07821
   D25        1.16650   0.00652   0.00000   0.05559   0.05490   1.22140
   D26       -3.05977  -0.00023   0.00000  -0.00285  -0.00194  -3.06171
   D27        1.11383  -0.00052   0.00000   0.04183   0.04324   1.15706
   D28       -3.13366   0.00124   0.00000   0.03453   0.03598  -3.09768
   D29       -1.06950  -0.00234   0.00000  -0.01809  -0.01611  -1.08560
   D30       -3.11420   0.00009   0.00000   0.03020   0.02931  -3.08490
   D31       -1.07851   0.00185   0.00000   0.02291   0.02205  -1.05646
   D32        0.98565  -0.00173   0.00000  -0.02972  -0.03003   0.95562
   D33       -1.05404  -0.00050   0.00000   0.01614   0.01632  -1.03772
   D34        0.98165   0.00126   0.00000   0.00885   0.00907   0.99072
   D35        3.04581  -0.00231   0.00000  -0.04378  -0.04302   3.00280
   D36       -2.21456  -0.00071   0.00000  -0.04570  -0.04459  -2.25915
   D37        1.56399  -0.00606   0.00000  -0.11465  -0.11612   1.44787
   D38        1.97173   0.00065   0.00000  -0.02444  -0.02195   1.94978
   D39       -0.53290  -0.00470   0.00000  -0.09339  -0.09348  -0.62638
   D40       -0.13642   0.00184   0.00000  -0.00724  -0.00630  -0.14273
   D41       -2.64106  -0.00351   0.00000  -0.07619  -0.07783  -2.71889
   D42        2.94469   0.00399   0.00000   0.03730   0.03305   2.97774
   D43        0.75205  -0.00298   0.00000  -0.02312  -0.01889   0.73316
   D44       -1.29709  -0.00022   0.00000   0.00342   0.00344  -1.29365
   D45        1.23582  -0.00928   0.00000  -0.07356  -0.07186   1.16396
   D46       -2.88107   0.00949   0.00000   0.06943   0.06714  -2.81393
   D47       -0.83574  -0.00058   0.00000  -0.00410  -0.00351  -0.83925
   D48       -2.63700   0.00587   0.00000   0.03678   0.04428  -2.59273
   D49        1.20418  -0.00127   0.00000  -0.03866  -0.03513   1.16905
   D50        0.91149  -0.00009   0.00000  -0.01191  -0.01307   0.89841
   D51       -1.13613  -0.00007   0.00000  -0.01170  -0.01286  -1.14899
   D52        2.98369  -0.00024   0.00000  -0.01378  -0.01494   2.96875
   D53        3.09012   0.00066   0.00000   0.01283   0.01358   3.10369
   D54        1.04250   0.00068   0.00000   0.01304   0.01379   1.05629
   D55       -1.12086   0.00051   0.00000   0.01097   0.01171  -1.10915
   D56       -1.11090  -0.00070   0.00000  -0.00626  -0.00584  -1.11675
   D57        3.12466  -0.00067   0.00000  -0.00605  -0.00563   3.11903
   D58        0.96130  -0.00084   0.00000  -0.00813  -0.00771   0.95359
   D59        0.64572   0.00025   0.00000   0.00351   0.00351   0.64923
   D60        2.73455   0.00018   0.00000   0.00227   0.00227   2.73682
   D61       -1.49084  -0.00014   0.00000   0.00024   0.00025  -1.49059
   D62        1.70122   0.00045   0.00000   0.00888   0.01738   1.71860
   D63       -2.23110  -0.00573   0.00000  -0.06103  -0.05716  -2.28826
   D64       -0.37924  -0.00831   0.00000  -0.03371  -0.02531  -0.40455
   D65       -0.45181  -0.00176   0.00000  -0.01423  -0.00716  -0.45897
   D66        1.53696  -0.00034   0.00000   0.00692   0.01184   1.54880
   D67       -0.32884  -0.01142   0.00000  -0.07440  -0.06617  -0.39501
   D68        1.40641  -0.00638   0.00000  -0.06342  -0.06101   1.34540
         Item               Value     Threshold  Converged?
 Maximum Force            0.022593     0.000450     NO 
 RMS     Force            0.005130     0.000300     NO 
 Maximum Displacement     0.844384     0.001800     NO 
 RMS     Displacement     0.223630     0.001200     NO 
 Predicted change in Energy=-1.783234D-02
 GradGradGradGradGradGradGradGradGradGradGradGradGradGradGradGradGradGrad

                          Input orientation:                          
 ---------------------------------------------------------------------
 Center     Atomic      Atomic             Coordinates (Angstroms)
 Number     Number       Type             X           Y           Z
 ---------------------------------------------------------------------
      1          8           0        0.306649    1.061599   -0.615975
      2          6           0       -1.421160   -0.143933    0.669940
      3          6           0        0.234009   -1.971820   -0.373274
      4          6           0       -0.459775   -1.370376    0.865770
      5          6           0        1.281643   -1.087141   -1.112518
      6          6           0       -1.091724    0.901452   -0.428712
      7          1           0       -1.110344   -2.168369    1.247546
      8          1           0       -1.477698    0.514913   -1.379098
      9          1           0       -1.443074    0.383077    1.632860
     10          1           0        0.809478   -2.845211   -0.040354
     11          6           0       -1.766548    2.248181   -0.161269
     12          1           0       -1.472673    2.958950   -0.940230
     13          1           0       -1.410935    2.648501    0.804594
     14          1           0        1.072624   -1.050519   -2.206859
     15          8           0        2.460490   -1.036828   -0.684993
     16          8           0       -3.179242    2.134999   -0.197261
     17          1           0       -3.418951    1.277795    0.198730
     18          8           0       -0.851917   -2.377948   -1.219033
     19          1           0       -0.488748   -2.629989   -2.082770
     20          8           0        0.558012   -1.112501    1.839032
     21          1           0        0.121495   -1.024778    2.700635
     22          8           0       -2.762128   -0.597748    0.476034
     23          1           0       -2.744267   -1.132082   -0.339546
     24          8           0        3.897273    1.136570   -0.512156
     25          1           0        2.794851    1.545469    0.591980
     26          1           0        4.723615    0.824620   -0.112830
     27          1           0        3.438483    0.290375   -0.815751
     28          8           0        1.929585    1.640350    1.128135
     29          1           0        0.951909    1.351758    0.223736
     30          1           0        1.858348    0.798337    1.621129
 ---------------------------------------------------------------------
                    Distance matrix (angstroms):
                    1          2          3          4          5
     1  O    0.000000
     2  C    2.468240   0.000000
     3  C    3.043980   2.677508   0.000000
     4  C    2.949149   1.570596   1.542174   0.000000
     5  C    2.411276   3.372230   1.557779   2.650732   0.000000
     6  C    1.419916   1.551900   3.164859   2.690027   3.170956
     7  H    3.989145   2.128045   2.114941   1.098083   3.529952
     8  H    2.016213   2.153097   3.182053   3.103210   3.201812
     9  H    2.929024   1.097923   3.518909   2.151721   4.137961
    10  H    3.980873   3.574516   1.097639   2.146440   2.112649
    11  C    2.431641   2.555858   4.674995   3.982012   4.617435
    12  H    2.621272   3.496167   5.248495   4.799027   4.897631
    13  H    2.736122   2.795698   5.043866   4.130354   4.988017
    14  H    2.752939   3.913671   2.216778   3.448420   1.114725
    15  O    3.007855   4.207173   2.434871   3.323261   1.254986
    16  O    3.671368   3.006064   5.342961   4.562147   5.578474
    17  H    3.819761   2.496902   4.922530   4.026720   5.422902
    18  O    3.679190   2.980450   1.435090   2.348485   2.495917
    19  H    4.051169   3.824562   1.969249   3.206455   2.540876
    20  O    3.288914   2.494398   2.395350   1.431653   3.039067
    21  H    3.922647   2.698036   3.218457   1.955517   3.986223
    22  O    3.655586   1.428896   3.403856   2.459609   4.372080
    23  H    3.767856   1.935488   3.094580   2.593930   4.099689
    24  O    3.592907   5.596674   4.806338   5.212229   3.485233
    25  H    2.807923   4.542565   4.456562   4.378322   3.482204
    26  H    4.451843   6.269695   5.295703   5.713423   4.062189
    27  H    3.231576   5.100199   3.947400   4.558731   2.576351
    28  O    2.451692   3.823754   4.263447   3.852577   3.588810
    29  H    1.098028   2.840360   3.452242   3.132902   2.800451
    30  H    2.735272   3.542288   3.780197   3.263063   3.370525
                    6          7          8          9         10
     6  C    0.000000
     7  H    3.497712   0.000000
     8  H    1.096185   3.772825   0.000000
     9  H    2.154585   2.601740   3.015040   0.000000
    10  H    4.219346   2.408842   4.279468   4.277322   0.000000
    11  C    1.529899   4.682016   2.137933   2.608093   5.709043
    12  H    2.154082   5.586327   2.483133   3.640988   6.301292
    13  H    2.162203   4.846525   3.053713   2.412303   5.985403
    14  H    3.414147   4.236491   3.104820   4.809093   2.825581
    15  O    4.054730   4.214967   4.289406   4.756720   2.532123
    16  O    2.435763   4.988665   2.629956   3.071295   6.382555
    17  H    2.439529   4.278519   2.615338   2.600257   5.910664
    18  O    3.381801   2.488920   2.964096   4.013231   2.089941
    19  H    3.945956   3.419134   3.370992   4.878034   2.429645
    20  O    3.452578   2.061098   4.141128   2.506712   2.568582
    21  H    3.869764   2.221868   4.644597   2.360101   3.361595
    22  O    2.420004   2.406340   2.515808   2.010016   4.251367
    23  H    2.621853   2.502490   2.323243   2.806990   3.956442
    24  O    4.995231   6.252632   5.479813   5.804150   5.060796
    25  H    4.069648   5.428895   4.816831   4.516038   4.860002
    26  H    5.824419   6.696543   6.336847   6.424208   5.365946
    27  H    4.587591   5.567266   4.953444   5.462041   4.164710
    28  O    3.478225   4.874604   4.377487   3.634599   4.768675
    29  H    2.192008   4.206230   3.028592   2.942774   4.207681
    30  H    3.593801   4.213555   4.495653   3.327457   4.139577
                   11         12         13         14         15
    11  C    0.000000
    12  H    1.094685   0.000000
    13  H    1.104359   1.773302   0.000000
    14  H    4.809028   4.915153   5.377700   0.000000
    15  O    5.378979   5.612589   5.548734   2.059717   0.000000
    16  O    1.417678   2.035504   2.096261   5.680174   6.488833
    17  H    1.949791   2.812740   2.505601   5.601977   6.380146
    18  O    4.832855   5.380107   5.447271   2.538055   3.613286
    19  H    5.396432   5.788761   6.086852   2.224412   3.631796
    20  O    4.549611   5.331481   4.369434   4.078958   3.161621
    21  H    4.739985   5.627376   4.408661   4.998881   4.115036
    22  O    3.081663   4.039629   3.531545   4.701940   5.368102
    23  H    3.523336   4.326005   4.168890   4.249961   5.217078
    24  O    5.782531   5.686882   5.674225   3.953987   2.611107
    25  H    4.676274   4.749458   4.353219   4.187925   2.900123
    26  H    6.644628   6.605599   6.465362   4.607693   2.985648
    27  H    5.599437   5.590728   5.630553   3.054581   1.653795
    28  O    3.961492   4.194305   3.504300   4.370050   3.276671
    29  H    2.888219   3.133126   2.757167   3.419546   2.967650
    30  H    4.291720   4.724883   3.844223   4.323092   3.008090
                   16         17         18         19         20
    16  O    0.000000
    17  H    0.974201   0.000000
    18  O    5.179494   4.686595   0.000000
    19  H    5.787834   5.390928   0.970287   0.000000
    20  O    5.353486   4.921416   3.597363   4.333475   0.000000
    21  H    5.410809   4.908781   4.259390   5.082329   0.969847
    22  O    2.845209   2.006483   3.113081   3.980671   3.625750
    23  H    3.298980   2.559775   2.430364   3.220236   3.956215
    24  O    7.153536   7.352036   5.950321   5.990908   4.662303
    25  H    6.054769   6.231984   5.654368   5.947332   3.690987
    26  H    8.011203   8.161116   6.524315   6.556197   4.991437
    27  H    6.897786   7.002040   5.068542   5.055394   4.160895
    28  O    5.301081   5.440779   5.421500   5.864643   3.156703
    29  H    4.225768   4.371557   4.387035   4.821802   2.972693
    30  H    5.520012   5.486619   5.049836   5.566071   2.321563
                   21         22         23         24         25
    21  H    0.000000
    22  O    3.666945   0.000000
    23  H    4.179332   0.975194   0.000000
    24  O    5.408323   6.952122   7.020444   0.000000
    25  H    4.266079   5.957083   6.222447   1.612963   0.000000
    26  H    5.702225   7.642398   7.723299   0.969338   2.176353
    27  H    5.009692   6.395706   6.362119   1.009309   1.992794
    28  O    3.583972   5.238939   5.628975   2.610775   1.022325
    29  H    3.531649   4.202178   4.488704   3.043520   1.889329
    30  H    2.739661   4.960756   5.362353   2.970273   1.579364
                   26         27         28         29         30
    26  H    0.000000
    27  H    1.559192   0.000000
    28  O    3.164177   2.806759   0.000000
    29  H    3.823208   2.896570   1.362745   0.000000
    30  H    3.349187   2.948429   0.978317   1.755168   0.000000
 Stoichiometry    C6H16O8
 Framework group  C1[X(C6H16O8)]
 Deg. of freedom    84
 Full point group                 C1      NOp   1
 Largest Abelian subgroup         C1      NOp   1
 Largest concise Abelian subgroup C1      NOp   1
                         Standard orientation:                         
 ---------------------------------------------------------------------
 Center     Atomic      Atomic             Coordinates (Angstroms)
 Number     Number       Type             X           Y           Z
 ---------------------------------------------------------------------
      1          8           0        0.208987    1.030027   -0.694673
      2          6           0       -1.443371   -0.237588    0.630118
      3          6           0        0.437773   -1.961590   -0.181155
      4          6           0       -0.370987   -1.333061    0.971737
      5          6           0        1.421958   -1.037234   -0.958085
      6          6           0       -1.172651    0.738407   -0.545696
      7          1           0       -0.952979   -2.160004    1.399798
      8          1           0       -1.472261    0.232480   -1.470841
      9          1           0       -1.564081    0.365067    1.539882
     10          1           0        1.084008   -2.736687    0.250606
     11          6           0       -1.994189    2.023500   -0.426524
     12          1           0       -1.739199    2.691787   -1.255202
     13          1           0       -1.726882    2.541173    0.511650
[...]
 0.00006606,0.00023834,0.00089645,0.00045771,-0.00013326,-0.00022308,-0
 .00001584,-0.00023120,0.00023191,0.00000534,0.00018252,-0.00012729,-0.
 00002561,-0.00475551,0.44474286,0.00095872,0.00081830,0.00247930,-0.00
 021246,-0.00015699,-0.00019377,-0.00035800,0.00016149,0.00008631,-0.00
 093737,-0.00056214,-0.00132619,0.00311391,-0.00079457,0.00063163,-0.00
 031239,0.00005214,0.00011947,0.00016520,0.00015662,0.00027425,0.000233
 45,0.00005628,0.00006416,-0.00012430,0.00009920,0.00016633,-0.00002496
 ,-0.00000004,-0.00004222,-0.00021403,-0.00008531,-0.00028028,0.0000139
 3,-0.00003824,0.00004111,-0.00000464,0.00007499,0.00014239,0.00016865,
 -0.00010776,-0.00032597,-0.00538042,-0.00317585,0.00122480,0.00018546,
 0.00002541,0.00012667,-0.00006026,0.00001710,-0.00003335,-0.00037550,-
 0.00004564,0.00033602,0.00008732,0.00009132,-0.00003538,0.00130752,0.0
 0134657,0.00097697,-0.00020670,-0.00031433,0.00007271,0.00029573,0.000
 08345,0.00018004,0.00003777,-0.00006166,-0.00007790,0.28020946,0.04984
 987,0.22979632,0.00425498,0.00183557,0.00227266,-0.00024934,-0.0003309
 7,0.00008092,-0.00019029,-0.00010947,0.00010208,-0.00076915,-0.0005969
 0,-0.00107606,0.00236561,-0.00148692,-0.00012417,-0.00178407,-0.000144
 80,0.00073608,0.00021354,0.00020914,0.00022533,0.00056874,0.00012709,0
 .00004749,-0.00017491,0.00006096,0.00007776,-0.00003511,0.00008640,-0.
 00001656,-0.00031012,0.00018647,-0.00018778,-0.00002628,0.00001087,0.0
 0000865,-0.00001680,0.00003232,0.00009152,-0.00004988,0.00002252,-0.00
 018029,-0.00330046,-0.00090499,-0.00028353,0.00066205,-0.00012503,0.00
 000708,-0.00016983,0.00002286,0.00004813,-0.00015943,0.00020511,0.0002
 4692,0.00001935,-0.00001784,-0.00002046,0.00128525,0.00222114,0.000660
 07,-0.00004181,-0.00055211,0.00026114,0.00059831,0.00040932,-0.0000685
 7,-0.00003929,-0.00018151,-0.00005882,-0.00457769,-0.00454823,-0.00678
 916,0.30883033,0.00028000,-0.00067963,0.00011912,-0.00009130,0.0000496
 6,0.00003262,-0.00019441,-0.00016815,-0.00022483,0.00014933,0.00000797
 ,0.00042698,-0.00222202,0.00011594,-0.00056116,-0.00029921,-0.00019296
 ,0.00001162,-0.00002619,-0.00004125,-0.00012448,-0.00000579,0.00001466
 ,-0.00000731,-0.00003057,-0.00005989,-0.00004170,0.00005210,-0.0000106
 8,-0.00000929,0.00009763,0.00020170,-0.00002938,0.00002127,-0.00001321
 ,0.00007207,-0.00003644,0.00000616,-0.00004990,0.00017895,-0.00008456,
 0.00006334,0.00179608,0.00085922,0.00105669,0.00006954,-0.00017234,-0.
 00002068,-0.00005634,0.00006444,0.00001587,0.00035823,0.00009049,0.000
 01661,-0.00006839,-0.00006067,-0.00003198,-0.00062961,-0.00252734,-0.0
 0074813,0.00022083,0.00049689,-0.00008560,0.00012532,-0.00006598,-0.00
 002470,-0.00007132,0.00003536,0.00000968,-0.00487569,-0.00556091,0.004
 03782,0.01485078,0.06545649,-0.00030195,-0.00107530,-0.00496868,0.0003
 2141,0.00027318,0.00045999,0.00000847,-0.00013699,-0.00018651,0.000774
 44,0.00052946,0.00124704,-0.00263233,0.00004097,-0.00012795,0.00007434
 ,-0.00007190,0.00015356,-0.00015061,-0.00014353,-0.00025564,-0.0001486
 7,-0.00004377,-0.00007576,0.00016722,-0.00011820,-0.00027679,0.0000739
 0,0.00000248,-0.00000632,0.00030802,0.00023412,0.00039467,-0.00003060,
 0.00003936,-0.00006515,-0.00000309,-0.00012219,-0.00019600,0.00004097,
 -0.00000326,0.00004224,0.00264823,0.00145727,0.00040341,-0.00011280,-0
 .00009821,-0.00017029,0.00004116,-0.00000805,0.00004341,0.00032822,0.0
 0003551,-0.00024628,-0.00007882,-0.00007693,0.00000740,-0.00114439,-0.
 00175435,-0.00089486,0.00020178,0.00039732,-0.00009039,-0.00019309,-0.
 00007105,-0.00026198,-0.00007082,0.00003806,0.00005718,-0.00421080,0.0
 0132483,-0.00744613,-0.18558948,-0.01563339,0.15305941,0.00031478,-0.0
 0016800,0.00025308,-0.00011318,-0.00000928,-0.00001564,-0.00007619,-0.
 00012227,-0.00011778,-0.00021960,0.00000488,-0.00012744,-0.00087668,0.
 00019273,-0.00024119,-0.00020453,-0.00002135,-0.00000388,0.00006626,0.
 00001570,-0.00000355,0.00002497,0.00001819,0.00000657,-0.00000124,0.00
 000159,0.00001046,0.00002026,-0.00000584,-0.00001000,-0.00006781,0.000
 05274,-0.00001522,0.00000080,-0.00001091,0.00001172,0.00000149,0.00000
 049,0.00000631,0.00017661,-0.00007252,0.00006644,0.00110807,0.00008908
 ,0.00072355,0.00012439,-0.00005569,0.00000219,-0.00005119,0.00003860,0
 .00000620,0.00023278,0.00010757,0.00009792,-0.00004067,-0.00004977,-0.
 00002394,0.00031041,0.00011787,0.00011856,-0.00001314,-0.00002145,0.00
 003219,0.00018395,-0.00000508,0.00001840,-0.00005463,0.00000479,-0.000
 00900,-0.29047832,0.13134089,-0.18559322,-0.00287913,0.00195107,-0.001
 83627,0.31064447,0.00011456,-0.00013055,-0.00009014,-0.00004125,0.0000
 1131,0.00001254,-0.00012368,0.00006358,0.00000662,-0.00009468,0.000011
 51,0.00000233,-0.00032183,0.00016544,-0.00004450,-0.00010767,-0.000000
 39,-0.00001121,0.00001766,0.00000145,-0.00000740,0.00000339,0.00000612
 ,-0.00000217,0.00000732,-0.00000704,-0.00000772,0.00000078,-0.00001824
 ,-0.00000800,-0.00001997,0.00004527,0.00002389,-0.00000186,-0.00000412
 ,0.00000405,-0.00000049,-0.00000606,-0.00001230,0.00014439,-0.00007121
 ,0.00001672,0.00042401,-0.00111433,0.00045181,0.00005721,-0.00004564,-
 0.00001317,-0.00002717,0.00002940,0.00000811,0.00015353,0.00003046,0.0
 0004462,-0.00003029,-0.00001768,-0.00001884,0.00011317,-0.00007284,0.0
 0000717,0.00000895,0.00003872,0.00001811,0.00009263,-0.00001895,-0.000
 00387,-0.00003650,0.00001323,-0.00000037,0.18164348,-0.13848426,0.1078
 2138,0.00071545,-0.00057244,0.00213125,-0.15055723,0.12546805,-0.00003
 568,-0.00008620,-0.00022985,0.00001590,-0.00000538,0.00001246,0.000022
 34,0.00000094,0.00003785,0.00017054,0.00007351,0.00025439,-0.00019448,
 0.00009784,0.00002135,-0.00003484,-0.00001793,0.00002080,-0.00002485,-
 0.00001887,-0.00004390,-0.00001217,-0.00000122,-0.00001031,0.00001056,
 -0.00001844,-0.00001773,0.00000819,0.00001175,0.00000591,0.00002036,0.
 00001823,0.00002738,-0.00000227,0.00000724,-0.00000543,-0.00000196,-0.
 00000845,-0.00001574,0.00001197,0.00002261,-0.00000108,0.00059141,-0.0
 0033277,0.00002899,-0.00000314,-0.00000715,-0.00002195,0.00000412,-0.0
 0000384,0.00001092,0.00005135,0.00001025,-0.00007251,-0.00002189,-0.00
 001368,0.00000982,-0.00025816,-0.00004483,-0.00023534,0.00009691,0.000
 00521,0.00002927,-0.00004004,0.00001313,-0.00003622,-0.00000542,0.0000
 0432,0.00001649,-0.18275689,0.07386382,-0.12544371,0.00064702,-0.00066
 915,0.00498092,0.19746978,-0.08869548,0.13349921,0.00167313,-0.0011366
 0,-0.00074028,-0.00025089,-0.00005773,0.00011758,0.00056243,-0.0015194
 9,-0.00141918,0.00032724,0.00063128,0.00097136,-0.01058864,-0.00016690
 ,-0.00227811,-0.00117350,-0.00043242,-0.00017788,0.00009657,-0.0000919
 4,-0.00035716,0.00001013,0.00005808,-0.00000396,0.00007307,-0.00008070
 ,-0.00008853,0.00014047,-0.00002398,0.00010759,-0.00001013,0.00043402,
 0.00008953,-0.00001157,-0.00000896,0.00002829,0.00000296,-0.00006204,-
 0.00008219,0.00037380,0.00041598,0.00081618,0.00319259,0.00247238,0.00
 296927,0.00046016,-0.00029839,-0.00008602,-0.00016974,0.00011309,0.000
 06397,0.00099348,0.00046402,0.00005361,-0.00021263,-0.00027078,-0.0000
 5339,-0.00040558,-0.00025180,-0.00070715,0.00024559,0.00004888,0.00011
 743,0.00048274,0.00008256,-0.00013944,-0.00021789,0.00001230,0.0000220
 7,-0.13448324,-0.12023219,-0.09659561,0.00683686,0.00241363,-0.0000571
 3,-0.01833967,-0.03178565,-0.01702350,0.15394054,-0.00083372,-0.002429
 50,-0.00100540,-0.00028728,0.00016196,-0.00007565,0.00085230,-0.001045
 59,-0.00053875,0.00028831,0.00088496,0.00120552,-0.00878544,0.00455309
 ,-0.00417364,0.00022140,0.00010256,-0.00002431,0.00007042,-0.00017345,
 -0.00038396,-0.00018449,0.00002374,-0.00006076,0.00012286,-0.00011799,
 -0.00008058,0.00005820,-0.00008881,0.00007786,0.00004109,0.00023277,0.
 00010122,0.00002302,-0.00005624,0.00004319,0.00000831,-0.00005701,-0.0
 0007890,0.00106124,0.00016329,0.00110027,0.00649246,-0.00420370,0.0051
 0248,0.00003523,-0.00021678,-0.00003704,-0.00008913,0.00014730,0.00001
 442,0.00159201,0.00049634,0.00005170,-0.00024018,-0.00025794,-0.000095
 86,-0.00044238,-0.00078933,-0.00067106,0.00016372,0.00013674,0.0000349
 1,0.00022229,-0.00028715,0.00001570,-0.00022678,0.00017033,0.00004439,
 -0.16963006,-0.29688978,-0.15406500,0.00234419,-0.00231944,-0.00380104
 ,0.01794093,0.01450122,0.01544652,0.14918182,0.28577823,-0.00042905,-0
 .00022635,-0.00099449,0.00009991,0.00003278,0.00004156,0.00041581,0.00
 018259,0.00028521,0.00051447,0.00029941,0.00071536,-0.00308614,-0.0001
 0651,-0.00070278,0.00022011,-0.00000297,-0.00007006,-0.00008692,-0.000
 08224,-0.00014294,-0.00013938,-0.00002840,-0.00003433,0.00004870,-0.00
 004889,-0.00006571,-0.00002193,0.00001948,0.00002897,0.00005967,0.0000
 1518,0.00009640,-0.00000436,0.00002347,-0.00001203,0.00000372,-0.00002
 827,-0.00005883,-0.00035126,-0.00005323,0.00051379,0.00382505,0.002288
 24,-0.00367254,-0.00007943,-0.00000191,-0.00005573,0.00002512,-0.00001
 008,0.00001777,0.00036557,0.00009003,-0.00025382,-0.00006483,-0.000091
 52,0.00002536,-0.00074556,-0.00047672,-0.00042215,0.00004092,0.0000277
 7,-0.00002651,-0.00016138,-0.00002290,-0.00008705,-0.00002622,0.000036
 19,0.00005419,-0.10253214,-0.11764455,-0.09539642,0.00012669,-0.004604
 46,-0.00326159,-0.01161941,-0.02093799,-0.01021366,0.11241753,0.139452
 90,0.11240648,-0.01366386,-0.00679978,-0.02067268,0.00063949,0.0012879
 0,0.00061624,0.00007944,0.00026518,-0.00020129,0.00099149,0.00127951,0
 .00122697,-0.00528848,0.00266070,-0.00038663,0.00580227,0.00053471,-0.
 00241653,-0.00023101,-0.00035900,-0.00023212,-0.00181284,-0.00046044,0
 .00001463,0.00023329,-0.00031360,-0.00036899,0.00009379,-0.00021030,-0
 .00002290,0.00067731,-0.00045924,0.00058816,0.00001606,-0.00004625,-0.
 00014814,-0.00006123,-0.00010722,-0.00022356,0.00014746,-0.00029799,0.
 00027564,0.00527395,0.00109560,0.00151071,-0.00145124,0.00039286,0.000
 00734,0.00041454,-0.00008090,-0.00014707,0.00028462,-0.00046103,-0.000
 26419,0.00002907,0.00006936,0.00003248,-0.00072614,-0.00753295,0.00007
 993,-0.00041171,0.00102251,-0.00086418,-0.00110790,-0.00113806,0.00013
 408,0.00003753,0.00043388,0.00002752,-0.01117224,0.00568208,0.01524954
 ,-0.29441294,0.02867958,0.18389828,0.00138370,-0.00024560,0.00051467,-
 0.00394939,-0.00283147,-0.00180300,0.36567741,-0.00203917,0.00573434,-
 0.00275726,0.00076148,-0.00034102,0.00010756,0.00020738,0.00049131,0.0
 0045332,0.00280779,-0.00051293,0.00386718,0.00117849,-0.00048750,0.001
 23692,0.00013943,0.00017588,0.00008191,-0.00088454,-0.00026272,-0.0007
 8097,0.00001276,0.00004516,-0.00001286,0.00012161,-0.00011135,-0.00002
 619,-0.00004246,0.00008149,0.00006088,-0.00047020,-0.00073389,-0.00068
 486,-0.00008922,0.00013625,-0.00013813,0.00002777,0.00006171,0.0003765
 4,-0.00013444,0.00020732,-0.00012922,-0.00062410,-0.00020604,-0.001144
 83,0.00013319,0.00062824,0.00013068,0.00019372,-0.00036353,0.00002302,
 -0.00038902,-0.00022057,-0.00069540,0.00000943,0.00006390,0.00003431,-
 0.00684913,-0.00612246,-0.00093497,-0.00061214,-0.00092814,-0.00049364
 ,-0.00083541,0.00056255,-0.00035330,0.00018027,-0.00014966,0.00013007,
 0.00354726,0.00439492,-0.00273266,-0.01557292,-0.05492557,0.01822524,-
 0.00074722,0.00005318,0.00032214,-0.00147338,0.00003408,0.00166200,0.0
 4778444,0.51232788,-0.02337902,-0.00685665,-0.01274782,-0.00035870,0.0
 0016875,-0.00153964,0.00032295,0.00044186,-0.00006124,-0.00223350,0.00
 039365,-0.00290666,0.00069679,0.00298631,-0.00004576,0.00627558,0.0003
 6336,-0.00547158,0.00046271,0.00007530,0.00062892,-0.00227765,-0.00054
 592,0.00037922,-0.00039072,0.00006647,0.00076185,-0.00005711,-0.000191
 36,0.00003399,-0.00030518,-0.00140871,-0.00071356,0.00013337,-0.000167
 91,0.00016468,-0.00002983,0.00039212,0.00041630,-0.00013801,-0.0003011
 2,0.00023528,-0.00031495,-0.00174726,0.00006615,-0.00111475,0.00071444
 ,0.00059347,0.00023963,0.00001569,-0.00033116,-0.00039263,-0.00041719,
 0.00059162,0.00019676,0.00018806,0.00003894,0.00377405,0.00419158,0.00
 503795,-0.00145587,-0.00211840,-0.00000049,-0.00034614,-0.00094627,0.0
 0126263,0.00024257,0.00042965,-0.00018699,0.01143613,-0.00281989,-0.00
 261107,0.18888727,-0.01127359,-0.14607311,0.00102689,-0.00086076,-0.00
 302739,-0.00061072,0.00171223,0.00125916,-0.21815616,-0.07787752,0.202
 74081,-0.10029061,-0.04393170,-0.08805211,0.00091566,-0.00193814,0.000
 57821,-0.00020672,-0.00020791,0.00018420,0.00230788,-0.00083435,0.0024
 7731,0.00704110,-0.00459415,0.00271400,-0.02503300,-0.01476511,-0.0288
 9424,-0.00045103,0.00008309,-0.00042445,-0.00274321,0.00011934,0.00189
 936,-0.00019133,-0.00023732,0.00029418,-0.00007353,0.00030355,0.000046
 82,-0.00040600,0.00052715,-0.00155502,-0.00020142,0.00029131,0.0000724
 2,-0.00024190,0.00050802,0.00043469,-0.00013243,0.00098910,-0.00041528
 ,-0.00552297,-0.00069694,-0.00260640,0.00203957,-0.00011689,0.00040637
 ,-0.00030989,-0.00015987,0.00018145,-0.00007101,0.00030737,-0.00042683
 ,-0.00015729,-0.00015132,-0.00002231,-0.00308947,-0.00204380,-0.001787
 48,0.00044272,0.00027448,0.00011857,0.00107313,0.00190530,-0.00065917,
 0.00002222,-0.00036168,-0.00003471,0.00258168,-0.00142136,-0.00237711,
 -0.01098112,0.00031090,-0.00216219,-0.00022241,-0.00007067,0.00002146,
 0.00016541,0.00207509,0.00148883,0.00126768,-0.00134504,0.01481717,0.1
 3028035,-0.06033512,-0.06214340,-0.10677647,-0.00121803,-0.00051257,-0
 .00073340,-0.00056084,-0.00046606,-0.00001317,-0.00079200,-0.00232797,
 -0.00004309,-0.00137480,-0.00063084,-0.00319309,-0.00475523,-0.0055673
 8,-0.00194624,-0.00003929,0.00027264,-0.00002789,-0.00045602,0.0005764
 7,0.00044149,-0.00008422,0.00009553,-0.00007922,0.00004837,0.00009789,
 0.00005644,0.00209721,0.00301469,0.00207929,0.00018783,-0.00012371,0.0
 0034220,-0.00004850,-0.00005274,-0.00092001,0.00027804,-0.00092411,-0.
 00011700,0.00030729,0.00070307,0.00106774,0.00017439,-0.00160233,-0.00
 057125,-0.00036687,0.00045525,-0.00000780,0.00028882,0.00030093,0.0003
 0776,0.00000054,-0.00004309,-0.00008064,-0.00050751,0.00042792,-0.0007
 1980,0.00039754,0.00034283,0.00021626,0.00129818,0.00050890,0.00010346
 ,-0.00004365,-0.00004061,-0.00007749,-0.00004487,-0.00067421,-0.000346
 24,-0.00098722,0.00116148,0.00003150,0.00002693,-0.00000983,0.00002362
 ,0.00101354,0.00045771,-0.00010944,-0.00090110,-0.01157297,0.00180135,
 0.05958881,0.07852906,-0.12696369,-0.11307734,-0.28291991,0.00193253,0
 .00007221,0.00380889,-0.00008435,-0.00013884,0.00061264,0.00276763,0.0
 0022573,0.00286426,0.00411540,-0.00479217,0.00037253,0.00135875,0.0063
 0415,0.01362582,-0.00049860,-0.00003446,-0.00048165,0.00476704,0.00120
 179,0.00098957,0.00028321,-0.00035626,-0.00110060,0.00000457,0.0002829
 1,-0.00006677,0.00035717,0.00266658,0.00147070,-0.00028555,0.00020365,
 -0.00027225,-0.00012933,-0.00060587,-0.00090183,0.00006641,0.00043550,
 -0.00008725,-0.00359957,0.00031920,-0.00149542,0.00185403,-0.00130928,
 -0.00087906,-0.00038993,-0.00004278,0.00049344,-0.00003584,0.00043922,
 -0.00064302,-0.00018126,-0.00013870,-0.00003948,-0.00299227,-0.0031261
 9,-0.00228382,0.00036369,0.00082204,-0.00016533,0.00081418,0.00174241,
 -0.00223947,-0.00035037,-0.00078809,0.00013850,0.00177663,-0.00124307,
 -0.00395734,-0.00378064,-0.00075041,0.00867081,-0.00047540,0.00011407,
 0.00030875,0.00145838,0.00081594,0.00119122,0.01250083,0.00200668,-0.0
 0243598,0.10750930,0.10231986,0.27070948,-0.00156432,-0.00220199,0.000
 13970,-0.00114369,-0.00035055,-0.00058577,0.00013700,-0.00034662,-0.00
 018284,-0.00425716,-0.00150991,-0.00399876,0.00260473,0.00014683,-0.00
 052336,-0.00003454,0.00046365,-0.00102393,0.00084870,0.00045744,0.0006
 3016,-0.00006712,-0.00011727,0.00018935,-0.00039394,0.00027528,0.00041
 661,-0.00002449,0.00000871,0.00001031,-0.00014211,0.00018531,0.0001980
 0,0.00007656,-0.00013942,0.00011589,0.00003510,0.00005075,-0.00007872,
 -0.00019046,-0.00002321,0.00005746,-0.00221811,-0.00080882,-0.00058397
 ,0.00007615,-0.00029056,0.00004489,-0.00020259,0.00027987,-0.00005542,
 -0.00008649,0.00021224,0.00075215,0.00006841,-0.00000322,0.00000765,0.
 00003983,0.00451720,0.00222894,0.00012661,-0.00201293,0.00169170,0.001
 01326,-0.00007034,0.00060000,-0.00001585,0.00003883,-0.00017450,0.0010
 5400,0.00136203,-0.00246056,-0.00546740,-0.04294796,0.00983663,-0.0009
 5453,-0.00003197,0.00075871,0.00023572,0.00075602,0.00149892,-0.048760
 12,-0.02499665,0.02304908,0.00218792,0.00680777,-0.00216295,0.05701891
 ,-0.00364402,-0.00213234,-0.00329228,-0.00049086,0.00124485,0.00058472
 ,-0.00004340,-0.00046993,-0.00050548,-0.00418491,0.00098611,-0.0067850
 5,-0.00009698,0.00143655,-0.00112025,0.00206097,0.00058161,-0.00091774
 ,0.00153398,0.00051129,0.00134790,-0.00043726,-0.00015313,0.00002136,0
 .00001099,0.00009530,-0.00012592,0.00001836,-0.00017018,-0.00009432,0.
 00016200,0.00005413,0.00050822,0.00006276,-0.00017343,0.00002576,-0.00
 000739,-0.00007231,-0.00016125,0.00005026,-0.00030710,0.00017817,-0.00
 023747,-0.00075750,0.00070062,-0.00040203,-0.00024174,-0.00001207,-0.0
 0008263,0.00033837,-0.00006919,0.00026243,0.00013598,0.00102552,0.0000
 7494,-0.00001402,-0.00000074,0.00275821,-0.00425109,0.00598966,0.00051
 040,0.00057364,0.00100425,0.00090580,-0.00111313,0.00044874,-0.0002368
 3,0.00025329,-0.00021194,0.00180118,-0.00125561,-0.00220554,0.00221872
 ,-0.00110545,-0.00160239,-0.00005744,0.00013465,0.00000226,0.00055139,
 0.00108839,0.00034639,-0.06894337,-0.44805985,0.09359170,0.00559271,-0
 .00025254,0.00643152,0.06028950,0.45309519,0.00258789,-0.00095573,0.00
 138557,-0.00028844,-0.00016989,0.00040031,-0.00051643,-0.00033479,-0.0
 0010658,0.00072932,-0.00144568,0.00178527,-0.00200923,-0.00126673,-0.0
 0091698,-0.00243754,-0.00054883,0.00035457,-0.00028085,-0.00008186,-0.
 00038090,0.00030462,0.00010160,-0.00002258,0.00013680,-0.00008075,-0.0
 0010692,0.00004896,0.00008496,-0.00001115,0.00007548,0.00043475,0.0000
 8915,-0.00002596,0.00004785,-0.00001821,-0.00003829,-0.00007284,-0.000
 08895,0.00021633,-0.00003634,-0.00009734,0.00113563,0.00096924,0.00081
 648,0.00043376,-0.00022239,-0.00014568,-0.00009043,-0.00000583,0.00010
 275,0.00039467,0.00016195,-0.00022782,-0.00009424,-0.00008932,-0.00004
 906,-0.00221503,-0.00024538,-0.00704087,0.00292008,0.00385333,-0.00027
 692,0.00015495,0.00036420,-0.00034466,-0.00007149,-0.00010314,0.000067
 23,-0.00115642,-0.00122203,0.00045125,0.00364871,0.02902773,-0.0049166
 0,0.00024165,0.00005124,0.00011030,0.00118745,-0.00012731,-0.00116483,
 0.02923043,0.06004335,-0.03605853,-0.00382701,0.00697126,-0.00528743,-
 0.03039536,-0.09510263,0.05169912\\-0.00003201,-0.00000548,0.00000366,
 -0.00004193,-0.00003462,0.00002655,0.00001556,-0.00001620,0.00001169,-
 0.00002779,0.00003097,0.00000752,-0.00000679,-0.00002102,-0.00000384,0
 .00005749,0.00002132,-0.00004165,-0.00000305,0.00000916,0.00001259,-0.
 00000607,-0.00000844,-0.00000233,0.00000482,0.00001610,-0.00000315,-0.
 00000840,0.00000469,0.00001067,-0.00001956,-0.00000160,-0.00000908,0.0
 0000661,0.00000142,-0.00001289,0.00000714,0.00000748,-0.00001138,0.000
 00184,-0.00000932,0.00000672,0.00000278,0.00001282,0.00000222,0.000015
 23,-0.00000078,-0.00001732,-0.00000200,0.00001082,-0.00000666,-0.00001
 260,-0.00000416,0.00000643,-0.00000137,-0.00000967,0.00001061,0.000006
 06,0.00000678,0.00001330,-0.00000413,0.00000576,0.00000694,0.00003601,
 0.00001642,-0.00000062,-0.00000475,0.00000024,0.00000254,0.00002076,0.
 00000686,-0.00002214,-0.00000887,0.00001333,0.00000555,0.00000033,-0.0
 0000929,0.00000227,-0.00000775,-0.00003908,0.00001656,0.00000166,-0.00
 001550,-0.00000690,0.00001226,-0.00000201,-0.00000444,-0.00000147,0.00
 001301,-0.00000340\\\@


 CHARLIE BROWN -- WHICH DO YOU THINK LASTS LONGER IN LIFE, THE GOOD THINGS 
                  OR THE BAD THINGS?
 LINUS --         GOOD THINGS LAST EIGHT SECONDS ..
                  BAD THINGS LAST THREE WEEKS
 CHARLIE BROWN -- WHAT ABOUT IN BETWEEN?
 SNOOPY --        IN BETWEEN YOU SHOULD TAKE A NAP ...
 Job cpu time:       0 days  0 hours 35 minutes 24.4 seconds.
 File lengths (MBytes):  RWF=    220 Int=      0 D2E=      0 Chk=      6 Scr=      1
 Normal termination of Gaussian 09 at Sun Jan 15 13:08:19 2017.
