 Entering Gaussian System, Link 0=g09
 Initial command:
 /global/software/gaussian/g09.e01/l1.exe "/scratch/10462939.yak.local/Gau-31818.inp" -scrdir="/scratch/10462939.yak.local/"
 Entering Link 1 = /global/software/gaussian/g09.e01/l1.exe PID=     31819.
  
 Copyright (c) 1988,1990,1992,1993,1995,1998,2003,2009,2015,
            Gaussian, Inc.  All Rights Reserved.
  
 This is part of the Gaussian(R) 09 program.  It is based on
 the Gaussian(R) 03 system (copyright 2003, Gaussian, Inc.),
 the Gaussian(R) 98 system (copyright 1998, Gaussian, Inc.),
 the Gaussian(R) 94 system (copyright 1995, Gaussian, Inc.),
 the Gaussian 92(TM) system (copyright 1992, Gaussian, Inc.),
 the Gaussian 90(TM) system (copyright 1990, Gaussian, Inc.),
 the Gaussian 88(TM) system (copyright 1988, Gaussian, Inc.),
 the Gaussian 86(TM) system (copyright 1986, Carnegie Mellon
 University), and the Gaussian 82(TM) system (copyright 1983,
 Carnegie Mellon University). Gaussian is a federally registered
 trademark of Gaussian, Inc.
  
 This software contains proprietary and confidential information,
 including trade secrets, belonging to Gaussian, Inc.
  
 This software is provided under written license and may be
 used, copied, transmitted, or stored only in accord with that
 written license.
  
 The following legend is applicable only to US Government
 contracts under FAR:
  
                    RESTRICTED RIGHTS LEGEND
  
 Use, reproduction and disclosure by the US Government is
 subject to restrictions as set forth in subparagraphs (a)
 and (c) of the Commercial Computer Software - Restricted
 Rights clause in FAR 52.227-19.
  
 Gaussian, Inc.
 340 Quinnipiac St., Bldg. 40, Wallingford CT 06492
  
  
 ---------------------------------------------------------------
 Warning -- This program may not be used in any manner that
 competes with the business of Gaussian, Inc. or will provide
 assistance to any competitor of Gaussian, Inc.  The licensee
 of this program is prohibited from giving any competitor of
 Gaussian, Inc. access to this program.  By using this program,
 the user acknowledges that Gaussian, Inc. is engaged in the
 business of creating and licensing software in the field of
 computational chemistry and represents and warrants to the
 licensee that it is not a competitor of Gaussian, Inc. and that
 it will not use this program in any manner prohibited above.
 ---------------------------------------------------------------
  

 Cite this work as:
 Gaussian 09, Revision E.01,
 M. J. Frisch, G. W. Trucks, H. B. Schlegel, G. E. Scuseria, 
 M. A. Robb, J. R. Cheeseman, G. Scalmani, V. Barone, B. Mennucci, 
 G. A. Petersson, H. Nakatsuji, M. Caricato, X. Li, H. P. Hratchian, 
 A. F. Izmaylov, J. Bloino, G. Zheng, J. L. Sonnenberg, M. Hada, 
 M. Ehara, K. Toyota, R. Fukuda, J. Hasegawa, M. Ishida, T. Nakajima, 
 Y. Honda, O. Kitao, H. Nakai, T. Vreven, J. A. Montgomery, Jr., 
 J. E. Peralta, F. Ogliaro, M. Bearpark, J. J. Heyd, E. Brothers, 
 K. N. Kudin, V. N. Staroverov, T. Keith, R. Kobayashi, J. Normand, 
 K. Raghavachari, A. Rendell, J. C. Burant, S. S. Iyengar, J. Tomasi, 
 M. Cossi, N. Rega, J. M. Millam, M. Klene, J. E. Knox, J. B. Cross, 
 V. Bakken, C. Adamo, J. Jaramillo, R. Gomperts, R. E. Stratmann, 
 O. Yazyev, A. J. Austin, R. Cammi, C. Pomelli, J. W. Ochterski, 
 R. L. Martin, K. Morokuma, V. G. Zakrzewski, G. A. Voth, 
 P. Salvador, J. J. Dannenberg, S. Dapprich, A. D. Daniels, 
 O. Farkas, J. B. Foresman, J. V. Ortiz, J. Cioslowski, 
 and D. J. Fox, Gaussian, Inc., Wallingford CT, 2013.
 
 ******************************************
 Gaussian 09:  ES64L-G09RevE.01 30-Nov-2015
                15-Jan-2017 
 ******************************************
 %NPROCS=4
 Will use up to    4 processors via shared memory.
 -----------------------------------------
 # opt=(MaxCycle=1000) freq B3LYP/6-31G(d)
 -----------------------------------------
 1/6=1000,14=-1,18=20,19=15,26=3,38=1/1,3;
 2/9=110,12=2,17=6,18=5,40=1/2;
 3/5=1,6=6,7=1,11=2,16=1,25=1,30=1,71=1,74=-5/1,2,3;
 4//1;
 5/5=2,38=5/2;
 6/7=2,8=2,9=2,10=2,28=1/1;
 7//1,2,3,16;
 1/6=1000,14=-1,18=20,19=15,26=3/3(2);
 2/9=110/2;
 99//99;
 2/9=110/2;
 3/5=1,6=6,7=1,11=2,16=1,25=1,30=1,71=1,74=-5/1,2,3;
 4/5=5,16=3,69=1/1;
 5/5=2,38=5/2;
 7//1,2,3,16;
 1/6=1000,14=-1,18=20,19=15,26=3/3(-5);
 2/9=110/2;
 6/7=2,8=2,9=2,10=2,19=2,28=1/1;
 99/9=1/99;
 -----------------------------------------------
 ./boats/5/glo_2w_alpha_ts_boat5_B3LYP_631Gd.out
 -----------------------------------------------
 Symbolic Z-matrix:
 Charge =  0 Multiplicity = 1
 O                     0.22695  -0.73043  -1.15136 
 C                    -0.7646   -0.12692   1.05354 
 C                    -0.25992   1.78006  -0.60508 
 C                    -1.16761   1.26283   0.54268 
 C                     0.9768    0.94032  -0.99333 
 C                    -0.6365   -1.15414  -0.08277 
 H                    -1.06869   1.97338   1.37338 
 H                    -0.17706  -2.05017   0.36772 
 H                    -1.56923  -0.49691   1.70796 
 H                    -0.90221   1.882    -1.48558 
 C                    -1.9676   -1.57425  -0.72012 
 H                    -1.77512  -2.399    -1.42133 
 H                    -2.38802  -0.73945  -1.27974 
 O                    -2.93887  -1.93589   0.25892 
 H                    -2.70017  -2.80549   0.61491 
 O                     0.28162   3.06098  -0.31884 
 H                     1.14402   2.87722   0.09844 
 O                    -2.5157    1.25104   0.05024 
 H                    -3.07306   0.78965   0.69823 
 O                     0.4404    0.00674   1.8009 
 H                     0.72106  -0.86777   2.11128 
 H                     1.1514    0.93843  -2.08162 
 O                     1.98348   0.98644  -0.24089 
 H                     2.63785  -1.71918  -0.01124 
 O                     2.11441  -2.20365  -0.75723 
 H                     1.87257  -3.08643  -0.44611 
 H                     1.05273  -1.36844  -1.10434 
 O                     3.16374  -0.79668   0.92988 
 H                     4.11172  -0.65331   0.79073 
 H                     2.69803   0.03053   0.58009 
 
 Add virtual bond connecting atoms H27        and O25        Dist= 2.64D+00.
 Add virtual bond connecting atoms O28        and H24        Dist= 2.68D+00.
 Add virtual bond connecting atoms H30        and O23        Dist= 2.74D+00.

 GradGradGradGradGradGradGradGradGradGradGradGradGradGradGradGradGradGrad
 Berny optimization.
 Initialization pass.
                           ----------------------------
                           !    Initial Parameters    !
                           ! (Angstroms and Degrees)  !
 --------------------------                            --------------------------
 ! Name  Definition              Value          Derivative Info.                !
 --------------------------------------------------------------------------------
 ! R1    R(1,6)                  1.4377         estimate D2E/DX2                !
 ! R2    R(1,27)                 1.0446         estimate D2E/DX2                !
 ! R3    R(2,4)                  1.5345         estimate D2E/DX2                !
 ! R4    R(2,6)                  1.5371         estimate D2E/DX2                !
 ! R5    R(2,9)                  1.1012         estimate D2E/DX2                !
 ! R6    R(2,20)                 1.4242         estimate D2E/DX2                !
 ! R7    R(3,4)                  1.552          estimate D2E/DX2                !
 ! R8    R(3,5)                  1.5445         estimate D2E/DX2                !
 ! R9    R(3,10)                 1.0946         estimate D2E/DX2                !
 ! R10   R(3,16)                 1.4198         estimate D2E/DX2                !
 ! R11   R(4,7)                  1.0976         estimate D2E/DX2                !
 ! R12   R(4,18)                 1.4353         estimate D2E/DX2                !
 ! R13   R(5,22)                 1.1022         estimate D2E/DX2                !
 ! R14   R(5,23)                 1.2577         estimate D2E/DX2                !
 ! R15   R(6,8)                  1.1031         estimate D2E/DX2                !
 ! R16   R(6,11)                 1.5344         estimate D2E/DX2                !
 ! R17   R(11,12)                1.0995         estimate D2E/DX2                !
 ! R18   R(11,13)                1.0894         estimate D2E/DX2                !
 ! R19   R(11,14)                1.4257         estimate D2E/DX2                !
 ! R20   R(14,15)                0.9695         estimate D2E/DX2                !
 ! R21   R(16,17)                0.9755         estimate D2E/DX2                !
 ! R22   R(18,19)                0.9713         estimate D2E/DX2                !
 ! R23   R(20,21)                0.9695         estimate D2E/DX2                !
 ! R24   R(23,30)                1.4486         estimate D2E/DX2                !
 ! R25   R(24,25)                1.0321         estimate D2E/DX2                !
 ! R26   R(24,28)                1.4189         estimate D2E/DX2                !
 ! R27   R(25,26)                0.9667         estimate D2E/DX2                !
 ! R28   R(25,27)                1.3947         estimate D2E/DX2                !
 ! R29   R(28,29)                0.9688         estimate D2E/DX2                !
 ! R30   R(28,30)                1.0117         estimate D2E/DX2                !
 ! A1    A(6,1,27)             105.148          estimate D2E/DX2                !
 ! A2    A(4,2,6)              112.3959         estimate D2E/DX2                !
 ! A3    A(4,2,9)              108.0735         estimate D2E/DX2                !
 ! A4    A(4,2,20)             108.1738         estimate D2E/DX2                !
 ! A5    A(6,2,9)              106.0027         estimate D2E/DX2                !
 ! A6    A(6,2,20)             112.341          estimate D2E/DX2                !
 ! A7    A(9,2,20)             109.7492         estimate D2E/DX2                !
 ! A8    A(4,3,5)              118.2301         estimate D2E/DX2                !
 ! A9    A(4,3,10)             106.4233         estimate D2E/DX2                !
 ! A10   A(4,3,16)             112.0014         estimate D2E/DX2                !
 ! A11   A(5,3,10)             108.5587         estimate D2E/DX2                !
 ! A12   A(5,3,16)             103.6375         estimate D2E/DX2                !
 ! A13   A(10,3,16)            107.5745         estimate D2E/DX2                !
 ! A14   A(2,4,3)              113.2296         estimate D2E/DX2                !
 ! A15   A(2,4,7)              108.0991         estimate D2E/DX2                !
 ! A16   A(2,4,18)             110.6989         estimate D2E/DX2                !
 ! A17   A(3,4,7)              106.9325         estimate D2E/DX2                !
 ! A18   A(3,4,18)             107.3571         estimate D2E/DX2                !
 ! A19   A(7,4,18)             110.4651         estimate D2E/DX2                !
 ! A20   A(3,5,22)             112.0852         estimate D2E/DX2                !
 ! A21   A(3,5,23)             118.0739         estimate D2E/DX2                !
 ! A22   A(22,5,23)            117.6454         estimate D2E/DX2                !
 ! A23   A(1,6,2)              113.7379         estimate D2E/DX2                !
 ! A24   A(1,6,8)              107.0246         estimate D2E/DX2                !
 ! A25   A(1,6,11)             107.0349         estimate D2E/DX2                !
 ! A26   A(2,6,8)              105.9996         estimate D2E/DX2                !
 ! A27   A(2,6,11)             114.6907         estimate D2E/DX2                !
 ! A28   A(8,6,11)             107.9707         estimate D2E/DX2                !
 ! A29   A(6,11,12)            108.5661         estimate D2E/DX2                !
 ! A30   A(6,11,13)            109.7758         estimate D2E/DX2                !
 ! A31   A(6,11,14)            112.0359         estimate D2E/DX2                !
 ! A32   A(12,11,13)           108.3454         estimate D2E/DX2                !
 ! A33   A(12,11,14)           111.5263         estimate D2E/DX2                !
 ! A34   A(13,11,14)           106.5121         estimate D2E/DX2                !
 ! A35   A(11,14,15)           108.1762         estimate D2E/DX2                !
 ! A36   A(3,16,17)            104.6834         estimate D2E/DX2                !
 ! A37   A(4,18,19)            108.2995         estimate D2E/DX2                !
 ! A38   A(2,20,21)            109.1644         estimate D2E/DX2                !
 ! A39   A(5,23,30)            135.2124         estimate D2E/DX2                !
 ! A40   A(24,25,26)           108.8385         estimate D2E/DX2                !
 ! A41   A(24,25,27)           106.5499         estimate D2E/DX2                !
 ! A42   A(26,25,27)           115.8808         estimate D2E/DX2                !
 ! A43   A(24,28,29)           111.3222         estimate D2E/DX2                !
 ! A44   A(24,28,30)            97.5655         estimate D2E/DX2                !
 ! A45   A(29,28,30)           106.2466         estimate D2E/DX2                !
 ! A46   A(23,30,28)           164.2791         estimate D2E/DX2                !
 ! A47   L(25,24,28,2,-1)      169.8708         estimate D2E/DX2                !
 ! A48   L(1,27,25,8,-1)       170.6365         estimate D2E/DX2                !
 ! A49   L(25,24,28,2,-2)      188.8657         estimate D2E/DX2                !
 ! A50   L(1,27,25,8,-2)       187.3529         estimate D2E/DX2                !
 ! D1    D(27,1,6,2)           112.3202         estimate D2E/DX2                !
 ! D2    D(27,1,6,8)            -4.3953         estimate D2E/DX2                !
 ! D3    D(27,1,6,11)         -119.9451         estimate D2E/DX2                !
 ! D4    D(6,1,25,24)          -82.0799         estimate D2E/DX2                !
 ! D5    D(6,1,25,26)           35.9057         estimate D2E/DX2                !
 ! D6    D(6,2,4,3)            -52.0076         estimate D2E/DX2                !
 ! D7    D(6,2,4,7)           -170.2835         estimate D2E/DX2                !
 ! D8    D(6,2,4,18)            68.6045         estimate D2E/DX2                !
 ! D9    D(9,2,4,3)           -168.6312         estimate D2E/DX2                !
 ! D10   D(9,2,4,7)             73.0929         estimate D2E/DX2                !
 ! D11   D(9,2,4,18)           -48.0191         estimate D2E/DX2                !
 ! D12   D(20,2,4,3)            72.6028         estimate D2E/DX2                !
 ! D13   D(20,2,4,7)           -45.6731         estimate D2E/DX2                !
 ! D14   D(20,2,4,18)         -166.7851         estimate D2E/DX2                !
 ! D15   D(4,2,6,1)             52.9451         estimate D2E/DX2                !
 ! D16   D(4,2,6,8)            170.2566         estimate D2E/DX2                !
 ! D17   D(4,2,6,11)           -70.7251         estimate D2E/DX2                !
 ! D18   D(9,2,6,1)            170.8016         estimate D2E/DX2                !
 ! D19   D(9,2,6,8)            -71.887          estimate D2E/DX2                !
 ! D20   D(9,2,6,11)            47.1313         estimate D2E/DX2                !
 ! D21   D(20,2,6,1)           -69.3361         estimate D2E/DX2                !
 ! D22   D(20,2,6,8)            47.9753         estimate D2E/DX2                !
 ! D23   D(20,2,6,11)          166.9936         estimate D2E/DX2                !
 ! D24   D(4,2,20,21)         -178.52           estimate D2E/DX2                !
 ! D25   D(6,2,20,21)          -53.8769         estimate D2E/DX2                !
 ! D26   D(9,2,20,21)           63.7833         estimate D2E/DX2                !
 ! D27   D(5,3,4,2)             -5.7312         estimate D2E/DX2                !
 ! D28   D(5,3,4,7)            113.2196         estimate D2E/DX2                !
 ! D29   D(5,3,4,18)          -128.2206         estimate D2E/DX2                !
 ! D30   D(10,3,4,2)           116.603          estimate D2E/DX2                !
 ! D31   D(10,3,4,7)          -124.4462         estimate D2E/DX2                !
 ! D32   D(10,3,4,18)           -5.8864         estimate D2E/DX2                !
 ! D33   D(16,3,4,2)          -126.0994         estimate D2E/DX2                !
 ! D34   D(16,3,4,7)            -7.1486         estimate D2E/DX2                !
 ! D35   D(16,3,4,18)          111.4112         estimate D2E/DX2                !
 ! D36   D(4,3,5,22)           142.1226         estimate D2E/DX2                !
 ! D37   D(4,3,5,23)           -76.2557         estimate D2E/DX2                !
 ! D38   D(10,3,5,22)           20.8742         estimate D2E/DX2                !
 ! D39   D(10,3,5,23)          162.4959         estimate D2E/DX2                !
 ! D40   D(16,3,5,22)          -93.2807         estimate D2E/DX2                !
 ! D41   D(16,3,5,23)           48.341          estimate D2E/DX2                !
 ! D42   D(4,3,16,17)           92.7452         estimate D2E/DX2                !
 ! D43   D(5,3,16,17)          -35.7902         estimate D2E/DX2                !
 ! D44   D(10,3,16,17)        -150.6493         estimate D2E/DX2                !
 ! D45   D(2,4,18,19)           46.3915         estimate D2E/DX2                !
 ! D46   D(3,4,18,19)          170.4367         estimate D2E/DX2                !
 ! D47   D(7,4,18,19)          -73.3099         estimate D2E/DX2                !
 ! D48   D(3,5,23,30)          116.4954         estimate D2E/DX2                !
 ! D49   D(22,5,23,30)        -104.0039         estimate D2E/DX2                !
 ! D50   D(1,6,11,12)           60.1332         estimate D2E/DX2                !
 ! D51   D(1,6,11,13)          -58.1349         estimate D2E/DX2                !
 ! D52   D(1,6,11,14)         -176.2576         estimate D2E/DX2                !
 ! D53   D(2,6,11,12)         -172.6915         estimate D2E/DX2                !
 ! D54   D(2,6,11,13)           69.0405         estimate D2E/DX2                !
 ! D55   D(2,6,11,14)          -49.0823         estimate D2E/DX2                !
 ! D56   D(8,6,11,12)          -54.7838         estimate D2E/DX2                !
 ! D57   D(8,6,11,13)         -173.0518         estimate D2E/DX2                !
 ! D58   D(8,6,11,14)           68.8254         estimate D2E/DX2                !
 ! D59   D(6,11,14,15)         -74.3511         estimate D2E/DX2                !
 ! D60   D(12,11,14,15)         47.5799         estimate D2E/DX2                !
 ! D61   D(13,11,14,15)        165.603          estimate D2E/DX2                !
 ! D62   D(5,23,30,28)          43.7717         estimate D2E/DX2                !
 ! D63   D(26,25,28,29)        108.0652         estimate D2E/DX2                !
 ! D64   D(26,25,28,30)       -143.1502         estimate D2E/DX2                !
 ! D65   D(27,25,28,29)       -128.1685         estimate D2E/DX2                !
 ! D66   D(27,25,28,30)        -19.384          estimate D2E/DX2                !
 ! D67   D(24,28,30,23)        -17.3038         estimate D2E/DX2                !
 ! D68   D(29,28,30,23)         97.5791         estimate D2E/DX2                !
 --------------------------------------------------------------------------------
 Trust Radius=3.00D-01 FncErr=1.00D-07 GrdErr=1.00D-06
 Number of steps in this run=    180 maximum allowed number of steps=    180.
 GradGradGradGradGradGradGradGradGradGradGradGradGradGradGradGradGradGrad

                          Input orientation:                          
 ---------------------------------------------------------------------
 Center     Atomic      Atomic             Coordinates (Angstroms)
 Number     Number       Type             X           Y           Z
 ---------------------------------------------------------------------
      1          8           0        0.226950   -0.730430   -1.151360
      2          6           0       -0.764600   -0.126920    1.053540
      3          6           0       -0.259920    1.780060   -0.605080
      4          6           0       -1.167610    1.262830    0.542680
      5          6           0        0.976800    0.940320   -0.993330
      6          6           0       -0.636500   -1.154140   -0.082770
      7          1           0       -1.068690    1.973380    1.373380
      8          1           0       -0.177060   -2.050170    0.367720
      9          1           0       -1.569230   -0.496910    1.707960
     10          1           0       -0.902210    1.882000   -1.485580
     11          6           0       -1.967600   -1.574250   -0.720120
     12          1           0       -1.775120   -2.399000   -1.421330
     13          1           0       -2.388020   -0.739450   -1.279740
     14          8           0       -2.938870   -1.935890    0.258920
     15          1           0       -2.700170   -2.805490    0.614910
     16          8           0        0.281620    3.060980   -0.318840
     17          1           0        1.144020    2.877220    0.098440
     18          8           0       -2.515700    1.251040    0.050240
     19          1           0       -3.073060    0.789650    0.698230
     20          8           0        0.440400    0.006740    1.800900
     21          1           0        0.721060   -0.867770    2.111280
     22          1           0        1.151400    0.938430   -2.081620
     23          8           0        1.983480    0.986440   -0.240890
     24          1           0        2.637850   -1.719180   -0.011240
     25          8           0        2.114410   -2.203650   -0.757230
     26          1           0        1.872570   -3.086430   -0.446110
     27          1           0        1.052730   -1.368440   -1.104340
     28          8           0        3.163740   -0.796680    0.929880
     29          1           0        4.111720   -0.653310    0.790730
     30          1           0        2.698030    0.030530    0.580090
 ---------------------------------------------------------------------
                    Distance matrix (angstroms):
                    1          2          3          4          5
     1  O    0.000000
     2  C    2.491782   0.000000
     3  C    2.614962   2.577265   0.000000
     4  C    2.964398   1.534536   1.552025   0.000000
     5  C    1.838112   2.891566   1.544467   2.657411   0.000000
     6  C    1.437693   1.537137   3.004022   2.552452   2.796179
     7  H    3.919641   2.146166   2.146109   1.097601   3.294322
     8  H    2.052448   2.124722   3.952704   3.462336   3.482367
     9  H    3.384746   1.101176   3.499863   2.148455   3.980561
    10  H    2.865571   3.240652   1.094627   2.137205   2.158645
    11  C    2.390408   2.586086   3.765740   3.206816   3.881649
    12  H    2.620171   3.508344   4.519584   4.199453   4.348253
    13  H    2.618135   2.907728   3.366290   2.969805   3.771693
    14  O    3.669392   2.937898   4.661711   3.667382   5.017289
    15  H    3.999202   3.333701   5.335772   4.348009   5.489776
    16  O    3.882122   3.625012   1.419843   2.464919   2.331397
    17  H    3.926596   3.685092   1.915659   2.854337   2.229687
    18  O    3.590570   2.443714   2.407872   1.435264   3.658298
    19  H    4.076971   2.509050   3.254733   1.969476   4.391519
    20  O    3.050380   1.424232   3.069829   2.397202   2.994498
    21  H    3.302700   1.968466   3.918155   3.250698   3.601832
    22  H    2.122519   3.825605   2.209148   3.517100   1.102209
    23  O    2.619541   3.235284   2.407345   3.258794   1.257656
    24  H    2.844282   3.904576   4.581964   4.866286   3.285807
    25  O    2.426566   3.985021   4.640101   4.947515   3.351783
    26  H    2.959084   4.238197   5.315591   5.397820   4.161318
    27  H    1.044596   3.082289   3.447515   3.816565   2.312674
    28  O    3.600095   3.986944   4.551608   4.811663   3.390960
    29  H    4.343858   4.911685   5.194306   5.621783   3.943381
    30  H    3.111787   3.498393   3.635237   4.057479   2.503198
                    6          7          8          9         10
     6  C    0.000000
     7  H    3.476858   0.000000
     8  H    1.103130   4.242088   0.000000
     9  H    2.123358   2.542600   2.479314   0.000000
    10  H    3.355089   2.865261   4.407099   4.037676   0.000000
    11  C    1.534449   4.216214   2.148471   2.686063   3.696843
    12  H    2.153573   5.237094   2.424083   3.667805   4.369561
    13  H    2.161603   4.017353   3.052942   3.107345   3.020265
    14  O    2.455360   4.474593   2.766314   2.458921   4.665571
    15  H    2.733578   5.106330   2.645316   2.793443   5.442176
    16  O    4.320406   2.422771   5.177413   4.493567   2.037825
    17  H    4.410777   2.708964   5.108516   4.619203   2.772479
    18  O    3.055156   2.089572   4.058081   2.588276   2.315211
    19  H    3.213270   2.423746   4.069475   2.221778   3.267238
    20  O    2.460807   2.515512   2.581887   2.073864   4.014991
    21  H    2.595926   3.437999   2.290129   2.354917   4.809745
    22  H    3.401593   4.235203   4.086050   4.880875   2.337285
    23  O    3.386943   3.591053   3.776154   4.315100   3.267796
    24  H    3.323515   5.412080   2.859525   4.706285   5.260627
    25  O    3.020575   5.667381   2.557323   4.749666   5.130597
    26  H    3.187663   6.128885   2.436624   4.815768   5.784911
    27  H    1.985706   4.669827   2.035706   3.942495   3.812151
    28  O    3.949058   5.077735   3.612230   4.805858   5.435230
    29  H    4.853805   5.837433   4.530319   5.756645   6.062085
    30  H    3.600266   4.311862   3.555356   4.445199   4.544960
                   11         12         13         14         15
    11  C    0.000000
    12  H    1.099526   0.000000
    13  H    1.089412   1.774768   0.000000
    14  O    1.425717   2.095716   2.025433   0.000000
    15  H    1.958294   2.273153   2.820578   0.969490   0.000000
    16  O    5.167724   5.937764   4.742739   5.972778   6.646686
    17  H    5.492523   6.218487   5.239751   6.313618   6.880242
    18  O    2.979284   4.004593   2.397332   3.221668   4.099795
    19  H    2.970148   4.042854   2.592256   2.763977   3.615387
    20  O    3.827994   4.591174   4.248188   4.191775   4.379314
    21  H    3.967976   4.588563   4.602376   4.238774   4.206982
    22  H    4.230296   4.487643   3.998223   5.519978   6.010225
    23  O    4.732634   5.194393   4.813306   5.746247   6.086683
    24  H    4.661940   4.682394   5.275257   5.587464   5.483301
    25  O    4.130415   3.950650   4.763273   5.161385   5.042337
    26  H    4.136263   3.837871   4.935168   4.997076   4.702621
    27  H    3.051619   3.026429   3.502164   4.255978   4.370949
    28  O    5.445894   5.699821   5.975595   6.244184   6.206445
    29  H    6.331582   6.526525   6.822088   7.186004   7.145952
    30  H    5.102349   5.469677   5.469894   5.978679   6.097933
                   16         17         18         19         20
    16  O    0.000000
    17  H    0.975512   0.000000
    18  O    3.352179   4.005039   0.000000
    19  H    4.176990   4.743570   0.971299   0.000000
    20  O    3.721141   3.410734   3.653987   3.764735   0.000000
    21  H    4.640438   4.272630   4.383361   4.374825   0.969471
    22  H    2.892945   2.917469   4.253255   5.059226   4.055555
    23  O    2.684422   2.096399   4.516347   5.146773   2.740404
    24  H    5.338199   4.834299   5.948535   6.277903   3.330381
    25  O    5.591747   5.243002   5.833079   6.163445   3.772554
    26  H    6.351218   6.032615   6.190066   6.386922   4.082630
    27  H    4.564141   4.413688   4.574759   4.992870   3.272077
    28  O    4.974682   4.274120   6.101062   6.439548   2.969973
    29  H    5.449474   4.663813   6.935241   7.328830   3.864544
    30  H    3.978786   3.278807   5.380833   5.822001   2.566678
                   21         22         23         24         25
    21  H    0.000000
    22  H    4.585626   0.000000
    23  O    3.250308   2.020631   0.000000
    24  H    2.983970   3.682241   2.793084   0.000000
    25  O    3.457506   3.543171   3.234258   1.032086   0.000000
    26  H    3.576125   4.403916   4.079545   1.626081   0.966738
    27  H    3.271221   2.507282   2.675313   1.957164   1.394713
    28  O    2.714304   4.016124   2.437875   1.418899   2.434543
    29  H    3.645054   4.421258   2.877920   1.987845   2.964622
    30  H    2.657046   3.209524   1.448570   1.847912   2.668445
                   26         27         28         29         30
    26  H    0.000000
    27  H    2.014173   0.000000
    28  O    2.967056   2.986859   0.000000
    29  H    3.530388   3.668804   0.968805   0.000000
    30  H    3.383772   2.738875   1.011689   1.584464   0.000000
 Stoichiometry    C6H16O8
 Framework group  C1[X(C6H16O8)]
 Deg. of freedom    84
 Full point group                 C1      NOp   1
 Largest Abelian subgroup         C1      NOp   1
 Largest concise Abelian subgroup C1      NOp   1
                         Standard orientation:                         
 ---------------------------------------------------------------------
 Center     Atomic      Atomic             Coordinates (Angstroms)
 Number     Number       Type             X           Y           Z
 ---------------------------------------------------------------------
      1          8           0        0.224427   -0.696822   -1.153021
      2          6           0       -0.773188   -0.097278    1.050225
      3          6           0       -0.274942    1.811536   -0.608231
      4          6           0       -1.181911    1.290426    0.538344
      5          6           0        0.966250    0.977451   -0.994394
      6          6           0       -0.638621   -1.124230   -0.085580
      7          1           0       -1.087533    2.001678    1.368972
      8          1           0       -0.175679   -2.017975    0.365864
      9          1           0       -1.577053   -0.470817    1.703567
     10          1           0       -0.916396    1.910219   -1.489711
     11          6           0       -1.966805   -1.550728   -0.724769
     12          1           0       -1.769446   -2.374782   -1.425441
     13          1           0       -2.390280   -0.718064   -1.285266
     14          8           0       -2.937828   -1.916596    0.252944
     15          1           0       -2.695606   -2.784968    0.609553
     16          8           0        0.260200    3.095051   -0.321582
     17          1           0        1.122828    2.915436    0.097029
     18          8           0       -2.529201    1.272208    0.043914
     19          1           0       -3.085364    0.808420    0.691220
     20          8           0        0.430069    0.042219    1.799326
     21          1           0        0.714340   -0.830881    2.110388
     22          1           0        1.142468    0.976049   -2.082424
     23          8           0        1.971589    1.028486   -0.240479
     24          1           0        2.638216   -1.673987   -0.009033
     25          8           0        2.118144   -2.161113   -0.755648
     26          1           0        1.879959   -3.044917   -0.444616
     27          1           0        1.053099   -1.330963   -1.104584
     28          8           0        3.158409   -0.748765    0.932581
     29          1           0        4.105915   -0.601021    0.794790
     30          1           0        2.689368    0.076162    0.581849
 ---------------------------------------------------------------------
 Rotational constants (GHZ):      0.7493887      0.5892100      0.4184339
 Standard basis: 6-31G(d) (6D, 7F)
 There are   242 symmetry adapted cartesian basis functions of A   symmetry.
 There are   242 symmetry adapted basis functions of A   symmetry.
   242 basis functions,   456 primitive gaussians,   242 cartesian basis functions
    58 alpha electrons       58 beta electrons
       nuclear repulsion energy      1136.1479263431 Hartrees.
 NAtoms=   30 NActive=   30 NUniq=   30 SFac= 1.00D+00 NAtFMM=   60 NAOKFM=F Big=F
 Integral buffers will be    131072 words long.
 Raffenetti 2 integral format.
 Two-electron integral symmetry is turned on.
 One-electron integrals computed using PRISM.
 NBasis=   242 RedAO= T EigKep=  1.44D-03  NBF=   242
 NBsUse=   242 1.00D-06 EigRej= -1.00D+00 NBFU=   242
 ExpMin= 1.61D-01 ExpMax= 5.48D+03 ExpMxC= 8.25D+02 IAcc=1 IRadAn=         1 AccDes= 0.00D+00
 Harris functional with IExCor=  402 and IRadAn=       1 diagonalized for initial guess.
 HarFok:  IExCor=  402 AccDes= 0.00D+00 IRadAn=         1 IDoV= 1 UseB2=F ITyADJ=14
 ICtDFT=  3500011 ScaDFX=  1.000000  1.000000  1.000000  1.000000
 FoFCou: FMM=F IPFlag=           0 FMFlag=      100000 FMFlg1=           0
         NFxFlg=           0 DoJE=T BraDBF=F KetDBF=T FulRan=T
         wScrn=  0.000000 ICntrl=     500 IOpCl=  0 I1Cent=   200000004 NGrid=           0
         NMat0=    1 NMatS0=      1 NMatT0=    0 NMatD0=    1 NMtDS0=    0 NMtDT0=    0
 Petite list used in FoFCou.
 Requested convergence on RMS density matrix=1.00D-08 within 128 cycles.
 Requested convergence on MAX density matrix=1.00D-06.
 Requested convergence on             energy=1.00D-06.
 No special actions if energy rises.
 Integral accuracy reduced to 1.0D-05 until final iterations.
 Initial convergence to 1.0D-05 achieved.  Increase integral accuracy.
 SCF Done:  E(RB3LYP) =  -839.943629073     A.U. after   14 cycles
            NFock= 14  Conv=0.69D-08     -V/T= 2.0083

 **********************************************************************

            Population analysis using the SCF density.

 **********************************************************************

 Orbital symmetries:
       Occupied  (A) (A) (A) (A) (A) (A) (A) (A) (A) (A) (A) (A)
                 (A) (A) (A) (A) (A) (A) (A) (A) (A) (A) (A) (A)
                 (A) (A) (A) (A) (A) (A) (A) (A) (A) (A) (A) (A)
                 (A) (A) (A) (A) (A) (A) (A) (A) (A) (A) (A) (A)
                 (A) (A) (A) (A) (A) (A) (A) (A) (A) (A)
       Virtual   (A) (A) (A) (A) (A) (A) (A) (A) (A) (A) (A) (A)
                 (A) (A) (A) (A) (A) (A) (A) (A) (A) (A) (A) (A)
                 (A) (A) (A) (A) (A) (A) (A) (A) (A) (A) (A) (A)
                 (A) (A) (A) (A) (A) (A) (A) (A) (A) (A) (A) (A)
                 (A) (A) (A) (A) (A) (A) (A) (A) (A) (A) (A) (A)
                 (A) (A) (A) (A) (A) (A) (A) (A) (A) (A) (A) (A)
                 (A) (A) (A) (A) (A) (A) (A) (A) (A) (A) (A) (A)
                 (A) (A) (A) (A) (A) (A) (A) (A) (A) (A) (A) (A)
                 (A) (A) (A) (A) (A) (A) (A) (A) (A) (A) (A) (A)
                 (A) (A) (A) (A) (A) (A) (A) (A) (A) (A) (A) (A)
                 (A) (A) (A) (A) (A) (A) (A) (A) (A) (A) (A) (A)
                 (A) (A) (A) (A) (A) (A) (A) (A) (A) (A) (A) (A)
                 (A) (A) (A) (A) (A) (A) (A) (A) (A) (A) (A) (A)
                 (A) (A) (A) (A) (A) (A) (A) (A) (A) (A) (A) (A)
                 (A) (A) (A) (A) (A) (A) (A) (A) (A) (A) (A) (A)
                 (A) (A) (A) (A)
 The electronic state is 1-A.
 Alpha  occ. eigenvalues --  -19.17818 -19.16477 -19.15873 -19.15067 -19.14983
 Alpha  occ. eigenvalues --  -19.14731 -19.12690 -19.10710 -10.27725 -10.25398
 Alpha  occ. eigenvalues --  -10.24381 -10.23935 -10.23322 -10.22500  -1.06329
 Alpha  occ. eigenvalues --   -1.03561  -1.02969  -1.02485  -1.02079  -1.01455
 Alpha  occ. eigenvalues --   -0.99858  -0.98154  -0.77985  -0.74475  -0.68831
 Alpha  occ. eigenvalues --   -0.64174  -0.62080  -0.56732  -0.55888  -0.55251
 Alpha  occ. eigenvalues --   -0.54010  -0.52765  -0.51238  -0.50052  -0.49088
 Alpha  occ. eigenvalues --   -0.46841  -0.45946  -0.45102  -0.44183  -0.43066
 Alpha  occ. eigenvalues --   -0.42217  -0.40322  -0.39840  -0.38479  -0.36535
 Alpha  occ. eigenvalues --   -0.35999  -0.34813  -0.34089  -0.33930  -0.32030
 Alpha  occ. eigenvalues --   -0.31534  -0.31381  -0.29634  -0.29340  -0.27198
 Alpha  occ. eigenvalues --   -0.25781  -0.25178  -0.22740
 Alpha virt. eigenvalues --    0.02578   0.03634   0.04933   0.07352   0.08716
 Alpha virt. eigenvalues --    0.09131   0.11735   0.12695   0.13530   0.14076
 Alpha virt. eigenvalues --    0.15259   0.16847   0.17413   0.17886   0.19992
 Alpha virt. eigenvalues --    0.20591   0.21879   0.23295   0.24317   0.24747
 Alpha virt. eigenvalues --    0.26228   0.27096   0.28302   0.30453   0.32018
 Alpha virt. eigenvalues --    0.32213   0.35687   0.37651   0.52590   0.53727
 Alpha virt. eigenvalues --    0.53892   0.55550   0.57351   0.58310   0.59467
 Alpha virt. eigenvalues --    0.60638   0.62454   0.64030   0.66377   0.66956
 Alpha virt. eigenvalues --    0.67712   0.68712   0.69917   0.71586   0.73630
 Alpha virt. eigenvalues --    0.74627   0.77302   0.78210   0.80267   0.80519
 Alpha virt. eigenvalues --    0.82007   0.82207   0.83902   0.84949   0.85134
 Alpha virt. eigenvalues --    0.85834   0.87291   0.88213   0.89782   0.90568
 Alpha virt. eigenvalues --    0.91212   0.91947   0.92456   0.95258   0.96306
 Alpha virt. eigenvalues --    0.96866   0.97983   0.99943   1.02258   1.02566
 Alpha virt. eigenvalues --    1.03932   1.03984   1.06159   1.08717   1.08976
 Alpha virt. eigenvalues --    1.10052   1.11898   1.13971   1.15475   1.16511
 Alpha virt. eigenvalues --    1.19498   1.20651   1.23863   1.24710   1.28928
 Alpha virt. eigenvalues --    1.29517   1.33389   1.37052   1.37209   1.38397
 Alpha virt. eigenvalues --    1.39677   1.42315   1.43242   1.47073   1.48611
 Alpha virt. eigenvalues --    1.51664   1.52876   1.55275   1.56608   1.58843
 Alpha virt. eigenvalues --    1.61254   1.62691   1.65804   1.68026   1.68649
 Alpha virt. eigenvalues --    1.70675   1.71024   1.71258   1.71930   1.73809
 Alpha virt. eigenvalues --    1.75209   1.77033   1.78321   1.79530   1.80374
 Alpha virt. eigenvalues --    1.82134   1.83423   1.84781   1.86166   1.86547
 Alpha virt. eigenvalues --    1.88083   1.90492   1.92078   1.92926   1.94998
 Alpha virt. eigenvalues --    1.97821   1.99623   2.02891   2.03250   2.05570
 Alpha virt. eigenvalues --    2.06697   2.07677   2.12533   2.13489   2.17080
 Alpha virt. eigenvalues --    2.20693   2.23956   2.24851   2.28603   2.32331
 Alpha virt. eigenvalues --    2.33724   2.35901   2.39150   2.40916   2.41778
 Alpha virt. eigenvalues --    2.43542   2.44882   2.45419   2.48771   2.49391
 Alpha virt. eigenvalues --    2.53496   2.53628   2.55234   2.56921   2.61453
 Alpha virt. eigenvalues --    2.63046   2.66581   2.71847   2.74052   2.75785
 Alpha virt. eigenvalues --    2.78116   2.81823   2.85127   2.86820   2.90970
 Alpha virt. eigenvalues --    2.92470   2.96405   3.00306   3.03425   3.10074
 Alpha virt. eigenvalues --    3.71918   3.76696   3.78890   3.84311   3.89776
 Alpha virt. eigenvalues --    3.95330   4.07886   4.11396   4.25576   4.31169
 Alpha virt. eigenvalues --    4.50838   4.58344   4.71639   4.83050
          Condensed to atoms (all electrons):
               1          2          3          4          5          6
     1  O    8.528174  -0.034514  -0.009381  -0.005427   0.041804   0.154021
     2  C   -0.034514   5.043832  -0.015345   0.286100  -0.001150   0.298631
     3  C   -0.009381  -0.015345   5.012367   0.276289   0.298312  -0.024509
     4  C   -0.005427   0.286100   0.276289   4.993650  -0.025602  -0.021435
     5  C    0.041804  -0.001150   0.298312  -0.025602   4.737205  -0.007864
     6  C    0.154021   0.298631  -0.024509  -0.021435  -0.007864   5.126189
     7  H   -0.000080  -0.051373  -0.049825   0.357674   0.002340   0.006153
     8  H   -0.038577  -0.054263   0.000329   0.005191   0.000645   0.331775
     9  H    0.003315   0.352010   0.005227  -0.044126   0.000327  -0.064088
    10  H    0.001319   0.002974   0.345934  -0.059996  -0.029397   0.001367
    11  C   -0.036154  -0.039251   0.000060  -0.004359   0.000659   0.294846
    12  H    0.005095   0.005514  -0.000033  -0.000303  -0.000061  -0.045749
    13  H    0.003268  -0.008951  -0.000849   0.001134   0.000160  -0.039058
    14  O    0.001549  -0.005843   0.000011  -0.001110  -0.000002  -0.043395
    15  H   -0.000015  -0.001186   0.000003   0.000116  -0.000001  -0.002295
    16  O    0.000509   0.002189   0.266312  -0.047849  -0.025875   0.000091
    17  H    0.000377  -0.000480  -0.043281   0.000245  -0.017092   0.000088
    18  O   -0.000258  -0.030788  -0.035908   0.211155   0.001430  -0.002398
    19  H    0.000038  -0.004576   0.006302  -0.024538  -0.000225  -0.001743
    20  O    0.001261   0.187431   0.001925  -0.042281   0.003578  -0.032230
    21  H   -0.000271  -0.017136  -0.000368   0.005920  -0.000107  -0.005376
    22  H   -0.033328  -0.000085  -0.080742   0.005628   0.359218   0.003361
    23  O   -0.033979   0.004168  -0.058251  -0.002212   0.376765   0.000613
    24  H    0.005345  -0.000071   0.000052  -0.000007   0.000267   0.000261
    25  O   -0.085470  -0.001113  -0.000020   0.000008   0.001358   0.003449
    26  H    0.004085   0.000043  -0.000000  -0.000000   0.000012  -0.000024
    27  H    0.162511   0.005006   0.001605  -0.000107  -0.003167  -0.014545
    28  O   -0.000310  -0.000288  -0.000175   0.000013   0.004543   0.000149
    29  H   -0.000013  -0.000000   0.000011  -0.000000   0.000004  -0.000000
    30  H    0.000469  -0.000634   0.000824  -0.000103  -0.012708   0.000304
               7          8          9         10         11         12
     1  O   -0.000080  -0.038577   0.003315   0.001319  -0.036154   0.005095
     2  C   -0.051373  -0.054263   0.352010   0.002974  -0.039251   0.005514
     3  C   -0.049825   0.000329   0.005227   0.345934   0.000060  -0.000033
     4  C    0.357674   0.005191  -0.044126  -0.059996  -0.004359  -0.000303
     5  C    0.002340   0.000645   0.000327  -0.029397   0.000659  -0.000061
     6  C    0.006153   0.331775  -0.064088   0.001367   0.294846  -0.045749
     7  H    0.606635  -0.000226  -0.006469   0.004665   0.000064   0.000011
     8  H   -0.000226   0.706768  -0.000993   0.000033  -0.047474  -0.008851
     9  H   -0.006469  -0.000993   0.649679  -0.000342  -0.001675   0.000255
    10  H    0.004665   0.000033  -0.000342   0.602662  -0.000119   0.000002
    11  C    0.000064  -0.047474  -0.001675  -0.000119   4.972260   0.347223
    12  H    0.000011  -0.008851   0.000255   0.000002   0.347223   0.636830
    13  H    0.000167   0.005894  -0.000095   0.001363   0.371504  -0.032930
    14  O   -0.000016   0.003172   0.017046   0.000001   0.227409  -0.029524
    15  H   -0.000001   0.004078   0.000460   0.000000  -0.028576  -0.008663
    16  O    0.007229   0.000003  -0.000082  -0.040835   0.000002   0.000000
    17  H    0.000292   0.000002   0.000001   0.007433   0.000001  -0.000000
    18  O   -0.031730  -0.000072  -0.002337   0.004566  -0.002216   0.000517
    19  H   -0.003417  -0.000048   0.009078  -0.000202   0.000056   0.000062
    20  O    0.005511  -0.003018  -0.033480   0.000030   0.003522  -0.000051
    21  H   -0.000305   0.008100  -0.004876   0.000013  -0.000059  -0.000008
    22  H   -0.000196  -0.000139  -0.000001  -0.000184  -0.000104   0.000011
    23  O    0.000035  -0.000280  -0.000049   0.003844  -0.000015   0.000002
    24  H   -0.000000  -0.001205   0.000005  -0.000001   0.000038  -0.000007
    25  O    0.000000   0.015845  -0.000003   0.000001   0.000133   0.000078
    26  H   -0.000000   0.001062  -0.000004  -0.000000  -0.000001   0.000028
    27  H    0.000011  -0.008896  -0.000147  -0.000035  -0.000559   0.000705
    28  O   -0.000000   0.000131  -0.000004   0.000001   0.000001   0.000000
    29  H   -0.000000   0.000003   0.000000  -0.000000   0.000000  -0.000000
    30  H    0.000004  -0.000155   0.000050  -0.000017   0.000006   0.000000
              13         14         15         16         17         18
     1  O    0.003268   0.001549  -0.000015   0.000509   0.000377  -0.000258
     2  C   -0.008951  -0.005843  -0.001186   0.002189  -0.000480  -0.030788
     3  C   -0.000849   0.000011   0.000003   0.266312  -0.043281  -0.035908
     4  C    0.001134  -0.001110   0.000116  -0.047849   0.000245   0.211155
     5  C    0.000160  -0.000002  -0.000001  -0.025875  -0.017092   0.001430
     6  C   -0.039058  -0.043395  -0.002295   0.000091   0.000088  -0.002398
     7  H    0.000167  -0.000016  -0.000001   0.007229   0.000292  -0.031730
     8  H    0.005894   0.003172   0.004078   0.000003   0.000002  -0.000072
     9  H   -0.000095   0.017046   0.000460  -0.000082   0.000001  -0.002337
    10  H    0.001363   0.000001   0.000000  -0.040835   0.007433   0.004566
    11  C    0.371504   0.227409  -0.028576   0.000002   0.000001  -0.002216
    12  H   -0.032930  -0.029524  -0.008663   0.000000  -0.000000   0.000517
    13  H    0.516367  -0.032802   0.006706   0.000005   0.000000   0.017142
    14  O   -0.032802   8.242486   0.233040   0.000000  -0.000000  -0.000996
    15  H    0.006706   0.233040   0.405238  -0.000000   0.000000   0.000011
    16  O    0.000005   0.000000  -0.000000   8.264103   0.228920   0.001285
    17  H    0.000000  -0.000000   0.000000   0.228920   0.376355  -0.000081
    18  O    0.017142  -0.000996   0.000011   0.001285  -0.000081   8.278634
    19  H   -0.002725   0.004948  -0.000128  -0.000147   0.000017   0.230217
    20  O   -0.000013   0.000038  -0.000025  -0.000035   0.000548   0.001364
    21  H    0.000014   0.000029  -0.000010   0.000013  -0.000007  -0.000104
    22  H   -0.000068   0.000001  -0.000000   0.002187   0.002857  -0.000080
    23  O    0.000003   0.000000  -0.000000  -0.018320   0.038961   0.000001
    24  H   -0.000000  -0.000000   0.000000   0.000000  -0.000002  -0.000000
    25  O   -0.000000   0.000000  -0.000002   0.000000   0.000001   0.000000
    26  H   -0.000001  -0.000002  -0.000001   0.000000  -0.000000  -0.000000
    27  H   -0.000078   0.000022   0.000003  -0.000008  -0.000029  -0.000015
    28  O    0.000000  -0.000000  -0.000000  -0.000001   0.000001  -0.000000
    29  H    0.000000   0.000000   0.000000   0.000000  -0.000007  -0.000000
    30  H   -0.000000  -0.000000   0.000000  -0.000014   0.000270   0.000001
              19         20         21         22         23         24
     1  O    0.000038   0.001261  -0.000271  -0.033328  -0.033979   0.005345
     2  C   -0.004576   0.187431  -0.017136  -0.000085   0.004168  -0.000071
     3  C    0.006302   0.001925  -0.000368  -0.080742  -0.058251   0.000052
     4  C   -0.024538  -0.042281   0.005920   0.005628  -0.002212  -0.000007
     5  C   -0.000225   0.003578  -0.000107   0.359218   0.376765   0.000267
     6  C   -0.001743  -0.032230  -0.005376   0.003361   0.000613   0.000261
     7  H   -0.003417   0.005511  -0.000305  -0.000196   0.000035  -0.000000
     8  H   -0.000048  -0.003018   0.008100  -0.000139  -0.000280  -0.001205
     9  H    0.009078  -0.033480  -0.004876  -0.000001  -0.000049   0.000005
    10  H   -0.000202   0.000030   0.000013  -0.000184   0.003844  -0.000001
    11  C    0.000056   0.003522  -0.000059  -0.000104  -0.000015   0.000038
    12  H    0.000062  -0.000051  -0.000008   0.000011   0.000002  -0.000007
    13  H   -0.002725  -0.000013   0.000014  -0.000068   0.000003  -0.000000
    14  O    0.004948   0.000038   0.000029   0.000001   0.000000  -0.000000
    15  H   -0.000128  -0.000025  -0.000010  -0.000000  -0.000000   0.000000
    16  O   -0.000147  -0.000035   0.000013   0.002187  -0.018320   0.000000
    17  H    0.000017   0.000548  -0.000007   0.002857   0.038961  -0.000002
    18  O    0.230217   0.001364  -0.000104  -0.000080   0.000001  -0.000000
    19  H    0.384277   0.000004  -0.000014   0.000011   0.000002  -0.000000
    20  O    0.000004   8.304555   0.223194   0.000032  -0.008685   0.000921
    21  H   -0.000014   0.223194   0.392284   0.000011   0.000996   0.000248
    22  H    0.000011   0.000032   0.000011   0.668428  -0.052989  -0.000051
    23  O    0.000002  -0.008685   0.000996  -0.052989   8.308204   0.003376
    24  H   -0.000000   0.000921   0.000248  -0.000051   0.003376   0.297794
    25  O   -0.000000  -0.000071   0.000471  -0.000004  -0.001422   0.159475
    26  H   -0.000000  -0.000007  -0.000024  -0.000003   0.000072  -0.004436
    27  H   -0.000002  -0.000579  -0.000184  -0.000798   0.005984  -0.006293
    28  O    0.000000  -0.000837   0.005003  -0.000121  -0.063660   0.116089
    29  H   -0.000000   0.000191  -0.000117  -0.000002   0.003184  -0.005865
    30  H    0.000000   0.006267  -0.001493   0.001225   0.078919  -0.012111
              25         26         27         28         29         30
     1  O   -0.085470   0.004085   0.162511  -0.000310  -0.000013   0.000469
     2  C   -0.001113   0.000043   0.005006  -0.000288  -0.000000  -0.000634
     3  C   -0.000020  -0.000000   0.001605  -0.000175   0.000011   0.000824
     4  C    0.000008  -0.000000  -0.000107   0.000013  -0.000000  -0.000103
     5  C    0.001358   0.000012  -0.003167   0.004543   0.000004  -0.012708
     6  C    0.003449  -0.000024  -0.014545   0.000149  -0.000000   0.000304
     7  H    0.000000  -0.000000   0.000011  -0.000000  -0.000000   0.000004
     8  H    0.015845   0.001062  -0.008896   0.000131   0.000003  -0.000155
     9  H   -0.000003  -0.000004  -0.000147  -0.000004   0.000000   0.000050
    10  H    0.000001  -0.000000  -0.000035   0.000001  -0.000000  -0.000017
    11  C    0.000133  -0.000001  -0.000559   0.000001   0.000000   0.000006
    12  H    0.000078   0.000028   0.000705   0.000000  -0.000000   0.000000
    13  H   -0.000000  -0.000001  -0.000078   0.000000   0.000000  -0.000000
    14  O    0.000000  -0.000002   0.000022  -0.000000   0.000000  -0.000000
    15  H   -0.000002  -0.000001   0.000003  -0.000000   0.000000   0.000000
    16  O    0.000000   0.000000  -0.000008  -0.000001   0.000000  -0.000014
    17  H    0.000001  -0.000000  -0.000029   0.000001  -0.000007   0.000270
    18  O    0.000000  -0.000000  -0.000015  -0.000000  -0.000000   0.000001
    19  H   -0.000000  -0.000000  -0.000002   0.000000  -0.000000   0.000000
    20  O   -0.000071  -0.000007  -0.000579  -0.000837   0.000191   0.006267
    21  H    0.000471  -0.000024  -0.000184   0.005003  -0.000117  -0.001493
    22  H   -0.000004  -0.000003  -0.000798  -0.000121  -0.000002   0.001225
    23  O   -0.001422   0.000072   0.005984  -0.063660   0.003184   0.078919
    24  H    0.159475  -0.004436  -0.006293   0.116089  -0.005865  -0.012111
    25  O    8.480289   0.235668   0.106878  -0.087433   0.003639   0.007426
    26  H    0.235668   0.370151  -0.008602   0.003541  -0.000144  -0.000220
    27  H    0.106878  -0.008602   0.271821   0.002375  -0.000041  -0.000611
    28  O   -0.087433   0.003541   0.002375   8.431499   0.237154   0.182525
    29  H    0.003639  -0.000144  -0.000041   0.237154   0.367114  -0.007720
    30  H    0.007426  -0.000220  -0.000611   0.182525  -0.007720   0.280809
 Mulliken charges:
               1
     1  O   -0.635363
     2  C    0.079153
     3  C    0.103126
     4  C    0.136334
     5  C    0.294626
     6  C    0.083413
     7  H    0.152847
     8  H    0.081166
     9  H    0.121319
    10  H    0.154920
    11  C   -0.057221
    12  H    0.129847
    13  H    0.193846
    14  O   -0.616062
    15  H    0.391249
    16  O   -0.639683
    17  H    0.404610
    18  O   -0.639340
    19  H    0.402756
    20  O   -0.619059
    21  H    0.394164
    22  H    0.125925
    23  O   -0.585266
    24  H    0.446178
    25  O   -0.839180
    26  H    0.398809
    27  H    0.487776
    28  O   -0.830193
    29  H    0.402611
    30  H    0.476690
 Sum of Mulliken charges =  -0.00000
 Mulliken charges with hydrogens summed into heavy atoms:
               1
     1  O   -0.147587
     2  C    0.200471
     3  C    0.258047
     4  C    0.289181
     5  C    0.420551
     6  C    0.164579
    11  C    0.266472
    14  O   -0.224814
    16  O   -0.235073
    18  O   -0.236584
    20  O   -0.224895
    23  O   -0.585266
    25  O    0.005808
    28  O    0.049109
 Electronic spatial extent (au):  <R**2>=           2881.3222
 Charge=              0.0000 electrons
 Dipole moment (field-independent basis, Debye):
    X=              1.0174    Y=             -6.2860    Z=              1.6841  Tot=              6.5868
 Quadrupole moment (field-independent basis, Debye-Ang):
   XX=            -80.4128   YY=            -79.6607   ZZ=            -84.0505
   XY=              1.5246   XZ=             -1.7433   YZ=             -2.3907
 Traceless Quadrupole moment (field-independent basis, Debye-Ang):
   XX=              0.9619   YY=              1.7139   ZZ=             -2.6758
   XY=              1.5246   XZ=             -1.7433   YZ=             -2.3907
 Octapole moment (field-independent basis, Debye-Ang**2):
  XXX=             78.8928  YYY=            -90.7831  ZZZ=              3.2918  XYY=             10.5092
  XXY=             -5.8420  XXZ=             19.9287  XZZ=             -7.2740  YZZ=             -2.0963
  YYZ=             18.2408  XYZ=             -3.5453
 Hexadecapole moment (field-independent basis, Debye-Ang**3):
 XXXX=          -1417.9105 YYYY=          -1202.8088 ZZZZ=           -465.3196 XXXY=            -46.9852
 XXXZ=             15.5166 YYYX=             36.3917 YYYZ=              9.9717 ZZZX=             -4.3743
 ZZZY=            -21.0603 XXYY=           -461.3254 XXZZ=           -350.0057 YYZZ=           -280.2299
 XXYZ=             -3.2128 YYXZ=              0.9578 ZZXY=              6.6623
 N-N= 1.136147926343D+03 E-N=-4.245432266393D+03  KE= 8.330473512383D+02
 Calling FoFJK, ICntrl=      2127 FMM=F ISym2X=0 I1Cent= 0 IOpClX= 0 NMat=1 NMatS=1 NMatT=0.
 ***** Axes restored to original set *****
 -------------------------------------------------------------------
 Center     Atomic                   Forces (Hartrees/Bohr)
 Number     Number              X              Y              Z
 -------------------------------------------------------------------
      1        8          -0.011637420   -0.000455235    0.005621499
      2        6          -0.002816244   -0.003328842   -0.000097573
      3        6           0.001091267    0.002502625   -0.001641800
      4        6           0.003514934   -0.000715424    0.001714987
      5        6           0.005606994    0.015706247   -0.007325737
      6        6          -0.001446009   -0.005985973    0.002209242
      7        1           0.000521734   -0.000163038    0.000218017
      8        1          -0.000103441   -0.000496248    0.000162147
      9        1          -0.000427270   -0.000223549   -0.000202013
     10        1          -0.000176706    0.000217053    0.000079817
     11        6          -0.001035071   -0.001003650    0.000284447
     12        1          -0.000246349    0.000231709   -0.000385159
     13        1           0.000065031    0.000293927    0.000493386
     14        8          -0.001988191   -0.000476926   -0.000774164
     15        1          -0.000158334    0.000072012    0.000220903
     16        8          -0.002159276    0.003382723   -0.000077959
     17        1          -0.001241693    0.000214761    0.001892026
     18        8           0.005603163    0.000112000    0.000177359
     19        1           0.000179489    0.000363763    0.000119383
     20        8          -0.005914148    0.001938440    0.000619479
     21        1           0.000472261    0.000305797   -0.000276671
     22        1          -0.000441360   -0.001858173   -0.000558939
     23        8          -0.005633393    0.009705379   -0.010142426
     24        1           0.000341943   -0.001716473   -0.001318442
     25        8           0.006298910   -0.015572357   -0.009040005
     26        1           0.000983692   -0.000840676    0.000211985
     27        1          -0.001305254    0.001102512   -0.001119206
     28        8           0.011577850   -0.003675367    0.017399927
     29        1           0.000235919    0.000978729   -0.000249378
     30        1           0.000236973   -0.000615746    0.001784866
 -------------------------------------------------------------------
 Cartesian Forces:  Max     0.017399927 RMS     0.004409812

 GradGradGradGradGradGradGradGradGradGradGradGradGradGradGradGradGradGrad
 Berny optimization.
 FormGI is forming the generalized inverse of G from B-inverse, IUseBI=4.
 Internal  Forces:  Max     0.024859791 RMS     0.006215572
 Search for a local minimum.
 Step number   1 out of a maximum of  180
 All quantities printed in internal units (Hartrees-Bohrs-Radians)
 Mixed Optimization -- RFO/linear search
 Second derivative matrix not updated -- first step.
 ITU=  0
     Eigenvalues ---    0.00230   0.00230   0.00230   0.00254   0.00286
     Eigenvalues ---    0.00310   0.00644   0.00876   0.01150   0.01225
     Eigenvalues ---    0.01352   0.01371   0.01429   0.01565   0.02664
     Eigenvalues ---    0.03187   0.03775   0.03793   0.04230   0.04328
     Eigenvalues ---    0.04627   0.04710   0.04864   0.04889   0.05089
     Eigenvalues ---    0.05541   0.05862   0.06437   0.06743   0.07145
     Eigenvalues ---    0.07467   0.08242   0.08866   0.09799   0.10514
     Eigenvalues ---    0.11174   0.11535   0.12952   0.13851   0.13914
     Eigenvalues ---    0.14425   0.14643   0.15243   0.16000   0.16000
     Eigenvalues ---    0.16000   0.16000   0.16022   0.16841   0.16956
     Eigenvalues ---    0.18142   0.18921   0.19277   0.19945   0.21016
     Eigenvalues ---    0.22068   0.22949   0.27116   0.27683   0.28501
     Eigenvalues ---    0.28764   0.29016   0.33338   0.33439   0.33552
     Eigenvalues ---    0.33735   0.33949   0.34283   0.34881   0.39279
     Eigenvalues ---    0.39949   0.40242   0.41611   0.41829   0.41897
     Eigenvalues ---    0.42484   0.45037   0.52266   0.53112   0.53481
     Eigenvalues ---    0.53485   0.53622   0.54049   0.79045
 RFO step:  Lambda=-3.47587925D-02 EMin= 2.30000000D-03
 Linear search not attempted -- first point.
 Maximum step size (   0.300) exceeded in Quadratic search.
    -- Step size scaled by   0.727
 Iteration  1 RMS(Cart)=  0.17754862 RMS(Int)=  0.00630721
 Iteration  2 RMS(Cart)=  0.00978565 RMS(Int)=  0.00178344
 Iteration  3 RMS(Cart)=  0.00012012 RMS(Int)=  0.00178308
 Iteration  4 RMS(Cart)=  0.00000080 RMS(Int)=  0.00178308
 Variable       Old X    -DE/DX   Delta X   Delta X   Delta X     New X
                                 (Linear)    (Quad)   (Total)
    R1        2.71685  -0.00010   0.00000  -0.00433  -0.00488   2.71196
    R2        1.97400   0.01211   0.00000   0.01928   0.02078   1.99478
    R3        2.89985   0.00869   0.00000   0.02180   0.02288   2.92273
    R4        2.90477   0.00498   0.00000   0.00884   0.00752   2.91229
    R5        2.08092   0.00027   0.00000   0.00052   0.00052   2.08144
    R6        2.69141  -0.00421   0.00000  -0.00676  -0.00676   2.68465
    R7        2.93290   0.00889   0.00000   0.02673   0.02728   2.96018
    R8        2.91862   0.00151   0.00000   0.00598   0.00528   2.92390
    R9        2.06855   0.00006   0.00000   0.00012   0.00012   2.06866
   R10        2.68311   0.00231   0.00000   0.00366   0.00366   2.68677
   R11        2.07417   0.00011   0.00000   0.00021   0.00021   2.07437
   R12        2.71226  -0.00554   0.00000  -0.00921  -0.00921   2.70305
   R13        2.08287   0.00049   0.00000   0.00096   0.00096   2.08383
   R14        2.37662   0.00077   0.00000   0.00053  -0.00200   2.37462
   R15        2.08461   0.00040   0.00000   0.00079   0.00075   2.08537
   R16        2.89969   0.00322   0.00000   0.00720   0.00720   2.90689
   R17        2.07780   0.00003   0.00000   0.00005   0.00005   2.07786
   R18        2.05869  -0.00006   0.00000  -0.00011  -0.00011   2.05858
   R19        2.69421   0.00119   0.00000   0.00192   0.00192   2.69613
   R20        1.83207  -0.00002   0.00000  -0.00002  -0.00002   1.83205
   R21        1.84345  -0.00033   0.00000  -0.00043  -0.00043   1.84302
   R22        1.83549  -0.00019   0.00000  -0.00025  -0.00025   1.83524
   R23        1.83203  -0.00023   0.00000  -0.00029  -0.00029   1.83174
   R24        2.73740   0.02123   0.00000   0.09035   0.08844   2.82584
   R25        1.95036   0.01305   0.00000   0.02134   0.02344   1.97380
   R26        2.68133   0.01582   0.00000   0.06837   0.07026   2.75159
   R27        1.82687   0.00059   0.00000   0.00074   0.00074   1.82761
   R28        2.63563   0.01263   0.00000   0.05084   0.05254   2.68817
   R29        1.83078   0.00041   0.00000   0.00053   0.00053   1.83130
   R30        1.91182   0.01974   0.00000   0.02807   0.02663   1.93845
    A1        1.83518   0.02486   0.00000   0.06885   0.06900   1.90418
    A2        1.96168   0.01668   0.00000   0.06666   0.06847   2.03015
    A3        1.88624  -0.00114   0.00000  -0.01452  -0.01532   1.87092
    A4        1.88799  -0.01162   0.00000  -0.02566  -0.02660   1.86138
    A5        1.85010  -0.00819   0.00000  -0.03582  -0.03400   1.81610
    A6        1.96072   0.00172   0.00000   0.01414   0.01127   1.97199
    A7        1.91549   0.00261   0.00000  -0.00670  -0.00684   1.90865
    A8        2.06350   0.00663   0.00000   0.05376   0.05325   2.11675
    A9        1.85744  -0.00028   0.00000  -0.01029  -0.00978   1.84765
   A10        1.95479  -0.00680   0.00000  -0.02783  -0.02898   1.92581
   A11        1.89471  -0.00275   0.00000  -0.01390  -0.01551   1.87919
   A12        1.80882   0.00221   0.00000   0.00272   0.00509   1.81391
   A13        1.87753   0.00064   0.00000  -0.00892  -0.00939   1.86814
   A14        1.97623   0.02420   0.00000   0.11362   0.11488   2.09111
   A15        1.88669  -0.00563   0.00000  -0.02677  -0.02821   1.85848
   A16        1.93206  -0.00747   0.00000  -0.02241  -0.02149   1.91057
   A17        1.86632  -0.00843   0.00000  -0.04059  -0.03897   1.82736
   A18        1.87374  -0.00732   0.00000  -0.02237  -0.02563   1.84811
   A19        1.92798   0.00476   0.00000  -0.00252  -0.00366   1.92432
   A20        1.95625   0.00132   0.00000   0.00699   0.00528   1.96153
   A21        2.06078   0.00528   0.00000   0.02065   0.02469   2.08547
   A22        2.05330  -0.00222   0.00000   0.00321   0.00155   2.05485
   A23        1.98510   0.00435   0.00000   0.00793   0.00356   1.98866
   A24        1.86793   0.00145   0.00000   0.00764   0.00770   1.87563
   A25        1.86811  -0.00468   0.00000  -0.01118  -0.00843   1.85968
   A26        1.85004  -0.00109   0.00000  -0.00164  -0.00141   1.84863
   A27        2.00173  -0.00090   0.00000  -0.00369  -0.00176   1.99997
   A28        1.88444   0.00109   0.00000   0.00198   0.00128   1.88572
   A29        1.89484  -0.00047   0.00000   0.00034   0.00031   1.89515
   A30        1.91595  -0.00132   0.00000  -0.00528  -0.00527   1.91068
   A31        1.95540   0.00366   0.00000   0.01093   0.01093   1.96633
   A32        1.89098   0.00036   0.00000  -0.00080  -0.00080   1.89018
   A33        1.94650  -0.00110   0.00000  -0.00120  -0.00123   1.94527
   A34        1.85899  -0.00124   0.00000  -0.00454  -0.00452   1.85447
   A35        1.88803   0.00048   0.00000   0.00179   0.00179   1.88982
   A36        1.82707   0.00035   0.00000   0.00132   0.00132   1.82839
   A37        1.89018  -0.00030   0.00000  -0.00111  -0.00111   1.88908
   A38        1.90528   0.00070   0.00000   0.00261   0.00261   1.90789
   A39        2.35990   0.00622   0.00000   0.02434   0.01369   2.37359
   A40        1.89959   0.00380   0.00000   0.00318   0.00082   1.90041
   A41        1.85965  -0.00458   0.00000  -0.01558  -0.01013   1.84951
   A42        2.02250  -0.00272   0.00000  -0.01494  -0.01405   2.00845
   A43        1.94294   0.00317   0.00000   0.00768   0.00789   1.95083
   A44        1.70284   0.01372   0.00000   0.05141   0.05115   1.75399
   A45        1.85435  -0.00916   0.00000  -0.03486  -0.03457   1.81979
   A46        2.86721   0.01442   0.00000   0.03643   0.03408   2.90130
   A47        2.96480  -0.00009   0.00000   0.03608   0.03877   3.00357
   A48        2.97817   0.00853   0.00000   0.13726   0.13948   3.11765
   A49        3.29633  -0.00265   0.00000  -0.09084  -0.09514   3.20119
   A50        3.26992   0.00406   0.00000   0.05496   0.05297   3.32290
    D1        1.96036  -0.00116   0.00000  -0.02430  -0.02564   1.93471
    D2       -0.07671  -0.00321   0.00000  -0.03169  -0.03096  -0.10767
    D3       -2.09344  -0.00290   0.00000  -0.03225  -0.03203  -2.12547
    D4       -1.43257  -0.00684   0.00000  -0.06555  -0.06253  -1.49509
    D5        0.62667  -0.00534   0.00000  -0.05924  -0.05666   0.57001
    D6       -0.90770  -0.00476   0.00000  -0.06700  -0.06342  -0.97112
    D7       -2.97201  -0.00512   0.00000  -0.06716  -0.06434  -3.03635
    D8        1.19737  -0.00283   0.00000  -0.03330  -0.03059   1.16679
    D9       -2.94317  -0.00357   0.00000  -0.05221  -0.05066  -2.99383
   D10        1.27571  -0.00393   0.00000  -0.05238  -0.05158   1.22413
   D11       -0.83809  -0.00163   0.00000  -0.01852  -0.01783  -0.85592
   D12        1.26716   0.00039   0.00000  -0.02203  -0.02064   1.24652
   D13       -0.79715   0.00003   0.00000  -0.02219  -0.02156  -0.81871
   D14       -2.91095   0.00232   0.00000   0.01167   0.01219  -2.89876
   D15        0.92407  -0.00567   0.00000  -0.01774  -0.01533   0.90873
   D16        2.97154  -0.00221   0.00000  -0.00510  -0.00484   2.96670
   D17       -1.23439  -0.00212   0.00000  -0.00592  -0.00524  -1.23962
   D18        2.98105  -0.00307   0.00000  -0.02130  -0.01920   2.96185
   D19       -1.25466   0.00039   0.00000  -0.00866  -0.00871  -1.26337
   D20        0.82260   0.00048   0.00000  -0.00947  -0.00910   0.81349
   D21       -1.21014  -0.00414   0.00000  -0.04434  -0.04275  -1.25289
   D22        0.83733  -0.00068   0.00000  -0.03170  -0.03226   0.80507
   D23        2.91459  -0.00060   0.00000  -0.03252  -0.03265   2.88194
   D24       -3.11576  -0.00664   0.00000  -0.03356  -0.03376   3.13366
   D25       -0.94033   0.00743   0.00000   0.04270   0.04257  -0.89776
   D26        1.11323  -0.00001   0.00000   0.00245   0.00278   1.11601
   D27       -0.10003  -0.00032   0.00000  -0.00206   0.00176  -0.09827
   D28        1.97606   0.00134   0.00000   0.00463   0.00671   1.98276
   D29       -2.23787  -0.00128   0.00000  -0.03105  -0.02856  -2.26643
   D30        2.03511   0.00036   0.00000   0.00805   0.01006   2.04517
   D31       -2.17200   0.00202   0.00000   0.01474   0.01502  -2.15698
   D32       -0.10274  -0.00060   0.00000  -0.02094  -0.02025  -0.12298
   D33       -2.20085  -0.00272   0.00000  -0.02399  -0.02168  -2.22253
   D34       -0.12477  -0.00105   0.00000  -0.01730  -0.01673  -0.14149
   D35        1.94449  -0.00367   0.00000  -0.05297  -0.05199   1.89250
   D36        2.48051  -0.00064   0.00000  -0.01434  -0.01513   2.46538
   D37       -1.33091   0.00430   0.00000   0.02824   0.03004  -1.30088
   D38        0.36432  -0.00274   0.00000  -0.02758  -0.02740   0.33692
   D39        2.83609   0.00220   0.00000   0.01500   0.01776   2.85385
   D40       -1.62805  -0.00337   0.00000  -0.01297  -0.01277  -1.64082
   D41        0.84371   0.00157   0.00000   0.02961   0.03239   0.87610
   D42        1.61871   0.00177   0.00000   0.00859   0.00831   1.62702
   D43       -0.62466  -0.00379   0.00000  -0.04295  -0.04325  -0.66791
   D44       -2.62933  -0.00197   0.00000  -0.02484  -0.02426  -2.65358
   D45        0.80968  -0.00954   0.00000  -0.05080  -0.05100   0.75868
   D46        2.97468   0.01091   0.00000   0.06123   0.06089   3.03557
   D47       -1.27950  -0.00078   0.00000  -0.00129  -0.00074  -1.28024
   D48        2.03323  -0.00918   0.00000  -0.04425  -0.04640   1.98682
   D49       -1.81521  -0.00241   0.00000   0.00265   0.00320  -1.81201
   D50        1.04952  -0.00097   0.00000  -0.00250  -0.00145   1.04807
   D51       -1.01465  -0.00037   0.00000   0.00129   0.00235  -1.01230
   D52       -3.07628  -0.00024   0.00000   0.00356   0.00463  -3.07165
   D53       -3.01403   0.00032   0.00000  -0.00378  -0.00481  -3.01884
   D54        1.20498   0.00093   0.00000   0.00002  -0.00101   1.20398
   D55       -0.85665   0.00105   0.00000   0.00229   0.00127  -0.85537
   D56       -0.95616  -0.00085   0.00000  -0.00673  -0.00677  -0.96293
   D57       -3.02032  -0.00024   0.00000  -0.00293  -0.00297  -3.02330
   D58        1.20123  -0.00012   0.00000  -0.00067  -0.00069   1.20054
   D59       -1.29767  -0.00044   0.00000  -0.00257  -0.00258  -1.30025
   D60        0.83043   0.00078   0.00000   0.00484   0.00484   0.83526
   D61        2.89032  -0.00015   0.00000   0.00048   0.00049   2.89080
   D62        0.76396  -0.00981   0.00000  -0.06225  -0.06321   0.70075
   D63        1.88609  -0.00179   0.00000  -0.06426  -0.06469   1.82140
   D64       -2.49844  -0.00440   0.00000  -0.05806  -0.05579  -2.55423
   D65       -2.23696  -0.00588   0.00000  -0.08415  -0.08350  -2.32046
   D66       -0.33831  -0.00849   0.00000  -0.07794  -0.07460  -0.41291
   D67       -0.30201  -0.01004   0.00000  -0.06668  -0.06594  -0.36795
   D68        1.70308  -0.00395   0.00000  -0.04853  -0.04867   1.65441
         Item               Value     Threshold  Converged?
 Maximum Force            0.024860     0.000450     NO 
 RMS     Force            0.006216     0.000300     NO 
 Maximum Displacement     0.653379     0.001800     NO 
 RMS     Displacement     0.178426     0.001200     NO 
 Predicted change in Energy=-1.893163D-02
 GradGradGradGradGradGradGradGradGradGradGradGradGradGradGradGradGradGrad

                          Input orientation:                          
 ---------------------------------------------------------------------
 Center     Atomic      Atomic             Coordinates (Angstroms)
 Number     Number       Type             X           Y           Z
 ---------------------------------------------------------------------
      1          8           0        0.171746   -0.996358   -1.101335
      2          6           0       -0.840229   -0.173734    1.026764
      3          6           0       -0.194430    1.886332   -0.583801
      4          6           0       -1.133141    1.249291    0.496382
      5          6           0        1.100106    1.174498   -1.043675
      6          6           0       -0.738344   -1.289711   -0.031187
      7          1           0       -1.062720    1.923962    1.359417
      8          1           0       -0.350429   -2.175808    0.499972
      9          1           0       -1.698671   -0.472486    1.648875
     10          1           0       -0.819659    2.043137   -1.468586
     11          6           0       -2.075790   -1.674604   -0.686426
     12          1           0       -1.912884   -2.555296   -1.324285
     13          1           0       -2.420778   -0.855334   -1.316091
     14          8           0       -3.109522   -1.906390    0.269208
     15          1           0       -2.944824   -2.762273    0.693738
     16          8           0        0.252237    3.166912   -0.157116
     17          1           0        1.104275    2.997824    0.286302
     18          8           0       -2.451334    1.289654   -0.057471
     19          1           0       -3.048276    0.814993    0.543798
     20          8           0        0.319467   -0.073852    1.841255
     21          1           0        0.534509   -0.947701    2.201421
     22          1           0        1.277756    1.284183   -2.126445
     23          8           0        2.101804    1.161567   -0.285079
     24          1           0        2.766075   -1.715833   -0.107921
     25          8           0        2.219434   -2.330476   -0.751628
     26          1           0        2.107713   -3.197129   -0.337172
     27          1           0        1.010364   -1.632996   -1.025903
     28          8           0        3.355544   -0.724939    0.781363
     29          1           0        4.285438   -0.556962    0.566411
     30          1           0        2.866982    0.121039    0.468535
 ---------------------------------------------------------------------
                    Distance matrix (angstroms):
                    1          2          3          4          5
     1  O    0.000000
     2  C    2.495919   0.000000
     3  C    2.951581   2.693482   0.000000
     4  C    3.049323   1.546642   1.566460   0.000000
     5  C    2.361735   3.141551   1.547261   2.713810   0.000000
     6  C    1.435109   1.541118   3.269323   2.623113   3.236874
     7  H    4.013412   2.135530   2.128718   1.097711   3.318790
     8  H    2.056199   2.127373   4.207123   3.513397   3.963767
     9  H    3.366980   1.101453   3.579331   2.147692   4.218476
    10  H    3.218118   3.337920   1.094689   2.142326   2.149554
    11  C    2.384027   2.591186   4.028687   3.291928   4.281510
    12  H    2.612600   3.514237   4.819696   4.289256   4.802939
    13  H    2.605223   2.907178   3.606884   3.061456   4.073212
    14  O    3.670595   2.953926   4.859025   3.730417   5.379266
    15  H    4.006713   3.352725   5.550342   4.406108   5.905779
    16  O    4.269759   3.708768   1.421779   2.454302   2.339782
    17  H    4.329969   3.793172   1.918105   2.847372   2.256850
    18  O    3.632637   2.431611   2.393045   1.430390   3.687626
    19  H    4.044254   2.467044   3.250182   1.964333   4.456275
    20  O    3.087341   1.420657   3.160270   2.381063   3.238919
    21  H    3.322976   1.966914   4.039871   3.242683   3.918454
    22  H    2.734040   4.068674   2.215776   3.562705   1.102715
    23  O    3.007996   3.487050   2.426358   3.329152   1.256596
    24  H    2.869680   4.083015   4.686859   4.935690   3.464838
    25  O    2.468845   4.144364   4.861726   5.060832   3.690939
    26  H    3.029078   4.437523   5.585899   5.564944   4.541536
    27  H    1.055594   3.125313   3.746018   3.901223   2.808984
    28  O    3.708745   4.238934   4.613537   4.911934   3.467798
    29  H    4.460596   5.160548   5.230860   5.712133   3.966947
    30  H    3.313211   3.760575   3.687264   4.156286   2.553117
                    6          7          8          9         10
     6  C    0.000000
     7  H    3.516631   0.000000
     8  H    1.103529   4.249014   0.000000
     9  H    2.100641   2.496234   2.457446   0.000000
    10  H    3.630510   2.840931   4.679198   4.101169   0.000000
    11  C    1.538261   4.261627   2.153049   2.653477   4.001405
    12  H    2.157164   5.290444   2.431705   3.636436   4.728800
    13  H    2.161075   4.089884   3.054191   3.075554   3.314811
    14  O    2.468404   4.477672   2.781804   2.439275   4.884891
    15  H    2.750002   5.093745   2.666903   2.776384   5.681895
    16  O    4.567121   2.360913   5.416607   4.506979   2.032680
    17  H    4.677498   2.645869   5.378502   4.664350   2.773550
    18  O    3.096474   2.082827   4.090719   2.565786   2.285026
    19  H    3.177447   2.416087   4.028051   2.168002   3.244189
    20  O    2.470488   2.476665   2.581864   2.066108   4.090758
    21  H    2.592617   3.392132   2.277343   2.349092   4.924210
    22  H    3.883258   4.247162   4.639030   5.118403   2.325497
    23  O    3.760275   3.646893   4.215190   4.566610   3.273042
    24  H    3.531065   5.482779   3.208381   4.956431   5.370173
    25  O    3.217247   5.773153   2.862625   4.956419   5.373882
    26  H    3.439755   6.257447   2.790407   5.084941   6.108191
    27  H    2.040903   4.758086   2.115348   3.979961   4.130242
    28  O    4.211783   5.183810   3.989792   5.134336   5.491524
    29  H    5.111989   5.948667   4.910840   6.081812   6.079782
    30  H    3.903627   4.414381   3.953255   4.752963   4.586744
                   11         12         13         14         15
    11  C    0.000000
    12  H    1.099554   0.000000
    13  H    1.089356   1.774230   0.000000
    14  O    1.426731   2.095767   2.022933   0.000000
    15  H    1.960381   2.275995   2.819654   0.969477   0.000000
    16  O    5.398163   6.228459   4.966558   6.100948   6.789726
    17  H    5.735033   6.521839   5.462644   6.465886   7.052653
    18  O    3.053432   4.083918   2.487174   3.279425   4.150417
    19  H    2.942325   4.017175   2.577389   2.735887   3.581901
    20  O    3.832602   4.600174   4.253056   4.193744   4.381780
    21  H    3.960015   4.583089   4.595122   4.234560   4.203753
    22  H    4.698335   5.056209   4.348949   5.930187   6.492874
    23  O    5.065298   5.568909   5.058125   6.072686   6.467075
    24  H    4.876477   4.906822   5.394773   5.890771   5.861063
    25  O    4.345500   4.177863   4.901655   5.442401   5.380064
    26  H    4.465620   4.189457   5.191292   5.408627   5.174941
    27  H    3.105048   3.079781   3.530113   4.327299   4.458245
    28  O    5.705757   5.961569   6.146723   6.592056   6.622163
    29  H    6.579055   6.781392   6.971813   7.522946   7.560179
    30  H    5.384168   5.764034   5.665562   6.314174   6.491632
                   16         17         18         19         20
    16  O    0.000000
    17  H    0.975283   0.000000
    18  O    3.292920   3.959593   0.000000
    19  H    4.112929   4.698375   0.971168   0.000000
    20  O    3.807959   3.531146   3.625142   3.716872   0.000000
    21  H    4.751043   4.422610   4.361607   4.323327   0.969317
    22  H    2.911119   2.964458   4.264598   5.105378   4.301769
    23  O    2.731058   2.166421   4.560623   5.227856   3.037150
    24  H    5.492085   5.013537   6.021367   6.374676   3.532885
    25  O    5.868950   5.541810   5.950065   6.270636   3.927501
    26  H    6.631458   6.306588   6.402685   6.592227   4.206926
    27  H    4.936462   4.814062   4.632828   4.992912   3.335994
    28  O    5.065348   4.378614   6.203391   6.590655   3.281013
    29  H    5.536916   4.778573   7.013083   7.460974   4.193751
    30  H    4.062717   3.378792   5.470542   5.956300   2.900374
                   21         22         23         24         25
    21  H    0.000000
    22  H    4.925866   0.000000
    23  O    3.617749   2.021069   0.000000
    24  H    3.301965   3.910196   2.958390   0.000000
    25  O    3.670360   3.980281   3.525035   1.044491   0.000000
    26  H    3.738898   4.896171   4.359012   1.637143   0.967132
    27  H    3.333420   3.129317   3.090250   1.982946   1.422517
    28  O    3.166138   4.099893   2.503610   1.456080   2.493704
    29  H    4.110402   4.437053   2.906309   2.026369   3.025055
    30  H    3.096050   3.257678   1.495369   1.927844   2.813901
                   26         27         28         29         30
    26  H    0.000000
    27  H    2.031020   0.000000
    28  O    2.986625   3.096877   0.000000
    29  H    3.539694   3.797292   0.969084   0.000000
    30  H    3.497984   2.959225   1.025784   1.575209   0.000000
 Stoichiometry    C6H16O8
 Framework group  C1[X(C6H16O8)]
 Deg. of freedom    84
 Full point group                 C1      NOp   1
 Largest Abelian subgroup         C1      NOp   1
 Largest concise Abelian subgroup C1      NOp   1
                         Standard orientation:                         
 ---------------------------------------------------------------------
 Center     Atomic      Atomic             Coordinates (Angstroms)
 Number     Number       Type             X           Y           Z
 ---------------------------------------------------------------------
      1          8           0        0.091934   -0.981850   -1.091331
      2          6           0       -0.880763   -0.051231    1.010434
      3          6           0       -0.013563    1.926521   -0.599321
      4          6           0       -1.028902    1.388569    0.465334
      5          6           0        1.217684    1.093358   -1.028141
      6          6           0       -0.862611   -1.180374   -0.038256
      7          1           0       -0.912891    2.060697    1.325425
      8          1           0       -0.569766   -2.094458    0.506233
      9          1           0       -1.775520   -0.263574    1.616666
     10          1           0       -0.603749    2.133785   -1.497689
     11          6           0       -2.216910   -1.444148   -0.718363
     12          1           0       -2.124367   -2.341329   -1.347268
[...]
 6,-0.00014209,-0.00033646,-0.00007599,-0.00020742,-0.00030268,0.000154
 17,0.00007207,0.00089080,0.00107704,-0.00007336,0.00018765,0.00017739,
 0.00003968,-0.00001471,-0.00005230,0.00011943,-0.00001137,-0.00002991,
 -0.00022223,0.00004269,-0.00005826,-0.00003509,0.00001825,-0.00001331,
 0.00004858,-0.00006078,-0.00003749,-0.00004213,-0.00002046,-0.00002819
 ,-0.00002825,0.00000479,0.00000471,-0.00001443,-0.00002195,-0.00008119
 ,0.00003413,0.00002036,0.00002650,0.00026521,-0.00009286,-0.00010060,-
 0.00010155,0.00008050,0.00007436,-0.00005330,0.00019610,-0.00011666,0.
 00007130,-0.00002925,0.00000859,-0.00165205,-0.00010870,-0.00097625,0.
 00380738,0.00178105,0.00007846,-0.00070568,0.00031359,-0.00018831,0.00
 020049,-0.00056485,-0.00062600,0.00490057,-0.01268496,0.03182848,-0.00
 789220,0.00534480,-0.00414052,0.00295181,0.00027051,0.00178873,0.00031
 896,-0.00067011,-0.00016147,-0.00074355,-0.00133655,0.00030955,-0.0037
 2161,-0.00236520,-0.00043660,0.00143472,-0.00068830,-0.00251395,0.0000
 9576,0.00011786,-0.00006957,0.00002171,0.00037984,-0.00013692,-0.00057
 169,0.00024970,0.00006011,0.00005045,-0.00008029,0.00007258,0.00085804
 ,0.00017269,0.00018393,-0.00008376,-0.00007153,-0.00007803,-0.00014654
 ,-0.00005341,0.00000356,-0.00124691,0.00003673,0.00016910,0.00034738,0
 .00012500,0.00002069,0.00061029,0.00075332,-0.00005180,-0.00035993,0.0
 0009955,0.00006823,-0.00030809,0.00103467,-0.00019727,0.00036525,-0.00
 036255,-0.00012726,-0.00656675,0.00914259,0.00246994,-0.00135009,-0.00
 416866,0.00110798,-0.00099404,0.00026589,-0.00024018,0.00476189,-0.000
 03321,0.00118132,-0.24030002,-0.13394524,-0.01966024,0.39671559,0.0044
 8291,0.00333922,0.00268792,-0.00256253,-0.00074922,-0.00231226,0.00020
 809,0.00002256,-0.00046967,-0.00032742,-0.00009208,0.00045324,-0.00152
 426,0.00128292,-0.00008701,-0.00006866,-0.00212444,0.00085075,0.000020
 60,0.00026731,-0.00002455,0.00066290,0.00094235,-0.00065124,0.00087881
 ,0.00006541,0.00016492,0.00004435,-0.00012148,0.00005436,0.00017462,0.
 00037573,-0.00051959,0.00012541,0.00009717,0.00016613,-0.00021756,-0.0
 0002368,-0.00013958,0.00023913,0.00025859,0.00029796,-0.00003950,-0.00
 011697,-0.00003752,0.00057263,-0.00047114,0.00000670,-0.00033939,0.000
 41390,0.00006945,0.00093968,-0.00002096,0.00032793,-0.00021148,-0.0002
 8414,-0.00013053,0.00964748,-0.00273326,-0.00345408,-0.00401122,-0.006
 76700,0.00120022,-0.00017409,-0.00100424,0.00004232,0.00182637,-0.0013
 2131,0.00028058,-0.18764304,-0.19980478,0.00244229,0.01482099,0.599623
 12,-0.00787307,0.00257517,0.00165007,-0.00386029,-0.00136878,-0.002492
 64,0.00016629,0.00032898,-0.00011312,0.00070086,0.00064972,-0.00006477
 ,0.00022664,-0.00057075,-0.00155845,0.00271458,0.00058360,-0.00457895,
 -0.00008572,0.00023794,0.00010927,-0.00023319,-0.00053985,0.00062490,0
 .00060684,0.00008124,0.00036712,0.00009159,-0.00014119,0.00011424,0.00
 001307,-0.00005499,0.00058962,0.00022396,0.00009521,0.00012422,0.00019
 128,-0.00009250,0.00006604,-0.00067538,0.00018752,0.00050965,-0.000071
 35,-0.00002431,-0.00012778,-0.00023001,0.00000501,0.00023172,0.0000777
 0,-0.00000248,-0.00008571,0.00063334,-0.00048978,0.00057250,-0.0002579
 4,-0.00018302,-0.00013119,0.00789153,-0.00500826,0.00362704,-0.0041296
 4,0.00341407,-0.00782655,-0.00022517,0.00017825,0.00003618,-0.00016108
 ,0.00046706,0.00072829,-0.00384092,0.01575224,-0.02181524,0.08867731,-
 0.15227933,0.09217195,-0.00222107,-0.00004929,-0.00108127,0.00033231,-
 0.00011896,0.00019264,0.00000050,-0.00002057,-0.00000106,0.00000869,-0
 .00001182,-0.00006675,0.00004387,-0.00018818,-0.00005177,0.00083215,0.
 00084252,-0.00110364,-0.00000153,-0.00003723,0.00000512,-0.00019585,-0
 .00037863,0.00033051,-0.00013507,0.00004111,0.00004451,0.00000704,-0.0
 0000390,0.00000816,-0.00004332,-0.00015132,0.00020267,-0.00001029,-0.0
 0000457,-0.00004709,0.00008300,-0.00002180,0.00005419,-0.00012408,-0.0
 0004100,0.00000068,-0.00002967,0.00003407,-0.00000843,-0.00003483,0.00
 000076,0.00001611,0.00002102,-0.00001035,-0.00000239,-0.00006603,-0.00
 001711,-0.00001634,0.00001318,0.00004075,0.00000955,-0.00094193,0.0003
 7897,0.00139768,0.00045970,0.00105516,-0.00286079,-0.00014914,-0.00000
 294,0.00000036,-0.00002148,0.00010045,0.00004943,0.01762622,-0.0279323
 1,0.01222861,-0.12875661,0.18204412,-0.08174370,0.11464625,-0.00221936
 ,0.00047136,-0.00069789,0.00049778,0.00000169,0.00019494,-0.00008054,-
 0.00009487,0.00002586,0.00006354,-0.00004090,-0.00005153,0.00019760,0.
 00003003,0.00012409,0.00023235,0.00020164,-0.00045568,-0.00000473,-0.0
 0001809,-0.00000387,-0.00002148,-0.00003981,0.00010369,-0.00005385,-0.
 00000297,0.00005198,-0.00000106,0.00000834,0.00000269,0.00011697,0.000
 05819,0.00007765,-0.00003478,-0.00002402,-0.00003578,0.00000256,-0.000
 00417,0.00000688,-0.00016957,-0.00005068,-0.00001936,0.00004230,0.0000
 3992,0.00001482,-0.00002942,0.00008328,-0.00001434,0.00003844,-0.00005
 469,0.00000226,-0.00017459,0.00005244,-0.00004917,0.00005638,0.0000204
 5,0.00001043,-0.00091925,0.00084043,-0.00005564,0.00173117,-0.00191706
 ,-0.00027733,0.00009206,-0.00021611,0.00002902,-0.00024617,0.00015088,
 -0.00009216,0.02123137,-0.02352530,0.01190046,0.13318021,-0.36756584,0
 .13542292,-0.15560173,0.39158362,-0.00139104,0.00003298,-0.00045494,-0
 .00024212,-0.00007646,-0.00024202,0.00002438,0.00002048,0.00001830,0.0
 0003904,0.00001065,0.00001320,-0.00011566,-0.00006672,-0.00008578,-0.0
 0005054,-0.00000322,-0.00034105,0.00000042,0.00000813,-0.00000375,-0.0
 0002627,0.00003069,0.00010488,0.00015183,-0.00000202,0.00003210,-0.000
 00551,-0.00000871,-0.00000199,-0.00001901,0.00005983,0.00019809,-0.000
 00949,-0.00002858,-0.00002097,0.00001240,-0.00000348,0.00000387,-0.000
 08310,-0.00002042,-0.00004744,0.00001482,0.00001401,0.00002900,0.00000
 585,0.00001125,-0.00002263,-0.00000314,-0.00000045,0.00001911,0.000009
 48,-0.00001033,-0.00000193,-0.00000214,-0.00000714,0.00000739,0.001953
 10,-0.00124971,-0.00178332,-0.00224689,-0.00035021,0.00336816,0.000005
 51,-0.00007914,-0.00005101,0.00014298,0.00004969,0.00001562,-0.0018802
 0,-0.00036573,-0.00040022,-0.06869173,0.14866260,-0.06302844,0.0704889
 8,-0.14761629,0.06210290,-0.30900456,0.15926371,-0.08618512,0.00300995
 ,0.00059987,0.00052542,0.00005263,0.00076827,0.00059618,-0.00020412,0.
 00073871,-0.00030195,0.00125083,-0.00076260,0.00016886,-0.03015032,0.0
 1193946,-0.00374808,0.00000388,-0.00042417,-0.00000099,0.00307144,0.00
 058957,-0.00279693,-0.00027444,-0.00061038,-0.00083037,-0.00013435,0.0
 0032977,-0.00024136,-0.00257944,-0.00029006,0.00448257,0.00003393,-0.0
 0015333,-0.00022872,0.00021178,0.00013515,0.00013764,0.00004758,-0.000
 10620,-0.00084481,-0.00038472,-0.00000839,-0.00003654,-0.00060097,-0.0
 0035088,-0.00009894,0.00026030,-0.00016594,-0.00005498,-0.00020406,-0.
 00037501,-0.00029149,-0.00017324,0.00031201,0.00016081,-0.00289824,0.0
 0102092,-0.00027705,0.00456780,-0.00230758,-0.00133174,0.00120925,-0.0
 0075088,0.00006093,-0.00147227,0.00038924,-0.00036957,-0.00321379,-0.0
 0462021,0.00018049,-0.00381364,-0.00139817,0.00070525,0.00166447,0.003
 27691,0.00204022,0.33794331,0.18469693,-0.11454279,0.07088438,0.001824
 16,-0.00071796,-0.00027762,0.00024204,0.00005863,0.00061110,0.00045976
 ,0.00008162,-0.00016681,0.00000246,-0.00329338,-0.00161089,-0.00812843
 ,0.00028884,-0.00016635,-0.00002767,-0.00000131,0.00004402,-0.00175191
 ,0.00105166,0.00048450,-0.00016465,0.00020043,0.00015816,0.00000262,0.
 00009633,-0.00010368,-0.00077368,0.00004406,0.00256104,0.00010727,-0.0
 0008841,-0.00014679,0.00005815,0.00012831,-0.00015982,-0.00263139,0.00
 044329,0.00009461,0.00019515,0.00019393,-0.00005217,-0.00048165,0.0006
 0404,-0.00001007,0.00020137,-0.00029405,-0.00007081,-0.00041171,0.0000
 3179,-0.00004561,0.00005631,-0.00005624,-0.00000066,-0.00013037,-0.000
 83940,0.00122950,-0.00148691,0.00238638,-0.00153518,-0.00195363,-0.002
 29995,-0.00032735,0.00123606,0.00199688,0.00129958,-0.00007623,0.00390
 565,-0.00294914,-0.00309386,-0.00923910,-0.00002215,0.00137866,-0.0002
 5479,0.00116740,-0.16826792,0.12111843,-0.12735252,0.08850484,-0.08759
 081,0.00537031,0.00009937,0.00003070,-0.00011774,-0.00005932,0.0002657
 7,0.00012608,0.00015512,0.00004169,0.00033366,-0.00044641,0.00029004,0
 .03126711,-0.01738304,0.00777594,-0.00000364,-0.00014791,-0.00004040,0
 .00083410,0.00130766,-0.00034682,-0.00037636,-0.00013393,-0.00060357,-
 0.00005538,0.00001987,-0.00005501,0.00063934,0.00068161,-0.00454031,-0
 .00007660,0.00001594,-0.00002718,-0.00017607,-0.00029658,0.00001864,0.
 00228626,-0.00029913,-0.00001078,-0.00010578,-0.00009068,0.00018610,-0
 .00010094,0.00008769,-0.00009410,0.00005996,-0.00009394,0.00001869,-0.
 00049106,-0.00006695,-0.00027246,0.00007783,0.00032753,0.00010964,-0.0
 0290976,0.00143301,0.00032132,0.00108475,-0.00229742,-0.00529353,0.000
 13904,-0.00032598,0.00059543,-0.00040206,0.00021567,-0.00023134,-0.001
 18991,-0.00414069,0.00190450,-0.00082415,0.00095774,-0.00490796,0.0022
 6438,0.00172744,0.00083374,0.08840385,-0.07103033,0.09173422,-0.001296
 26,-0.00032900,-0.00023787,0.00088783,0.00009687,0.00031296,-0.0006989
 3,-0.00013420,0.00084307,0.00093290,0.00043969,-0.00062783,0.00350691,
 0.00189812,0.00072260,0.00055474,0.00020196,-0.00050041,-0.00006761,-0
 .00006123,0.00011609,-0.00002043,-0.00006293,0.00006312,-0.00029570,-0
 .00010600,0.00009258,-0.00008694,0.00009151,-0.00001605,0.00040328,0.0
 0008279,0.00005820,-0.00006563,-0.00008183,-0.00005570,0.00000466,0.00
 002551,0.00005235,-0.00057841,-0.00014662,-0.00002627,0.00020953,0.000
 07037,0.00000872,-0.00109400,0.00101737,-0.00002995,0.00065450,-0.0010
 7302,-0.00021949,-0.00103417,-0.00007105,-0.00003230,0.00017757,0.0001
 1091,0.00005150,-0.00153427,-0.00016062,0.00074519,0.00128450,-0.00008
 641,-0.00099999,0.00070452,0.00099290,0.00051810,-0.00978183,0.0093420
 0,-0.00188159,-0.01032555,0.00737646,-0.00099545,-0.00466729,-0.015191
 84,0.00099506,-0.00334667,-0.00143381,0.00002399,0.00117226,0.00013791
 ,0.00091515,0.27331637,-0.00136854,0.00167008,0.00005253,0.00060156,-0
 .00040277,0.00026175,0.00230320,0.00066614,0.00001112,-0.00128634,-0.0
 0144495,0.00087892,-0.00855216,-0.00895927,-0.00426485,0.00051503,-0.0
 0054811,-0.00072651,0.00012102,0.00021022,-0.00014557,0.00008494,0.000
 31321,-0.00003080,-0.00001213,0.00029156,0.00001797,0.00033716,-0.0002
 4238,0.00009318,0.00024204,-0.00007709,-0.00003458,0.00002412,0.000071
 78,0.00003058,-0.00008502,-0.00004311,-0.00009349,-0.00021558,0.000247
 37,0.00018370,0.00002292,-0.00000787,-0.00000867,0.00113122,0.00047888
 ,0.00016792,-0.00122541,0.00107693,0.00015652,0.00093822,0.00077339,-0
 .00001559,0.00003855,-0.00041985,-0.00016399,-0.00112526,0.00261638,-0
 .00038600,0.00256067,-0.00257326,-0.00140394,-0.00028505,0.00059971,0.
 00084056,0.02089988,-0.00705230,0.00330411,0.00767547,-0.00029264,-0.0
 0752396,-0.01982311,-0.01379102,0.00311243,-0.00120480,0.00041313,-0.0
 0071642,0.00252618,-0.00153517,0.00152935,-0.14834521,0.40884518,-0.00
 048739,-0.00010571,0.00050961,-0.00044763,0.00014139,-0.00025369,0.000
 63245,0.00075880,-0.00029798,0.00017961,-0.00001006,-0.00009712,-0.001
 01773,-0.00222618,-0.00168646,0.00042715,-0.00005472,-0.00044198,-0.00
 003839,0.00004083,0.00005454,-0.00005973,-0.00005010,0.00007569,0.0000
 6921,-0.00001468,0.00006070,0.00000681,-0.00000098,0.00004487,0.000067
 92,0.00002504,0.00000837,0.00002672,0.00001550,0.00001824,0.00002404,-
 0.00001381,0.00000191,-0.00011954,0.00001986,0.00010088,0.00000766,-0.
 00000382,-0.00002459,-0.00036747,0.00042307,0.00016702,0.00000898,-0.0
 0011282,-0.00013293,0.00004603,-0.00002994,0.00010149,-0.00000790,-0.0
 0002503,-0.00002510,0.00073147,0.00000265,0.00068455,-0.00049167,-0.00
 048163,-0.00046223,0.00086164,0.00092199,0.00038608,0.00122420,-0.0005
 7942,0.00539458,0.00136134,-0.00328280,-0.01138331,0.00161107,0.002561
 17,0.00615287,-0.00029344,-0.00020522,-0.00040055,0.00040879,0.0003193
 8,-0.00033961,-0.24804368,-0.02891136,0.42929721,0.00042156,0.00019410
 ,-0.00017306,-0.00006009,-0.00005606,0.00001142,0.00004592,-0.00008697
 ,-0.00006968,-0.00032482,-0.00014201,0.00016701,-0.00089486,0.00077964
 ,0.00053911,-0.00022986,-0.00005128,0.00024075,0.00003072,0.00001555,-
 0.00004397,0.00003532,0.00004762,-0.00005219,0.00004107,0.00003360,-0.
 00004277,0.00000126,-0.00003116,-0.00000897,-0.00011304,-0.00002553,-0
 .00001905,0.00000861,0.00001687,0.00001008,-0.00001488,-0.00000231,-0.
 00001535,0.00017271,0.00003721,-0.00001691,-0.00005405,-0.00001815,0.0
 0000216,0.00028331,-0.00033572,-0.00005113,-0.00014577,0.00022845,0.00
 005688,0.00025580,0.00003886,-0.00000954,-0.00004341,-0.00003051,-0.00
 000962,0.00008551,0.00013329,-0.00026625,0.00001473,0.00002369,0.00015
 002,-0.00051105,-0.00040635,-0.00001743,0.00068247,-0.00004487,-0.0010
 3968,-0.00126181,0.00033268,0.00380735,-0.00013148,-0.00057648,-0.0012
 2008,0.00002016,-0.00018212,-0.00003608,-0.00026579,-0.00024088,0.0001
 0087,-0.12435009,-0.00678790,0.19350288,0.13693480,0.00004685,-0.00010
 788,-0.00018595,0.00007842,0.00003008,0.00004008,-0.00007710,0.0001015
 3,-0.00021672,0.00013495,0.00005534,-0.00003128,0.00056895,0.00044687,
 0.00018315,-0.00005335,0.00004557,0.00009212,-0.00001106,-0.00001958,0
 .00000667,0.00001194,-0.00001062,-0.00000796,-0.00002486,-0.00002604,-
 0.00000503,-0.00004120,0.00003890,-0.00000554,-0.00000310,0.00002378,0
 .00000624,-0.00001198,-0.00001607,-0.00001042,0.00000048,0.00000631,0.
 00000874,0.00000102,-0.00003460,-0.00003297,0.00000968,0.00000740,0.00
 000713,-0.00007065,-0.00005192,0.00002158,0.00006657,-0.00000806,-0.00
 003086,-0.00008856,-0.00004068,-0.00002166,0.00001630,0.00003804,0.000
 01686,-0.00010233,-0.00012052,-0.00000060,0.00010809,0.00011369,0.0000
 4117,0.00000357,0.00001771,0.00005507,-0.00023045,-0.00155240,0.001305
 03,0.00137028,0.00437874,0.00561925,-0.00151169,-0.00290601,-0.0021465
 7,-0.00038211,-0.00007561,0.00038018,-0.00012653,-0.00000124,0.0002021
 3,-0.03386821,-0.05724335,0.08232860,0.01373504,0.04945983,0.00004697,
 -0.00000290,-0.00017924,0.00009074,0.00000729,0.00003970,-0.00003405,-
 0.00008687,0.00002715,0.00002600,0.00003112,-0.00002320,0.00039268,0.0
 0044281,0.00046148,-0.00005477,0.00001074,0.00008321,0.00000249,-0.000
 00872,-0.00000695,0.00001642,0.00001224,-0.00002130,-0.00001568,-0.000
 00781,-0.00000823,-0.00003504,0.00000873,-0.00001214,-0.00000801,0.000
 00422,0.00001342,-0.00000748,-0.00000992,-0.00000514,-0.00000686,0.000
 00697,0.00000401,0.00001263,-0.00001211,-0.00003104,0.00000384,0.00000
 218,0.00000636,-0.00003744,-0.00001712,-0.00005547,0.00004927,-0.00003
 264,0.00002407,-0.00004668,-0.00001015,-0.00002344,0.00000436,0.000014
 85,0.00001100,-0.00012832,0.00000449,-0.00000921,0.00011133,-0.0000125
 3,-0.00004748,0.00002440,-0.00007292,0.00009840,-0.00107844,0.00023008
 ,-0.00020881,0.00121067,0.00290326,0.00055600,-0.00141757,-0.00179784,
 -0.00033007,-0.00000543,-0.00009107,0.00003290,0.00001771,-0.00004817,
 0.00020066,0.21837566,0.04013270,-0.37757158,-0.21893416,-0.04887327,0
 .38514286,0.00007168,0.00133240,0.00029629,-0.00040753,-0.00024974,-0.
 00013909,0.00280009,0.00094298,-0.00143380,-0.00150929,-0.00140069,0.0
 0113611,-0.01655873,-0.00427667,-0.00558256,-0.00002738,-0.00049655,-0
 .00014607,0.00012374,0.00019135,-0.00019994,0.00005977,0.00022964,-0.0
 0005237,0.00025133,0.00026432,-0.00003978,0.00016018,-0.00020826,0.000
 06300,-0.00014725,-0.00009060,-0.00005221,0.00006723,0.00010394,0.0000
 6021,-0.00005144,-0.00004765,-0.00009710,0.00028607,0.00026016,0.00014
 254,-0.00014300,-0.00005398,-0.00001088,0.00142426,-0.00055374,0.00014
 179,-0.00136725,0.00163347,0.00027364,0.00143270,0.00055435,0.00002080
 ,-0.00009945,-0.00034629,-0.00014330,0.00062359,0.00189778,-0.00085393
 ,0.00085889,-0.00165676,-0.00014777,-0.00073568,-0.00003892,0.00053163
 ,0.00697396,-0.00416941,0.00551800,0.01050774,0.00271107,-0.00198223,-
 0.00687764,-0.00240244,0.00069225,0.00031901,0.00041283,-0.00011010,0.
 00087453,-0.00097796,0.00027931,-0.12456577,0.15029433,0.05017661,-0.0
 1063295,0.02045101,0.00142476,0.13628858,0.00038996,-0.00100641,-0.000
 21538,-0.00059425,0.00051782,-0.00035298,-0.00365305,-0.00174812,-0.00
 035297,0.00131656,0.00157653,-0.00108189,0.00860571,0.01176348,0.00495
 306,-0.00008089,0.00028765,0.00034169,-0.00012554,-0.00018007,0.000199
 69,-0.00002914,-0.00020184,-0.00000364,0.00003646,-0.00026898,0.000039
 52,-0.00047552,0.00029813,-0.00007664,-0.00005833,0.00013120,0.0000476
 5,-0.00001710,-0.00007523,-0.00002225,0.00005448,0.00003955,0.00008839
 ,-0.00002540,-0.00022252,-0.00011222,0.00004286,0.00001408,-0.00000042
 ,-0.00080207,-0.00056348,-0.00020911,0.00141231,-0.00120162,-0.0000871
 9,-0.00108432,-0.00071918,0.00007568,-0.00001889,0.00036761,0.00014410
 ,0.00118550,-0.00182212,0.00084617,-0.00192685,0.00048336,0.00053494,-
 0.00146311,-0.00170687,-0.00186949,-0.01061971,-0.00559691,-0.00537660
 ,-0.00172888,-0.00808025,0.00003230,0.00220937,0.00244842,-0.00016738,
 0.00026206,-0.00007050,0.00015714,-0.00117152,0.00053353,-0.00045264,0
 .17926759,-0.32364081,-0.05145000,-0.00659832,0.00745079,0.00727237,-0
 .16430998,0.32119274,0.00048314,0.00014395,-0.00021480,0.00037783,-0.0
 0017810,0.00019463,-0.00065363,-0.00116984,0.00155814,-0.00024297,0.00
 012895,0.00003599,-0.00295857,0.00175658,0.00091848,-0.00037060,0.0000
 4670,0.00031475,0.00003793,-0.00004671,-0.00004710,0.00003448,0.000030
 28,-0.00004931,-0.00005545,0.00002944,-0.00004743,0.00021102,-0.000078
 14,-0.00007195,-0.00005230,-0.00003914,-0.00000709,-0.00001997,-0.0000
 0663,-0.00001464,-0.00001727,0.00000815,-0.00000402,0.00009184,-0.0000
 0964,-0.00007266,-0.00000796,0.00000327,0.00001676,0.00059169,-0.00028
 641,-0.00007888,-0.00029458,0.00033620,0.00011664,-0.00008188,-0.00000
 111,-0.00009131,-0.00000770,0.00003476,0.00001666,-0.00060264,0.000007
 98,-0.00068371,0.00013652,0.00041493,0.00042635,-0.00104672,-0.0002025
 5,-0.00118575,0.00227528,-0.00152315,-0.00869382,-0.00203299,-0.001922
 14,0.00066300,0.00102317,0.00067692,-0.00061481,-0.00001145,-0.0000297
 8,0.00010676,-0.00025004,-0.00013006,0.00002679,0.02977224,-0.00634761
 ,-0.04994146,0.02343738,-0.03874519,-0.00816790,-0.04976582,0.04709809
 ,0.06559167\\0.00000707,-0.00001453,0.00000641,-0.00001664,0.00000268,
 -0.00000439,0.00002986,0.00005911,-0.00001112,-0.00004282,-0.00002676,
 0.00000913,-0.00000615,-0.00000286,-0.00001394,0.00002965,0.00000267,-
 0.00000746,0.00000090,0.00000141,-0.00000144,-0.00000207,-0.00000360,0
 .00000109,-0.00000211,0.00000256,-0.00000024,-0.00000248,-0.00000981,0
 .00000243,0.00000320,-0.00000569,-0.00000931,0.00000389,-0.00000330,0.
 00000376,-0.00000180,-0.00000293,-0.00000137,-0.00000212,0.00000547,0.
 00001276,-0.00000034,-0.00000478,-0.00000468,-0.00000408,-0.00003164,0
 .00000768,-0.00000213,0.00000449,-0.00000968,0.00001569,-0.00000464,-0
 .00000297,0.00000108,-0.00000632,0.00000167,0.00001012,0.00000405,0.00
 000456,0.00000571,0.00000241,-0.00001145,0.00000336,0.00000634,0.00000
 435,-0.00003570,0.00001278,0.00000446,0.00001420,0.00002518,-0.0000043
 7,0.00001778,0.00000806,0.00001928,-0.00001050,-0.00000003,-0.00000757
 ,-0.00001455,0.00000407,0.00000579,-0.00004794,0.00000530,0.00002510,-
 0.00000079,-0.00000549,-0.00000737,0.00004967,-0.00002418,-0.00001113\
 \\@


 TERENCE, THIS IS STUPID STUFF:
 YOU EAT YOUR VICTUALS FAST ENOUGH;
 THERE CAN'T BE MUCH AMISS, 'TIS CLEAR
 TO SEE THE RATE YOU DRINK YOUR BEER.
 BUT OH, GOOD LORD, THE VERSE YOU MAKE,
 IT GIVES A CHAP THE BELLY-ACHE.
 THE COW, THE OLD COW, SHE IS DEAD;
 IT SLEEPS WELL, THE HORNED HEAD:
 WE POOR LADS, 'TIS OUR TURN NOW
 TO HEAR SUCH TUNES AS KILLED THE COW.
 PRETTY FRIENDSHIP 'TIS TO RHYME
 YOUR FRIENDS TO DEATH BEFORE THEIR TIME.
 MOPING, MELANCHOLY MAD:
 COME PIPE A TUNE TO DANCE TO, LAD.

     -- A. E. HOUSMAN
 Job cpu time:       0 days  0 hours 33 minutes 58.0 seconds.
 File lengths (MBytes):  RWF=    220 Int=      0 D2E=      0 Chk=      6 Scr=      1
 Normal termination of Gaussian 09 at Sun Jan 15 13:18:50 2017.
