 Entering Gaussian System, Link 0=g09
 Initial command:
 /global/software/gaussian/g09.e01/l1.exe "/scratch/10462938.yak.local/Gau-4458.inp" -scrdir="/scratch/10462938.yak.local/"
 Entering Link 1 = /global/software/gaussian/g09.e01/l1.exe PID=      4461.
  
 Copyright (c) 1988,1990,1992,1993,1995,1998,2003,2009,2015,
            Gaussian, Inc.  All Rights Reserved.
  
 This is part of the Gaussian(R) 09 program.  It is based on
 the Gaussian(R) 03 system (copyright 2003, Gaussian, Inc.),
 the Gaussian(R) 98 system (copyright 1998, Gaussian, Inc.),
 the Gaussian(R) 94 system (copyright 1995, Gaussian, Inc.),
 the Gaussian 92(TM) system (copyright 1992, Gaussian, Inc.),
 the Gaussian 90(TM) system (copyright 1990, Gaussian, Inc.),
 the Gaussian 88(TM) system (copyright 1988, Gaussian, Inc.),
 the Gaussian 86(TM) system (copyright 1986, Carnegie Mellon
 University), and the Gaussian 82(TM) system (copyright 1983,
 Carnegie Mellon University). Gaussian is a federally registered
 trademark of Gaussian, Inc.
  
 This software contains proprietary and confidential information,
 including trade secrets, belonging to Gaussian, Inc.
  
 This software is provided under written license and may be
 used, copied, transmitted, or stored only in accord with that
 written license.
  
 The following legend is applicable only to US Government
 contracts under FAR:
  
                    RESTRICTED RIGHTS LEGEND
  
 Use, reproduction and disclosure by the US Government is
 subject to restrictions as set forth in subparagraphs (a)
 and (c) of the Commercial Computer Software - Restricted
 Rights clause in FAR 52.227-19.
  
 Gaussian, Inc.
 340 Quinnipiac St., Bldg. 40, Wallingford CT 06492
  
  
 ---------------------------------------------------------------
 Warning -- This program may not be used in any manner that
 competes with the business of Gaussian, Inc. or will provide
 assistance to any competitor of Gaussian, Inc.  The licensee
 of this program is prohibited from giving any competitor of
 Gaussian, Inc. access to this program.  By using this program,
 the user acknowledges that Gaussian, Inc. is engaged in the
 business of creating and licensing software in the field of
 computational chemistry and represents and warrants to the
 licensee that it is not a competitor of Gaussian, Inc. and that
 it will not use this program in any manner prohibited above.
 ---------------------------------------------------------------
  

 Cite this work as:
 Gaussian 09, Revision E.01,
 M. J. Frisch, G. W. Trucks, H. B. Schlegel, G. E. Scuseria, 
 M. A. Robb, J. R. Cheeseman, G. Scalmani, V. Barone, B. Mennucci, 
 G. A. Petersson, H. Nakatsuji, M. Caricato, X. Li, H. P. Hratchian, 
 A. F. Izmaylov, J. Bloino, G. Zheng, J. L. Sonnenberg, M. Hada, 
 M. Ehara, K. Toyota, R. Fukuda, J. Hasegawa, M. Ishida, T. Nakajima, 
 Y. Honda, O. Kitao, H. Nakai, T. Vreven, J. A. Montgomery, Jr., 
 J. E. Peralta, F. Ogliaro, M. Bearpark, J. J. Heyd, E. Brothers, 
 K. N. Kudin, V. N. Staroverov, T. Keith, R. Kobayashi, J. Normand, 
 K. Raghavachari, A. Rendell, J. C. Burant, S. S. Iyengar, J. Tomasi, 
 M. Cossi, N. Rega, J. M. Millam, M. Klene, J. E. Knox, J. B. Cross, 
 V. Bakken, C. Adamo, J. Jaramillo, R. Gomperts, R. E. Stratmann, 
 O. Yazyev, A. J. Austin, R. Cammi, C. Pomelli, J. W. Ochterski, 
 R. L. Martin, K. Morokuma, V. G. Zakrzewski, G. A. Voth, 
 P. Salvador, J. J. Dannenberg, S. Dapprich, A. D. Daniels, 
 O. Farkas, J. B. Foresman, J. V. Ortiz, J. Cioslowski, 
 and D. J. Fox, Gaussian, Inc., Wallingford CT, 2013.
 
 ******************************************
 Gaussian 09:  ES64L-G09RevE.01 30-Nov-2015
                15-Jan-2017 
 ******************************************
 %NPROCS=4
 Will use up to    4 processors via shared memory.
 -----------------------------------------
 # opt=(MaxCycle=1000) freq B3LYP/6-31G(d)
 -----------------------------------------
 1/6=1000,14=-1,18=20,19=15,26=3,38=1/1,3;
 2/9=110,12=2,17=6,18=5,40=1/2;
 3/5=1,6=6,7=1,11=2,16=1,25=1,30=1,71=1,74=-5/1,2,3;
 4//1;
 5/5=2,38=5/2;
 6/7=2,8=2,9=2,10=2,28=1/1;
 7//1,2,3,16;
 1/6=1000,14=-1,18=20,19=15,26=3/3(2);
 2/9=110/2;
 99//99;
 2/9=110/2;
 3/5=1,6=6,7=1,11=2,16=1,25=1,30=1,71=1,74=-5/1,2,3;
 4/5=5,16=3,69=1/1;
 5/5=2,38=5/2;
 7//1,2,3,16;
 1/6=1000,14=-1,18=20,19=15,26=3/3(-5);
 2/9=110/2;
 6/7=2,8=2,9=2,10=2,19=2,28=1/1;
 99/9=1/99;
 ----------------------------------------------
 ./boats/5/glo_1w_beta_ts_boat5_B3LYP_631Gd.out
 ----------------------------------------------
 Symbolic Z-matrix:
 Charge =  0 Multiplicity = 1
 O                     1.16373   0.69571  -0.49481 
 C                     0.53129  -1.0751    1.02686 
 C                    -1.26594   0.59001   0.00153 
 C                    -0.91638  -0.83018   0.54358 
 C                    -0.13963   1.56858   0.26786 
 C                     1.60083  -0.52216   0.0844 
 H                    -1.5758   -0.98624   1.41163 
 H                     2.50632  -0.36641   0.69698 
 H                     0.68885  -2.16172   1.12253 
 H                    -1.32934   0.51612  -1.09274 
 C                     1.93562  -1.49971  -1.06233 
 H                     2.67892  -1.02924  -1.72214 
 H                     1.03314  -1.68277  -1.64891 
 H                     0.2252    1.60997   1.29606 
 O                    -0.2116    2.72273  -0.38028 
 O                     2.3751   -2.77484  -0.59952 
 H                     3.23729  -2.6555   -0.17086 
 O                    -2.47204   1.06281   0.56171 
 H                    -3.18726   0.5409    0.13244 
 O                    -1.28057  -1.76019  -0.49875 
 H                    -1.11422  -2.662    -0.17778 
 O                     0.73941  -0.44257   2.29252 
 H                     0.05321  -0.7519    2.90573 
 O                     2.21198   2.88016  -0.49648 
 H                     2.04974   1.88608  -0.55213 
 H                     2.44791   3.15078  -1.39655 
 H                     0.72366   3.11375  -0.34162 
 O                    -3.91932  -0.84466  -0.88981 
 H                    -3.08159  -1.35529  -0.90298 
 H                    -4.03182  -0.53388  -1.80098 
 
 Add virtual bond connecting atoms O24        and H27        Dist= 2.86D+00.
 Add virtual bond connecting atoms H25        and O1         Dist= 2.81D+00.
 Add virtual bond connecting atoms O28        and H19        Dist= 3.54D+00.
 Add virtual bond connecting atoms H29        and O20        Dist= 3.57D+00.

 GradGradGradGradGradGradGradGradGradGradGradGradGradGradGradGradGradGrad
 Berny optimization.
 Initialization pass.
                           ----------------------------
                           !    Initial Parameters    !
                           ! (Angstroms and Degrees)  !
 --------------------------                            --------------------------
 ! Name  Definition              Value          Derivative Info.                !
 --------------------------------------------------------------------------------
 ! R1    R(1,6)                  1.4177         estimate D2E/DX2                !
 ! R2    R(1,25)                 1.485          estimate D2E/DX2                !
 ! R3    R(2,4)                  1.5457         estimate D2E/DX2                !
 ! R4    R(2,6)                  1.529          estimate D2E/DX2                !
 ! R5    R(2,9)                  1.1021         estimate D2E/DX2                !
 ! R6    R(2,22)                 1.4301         estimate D2E/DX2                !
 ! R7    R(3,4)                  1.5598         estimate D2E/DX2                !
 ! R8    R(3,5)                  1.5156         estimate D2E/DX2                !
 ! R9    R(3,10)                 1.0986         estimate D2E/DX2                !
 ! R10   R(3,18)                 1.4114         estimate D2E/DX2                !
 ! R11   R(4,7)                  1.1012         estimate D2E/DX2                !
 ! R12   R(4,20)                 1.4436         estimate D2E/DX2                !
 ! R13   R(5,14)                 1.0918         estimate D2E/DX2                !
 ! R14   R(5,15)                 1.3256         estimate D2E/DX2                !
 ! R15   R(6,8)                  1.1043         estimate D2E/DX2                !
 ! R16   R(6,11)                 1.5436         estimate D2E/DX2                !
 ! R17   R(11,12)                1.0996         estimate D2E/DX2                !
 ! R18   R(11,13)                1.0918         estimate D2E/DX2                !
 ! R19   R(11,16)                1.4259         estimate D2E/DX2                !
 ! R20   R(15,27)                1.0144         estimate D2E/DX2                !
 ! R21   R(16,17)                0.9702         estimate D2E/DX2                !
 ! R22   R(18,19)                0.984          estimate D2E/DX2                !
 ! R23   R(19,28)                1.871          estimate D2E/DX2                !
 ! R24   R(20,21)                0.9716         estimate D2E/DX2                !
 ! R25   R(20,29)                1.8897         estimate D2E/DX2                !
 ! R26   R(22,23)                0.9709         estimate D2E/DX2                !
 ! R27   R(24,25)                1.0088         estimate D2E/DX2                !
 ! R28   R(24,26)                0.969          estimate D2E/DX2                !
 ! R29   R(24,27)                1.5145         estimate D2E/DX2                !
 ! R30   R(28,29)                0.9812         estimate D2E/DX2                !
 ! R31   R(28,30)                0.9693         estimate D2E/DX2                !
 ! A1    A(6,1,25)             121.3614         estimate D2E/DX2                !
 ! A2    A(4,2,6)              113.8976         estimate D2E/DX2                !
 ! A3    A(4,2,9)              108.4964         estimate D2E/DX2                !
 ! A4    A(4,2,22)             110.0541         estimate D2E/DX2                !
 ! A5    A(6,2,9)              108.0619         estimate D2E/DX2                !
 ! A6    A(6,2,22)             106.4845         estimate D2E/DX2                !
 ! A7    A(9,2,22)             109.7813         estimate D2E/DX2                !
 ! A8    A(4,3,5)              111.1163         estimate D2E/DX2                !
 ! A9    A(4,3,10)             107.328          estimate D2E/DX2                !
 ! A10   A(4,3,18)             111.0136         estimate D2E/DX2                !
 ! A11   A(5,3,10)             105.1499         estimate D2E/DX2                !
 ! A12   A(5,3,18)             110.4269         estimate D2E/DX2                !
 ! A13   A(10,3,18)            111.6264         estimate D2E/DX2                !
 ! A14   A(2,4,3)              117.5685         estimate D2E/DX2                !
 ! A15   A(2,4,7)              106.9723         estimate D2E/DX2                !
 ! A16   A(2,4,20)             111.0966         estimate D2E/DX2                !
 ! A17   A(3,4,7)              105.5908         estimate D2E/DX2                !
 ! A18   A(3,4,20)             106.2074         estimate D2E/DX2                !
 ! A19   A(7,4,20)             109.0737         estimate D2E/DX2                !
 ! A20   A(3,5,14)             115.9948         estimate D2E/DX2                !
 ! A21   A(3,5,15)             115.8407         estimate D2E/DX2                !
 ! A22   A(14,5,15)            116.4607         estimate D2E/DX2                !
 ! A23   A(1,6,2)              110.2936         estimate D2E/DX2                !
 ! A24   A(1,6,8)              110.9961         estimate D2E/DX2                !
 ! A25   A(1,6,11)             107.9023         estimate D2E/DX2                !
 ! A26   A(2,6,8)              106.4186         estimate D2E/DX2                !
 ! A27   A(2,6,11)             112.3711         estimate D2E/DX2                !
 ! A28   A(8,6,11)             108.8799         estimate D2E/DX2                !
 ! A29   A(6,11,12)            108.7486         estimate D2E/DX2                !
 ! A30   A(6,11,13)            109.0278         estimate D2E/DX2                !
 ! A31   A(6,11,16)            113.0819         estimate D2E/DX2                !
 ! A32   A(12,11,13)           107.945          estimate D2E/DX2                !
 ! A33   A(12,11,16)           111.6547         estimate D2E/DX2                !
 ! A34   A(13,11,16)           106.2124         estimate D2E/DX2                !
 ! A35   A(5,15,27)            105.48           estimate D2E/DX2                !
 ! A36   A(11,16,17)           107.8957         estimate D2E/DX2                !
 ! A37   A(3,18,19)            105.6828         estimate D2E/DX2                !
 ! A38   A(18,19,28)           156.2834         estimate D2E/DX2                !
 ! A39   A(4,20,21)            108.4358         estimate D2E/DX2                !
 ! A40   A(4,20,29)            104.8833         estimate D2E/DX2                !
 ! A41   A(21,20,29)           115.6409         estimate D2E/DX2                !
 ! A42   A(2,22,23)            108.3727         estimate D2E/DX2                !
 ! A43   A(25,24,26)           105.2552         estimate D2E/DX2                !
 ! A44   A(25,24,27)            89.976          estimate D2E/DX2                !
 ! A45   A(26,24,27)           106.9278         estimate D2E/DX2                !
 ! A46   A(1,25,24)            152.097          estimate D2E/DX2                !
 ! A47   A(15,27,24)           147.4231         estimate D2E/DX2                !
 ! A48   A(19,28,29)            93.3634         estimate D2E/DX2                !
 ! A49   A(19,28,30)           108.7588         estimate D2E/DX2                !
 ! A50   A(29,28,30)           104.6757         estimate D2E/DX2                !
 ! A51   A(20,29,28)           157.2745         estimate D2E/DX2                !
 ! D1    D(25,1,6,2)           133.4219         estimate D2E/DX2                !
 ! D2    D(25,1,6,8)            15.7306         estimate D2E/DX2                !
 ! D3    D(25,1,6,11)         -103.4924         estimate D2E/DX2                !
 ! D4    D(6,1,25,24)         -141.9103         estimate D2E/DX2                !
 ! D5    D(6,2,4,3)            -44.8892         estimate D2E/DX2                !
 ! D6    D(6,2,4,7)           -163.3358         estimate D2E/DX2                !
 ! D7    D(6,2,4,20)            77.72           estimate D2E/DX2                !
 ! D8    D(9,2,4,3)           -165.2745         estimate D2E/DX2                !
 ! D9    D(9,2,4,7)             76.279          estimate D2E/DX2                !
 ! D10   D(9,2,4,20)           -42.6653         estimate D2E/DX2                !
 ! D11   D(22,2,4,3)            74.5922         estimate D2E/DX2                !
 ! D12   D(22,2,4,7)           -43.8544         estimate D2E/DX2                !
 ! D13   D(22,2,4,20)         -162.7987         estimate D2E/DX2                !
 ! D14   D(4,2,6,1)             36.0705         estimate D2E/DX2                !
 ! D15   D(4,2,6,8)            156.5494         estimate D2E/DX2                !
 ! D16   D(4,2,6,11)           -84.3676         estimate D2E/DX2                !
 ! D17   D(9,2,6,1)            156.6994         estimate D2E/DX2                !
 ! D18   D(9,2,6,8)            -82.8217         estimate D2E/DX2                !
 ! D19   D(9,2,6,11)            36.2613         estimate D2E/DX2                !
 ! D20   D(22,2,6,1)           -85.4132         estimate D2E/DX2                !
 ! D21   D(22,2,6,8)            35.0656         estimate D2E/DX2                !
 ! D22   D(22,2,6,11)          154.1486         estimate D2E/DX2                !
 ! D23   D(4,2,22,23)           54.153          estimate D2E/DX2                !
 ! D24   D(6,2,22,23)          178.0539         estimate D2E/DX2                !
 ! D25   D(9,2,22,23)          -65.2            estimate D2E/DX2                !
 ! D26   D(5,3,4,2)             -9.5979         estimate D2E/DX2                !
 ! D27   D(5,3,4,7)            109.5823         estimate D2E/DX2                !
 ! D28   D(5,3,4,20)          -134.6697         estimate D2E/DX2                !
 ! D29   D(10,3,4,2)           104.8565         estimate D2E/DX2                !
 ! D30   D(10,3,4,7)          -135.9633         estimate D2E/DX2                !
 ! D31   D(10,3,4,20)          -20.2153         estimate D2E/DX2                !
 ! D32   D(18,3,4,2)          -132.9059         estimate D2E/DX2                !
 ! D33   D(18,3,4,7)           -13.7258         estimate D2E/DX2                !
 ! D34   D(18,3,4,20)          102.0223         estimate D2E/DX2                !
 ! D35   D(4,3,5,14)           -51.187          estimate D2E/DX2                !
 ! D36   D(4,3,5,15)           166.9105         estimate D2E/DX2                !
 ! D37   D(10,3,5,14)         -166.994          estimate D2E/DX2                !
 ! D38   D(10,3,5,15)           51.1035         estimate D2E/DX2                !
 ! D39   D(18,3,5,14)           72.4566         estimate D2E/DX2                !
 ! D40   D(18,3,5,15)          -69.4459         estimate D2E/DX2                !
 ! D41   D(4,3,18,19)          -72.8267         estimate D2E/DX2                !
 ! D42   D(5,3,18,19)          163.4703         estimate D2E/DX2                !
 ! D43   D(10,3,18,19)          46.8771         estimate D2E/DX2                !
 ! D44   D(2,4,20,21)           53.6552         estimate D2E/DX2                !
 ! D45   D(2,4,20,29)          177.7502         estimate D2E/DX2                !
 ! D46   D(3,4,20,21)         -177.3886         estimate D2E/DX2                !
 ! D47   D(3,4,20,29)          -53.2936         estimate D2E/DX2                !
 ! D48   D(7,4,20,21)          -64.0196         estimate D2E/DX2                !
 ! D49   D(7,4,20,29)           60.0754         estimate D2E/DX2                !
 ! D50   D(3,5,15,27)         -161.8825         estimate D2E/DX2                !
 ! D51   D(14,5,15,27)          56.3955         estimate D2E/DX2                !
 ! D52   D(1,6,11,12)           56.0608         estimate D2E/DX2                !
 ! D53   D(1,6,11,13)          -61.4058         estimate D2E/DX2                !
 ! D54   D(1,6,11,16)         -179.3108         estimate D2E/DX2                !
 ! D55   D(2,6,11,12)          177.8703         estimate D2E/DX2                !
 ! D56   D(2,6,11,13)           60.4036         estimate D2E/DX2                !
 ! D57   D(2,6,11,16)          -57.5013         estimate D2E/DX2                !
 ! D58   D(8,6,11,12)          -64.4978         estimate D2E/DX2                !
 ! D59   D(8,6,11,13)          178.0356         estimate D2E/DX2                !
 ! D60   D(8,6,11,16)           60.1306         estimate D2E/DX2                !
 ! D61   D(6,11,16,17)         -67.5827         estimate D2E/DX2                !
 ! D62   D(12,11,16,17)         55.45           estimate D2E/DX2                !
 ! D63   D(13,11,16,17)        172.8803         estimate D2E/DX2                !
 ! D64   D(5,15,27,24)          45.6774         estimate D2E/DX2                !
 ! D65   D(3,18,19,28)          12.5057         estimate D2E/DX2                !
 ! D66   D(18,19,28,29)         12.2213         estimate D2E/DX2                !
 ! D67   D(18,19,28,30)        -94.5158         estimate D2E/DX2                !
 ! D68   D(4,20,29,28)          11.0137         estimate D2E/DX2                !
 ! D69   D(21,20,29,28)        130.3892         estimate D2E/DX2                !
 ! D70   D(26,24,25,1)        -112.4541         estimate D2E/DX2                !
 ! D71   D(27,24,25,1)          -4.8952         estimate D2E/DX2                !
 ! D72   D(25,24,27,15)        -10.2348         estimate D2E/DX2                !
 ! D73   D(26,24,27,15)         95.7217         estimate D2E/DX2                !
 ! D74   D(19,28,29,20)          2.7291         estimate D2E/DX2                !
 ! D75   D(30,28,29,20)        113.1183         estimate D2E/DX2                !
 --------------------------------------------------------------------------------
 Trust Radius=3.00D-01 FncErr=1.00D-07 GrdErr=1.00D-06
 Number of steps in this run=    180 maximum allowed number of steps=    180.
 GradGradGradGradGradGradGradGradGradGradGradGradGradGradGradGradGradGrad

                          Input orientation:                          
 ---------------------------------------------------------------------
 Center     Atomic      Atomic             Coordinates (Angstroms)
 Number     Number       Type             X           Y           Z
 ---------------------------------------------------------------------
      1          8           0        1.163730    0.695710   -0.494810
      2          6           0        0.531290   -1.075100    1.026860
      3          6           0       -1.265940    0.590010    0.001530
      4          6           0       -0.916380   -0.830180    0.543580
      5          6           0       -0.139630    1.568580    0.267860
      6          6           0        1.600830   -0.522160    0.084400
      7          1           0       -1.575800   -0.986240    1.411630
      8          1           0        2.506320   -0.366410    0.696980
      9          1           0        0.688850   -2.161720    1.122530
     10          1           0       -1.329340    0.516120   -1.092740
     11          6           0        1.935620   -1.499710   -1.062330
     12          1           0        2.678920   -1.029240   -1.722140
     13          1           0        1.033140   -1.682770   -1.648910
     14          1           0        0.225200    1.609970    1.296060
     15          8           0       -0.211600    2.722730   -0.380280
     16          8           0        2.375100   -2.774840   -0.599520
     17          1           0        3.237290   -2.655500   -0.170860
     18          8           0       -2.472040    1.062810    0.561710
     19          1           0       -3.187260    0.540900    0.132440
     20          8           0       -1.280570   -1.760190   -0.498750
     21          1           0       -1.114220   -2.662000   -0.177780
     22          8           0        0.739410   -0.442570    2.292520
     23          1           0        0.053210   -0.751900    2.905730
     24          8           0        2.211980    2.880160   -0.496480
     25          1           0        2.049740    1.886080   -0.552130
     26          1           0        2.447910    3.150780   -1.396550
     27          1           0        0.723660    3.113750   -0.341620
     28          8           0       -3.919320   -0.844660   -0.889810
     29          1           0       -3.081590   -1.355290   -0.902980
     30          1           0       -4.031820   -0.533880   -1.800980
 ---------------------------------------------------------------------
                    Distance matrix (angstroms):
                    1          2          3          4          5
     1  O    0.000000
     2  C    2.418931   0.000000
     3  C    2.482100   2.655923   0.000000
     4  C    2.780908   1.545734   1.559792   0.000000
     5  C    1.744223   2.831123   1.515620   2.536417   0.000000
     6  C    1.417656   1.529016   3.076062   2.577221   2.726546
     7  H    3.737445   2.143775   2.137512   1.101227   3.146093
     8  H    2.085908   2.124101   3.953269   3.457382   3.305962
     9  H    3.317560   1.102144   3.556665   2.164473   3.915607
    10  H    2.570053   3.238307   1.098593   2.158843   2.091486
    11  C    2.395363   2.552871   3.968465   3.340826   3.935794
    12  H    2.603381   3.488756   4.599449   4.254327   4.318911
    13  H    2.646917   2.789420   3.629773   3.055250   3.952300
    14  H    2.218992   2.715835   2.222527   2.797099   1.091792
    15  O    2.452236   4.117699   2.409545   3.738101   1.325642
    16  O    3.677377   2.988957   4.994061   3.990266   5.093281
    17  H    3.954137   3.354793   5.553569   4.592950   5.425764
    18  O    3.803922   3.715779   1.411389   2.450269   2.404639
    19  H    4.398696   4.151994   1.926401   2.684361   3.219086
    20  O    3.464977   2.465699   2.402901   1.443608   3.601409
    21  H    4.069862   2.584011   3.260482   1.978652   4.364198
    22  O    3.040549   1.430141   3.215009   2.439400   2.986082
    23  H    3.859080   1.965495   3.460528   2.554601   3.518547
    24  O    2.422943   4.559536   4.193892   4.963364   2.799023
    25  H    1.485019   3.683407   3.602787   4.168515   2.359350
    26  H    2.913696   5.234922   4.722801   5.561528   3.459621
    27  H    2.462528   4.410919   3.231954   4.362097   1.871974
    28  O    5.325989   4.851253   3.145344   3.327531   4.631413
    29  H    4.732435   4.105568   2.810501   2.656391   4.309874
    30  H    5.496518   5.395514   3.487444   3.910335   4.883603
                    6          7          8          9         10
     6  C    0.000000
     7  H    3.473887   0.000000
     8  H    1.104276   4.190300   0.000000
     9  H    2.144196   2.567873   2.589870   0.000000
    10  H    3.324091   2.930819   4.323684   4.018873   0.000000
    11  C    1.543593   4.325991   2.169156   2.601212   3.837246
    12  H    2.164023   5.284412   2.514215   3.651717   4.341708
    13  H    2.161863   4.081498   3.066963   2.833515   3.275020
    14  H    2.811842   3.161845   3.077090   3.804041   3.052780
    15  O    3.745683   4.339175   4.253277   5.189133   2.574115
    16  O    2.478267   4.780526   2.738369   2.486928   4.979614
    17  H    2.700796   5.334467   2.554877   2.900211   5.635880
    18  O    4.396388   2.392533   5.181220   4.550092   2.083708
    19  H    4.904917   2.562282   5.792993   4.827904   2.225656
    20  O    3.189866   2.082237   4.208673   2.582323   2.353038
    21  H    3.466865   2.355303   4.375300   2.278628   3.314193
    22  O    2.371534   2.536088   2.381915   2.080123   4.081519
    23  H    3.226114   2.222819   3.323391   2.360388   4.416682
    24  O    3.505240   5.739095   3.471484   5.510143   4.299437
    25  H    2.531069   5.025049   2.615808   4.587068   3.686086
    26  H    4.049845   6.418026   4.093520   6.136995   4.615339
    27  H    3.764407   5.017103   4.045748   5.474991   3.395095
    28  O    5.614726   3.287667   6.635923   5.198018   2.932729
    29  H    4.857374   2.785861   5.895973   4.355369   2.570713
    30  H    5.939827   4.069094   7.001080   5.786320   2.984544
                   11         12         13         14         15
    11  C    0.000000
    12  H    1.099630   0.000000
    13  H    1.091814   1.772302   0.000000
    14  H    4.261179   4.700607   4.490852   0.000000
    15  O    4.785890   4.922700   4.750498   2.058918   0.000000
    16  O    1.425936   2.097547   2.023535   5.238497   6.079668
    17  H    1.955739   2.315808   2.826502   5.423908   6.392500
    18  O    5.350839   6.010410   4.971050   2.848466   2.958423
    19  H    5.642292   6.349557   5.092121   3.760559   3.725294
    20  O    3.275569   4.208151   2.584979   4.104469   4.610131
    21  H    3.381549   4.408953   2.781056   4.713383   5.463611
    22  O    3.715304   4.497041   4.142372   2.338860   4.250577
    23  H    4.455130   5.328081   4.750950   2.863398   4.789681
    24  O    4.424909   4.123552   4.851607   2.962073   2.431466
    25  H    3.425916   3.203729   3.869508   2.611702   2.417266
    26  H    4.690544   4.199041   5.042665   3.816371   2.879067
    27  H    4.824135   4.784688   4.981103   2.278555   1.014447
    28  O    5.893995   6.653091   5.079914   5.289639   5.170404
    29  H    5.021817   5.827590   4.194599   4.956148   5.014011
    30  H    6.090055   6.729460   5.195853   5.684186   5.217085
                   16         17         18         19         20
    16  O    0.000000
    17  H    0.970239   0.000000
    18  O    6.290531   6.852659   0.000000
    19  H    6.516882   7.182187   0.983973   0.000000
    20  O    3.795206   4.617375   3.242454   3.054322   0.000000
    21  H    3.516525   4.351520   4.032956   3.827832   0.971574
    22  O    4.059416   4.147855   3.946553   4.588235   3.688852
    23  H    4.665859   4.819488   3.894161   4.456805   3.792902
    24  O    5.658290   5.639222   5.134449   5.917725   5.807819
    25  H    4.672503   4.709734   4.729155   5.450166   4.938532
    26  H    5.979426   5.986512   5.692127   6.395657   6.230990
    27  H    6.121214   6.295375   3.903186   4.705272   5.272278
    28  O    6.590113   7.417081   2.799995   1.871011   2.820306
    29  H    5.646475   6.492672   2.892071   2.163053   1.889714
    30  H    6.893042   7.745871   3.250329   2.367815   3.281618
                   21         22         23         24         25
    21  H    0.000000
    22  O    3.803182   0.000000
    23  H    3.810434   0.970867   0.000000
    24  O    6.471531   4.581214   5.424683   0.000000
    25  H    5.553000   3.902769   4.785589   1.008768   0.000000
    26  H    6.925502   5.425898   6.282922   0.969033   1.571958
    27  H    6.063327   4.425647   5.092940   1.514478   1.819334
    28  O    3.417352   5.656206   5.495064   7.184833   6.572720
    29  H    2.470617   5.064022   4.969640   6.791624   6.079484
    30  H    3.959301   6.287266   6.236034   7.234807   6.663423
                   26         27         28         29         30
    26  H    0.000000
    27  H    2.021704   0.000000
    28  O    7.534052   6.125911   0.000000
    29  H    7.150080   5.896386   0.981177   0.000000
    30  H    7.465064   6.168430   0.969263   1.544039   0.000000
 Stoichiometry    C6H16O8
 Framework group  C1[X(C6H16O8)]
 Deg. of freedom    84
 Full point group                 C1      NOp   1
 Largest Abelian subgroup         C1      NOp   1
 Largest concise Abelian subgroup C1      NOp   1
                         Standard orientation:                         
 ---------------------------------------------------------------------
 Center     Atomic      Atomic             Coordinates (Angstroms)
 Number     Number       Type             X           Y           Z
 ---------------------------------------------------------------------
      1          8           0        1.165769    0.698027   -0.484331
      2          6           0        0.514262   -1.068981    1.033710
      3          6           0       -1.264639    0.618685    0.013307
      4          6           0       -0.930838   -0.806600    0.551906
      5          6           0       -0.127169    1.583843    0.281147
      6          6           0        1.589415   -0.526027    0.091831
      7          1           0       -1.591454   -0.957170    1.420017
      8          1           0        2.496982   -0.381926    0.704190
      9          1           0        0.659577   -2.157529    1.126810
     10          1           0       -1.329537    0.548013   -1.081088
     11          6           0        1.912428   -1.504684   -1.057330
     12          1           0        2.660601   -1.041148   -1.716540
     13          1           0        1.007578   -1.676186   -1.643752
     14          1           0        0.238731    1.618759    1.309207
     15          8           0       -0.186472    2.740208   -0.364322
     16          8           0        2.337736   -2.785755   -0.597698
     17          1           0        3.201481   -2.677153   -0.169315
     18          8           0       -2.464972    1.103819    0.575325
     19          1           0       -3.186312    0.591013    0.145323
     20          8           0       -1.306160   -1.730052   -0.492305
     21          1           0       -1.149827   -2.634415   -0.173491
     22          8           0        0.730294   -0.441733    2.300672
     23          1           0        0.041012   -0.744679    2.913612
     24          8           0        2.238663    2.870478   -0.481700
     25          1           0        2.065153    1.878427   -0.539507
     26          1           0        2.477092    3.140464   -1.381302
     27          1           0        0.753175    3.120535   -0.325366
     28          8           0       -3.934621   -0.783843   -0.879610
     29          1           0       -3.102730   -1.303885   -0.894471
     30          1           0       -4.044152   -0.469734   -1.789999
 ---------------------------------------------------------------------
 Rotational constants (GHZ):      0.6451707      0.5398396      0.3716375
 Standard basis: 6-31G(d) (6D, 7F)
 There are   242 symmetry adapted cartesian basis functions of A   symmetry.
 There are   242 symmetry adapted basis functions of A   symmetry.
   242 basis functions,   456 primitive gaussians,   242 cartesian basis functions
    58 alpha electrons       58 beta electrons
       nuclear repulsion energy      1104.3024998741 Hartrees.
 NAtoms=   30 NActive=   30 NUniq=   30 SFac= 1.00D+00 NAtFMM=   60 NAOKFM=F Big=F
 Integral buffers will be    131072 words long.
 Raffenetti 2 integral format.
 Two-electron integral symmetry is turned on.
 One-electron integrals computed using PRISM.
 NBasis=   242 RedAO= T EigKep=  1.48D-03  NBF=   242
 NBsUse=   242 1.00D-06 EigRej= -1.00D+00 NBFU=   242
 ExpMin= 1.61D-01 ExpMax= 5.48D+03 ExpMxC= 8.25D+02 IAcc=1 IRadAn=         1 AccDes= 0.00D+00
 Harris functional with IExCor=  402 and IRadAn=       1 diagonalized for initial guess.
 HarFok:  IExCor=  402 AccDes= 0.00D+00 IRadAn=         1 IDoV= 1 UseB2=F ITyADJ=14
 ICtDFT=  3500011 ScaDFX=  1.000000  1.000000  1.000000  1.000000
 FoFCou: FMM=F IPFlag=           0 FMFlag=      100000 FMFlg1=           0
         NFxFlg=           0 DoJE=T BraDBF=F KetDBF=T FulRan=T
         wScrn=  0.000000 ICntrl=     500 IOpCl=  0 I1Cent=   200000004 NGrid=           0
         NMat0=    1 NMatS0=      1 NMatT0=    0 NMatD0=    1 NMtDS0=    0 NMtDT0=    0
 Petite list used in FoFCou.
 Requested convergence on RMS density matrix=1.00D-08 within 128 cycles.
 Requested convergence on MAX density matrix=1.00D-06.
 Requested convergence on             energy=1.00D-06.
 No special actions if energy rises.
 Integral accuracy reduced to 1.0D-05 until final iterations.
 Initial convergence to 1.0D-05 achieved.  Increase integral accuracy.
 SCF Done:  E(RB3LYP) =  -839.958052196     A.U. after   14 cycles
            NFock= 14  Conv=0.44D-08     -V/T= 2.0085

 **********************************************************************

            Population analysis using the SCF density.

 **********************************************************************

 Orbital symmetries:
       Occupied  (A) (A) (A) (A) (A) (A) (A) (A) (A) (A) (A) (A)
                 (A) (A) (A) (A) (A) (A) (A) (A) (A) (A) (A) (A)
                 (A) (A) (A) (A) (A) (A) (A) (A) (A) (A) (A) (A)
                 (A) (A) (A) (A) (A) (A) (A) (A) (A) (A) (A) (A)
                 (A) (A) (A) (A) (A) (A) (A) (A) (A) (A)
       Virtual   (A) (A) (A) (A) (A) (A) (A) (A) (A) (A) (A) (A)
                 (A) (A) (A) (A) (A) (A) (A) (A) (A) (A) (A) (A)
                 (A) (A) (A) (A) (A) (A) (A) (A) (A) (A) (A) (A)
                 (A) (A) (A) (A) (A) (A) (A) (A) (A) (A) (A) (A)
                 (A) (A) (A) (A) (A) (A) (A) (A) (A) (A) (A) (A)
                 (A) (A) (A) (A) (A) (A) (A) (A) (A) (A) (A) (A)
                 (A) (A) (A) (A) (A) (A) (A) (A) (A) (A) (A) (A)
                 (A) (A) (A) (A) (A) (A) (A) (A) (A) (A) (A) (A)
                 (A) (A) (A) (A) (A) (A) (A) (A) (A) (A) (A) (A)
                 (A) (A) (A) (A) (A) (A) (A) (A) (A) (A) (A) (A)
                 (A) (A) (A) (A) (A) (A) (A) (A) (A) (A) (A) (A)
                 (A) (A) (A) (A) (A) (A) (A) (A) (A) (A) (A) (A)
                 (A) (A) (A) (A) (A) (A) (A) (A) (A) (A) (A) (A)
                 (A) (A) (A) (A) (A) (A) (A) (A) (A) (A) (A) (A)
                 (A) (A) (A) (A) (A) (A) (A) (A) (A) (A) (A) (A)
                 (A) (A) (A) (A)
 The electronic state is 1-A.
 Alpha  occ. eigenvalues --  -19.18624 -19.16350 -19.15786 -19.15361 -19.14538
 Alpha  occ. eigenvalues --  -19.14410 -19.13658 -19.12602 -10.29012 -10.25445
 Alpha  occ. eigenvalues --  -10.24966 -10.24063 -10.24026 -10.23434  -1.06210
 Alpha  occ. eigenvalues --   -1.05338  -1.03611  -1.02703  -1.01345  -1.00295
 Alpha  occ. eigenvalues --   -0.99666  -0.98115  -0.77587  -0.75737  -0.69110
 Alpha  occ. eigenvalues --   -0.66077  -0.61217  -0.56608  -0.55575  -0.54826
 Alpha  occ. eigenvalues --   -0.53560  -0.53274  -0.52197  -0.50631  -0.49307
 Alpha  occ. eigenvalues --   -0.48219  -0.45045  -0.44624  -0.43107  -0.42381
 Alpha  occ. eigenvalues --   -0.41360  -0.41307  -0.40242  -0.39438  -0.38111
 Alpha  occ. eigenvalues --   -0.35787  -0.35534  -0.34438  -0.33653  -0.32550
 Alpha  occ. eigenvalues --   -0.31041  -0.30393  -0.29365  -0.29254  -0.28172
 Alpha  occ. eigenvalues --   -0.26784  -0.25568  -0.25371
 Alpha virt. eigenvalues --    0.02760   0.04110   0.05595   0.06332   0.07536
 Alpha virt. eigenvalues --    0.08205   0.11186   0.12976   0.14051   0.15086
 Alpha virt. eigenvalues --    0.16093   0.16608   0.17631   0.18068   0.19053
 Alpha virt. eigenvalues --    0.20511   0.20778   0.20886   0.22317   0.23433
 Alpha virt. eigenvalues --    0.24784   0.26229   0.26863   0.27498   0.30575
 Alpha virt. eigenvalues --    0.32556   0.33951   0.33978   0.53065   0.53620
 Alpha virt. eigenvalues --    0.54374   0.54641   0.56701   0.58130   0.58836
 Alpha virt. eigenvalues --    0.60159   0.61901   0.62630   0.64200   0.65943
 Alpha virt. eigenvalues --    0.68097   0.69449   0.70289   0.72146   0.75292
 Alpha virt. eigenvalues --    0.77171   0.77975   0.78583   0.79215   0.80238
 Alpha virt. eigenvalues --    0.82395   0.83097   0.83790   0.84794   0.85720
 Alpha virt. eigenvalues --    0.85970   0.86665   0.86959   0.88069   0.88777
 Alpha virt. eigenvalues --    0.90284   0.91263   0.93316   0.93947   0.95319
 Alpha virt. eigenvalues --    0.95745   0.97634   0.99086   1.00232   1.02861
 Alpha virt. eigenvalues --    1.04326   1.04685   1.05934   1.07045   1.07535
 Alpha virt. eigenvalues --    1.10169   1.11370   1.12565   1.13511   1.14076
 Alpha virt. eigenvalues --    1.15538   1.18081   1.19243   1.22578   1.22670
 Alpha virt. eigenvalues --    1.31364   1.32649   1.34074   1.35992   1.38415
 Alpha virt. eigenvalues --    1.40680   1.42926   1.45067   1.46455   1.48561
 Alpha virt. eigenvalues --    1.50773   1.54942   1.55987   1.58179   1.58881
 Alpha virt. eigenvalues --    1.61293   1.62977   1.65835   1.66354   1.68417
 Alpha virt. eigenvalues --    1.70748   1.71282   1.71675   1.72994   1.73413
 Alpha virt. eigenvalues --    1.76354   1.77363   1.78285   1.78808   1.80884
 Alpha virt. eigenvalues --    1.82261   1.82641   1.83635   1.84029   1.84823
 Alpha virt. eigenvalues --    1.87042   1.88596   1.92133   1.94690   1.95768
 Alpha virt. eigenvalues --    1.97362   1.99014   1.99707   2.04654   2.05666
 Alpha virt. eigenvalues --    2.07815   2.08466   2.12158   2.13559   2.14837
 Alpha virt. eigenvalues --    2.18379   2.19240   2.23237   2.25601   2.29001
 Alpha virt. eigenvalues --    2.30909   2.32686   2.34065   2.36880   2.40616
 Alpha virt. eigenvalues --    2.41917   2.43328   2.45128   2.46380   2.49770
 Alpha virt. eigenvalues --    2.52163   2.54298   2.55359   2.57990   2.59015
 Alpha virt. eigenvalues --    2.60180   2.62890   2.63474   2.67194   2.70291
 Alpha virt. eigenvalues --    2.72950   2.76788   2.79974   2.85717   2.88842
 Alpha virt. eigenvalues --    2.91918   2.95917   2.98446   3.07085   3.08569
 Alpha virt. eigenvalues --    3.71531   3.72795   3.77773   3.79882   3.87434
 Alpha virt. eigenvalues --    3.95556   3.98530   4.15342   4.29459   4.34146
 Alpha virt. eigenvalues --    4.44533   4.49524   4.66577   4.80660
          Condensed to atoms (all electrons):
               1          2          3          4          5          6
     1  O    8.530025  -0.035275  -0.015308  -0.002425   0.109596   0.159683
     2  C   -0.035275   5.063336  -0.014833   0.272793  -0.004083   0.309710
     3  C   -0.015308  -0.014833   4.934709   0.286382   0.318893  -0.015086
     4  C   -0.002425   0.272793   0.286382   5.156131  -0.044813  -0.031751
     5  C    0.109596  -0.004083   0.318893  -0.044813   4.741459  -0.001634
     6  C    0.159683   0.309710  -0.015086  -0.031751  -0.001634   4.948632
     7  H    0.000250  -0.054943  -0.044938   0.341590   0.000533   0.005797
     8  H   -0.035094  -0.058680   0.000319   0.005123  -0.000855   0.357635
     9  H    0.003734   0.344271   0.003672  -0.047290   0.000292  -0.050704
    10  H    0.002144   0.000967   0.329272  -0.061807  -0.027452   0.001363
    11  C   -0.038476  -0.024011  -0.000087  -0.003451   0.001639   0.315428
    12  H    0.005068   0.006280  -0.000029  -0.000122  -0.000168  -0.048399
    13  H    0.005212  -0.012513  -0.000370   0.000789  -0.000124  -0.033111
    14  H   -0.036547  -0.004413  -0.059871  -0.003952   0.353109  -0.000586
    15  O   -0.038692  -0.000137  -0.038530   0.003135   0.316545   0.001777
    16  O    0.001507  -0.006751   0.000005   0.000365  -0.000022  -0.038630
    17  H   -0.000002  -0.000965   0.000001   0.000022  -0.000001  -0.002809
    18  O    0.000832   0.003288   0.240443  -0.050973  -0.040343   0.000058
    19  H   -0.000052   0.000015  -0.023558   0.000978   0.005522  -0.000022
    20  O   -0.000587  -0.024167  -0.035276   0.157513   0.002295   0.001950
    21  H    0.000041  -0.003693   0.005999  -0.020633  -0.000234  -0.000993
    22  O    0.000725   0.192981  -0.000584  -0.035656  -0.005209  -0.042164
    23  H   -0.000159  -0.026739  -0.000697  -0.002939   0.000362   0.007059
    24  O   -0.069920  -0.000205  -0.000300   0.000020   0.009195   0.002462
    25  H    0.077081   0.002119   0.000852  -0.000012  -0.009040  -0.003209
    26  H    0.003430   0.000008  -0.000029  -0.000001  -0.000426  -0.000020
    27  H    0.004863   0.000050   0.005154  -0.000203  -0.029903  -0.000244
    28  O    0.000000  -0.000001   0.006852   0.000331   0.000214  -0.000001
    29  H   -0.000004   0.000526  -0.001356  -0.004263   0.000072  -0.000012
    30  H   -0.000000  -0.000005   0.000469  -0.000288   0.000012   0.000000
               7          8          9         10         11         12
     1  O    0.000250  -0.035094   0.003734   0.002144  -0.038476   0.005068
     2  C   -0.054943  -0.058680   0.344271   0.000967  -0.024011   0.006280
     3  C   -0.044938   0.000319   0.003672   0.329272  -0.000087  -0.000029
     4  C    0.341590   0.005123  -0.047290  -0.061807  -0.003451  -0.000122
     5  C    0.000533  -0.000855   0.000292  -0.027452   0.001639  -0.000168
     6  C    0.005797   0.357635  -0.050704   0.001363   0.315428  -0.048399
     7  H    0.633923  -0.000195  -0.003692   0.007072  -0.000064   0.000007
     8  H   -0.000195   0.652949   0.002278   0.000063  -0.056882  -0.006896
     9  H   -0.003692   0.002278   0.635619  -0.000277  -0.006264   0.000673
    10  H    0.007072   0.000063  -0.000277   0.635942  -0.000254   0.000024
    11  C   -0.000064  -0.056882  -0.006264  -0.000254   4.970192   0.356040
    12  H    0.000007  -0.006896   0.000673   0.000024   0.356040   0.627111
    13  H    0.000145   0.006031  -0.000175   0.000806   0.360762  -0.036524
    14  H    0.000889   0.001414   0.000329   0.007157  -0.000112   0.000006
    15  O   -0.000102  -0.000058   0.000003  -0.000732  -0.000036   0.000003
    16  O   -0.000001   0.002549   0.019111   0.000005   0.225951  -0.030199
    17  H   -0.000001   0.005444  -0.000117   0.000000  -0.031422  -0.006868
    18  O    0.008214   0.000006  -0.000065  -0.035944  -0.000002  -0.000000
    19  H    0.000551  -0.000000   0.000003  -0.006265   0.000000   0.000000
    20  O   -0.032765  -0.000129  -0.000733   0.000274  -0.003839   0.000154
    21  H   -0.004161  -0.000004   0.008853   0.000045   0.000807  -0.000009
    22  O    0.000119   0.000846  -0.033836  -0.000071   0.002686  -0.000058
    23  H    0.009312  -0.000195  -0.003292   0.000029  -0.000283   0.000007
    24  O    0.000000   0.001107   0.000002   0.000005  -0.000076  -0.000057
    25  H   -0.000001  -0.002737  -0.000040   0.000093  -0.000467   0.001010
    26  H    0.000000  -0.000086  -0.000000   0.000003  -0.000003   0.000022
    27  H    0.000004  -0.000040  -0.000000  -0.000280   0.000004  -0.000000
    28  O    0.000437  -0.000000   0.000001   0.003294  -0.000000   0.000000
    29  H   -0.000830   0.000000  -0.000034   0.000439   0.000003  -0.000000
    30  H   -0.000012  -0.000000  -0.000000   0.000580   0.000000  -0.000000
              13         14         15         16         17         18
     1  O    0.005212  -0.036547  -0.038692   0.001507  -0.000002   0.000832
     2  C   -0.012513  -0.004413  -0.000137  -0.006751  -0.000965   0.003288
     3  C   -0.000370  -0.059871  -0.038530   0.000005   0.000001   0.240443
     4  C    0.000789  -0.003952   0.003135   0.000365   0.000022  -0.050973
     5  C   -0.000124   0.353109   0.316545  -0.000022  -0.000001  -0.040343
     6  C   -0.033111  -0.000586   0.001777  -0.038630  -0.002809   0.000058
     7  H    0.000145   0.000889  -0.000102  -0.000001  -0.000001   0.008214
     8  H    0.006031   0.001414  -0.000058   0.002549   0.005444   0.000006
     9  H   -0.000175   0.000329   0.000003   0.019111  -0.000117  -0.000065
    10  H    0.000806   0.007157  -0.000732   0.000005   0.000000  -0.035944
    11  C    0.360762  -0.000112  -0.000036   0.225951  -0.031422  -0.000002
    12  H   -0.036524   0.000006   0.000003  -0.030199  -0.006868  -0.000000
    13  H    0.555872   0.000030  -0.000004  -0.033937   0.007080   0.000004
    14  H    0.000030   0.591300  -0.043102   0.000003   0.000001   0.001813
    15  O   -0.000004  -0.043102   8.266539   0.000000  -0.000000   0.002119
    16  O   -0.033937   0.000003   0.000000   8.241274   0.234650   0.000000
    17  H    0.007080   0.000001  -0.000000   0.234650   0.401338   0.000000
    18  O    0.000004   0.001813   0.002119   0.000000   0.000000   8.338121
    19  H   -0.000001  -0.000262  -0.000117   0.000000  -0.000000   0.214510
    20  O    0.013053  -0.000019  -0.000007  -0.000089  -0.000011   0.000791
    21  H   -0.000826   0.000016   0.000001   0.000137   0.000000  -0.000226
    22  O    0.000013   0.017863   0.000116  -0.000003  -0.000049  -0.000053
    23  H    0.000008  -0.000106  -0.000008   0.000015   0.000001  -0.000035
    24  O    0.000007   0.000766  -0.072320   0.000000   0.000000   0.000000
    25  H   -0.000073   0.000541   0.011346   0.000006  -0.000002  -0.000017
    26  H   -0.000001  -0.000020   0.004492  -0.000000  -0.000000  -0.000000
    27  H   -0.000000  -0.003954   0.188144  -0.000000  -0.000000  -0.000108
    28  O    0.000001   0.000000  -0.000000  -0.000000  -0.000000  -0.022984
    29  H    0.000009  -0.000002  -0.000002   0.000000   0.000000   0.003422
    30  H   -0.000001   0.000000  -0.000000  -0.000000  -0.000000   0.001127
              19         20         21         22         23         24
     1  O   -0.000052  -0.000587   0.000041   0.000725  -0.000159  -0.069920
     2  C    0.000015  -0.024167  -0.003693   0.192981  -0.026739  -0.000205
     3  C   -0.023558  -0.035276   0.005999  -0.000584  -0.000697  -0.000300
     4  C    0.000978   0.157513  -0.020633  -0.035656  -0.002939   0.000020
     5  C    0.005522   0.002295  -0.000234  -0.005209   0.000362   0.009195
     6  C   -0.000022   0.001950  -0.000993  -0.042164   0.007059   0.002462
     7  H    0.000551  -0.032765  -0.004161   0.000119   0.009312   0.000000
     8  H   -0.000000  -0.000129  -0.000004   0.000846  -0.000195   0.001107
     9  H    0.000003  -0.000733   0.008853  -0.033836  -0.003292   0.000002
    10  H   -0.006265   0.000274   0.000045  -0.000071   0.000029   0.000005
    11  C    0.000000  -0.003839   0.000807   0.002686  -0.000283  -0.000076
    12  H    0.000000   0.000154  -0.000009  -0.000058   0.000007  -0.000057
    13  H   -0.000001   0.013053  -0.000826   0.000013   0.000008   0.000007
    14  H   -0.000262  -0.000019   0.000016   0.017863  -0.000106   0.000766
    15  O   -0.000117  -0.000007   0.000001   0.000116  -0.000008  -0.072320
    16  O    0.000000  -0.000089   0.000137  -0.000003   0.000015   0.000000
    17  H   -0.000000  -0.000011   0.000000  -0.000049   0.000001   0.000000
    18  O    0.214510   0.000791  -0.000226  -0.000053  -0.000035   0.000000
    19  H    0.326080   0.000354  -0.000053  -0.000002   0.000002  -0.000000
    20  O    0.000354   8.298293   0.228786   0.001593   0.000003  -0.000000
    21  H   -0.000053   0.228786   0.378962  -0.000027  -0.000042   0.000000
    22  O   -0.000002   0.001593  -0.000027   8.300223   0.229308   0.000003
    23  H    0.000002   0.000003  -0.000042   0.229308   0.392077  -0.000000
    24  O   -0.000000  -0.000000   0.000000   0.000003  -0.000000   8.435518
    25  H    0.000001  -0.000000  -0.000000  -0.000112   0.000011   0.176602
    26  H   -0.000000   0.000000  -0.000000  -0.000000   0.000000   0.232708
    27  H    0.000015   0.000001  -0.000000   0.000007   0.000000   0.105135
    28  O    0.064754  -0.017623   0.000720   0.000000   0.000000   0.000000
    29  H   -0.007176   0.054237  -0.002683  -0.000007  -0.000002  -0.000000
    30  H   -0.003463   0.000634  -0.000024  -0.000000   0.000000  -0.000000
              25         26         27         28         29         30
     1  O    0.077081   0.003430   0.004863   0.000000  -0.000004  -0.000000
     2  C    0.002119   0.000008   0.000050  -0.000001   0.000526  -0.000005
     3  C    0.000852  -0.000029   0.005154   0.006852  -0.001356   0.000469
     4  C   -0.000012  -0.000001  -0.000203   0.000331  -0.004263  -0.000288
     5  C   -0.009040  -0.000426  -0.029903   0.000214   0.000072   0.000012
     6  C   -0.003209  -0.000020  -0.000244  -0.000001  -0.000012   0.000000
     7  H   -0.000001   0.000000   0.000004   0.000437  -0.000830  -0.000012
     8  H   -0.002737  -0.000086  -0.000040  -0.000000   0.000000  -0.000000
     9  H   -0.000040  -0.000000  -0.000000   0.000001  -0.000034  -0.000000
    10  H    0.000093   0.000003  -0.000280   0.003294   0.000439   0.000580
    11  C   -0.000467  -0.000003   0.000004  -0.000000   0.000003   0.000000
    12  H    0.001010   0.000022  -0.000000   0.000000  -0.000000  -0.000000
    13  H   -0.000073  -0.000001  -0.000000   0.000001   0.000009  -0.000001
    14  H    0.000541  -0.000020  -0.003954   0.000000  -0.000002   0.000000
    15  O    0.011346   0.004492   0.188144  -0.000000  -0.000002  -0.000000
    16  O    0.000006  -0.000000  -0.000000  -0.000000   0.000000  -0.000000
    17  H   -0.000002  -0.000000  -0.000000  -0.000000   0.000000  -0.000000
    18  O   -0.000017  -0.000000  -0.000108  -0.022984   0.003422   0.001127
    19  H    0.000001  -0.000000   0.000015   0.064754  -0.007176  -0.003463
    20  O   -0.000000   0.000000   0.000001  -0.017623   0.054237   0.000634
    21  H   -0.000000  -0.000000  -0.000000   0.000720  -0.002683  -0.000024
    22  O   -0.000112  -0.000000   0.000007   0.000000  -0.000007  -0.000000
    23  H    0.000011   0.000000   0.000000   0.000000  -0.000002   0.000000
    24  O    0.176602   0.232708   0.105135   0.000000  -0.000000  -0.000000
    25  H    0.329434  -0.007906  -0.016383   0.000000   0.000000   0.000000
    26  H   -0.007906   0.380997  -0.006032  -0.000000  -0.000000   0.000000
    27  H   -0.016383  -0.006032   0.308287   0.000000   0.000000   0.000000
    28  O    0.000000  -0.000000   0.000000   8.315761   0.213352   0.242114
    29  H    0.000000  -0.000000   0.000000   0.213352   0.334150  -0.015901
    30  H    0.000000   0.000000   0.000000   0.242114  -0.015901   0.375852
 Mulliken charges:
               1
     1  O   -0.631651
     2  C    0.075069
     3  C    0.117828
     4  C    0.085407
     5  C    0.304571
     6  C    0.157822
     7  H    0.132860
     8  H    0.126086
     9  H    0.127680
    10  H    0.143506
    11  C   -0.067784
    12  H    0.132925
    13  H    0.167839
    14  H    0.177711
    15  O   -0.600372
    16  O   -0.615947
    17  H    0.393711
    18  O   -0.663995
    19  H    0.428186
    20  O   -0.644687
    21  H    0.409239
    22  O   -0.628652
    23  H    0.396304
    24  O   -0.820652
    25  H    0.440903
    26  H    0.392864
    27  H    0.445483
    28  O   -0.807222
    29  H    0.426062
    30  H    0.398906
 Sum of Mulliken charges =  -0.00000
 Mulliken charges with hydrogens summed into heavy atoms:
               1
     1  O   -0.631651
     2  C    0.202748
     3  C    0.261334
     4  C    0.218268
     5  C    0.482282
     6  C    0.283908
    11  C    0.232981
    15  O   -0.154889
    16  O   -0.222236
    18  O   -0.235809
    20  O   -0.235448
    22  O   -0.232348
    24  O    0.013116
    28  O    0.017745
 Electronic spatial extent (au):  <R**2>=           3212.8825
 Charge=              0.0000 electrons
 Dipole moment (field-independent basis, Debye):
    X=              1.5550    Y=             -3.4770    Z=             -1.0158  Tot=              3.9420
 Quadrupole moment (field-independent basis, Debye-Ang):
   XX=            -83.9188   YY=            -87.5401   ZZ=            -75.7378
   XY=              3.9487   XZ=              0.9558   YZ=             -8.8949
 Traceless Quadrupole moment (field-independent basis, Debye-Ang):
   XX=             -1.5199   YY=             -5.1412   ZZ=              6.6611
   XY=              3.9487   XZ=              0.9558   YZ=             -8.8949
 Octapole moment (field-independent basis, Debye-Ang**2):
  XXX=             52.2182  YYY=             -3.8323  ZZZ=             -4.7437  XYY=             -0.8214
  XXY=            -11.8010  XXZ=            -37.9315  XZZ=            -19.6283  YZZ=              3.4671
  YYZ=             -1.9762  XYZ=            -13.0697
 Hexadecapole moment (field-independent basis, Debye-Ang**3):
 XXXX=          -1799.1140 YYYY=          -1445.3801 ZZZZ=           -417.6886 XXXY=           -115.3906
 XXXZ=             74.6157 YYYX=            100.9143 YYYZ=            -81.3781 ZZZX=              9.8284
 ZZZY=            -34.0870 XXYY=           -546.0952 XXZZ=           -312.0806 YYZZ=           -291.2652
 XXYZ=            -55.7415 YYXZ=            -18.8703 ZZXY=             46.7869
 N-N= 1.104302499874D+03 E-N=-4.181292868491D+03  KE= 8.328623614197D+02
 Calling FoFJK, ICntrl=      2127 FMM=F ISym2X=0 I1Cent= 0 IOpClX= 0 NMat=1 NMatS=1 NMatT=0.
 ***** Axes restored to original set *****
 -------------------------------------------------------------------
 Center     Atomic                   Forces (Hartrees/Bohr)
 Number     Number              X              Y              Z
 -------------------------------------------------------------------
      1        8          -0.022391309    0.002771774    0.006692526
      2        6          -0.001179162   -0.002424735    0.001627998
      3        6           0.001199975   -0.000971047    0.000623780
      4        6          -0.000938776   -0.001034394    0.000259689
      5        6           0.020026982   -0.018516468   -0.007821434
      6        6          -0.006169469    0.000477409    0.001639006
      7        1          -0.000096898   -0.000033719    0.000008586
      8        1          -0.000464474    0.000615663   -0.000146291
      9        1          -0.000077830   -0.000185949    0.000188764
     10        1          -0.000090771   -0.000112573    0.000052552
     11        6          -0.001441506    0.001364898   -0.000049197
     12        1          -0.000075358    0.000174729    0.000097990
     13        1          -0.000016762   -0.000036104   -0.000108011
     14        1           0.000253794   -0.000378092   -0.000201393
     15        8          -0.013232213   -0.005928126   -0.002446763
     16        8          -0.000124813    0.001611415    0.000289670
     17        1          -0.000019812    0.000112937    0.000039938
     18        8           0.002113788    0.001458534    0.000077392
     19        1           0.000177871    0.000074517   -0.000077736
     20        8          -0.000229748   -0.000066996   -0.000041876
     21        1           0.000032810   -0.000033670   -0.000092255
     22        8          -0.000572115   -0.000039648    0.000243473
     23        1           0.000087643   -0.000039468    0.000122260
     24        8           0.022875361    0.015339475   -0.001597378
     25        1           0.001574421    0.002390600   -0.000455767
     26        1           0.000921429    0.001034327   -0.000232183
     27        1          -0.002288343    0.002263323    0.001233491
     28        8           0.000189769    0.000221363    0.000084992
     29        1          -0.000016423   -0.000034788    0.000006212
     30        1          -0.000028061   -0.000075190   -0.000018034
 -------------------------------------------------------------------
 Cartesian Forces:  Max     0.022875361 RMS     0.005195264

 GradGradGradGradGradGradGradGradGradGradGradGradGradGradGradGradGradGrad
 Berny optimization.
 FormGI is forming the generalized inverse of G from B-inverse, IUseBI=4.
 Internal  Forces:  Max     0.032841012 RMS     0.005605816
 Search for a local minimum.
 Step number   1 out of a maximum of  180
 All quantities printed in internal units (Hartrees-Bohrs-Radians)
 Mixed Optimization -- RFO/linear search
 Second derivative matrix not updated -- first step.
 ITU=  0
     Eigenvalues ---    0.00230   0.00453   0.00522   0.00563   0.00574
     Eigenvalues ---    0.00696   0.00711   0.00789   0.01293   0.01349
     Eigenvalues ---    0.01389   0.01547   0.02248   0.02345   0.03395
     Eigenvalues ---    0.03556   0.03965   0.04427   0.04502   0.04625
     Eigenvalues ---    0.04684   0.04865   0.05406   0.05728   0.05806
     Eigenvalues ---    0.05842   0.06064   0.06756   0.07087   0.07435
     Eigenvalues ---    0.07453   0.08324   0.09090   0.09387   0.09920
     Eigenvalues ---    0.11039   0.11359   0.11635   0.11919   0.12911
     Eigenvalues ---    0.13757   0.13994   0.14444   0.15733   0.16000
     Eigenvalues ---    0.16000   0.16167   0.16695   0.17268   0.18677
     Eigenvalues ---    0.18950   0.20493   0.20607   0.21316   0.21968
     Eigenvalues ---    0.22075   0.23042   0.25548   0.27782   0.28203
     Eigenvalues ---    0.29083   0.30439   0.33214   0.33446   0.33547
     Eigenvalues ---    0.33723   0.33838   0.34604   0.34606   0.37990
     Eigenvalues ---    0.40969   0.41579   0.41846   0.42659   0.44332
     Eigenvalues ---    0.45575   0.49290   0.50146   0.53057   0.53200
     Eigenvalues ---    0.53328   0.53528   0.53575   0.59302
 RFO step:  Lambda=-3.69523105D-02 EMin= 2.30000000D-03
 Linear search not attempted -- first point.
 Maximum step size (   0.300) exceeded in Quadratic search.
    -- Step size scaled by   0.946
 Iteration  1 RMS(Cart)=  0.13419063 RMS(Int)=  0.00481621
 Iteration  2 RMS(Cart)=  0.00891286 RMS(Int)=  0.00238819
 Iteration  3 RMS(Cart)=  0.00004637 RMS(Int)=  0.00238807
 Iteration  4 RMS(Cart)=  0.00000043 RMS(Int)=  0.00238807
 Variable       Old X    -DE/DX   Delta X   Delta X   Delta X     New X
                                 (Linear)    (Quad)   (Total)
    R1        2.67898   0.00958   0.00000   0.01905   0.02048   2.69946
    R2        2.80628   0.01933   0.00000   0.11399   0.11424   2.92052
    R3        2.92101  -0.01141   0.00000  -0.03529  -0.03639   2.88462
    R4        2.88942  -0.00385   0.00000  -0.01084  -0.01090   2.87853
    R5        2.08275   0.00019   0.00000   0.00048   0.00048   2.08323
    R6        2.70257   0.00022   0.00000   0.00047   0.00047   2.70304
    R7        2.94758  -0.01220   0.00000  -0.03757  -0.03877   2.90881
    R8        2.86411  -0.00209   0.00000  -0.00338  -0.00330   2.86081
    R9        2.07604  -0.00004   0.00000  -0.00010  -0.00010   2.07594
   R10        2.66714  -0.00104   0.00000  -0.00422  -0.00405   2.66308
   R11        2.08102   0.00007   0.00000   0.00018   0.00018   2.08119
   R12        2.72802   0.00014   0.00000  -0.00205  -0.00193   2.72609
   R13        2.06319  -0.00012   0.00000  -0.00030  -0.00030   2.06289
   R14        2.50510   0.00564   0.00000   0.00866   0.00744   2.51254
   R15        2.08678  -0.00037   0.00000  -0.00096  -0.00096   2.08582
   R16        2.91697  -0.00262   0.00000  -0.00776  -0.00776   2.90920
   R17        2.07800  -0.00003   0.00000  -0.00008  -0.00008   2.07792
   R18        2.06323   0.00008   0.00000   0.00019   0.00019   2.06342
   R19        2.69463  -0.00148   0.00000  -0.00310  -0.00310   2.69153
   R20        1.91703   0.00732   0.00000   0.01530   0.01555   1.93258
   R21        1.83349   0.00002   0.00000   0.00003   0.00003   1.83352
   R22        1.85944   0.00007   0.00000   0.00090   0.00087   1.86031
   R23        3.53570   0.00011   0.00000   0.01008   0.00998   3.54568
   R24        1.83601   0.00001   0.00000   0.00002   0.00002   1.83602
   R25        3.57104  -0.00026   0.00000   0.00113   0.00103   3.57207
   R26        1.83467   0.00003   0.00000   0.00004   0.00004   1.83472
   R27        1.90630   0.00901   0.00000   0.01549   0.01644   1.92274
   R28        1.83121   0.00073   0.00000   0.00121   0.00121   1.83241
   R29        2.86195   0.00305   0.00000   0.02018   0.02123   2.88317
   R30        1.85416  -0.00017   0.00000   0.00101   0.00086   1.85501
   R31        1.83164  -0.00001   0.00000  -0.00001  -0.00001   1.83163
    A1        2.11816  -0.01889   0.00000  -0.07659  -0.08095   2.03720
    A2        1.98789  -0.01333   0.00000  -0.06523  -0.06233   1.92556
    A3        1.89362   0.00018   0.00000   0.00309   0.00251   1.89613
    A4        1.92081   0.00766   0.00000   0.02224   0.02124   1.94204
    A5        1.88604   0.00774   0.00000   0.04473   0.04645   1.93248
    A6        1.85850   0.00028   0.00000  -0.00523  -0.00902   1.84948
    A7        1.91605  -0.00240   0.00000   0.00202   0.00224   1.91828
    A8        1.93935  -0.00249   0.00000  -0.01621  -0.01546   1.92389
    A9        1.87323   0.00283   0.00000   0.01687   0.01551   1.88874
   A10        1.93755  -0.00163   0.00000  -0.00527  -0.00470   1.93285
   A11        1.83521  -0.00161   0.00000  -0.01048  -0.01263   1.82258
   A12        1.92731   0.00262   0.00000   0.01451   0.01611   1.94342
   A13        1.94825   0.00027   0.00000   0.00017   0.00061   1.94886
   A14        2.05196  -0.01279   0.00000  -0.07329  -0.07346   1.97850
   A15        1.86702   0.00058   0.00000   0.00760   0.00661   1.87362
   A16        1.93900   0.00841   0.00000   0.03821   0.03910   1.97810
   A17        1.84291   0.00648   0.00000   0.04238   0.04466   1.88756
   A18        1.85367  -0.00012   0.00000  -0.00953  -0.01129   1.84237
   A19        1.90370  -0.00234   0.00000  -0.00199  -0.00251   1.90119
   A20        2.02449   0.00205   0.00000  -0.02078  -0.02106   2.00343
   A21        2.02180  -0.01704   0.00000  -0.07401  -0.08320   1.93860
   A22        2.03262   0.00608   0.00000  -0.00880  -0.01283   2.01979
   A23        1.92499   0.00926   0.00000   0.04204   0.03930   1.96429
   A24        1.93725  -0.00483   0.00000  -0.02790  -0.02811   1.90914
   A25        1.88325  -0.00111   0.00000  -0.00614  -0.00495   1.87830
   A26        1.85735   0.00147   0.00000   0.00857   0.00644   1.86380
   A27        1.96125  -0.00738   0.00000  -0.01906  -0.01496   1.94629
   A28        1.90031   0.00240   0.00000   0.00135   0.00099   1.90130
   A29        1.89802   0.00013   0.00000  -0.00086  -0.00087   1.89715
   A30        1.90289   0.00057   0.00000   0.00305   0.00305   1.90595
   A31        1.97365  -0.00166   0.00000  -0.00639  -0.00640   1.96726
   A32        1.88400  -0.00014   0.00000   0.00049   0.00049   1.88449
   A33        1.94874   0.00054   0.00000   0.00075   0.00074   1.94948
   A34        1.85376   0.00064   0.00000   0.00343   0.00344   1.85720
   A35        1.84097   0.00625   0.00000   0.02844   0.03619   1.87716
   A36        1.88314  -0.00020   0.00000  -0.00095  -0.00095   1.88219
   A37        1.84451   0.00099   0.00000  -0.01561  -0.01528   1.82923
   A38        2.72766  -0.00010   0.00000  -0.00455  -0.00451   2.72315
   A39        1.89256  -0.00009   0.00000   0.00270   0.00228   1.89484
   A40        1.83056  -0.00059   0.00000  -0.02335  -0.02299   1.80757
   A41        2.01831   0.00127   0.00000   0.00647   0.00652   2.02483
   A42        1.89146   0.00019   0.00000   0.00090   0.00090   1.89236
   A43        1.83705   0.00289   0.00000   0.01279   0.01599   1.85304
   A44        1.57038  -0.03284   0.00000  -0.18910  -0.18480   1.38557
   A45        1.86624   0.00374   0.00000   0.00402   0.00007   1.86632
   A46        2.65459   0.00073   0.00000  -0.01787  -0.01816   2.63644
   A47        2.57302  -0.00182   0.00000  -0.01693  -0.01749   2.55553
   A48        1.62950  -0.00111   0.00000   0.00339   0.00292   1.63242
   A49        1.89820   0.00011   0.00000  -0.00096  -0.00118   1.89702
   A50        1.82694  -0.00038   0.00000  -0.00127  -0.00150   1.82543
   A51        2.74496  -0.00142   0.00000  -0.00396  -0.00409   2.74086
    D1        2.32865   0.01075   0.00000   0.12500   0.11702   2.44567
    D2        0.27455   0.00611   0.00000   0.10529   0.10240   0.37696
    D3       -1.80628   0.00670   0.00000   0.12377   0.12009  -1.68619
    D4       -2.47680  -0.00471   0.00000  -0.13626  -0.13521  -2.61201
    D5       -0.78346   0.00632   0.00000   0.11681   0.12240  -0.66106
    D6       -2.85075   0.00557   0.00000   0.10245   0.10631  -2.74443
    D7        1.35647   0.00332   0.00000   0.07874   0.08215   1.43862
    D8       -2.88458   0.00499   0.00000   0.10000   0.10213  -2.78245
    D9        1.33132   0.00424   0.00000   0.08564   0.08604   1.41736
   D10       -0.74465   0.00199   0.00000   0.06193   0.06188  -0.68277
   D11        1.30188   0.00323   0.00000   0.08231   0.08474   1.38662
   D12       -0.76540   0.00247   0.00000   0.06795   0.06865  -0.69675
   D13       -2.84137   0.00023   0.00000   0.04425   0.04449  -2.79688
   D14        0.62955   0.00443   0.00000   0.05736   0.05915   0.68869
   D15        2.73230   0.00468   0.00000   0.05245   0.05152   2.78382
   D16       -1.47249   0.00436   0.00000   0.04875   0.04831  -1.42418
   D17        2.73492   0.00159   0.00000   0.05111   0.05346   2.78838
   D18       -1.44551   0.00184   0.00000   0.04621   0.04583  -1.39969
   D19        0.63288   0.00152   0.00000   0.04251   0.04262   0.67550
   D20       -1.49074   0.00286   0.00000   0.07342   0.07533  -1.41541
   D21        0.61201   0.00311   0.00000   0.06851   0.06770   0.67971
   D22        2.69040   0.00279   0.00000   0.06481   0.06450   2.75490
   D23        0.94515   0.00506   0.00000   0.03078   0.03031   0.97545
   D24        3.10763  -0.00646   0.00000  -0.03895  -0.03881   3.06882
   D25       -1.13795   0.00160   0.00000   0.01198   0.01232  -1.12564
   D26       -0.16751   0.00496   0.00000   0.04998   0.05484  -0.11268
   D27        1.91257   0.00278   0.00000   0.04689   0.05012   1.96269
   D28       -2.35043   0.00303   0.00000   0.05972   0.06265  -2.28778
   D29        1.83009   0.00336   0.00000   0.03865   0.04043   1.87052
   D30       -2.37301   0.00117   0.00000   0.03555   0.03572  -2.33729
   D31       -0.35282   0.00142   0.00000   0.04839   0.04825  -0.30458
   D32       -2.31965   0.00454   0.00000   0.04663   0.04843  -2.27121
   D33       -0.23956   0.00235   0.00000   0.04353   0.04372  -0.19584
   D34        1.78062   0.00260   0.00000   0.05637   0.05625   1.83687
   D35       -0.89338  -0.00076   0.00000  -0.00477  -0.00471  -0.89809
   D36        2.91314   0.00945   0.00000   0.14446   0.13921   3.05234
   D37       -2.91459  -0.00198   0.00000  -0.01086  -0.00857  -2.92317
   D38        0.89192   0.00823   0.00000   0.13836   0.13534   1.02727
   D39        1.26461  -0.00274   0.00000  -0.01262  -0.01031   1.25430
   D40       -1.21206   0.00747   0.00000   0.13661   0.13360  -1.07846
   D41       -1.27107  -0.00043   0.00000  -0.00809  -0.00711  -1.27817
   D42        2.85309   0.00205   0.00000   0.00610   0.00465   2.85775
   D43        0.81816   0.00224   0.00000   0.00984   0.00977   0.82793
   D44        0.93646   0.00540   0.00000   0.04227   0.04276   0.97922
   D45        3.10233   0.00651   0.00000   0.03782   0.03846   3.14079
   D46       -3.09601  -0.00519   0.00000  -0.03175  -0.03261  -3.12862
   D47       -0.93015  -0.00407   0.00000  -0.03619  -0.03690  -0.96705
   D48       -1.11735   0.00115   0.00000   0.01154   0.01216  -1.10519
   D49        1.04851   0.00226   0.00000   0.00709   0.00787   1.05638
   D50       -2.82538  -0.01565   0.00000  -0.21472  -0.20604  -3.03142
   D51        0.98429  -0.00378   0.00000  -0.05999  -0.05712   0.92717
   D52        0.97845  -0.00369   0.00000  -0.02565  -0.02547   0.95298
   D53       -1.07173  -0.00391   0.00000  -0.02747  -0.02728  -1.09901
   D54       -3.12956  -0.00407   0.00000  -0.02985  -0.02965   3.12397
   D55        3.10442   0.00248   0.00000   0.01076   0.01085   3.11527
   D56        1.05424   0.00225   0.00000   0.00894   0.00904   1.06328
   D57       -1.00359   0.00210   0.00000   0.00656   0.00666  -0.99693
   D58       -1.12570   0.00140   0.00000   0.01077   0.01048  -1.11522
   D59        3.10731   0.00117   0.00000   0.00895   0.00867   3.11598
   D60        1.04948   0.00102   0.00000   0.00657   0.00629   1.05577
   D61       -1.17954   0.00031   0.00000   0.00324   0.00323  -1.17631
   D62        0.96779  -0.00035   0.00000  -0.00213  -0.00213   0.96566
   D63        3.01733   0.00015   0.00000   0.00092   0.00093   3.01826
   D64        0.79722   0.00104   0.00000  -0.07166  -0.07808   0.71914
   D65        0.21827  -0.00030   0.00000  -0.00925  -0.01027   0.20800
   D66        0.21330  -0.00115   0.00000  -0.00491  -0.00556   0.20774
   D67       -1.64961  -0.00035   0.00000  -0.00466  -0.00485  -1.65446
   D68        0.19223   0.00062   0.00000   0.01431   0.01498   0.20720
   D69        2.27572   0.00083   0.00000   0.00504   0.00548   2.28120
   D70       -1.96269   0.00236   0.00000  -0.00874  -0.01221  -1.97490
   D71       -0.08544  -0.00289   0.00000  -0.05752  -0.06167  -0.14711
   D72       -0.17863   0.00632   0.00000   0.02843   0.01669  -0.16194
   D73        1.67066  -0.00072   0.00000  -0.01764  -0.02031   1.65035
   D74        0.04763   0.00027   0.00000   0.00616   0.00675   0.05438
   D75        1.97429  -0.00001   0.00000   0.00597   0.00615   1.98044
         Item               Value     Threshold  Converged?
 Maximum Force            0.032841     0.000450     NO 
 RMS     Force            0.005606     0.000300     NO 
 Maximum Displacement     0.416530     0.001800     NO 
 RMS     Displacement     0.137933     0.001200     NO 
 Predicted change in Energy=-2.538864D-02
 GradGradGradGradGradGradGradGradGradGradGradGradGradGradGradGradGradGrad

                          Input orientation:                          
 ---------------------------------------------------------------------
 Center     Atomic      Atomic             Coordinates (Angstroms)
 Number     Number       Type             X           Y           Z
 ---------------------------------------------------------------------
      1          8           0        1.018819    0.815544   -0.361229
      2          6           0        0.491166   -1.093298    1.090455
      3          6           0       -1.172860    0.479329   -0.058740
      4          6           0       -0.933172   -0.902489    0.575688
      5          6           0        0.041611    1.362122    0.135061
      6          6           0        1.488000   -0.435000    0.145333
      7          1           0       -1.610634   -1.006351    1.437757
      8          1           0        2.414687   -0.272069    0.722402
      9          1           0        0.692170   -2.173617    1.178692
     10          1           0       -1.245956    0.349489   -1.147129
     11          6           0        1.803006   -1.337822   -1.061189
     12          1           0        2.502847   -0.808822   -1.724113
     13          1           0        0.883834   -1.523267   -1.620660
     14          1           0        0.400343    1.427594    1.163987
     15          8           0       -0.103405    2.520967   -0.500409
     16          8           0        2.304587   -2.614274   -0.676865
     17          1           0        3.178372   -2.482035   -0.276356
     18          8           0       -2.332534    1.078212    0.472733
     19          1           0       -3.080011    0.578042    0.072457
     20          8           0       -1.309445   -1.862177   -0.433507
     21          1           0       -1.185574   -2.755581   -0.072320
     22          8           0        0.673752   -0.458638    2.359266
     23          1           0        0.008158   -0.806129    2.974784
     24          8           0        2.304299    2.939738   -0.467101
     25          1           0        2.059292    1.952275   -0.478481
     26          1           0        2.574464    3.161403   -1.371611
     27          1           0        0.781725    3.027498   -0.424014
     28          8           0       -3.893466   -0.822228   -0.875178
     29          1           0       -3.086149   -1.380516   -0.862923
     30          1           0       -3.991235   -0.554661   -1.801627
 ---------------------------------------------------------------------
                    Distance matrix (angstroms):
                    1          2          3          4          5
     1  O    0.000000
     2  C    2.455500   0.000000
     3  C    2.237855   2.561794   0.000000
     4  C    2.764004   1.526477   1.539276   0.000000
     5  C    1.224739   2.672819   1.513876   2.504559   0.000000
     6  C    1.428495   1.523250   2.820961   2.503163   2.306901
     7  H    3.670106   2.132074   2.153694   1.101320   3.168058
     8  H    2.074995   2.123632   3.747702   3.409855   2.940585
     9  H    3.378334   1.102397   3.470980   2.149678   3.743507
    10  H    2.442141   3.178995   1.098541   2.152529   2.080207
    11  C    2.396222   2.531854   3.628046   3.218004   3.438491
    12  H    2.588119   3.471251   4.235991   4.135708   3.771897
    13  H    2.659780   2.772942   3.268024   2.917331   3.481001
    14  H    1.755961   2.523599   2.206634   2.748390   1.091634
    15  O    2.046271   3.993404   2.346719   3.683280   1.329577
    16  O    3.676476   2.953859   4.695221   3.870682   4.646720
    17  H    3.942702   3.319313   5.267851   4.486172   4.978562
    18  O    3.463532   3.615289   1.409244   2.427342   2.414786
    19  H    4.128547   4.072223   1.914205   2.655961   3.219196
    20  O    3.549116   2.481095   2.375238   1.442587   3.541853
    21  H    4.206632   2.631860   3.234964   1.979285   4.301681
    22  O    3.023856   1.430389   3.183789   2.441385   2.943104
    23  H    3.844508   1.966331   3.499925   2.578963   3.573018
    24  O    2.485129   4.688157   4.279136   5.131407   2.823337
    25  H    1.545474   3.767770   3.576668   4.267996   2.189920
    26  H    2.990645   5.338950   4.791617   5.710579   3.452944
    27  H    2.225510   4.399886   3.232180   4.402848   1.906256
    28  O    5.203555   4.812711   3.124471   3.297695   4.612677
    29  H    4.682429   4.085996   2.786828   2.633139   4.277957
    30  H    5.390069   5.361547   3.471315   3.889005   4.867100
                    6          7          8          9         10
     6  C    0.000000
     7  H    3.405633   0.000000
     8  H    1.103768   4.153807   0.000000
     9  H    2.173469   2.594712   2.605984   0.000000
    10  H    3.124164   2.941586   4.157137   3.941046   0.000000
    11  C    1.539484   4.243529   2.165913   2.636205   3.485768
    12  H    2.159742   5.192029   2.506254   3.683408   3.965870
    13  H    2.160572   3.980388   3.065770   2.880289   2.875319
    14  H    2.385353   3.169080   2.672346   3.613046   3.035435
    15  O    3.418669   4.297697   3.954378   5.048905   2.537516
    16  O    2.468209   4.731384   2.730566   2.497430   4.648806
    17  H    2.688035   5.296263   2.542574   2.897151   5.324515
    18  O    4.122315   2.407865   4.941832   4.496844   2.082220
    19  H    4.679561   2.556055   5.597930   4.798409   2.214358
    20  O    3.193366   2.079612   4.211143   2.588946   2.324813
    21  H    3.546895   2.349641   4.445367   2.330157   3.286384
    22  O    2.359038   2.523408   2.396870   2.082125   4.078376
    23  H    3.214570   2.241211   3.339135   2.358780   4.460764
    24  O    3.525660   5.875951   3.426778   5.608387   4.447037
    25  H    2.532706   5.088594   2.552671   4.651691   3.733722
    26  H    4.051622   6.540472   4.024817   6.205604   4.748986
    27  H    3.579368   5.045940   3.855902   5.443187   3.436003
    28  O    5.491044   3.254980   6.530523   5.203142   2.907952
    29  H    4.778433   2.758673   5.831047   4.367252   2.541653
    30  H    5.816097   4.045355   6.891038   5.782525   2.963513
                   11         12         13         14         15
    11  C    0.000000
    12  H    1.099586   0.000000
    13  H    1.091913   1.772664   0.000000
    14  H    3.816595   4.214641   4.086025   0.000000
    15  O    4.340407   4.401988   4.311083   2.054128   0.000000
    16  O    1.424295   2.096591   2.024743   4.832347   5.674528
    17  H    1.953668   2.313434   2.826887   5.007717   5.987511
    18  O    5.029197   5.636306   4.636272   2.840514   2.827997
    19  H    5.366520   6.026554   4.795228   3.745136   3.600461
    20  O    3.218117   4.160383   2.516876   4.037073   4.546533
    21  H    3.452464   4.485838   2.863286   4.641394   5.403361
    22  O    3.707787   4.488006   4.125213   2.249737   4.202352
    23  H    4.448961   5.320067   4.732780   2.902122   4.812378
    24  O    4.347616   3.958687   4.823571   2.927811   2.444077
    25  H    3.351115   3.061372   3.842612   2.392718   2.236325
    26  H    4.575428   3.986486   4.986621   3.763264   2.887929
    27  H    4.528248   4.401121   4.706575   2.286240   1.022675
    28  O    5.722781   6.452417   4.885673   5.258962   5.067738
    29  H    4.893359   5.683781   4.044170   4.914211   4.924404
    30  H    5.893624   6.499516   4.973655   5.657752   5.125220
                   16         17         18         19         20
    16  O    0.000000
    17  H    0.970254   0.000000
    18  O    6.038122   6.603528   0.000000
    19  H    6.304463   6.975177   0.984435   0.000000
    20  O    3.699472   4.533146   3.242510   3.057053   0.000000
    21  H    3.544949   4.377268   4.038634   3.837042   0.971582
    22  O    4.065031   4.160980   3.867644   4.516076   3.701699
    23  H    4.677340   4.840333   3.910222   4.458275   3.803651
    24  O    5.557972   5.495090   5.084171   5.904196   6.009880
    25  H    4.577433   4.577805   4.577874   5.348316   5.089249
    26  H    5.823569   5.780371   5.640916   6.382177   6.418812
    27  H    5.849156   6.010048   3.781862   4.599927   5.318082
    28  O    6.454968   7.288651   2.804468   1.876293   2.820236
    29  H    5.533246   6.387615   2.897802   2.170466   1.890258
    30  H    6.718963   7.579213   3.254271   2.371821   3.282278
                   21         22         23         24         25
    21  H    0.000000
    22  O    3.826963   0.000000
    23  H    3.809226   0.970890   0.000000
    24  O    6.691168   4.711263   5.581250   0.000000
    25  H    5.732192   3.973038   4.872471   1.017468   0.000000
    26  H    7.129989   5.535057   6.420155   0.969671   1.589049
    27  H    6.118656   4.462225   5.181402   1.525710   1.670703
    28  O    3.422735   5.608324   5.481344   7.261625   6.579556
    29  H    2.475488   5.036786   4.963129   6.919408   6.142545
    30  H    3.963115   6.251748   6.234780   7.322945   6.681640
                   26         27         28         29         30
    26  H    0.000000
    27  H    2.032187   0.000000
    28  O    7.612482   6.073001   0.000000
    29  H    7.275324   5.880789   0.981630   0.000000
    30  H    7.556617   6.124608   0.969257   1.543497   0.000000
[...]
 7446,-0.00132692,0.00037366,-0.00084309,-0.00008267,-0.00014617,0.0001
 9031,0.00002168,-0.00113556,0.00004578,0.00004728,0.00013367,0.0000638
 9,0.00019896,-0.00042739,-0.00017027,-0.00015446,0.00015893,0.00008076
 ,0.00005005,-0.00014562,0.00005037,0.00044181,-0.00002690,-0.00004461,
 -0.00007788,0.09490284,0.53224430,0.00250530,0.00286067,0.00263082,0.0
 0009658,-0.00022355,-0.00013172,-0.00008541,-0.00007782,0.00021985,-0.
 00005539,-0.00010985,-0.00013908,-0.00136883,-0.00067953,-0.00094793,-
 0.00037575,-0.00083051,0.00040796,0.00001397,0.00001550,0.00002156,0.0
 0002562,-0.00025007,0.00003873,0.00000390,0.00005141,0.00001201,0.0001
 1972,0.00008687,0.00001672,0.00028931,0.00017360,-0.00041413,-0.000151
 06,-0.00000912,0.00008185,-0.00000155,0.00004827,0.00003661,-0.0002646
 1,-0.00025076,0.00052000,0.00183555,0.00074232,0.00467810,-0.00011754,
 0.00001160,0.00026999,0.00005552,-0.00004028,-0.00009965,0.00012911,0.
 00002422,0.00005562,-0.00007026,-0.00001894,-0.00006406,0.00006149,0.0
 0011508,0.00015078,-0.00001097,-0.00001782,-0.00002828,0.00003141,0.00
 019269,0.00013975,0.00000421,-0.00000844,0.00002108,-0.03622508,-0.089
 41484,0.52317932,-0.00380325,0.00481728,-0.00108511,-0.00059037,0.0012
 1110,0.00004861,-0.00064466,-0.00029470,0.00015397,-0.00031117,-0.0006
 1573,-0.00004886,-0.00703188,-0.00104759,0.00329817,0.00494939,-0.0034
 0050,0.00180914,0.00006823,0.00011058,-0.00006821,-0.00067695,0.000786
 26,-0.00085813,0.00035885,0.00034481,-0.00037564,0.00002108,-0.0000200
 2,-0.00004442,0.00061205,-0.00002157,-0.00120171,-0.00013384,-0.000059
 97,0.00034298,-0.00006810,-0.00012834,-0.00003301,0.00040296,-0.000074
 83,-0.00030545,0.00147626,-0.00116853,-0.00083117,-0.00067757,0.000689
 58,0.00047879,0.00023466,0.00000885,-0.00016625,0.00100332,0.00016749,
 -0.00016585,-0.00022156,-0.00015842,-0.00015690,0.00019822,0.00040005,
 0.00020348,-0.00006572,-0.00003641,-0.00006922,-0.00013943,0.00015517,
 -0.00043718,0.00006339,-0.00003093,0.00014616,-0.02246307,-0.07047975,
 0.00440371,0.03204945,0.00601519,-0.00182916,-0.00244868,-0.00063317,0
 .00106063,0.00052291,0.00006009,-0.00138896,-0.00061305,-0.00075597,-0
 .00044829,-0.00019132,-0.00580439,0.01176547,0.00031241,0.00276883,-0.
 00529197,0.00163466,0.00017951,-0.00001559,0.00001150,-0.00053700,0.00
 033753,-0.00013665,0.00036401,0.00028394,-0.00033021,-0.00006787,-0.00
 001083,0.00003224,0.00014785,-0.00078416,-0.00034672,0.00017465,-0.000
 17308,-0.00025101,0.00004218,0.00008648,-0.00003469,0.00089026,-0.0006
 3990,-0.00050851,-0.00381639,-0.00512261,0.00231719,-0.00044763,0.0010
 0584,0.00010639,0.00020746,-0.00020675,-0.00004421,0.00143380,0.000023
 93,0.00006451,-0.00004463,-0.00008655,-0.00026254,0.00046146,0.0001310
 9,0.00017508,-0.00017119,-0.00009666,-0.00005988,0.00017981,-0.0001912
 9,-0.00051042,0.00003287,0.00005267,0.00007041,-0.07228734,-0.44365272
 ,0.01076951,0.06504988,0.45639703,-0.00363609,-0.00350997,-0.00349459,
 -0.00011410,0.00034193,-0.00001789,0.00007547,0.00006206,-0.00024041,0
 .00012858,0.00014514,0.00013953,0.00353597,-0.00061661,0.00114535,0.00
 076984,0.00226050,-0.00087647,-0.00004652,-0.00000811,-0.00003251,0.00
 001405,0.00037509,-0.00003479,-0.00001003,-0.00006123,-0.00000802,-0.0
 0011991,-0.00007121,-0.00004343,-0.00053535,-0.00029869,0.00069374,0.0
 0027484,-0.00002033,-0.00015200,0.00002017,-0.00007440,-0.00006365,0.0
 0017600,0.00013143,-0.00052096,0.00067600,0.00110534,-0.00177602,0.000
 18441,-0.00002270,-0.00039969,-0.00007661,0.00007288,0.00013010,-0.000
 25027,0.00004751,-0.00003040,0.00005979,0.00001183,0.00007706,-0.00010
 253,-0.00012291,-0.00016484,0.00002558,0.00002444,0.00003249,-0.000075
 63,-0.00017497,-0.00007281,-0.00001377,-0.00003047,-0.00004435,-0.0037
 3907,-0.05138472,-0.05554686,-0.00461658,0.00002624,0.06186669,-0.0009
 1376,0.00039144,-0.00030556,0.00001573,0.00004619,0.00004765,-0.000204
 70,0.00011227,-0.00004367,0.00008518,-0.00012924,-0.00000699,0.0010345
 3,-0.00164386,0.00099356,0.00023185,-0.00042282,0.00011202,0.00000191,
 0.00004684,-0.00003220,-0.00007868,0.00007592,-0.00007149,0.00001666,0
 .00004636,-0.00003781,-0.00005533,-0.00007109,-0.00002286,0.00016446,-
 0.00004384,-0.00015962,-0.00000798,-0.00000881,0.00005555,-0.00002600,
 -0.00003182,0.00000428,-0.00003389,0.00024688,-0.00026888,-0.00051704,
 0.00129902,-0.00282151,-0.00015161,0.00014649,0.00008182,0.00006201,-0
 .00000320,-0.00005306,0.00014033,0.00011892,-0.00009231,-0.00007681,-0
 .00007090,-0.00000520,-0.00000882,0.00013899,0.00002962,0.00000477,-0.
 00000062,-0.00001122,-0.00008119,0.00008592,-0.00008862,0.00002998,-0.
 00001841,0.00004982,-0.00824788,-0.01399703,0.03059835,-0.00031972,-0.
 00169677,0.00767201,0.00938889,-0.00087004,-0.00093393,-0.00100483,-0.
 00006242,0.00002674,0.00009043,-0.00016651,0.00000245,0.00005786,-0.00
 003028,-0.00007495,-0.00000693,-0.00015410,-0.00037699,0.00042396,0.00
 012175,-0.00010800,0.00000236,0.00002432,0.00001776,-0.00002315,-0.000
 01159,0.00007875,-0.00000850,0.00001416,0.00002477,-0.00001497,-0.0000
 1784,-0.00001221,-0.00001850,-0.00011730,-0.00031816,0.00022920,0.0001
 1889,-0.00000531,-0.00009532,0.00000907,0.00000257,-0.00001658,0.00001
 935,0.00000548,-0.00005789,0.00129609,0.00014730,-0.00028339,-0.000033
 31,0.00026432,-0.00015134,0.00001283,-0.00005262,0.00004485,0.00023150
 ,-0.00002414,-0.00005452,-0.00006798,-0.00001330,-0.00002823,0.0001156
 3,0.00005105,0.00000113,-0.00004295,-0.00001631,0.00000050,0.00002082,
 0.00001617,-0.00012531,0.00001308,0.00000239,0.00002263,-0.01191095,-0
 .07486528,0.07591559,-0.00361827,-0.01124820,0.05322436,0.01667004,0.0
 8657595,-0.00041356,-0.00072923,0.00018001,0.00000426,-0.00003497,-0.0
 0002727,0.00012256,-0.00000278,0.00009541,-0.00002401,0.00004648,0.000
 03183,-0.00011202,0.00039873,-0.00049765,-0.00010870,0.00024062,-0.000
 09583,-0.00000725,-0.00001655,0.00000464,0.00003282,-0.00001409,-0.000
 00848,-0.00001423,-0.00002211,0.00001937,0.00000350,0.00000624,-0.0000
 0835,-0.00001607,0.00003168,0.00007456,0.00001351,0.00001546,0.0000209
 9,-0.00001486,-0.00001427,0.00000796,0.00000577,-0.00003221,0.00009024
 ,-0.00097491,-0.00075447,0.00051163,0.00003596,-0.00006312,-0.00004765
 ,-0.00001585,0.00001921,0.00001205,-0.00008048,-0.00003709,-0.00000711
 ,0.00002794,0.00001798,0.00002696,-0.00002082,-0.00005527,-0.00003649,
 0.00000591,0.00000228,0.00000630,0.00001054,-0.00001812,0.00002758,-0.
 00000613,0.00000396,-0.00001034,0.04226104,0.13682225,-0.46788278,-0.0
 0133331,-0.00876668,-0.00278332,-0.04118336,-0.12746684,0.47162931,-0.
 00467316,0.00173765,0.00072220,0.00047970,-0.00055003,-0.00002671,-0.0
 0032940,0.00171448,-0.00079684,0.00080822,-0.00002952,-0.00004596,0.01
 143214,-0.00225878,0.00123066,-0.00083549,0.00039293,0.00044234,-0.000
 04797,0.00018512,-0.00015434,-0.00011393,0.00029917,-0.00016289,-0.000
 12047,0.00005677,0.00000678,-0.00011421,-0.00006219,0.00006948,0.00021
 827,0.00017136,-0.00053119,-0.00015216,0.00000935,0.00017340,0.0000073
 8,-0.00005119,-0.00003774,-0.00057525,0.00225913,-0.00146559,-0.309729
 02,-0.19840876,-0.05312369,-0.00025782,0.00017197,0.00028573,0.0000968
 0,0.00001489,-0.00008620,0.00055875,0.00030074,-0.00009033,-0.00029778
 ,-0.00019269,-0.00012680,-0.00012125,0.00064758,0.00014955,0.00005016,
 0.00007294,0.00001543,-0.00044710,0.00066006,-0.00023688,0.00008826,-0
 .00009965,0.00018023,0.00604442,-0.00120267,-0.00146221,-0.00431921,0.
 00829808,-0.00027141,-0.00046981,-0.00155301,0.00180795,0.30272213,-0.
 00340797,0.00477749,-0.00099594,-0.00025519,0.00018954,0.00004554,0.00
 148101,-0.00447834,0.00447019,-0.00129662,-0.00026623,-0.00026512,-0.0
 3236465,-0.03652909,-0.00160166,0.00045971,-0.00138799,0.00149395,0.00
 011908,-0.00015571,0.00009135,-0.00026196,0.00039028,-0.00027458,0.000
 14957,0.00014932,-0.00012283,0.00043309,0.00013914,0.00005885,0.000146
 51,-0.00015194,-0.00063108,0.00000165,-0.00003351,0.00001600,-0.000008
 74,-0.00000571,0.00002176,0.00075656,0.00218164,-0.00031449,-0.1600443
 0,-0.15147805,-0.00963183,-0.00034807,0.00070621,0.00019854,0.00013397
 ,-0.00009896,-0.00004080,0.00051118,0.00058986,-0.00039304,-0.00027551
 ,-0.00002112,-0.00010765,0.00024239,-0.00008291,0.00011529,-0.00010847
 ,-0.00007811,-0.00008430,0.00002546,0.00025162,-0.00034572,0.00002171,
 0.00003078,0.00005514,0.00052226,-0.00771152,0.00088903,0.00731648,-0.
 00004521,-0.00140091,-0.00130560,0.00081220,0.00043782,0.18730880,0.19
 222517,-0.00120725,0.00003788,-0.00048417,-0.00000935,0.00027090,0.000
 48271,-0.00223499,0.00304994,-0.00190197,0.00072762,0.00026360,0.00075
 644,0.02236833,0.02012363,0.00140204,0.00032984,-0.00023613,0.00012514
 ,0.00003188,0.00006232,-0.00009763,-0.00014072,0.00011918,-0.00002710,
 0.00002255,-0.00001914,-0.00007903,0.00004525,0.00012426,0.00035035,-0
 .00009868,-0.00009564,0.00006623,0.00008061,-0.00000611,-0.00006131,-0
 .00000814,-0.00002009,-0.00000980,0.00108901,-0.00007967,0.00050679,-0
 .07662025,-0.03179161,-0.03842381,-0.00000281,0.00014280,-0.00009551,-
 0.00000474,-0.00001288,0.00004103,-0.00014075,-0.00034559,0.00008253,0
 .00002974,0.00008158,-0.00002482,0.00005513,0.00031601,-0.00016739,0.0
 0000099,0.00007777,0.00009581,0.00010571,-0.00051103,-0.00017558,0.000
 01841,0.00007587,-0.00001063,-0.00434975,0.00231029,-0.00722771,0.0009
 0208,-0.00153549,0.00221354,0.00555280,-0.00065704,-0.00133347,0.05350
 087,0.00829059,0.04401036,-0.00095246,-0.00013758,0.00022298,0.0006659
 1,-0.00021300,0.00020921,0.00129918,-0.00114202,0.00011310,0.00052965,
 0.00241159,0.00314475,0.00128018,0.00086005,-0.00109738,0.00047230,-0.
 00003217,-0.00001165,0.00002976,-0.00024033,-0.00048314,-0.00021896,-0
 .00004041,-0.00002459,-0.00000915,-0.00003622,-0.00006380,0.00011360,0
 .00036750,-0.00124836,0.00042612,-0.00026929,0.00005728,-0.00018084,-0
 .00001405,0.00002921,0.00011042,-0.00003241,-0.00029222,-0.00036284,-0
 .00025144,0.00006897,-0.00048878,-0.00108259,0.00041490,-0.00042971,0.
 00040496,0.00013850,0.00011512,-0.00012366,-0.00007216,-0.00288982,-0.
 00615642,-0.00422975,-0.00806634,0.00289350,0.00168055,-0.00895397,0.0
 0527094,-0.00299932,-0.00235594,-0.00109983,-0.00056615,-0.00087634,-0
 .00014616,-0.00101171,0.00015121,-0.00007973,0.00048042,-0.00051242,-0
 .00035146,0.00008627,0.00038115,0.00032047,-0.00010653,0.00009704,0.00
 011529,-0.00003778,0.00033170,0.00027909,-0.00001832,0.38700467,-0.001
 79319,0.00092398,0.00031982,-0.00007730,0.00069424,0.00019969,0.004965
 54,-0.00478669,-0.00195659,-0.00089239,-0.00371671,-0.00205544,0.00126
 991,0.00015202,-0.00043461,0.00033363,-0.00108871,0.00049722,-0.000029
 13,0.00011600,0.00013195,-0.00006321,0.00017290,-0.00008160,-0.0002989
 9,0.00028840,-0.00013747,0.00029807,0.00028320,-0.00031391,-0.00001194
 ,-0.00023311,-0.00029011,0.00009750,0.00001885,0.00000305,-0.00003721,
 -0.00002474,0.00015136,-0.00019750,-0.00016018,0.00009107,-0.00064910,
 0.00005588,0.00010281,-0.00009379,0.00037332,0.00006282,0.00004859,-0.
 00004760,-0.00000978,-0.01139343,-0.00204453,-0.00653640,0.00195959,-0
 .00258833,0.00809267,0.00810736,0.00240064,0.00273171,-0.00064486,0.00
 059936,-0.00017131,0.00026675,0.00052336,0.00037533,0.00005762,-0.0002
 0168,-0.00002089,-0.00046238,-0.00006619,0.00004626,0.00023269,0.00004
 265,-0.00003275,0.00011086,0.00002855,-0.00002638,0.00036964,0.0001656
 6,-0.00011858,-0.25220453,0.22392326,-0.00078876,-0.00002035,0.0003014
 0,0.00010779,0.00016886,0.00052396,0.00345280,-0.00169299,-0.00349528,
 0.00089580,-0.00001066,-0.00052037,0.00050906,0.00052847,0.00032867,0.
 00008485,-0.00009486,-0.00010199,0.00010752,-0.00017859,0.00080639,-0.
 00009709,0.00000655,0.00003509,-0.00009727,0.00004831,-0.00006341,-0.0
 0060988,0.00016822,0.00115087,0.00001246,-0.00013246,-0.00015465,-0.00
 004308,-0.00000021,0.00003396,0.00003579,0.00001819,-0.00006522,0.0001
 6452,0.00008303,0.00006217,-0.00031933,-0.00031258,0.00027649,-0.00010
 552,0.00014173,0.00014708,0.00005508,-0.00004243,-0.00003923,-0.007603
 20,-0.00627906,-0.00103636,-0.00014459,0.00397342,-0.00248980,-0.00327
 221,0.00075712,0.00292813,0.00053424,-0.00011603,-0.00003439,-0.000141
 12,0.00010756,-0.00001865,0.00014272,-0.00008597,0.00014127,-0.0001836
 0,-0.00010845,0.00006243,0.00012961,0.00011790,-0.00006107,0.00002231,
 0.00002259,-0.00002534,0.00014825,0.00007811,-0.00003008,0.03405831,-0
 .11961866,0.49395595,-0.00013487,0.00075856,-0.00002011,-0.00081440,0.
 00076576,0.00024309,0.00238491,-0.00273546,-0.00076550,-0.00323200,-0.
 00654675,-0.00761887,-0.00031924,-0.00073691,0.00024826,-0.00034116,-0
 .00071272,0.00030774,0.00006478,0.00054358,0.00132860,0.00017818,0.000
 16099,-0.00002693,-0.00022154,0.00022866,-0.00003653,-0.00027066,-0.00
 068216,0.00037291,-0.00044621,0.00016903,-0.00029271,0.00027214,0.0000
 2204,-0.00002543,-0.00021187,0.00001373,0.00050024,0.00010868,0.000075
 45,0.00003429,0.00013589,0.00102870,-0.00029182,0.00040484,-0.00021459
 ,-0.00011382,-0.00008935,0.00010309,0.00007005,-0.00458512,0.00022629,
 -0.00068025,0.00457881,0.00208384,0.00295350,0.00090889,0.00006813,0.0
 0247674,0.00281476,0.00185641,0.00124307,0.00128977,0.00052540,0.00150
 705,-0.00008836,-0.00000890,-0.00053067,0.00022384,0.00028585,-0.00005
 737,-0.00022652,-0.00028410,0.00008380,-0.00003377,-0.00008414,0.00002
 399,-0.00011297,-0.00012895,-0.00004827,-0.31697232,0.20486780,0.02564
 329,0.32142519,0.00079399,-0.00067228,-0.00009578,0.00026617,-0.000884
 74,-0.00069278,-0.00245966,0.00072189,-0.00142616,-0.00211391,0.004612
 94,0.00191226,-0.00092211,0.00008190,0.00085309,-0.00008122,0.00069783
 ,-0.00025991,0.00001179,-0.00003127,-0.00074974,0.00002393,-0.00010760
 ,0.00003750,0.00029241,-0.00017753,0.00013525,-0.00058390,-0.00068079,
 0.00103220,0.00004979,0.00011615,0.00022537,-0.00010706,-0.00001720,-0
 .00000180,0.00004941,0.00002219,-0.00018543,0.00031646,0.00023380,-0.0
 0001055,0.00031047,0.00001208,-0.00002866,0.00000421,-0.00019593,-0.00
 001435,-0.00001531,0.00001283,-0.00000524,0.00167904,0.00076217,0.0008
 6544,0.00168503,-0.00443674,-0.00285215,-0.00483620,-0.00778959,-0.001
 97200,0.00304590,-0.00086059,0.00052835,-0.00052555,-0.00033720,-0.000
 54673,-0.00003684,0.00009870,0.00008932,0.00022291,0.00000449,-0.00001
 334,-0.00010158,0.00001732,0.00000761,-0.00005660,-0.00001079,0.000008
 72,-0.00018712,-0.00006963,0.00005135,0.19302435,-0.14175093,-0.008251
 43,-0.20401541,0.15922055,0.00004434,0.00021845,-0.00012467,-0.0000602
 8,-0.00023135,-0.00068342,-0.00040969,-0.00107297,0.00129784,-0.004706
 24,-0.00108511,-0.00166648,-0.00027807,-0.00017080,-0.00009971,-0.0000
 1497,-0.00026421,0.00023886,-0.00033291,0.00003940,-0.00096078,0.00008
 910,0.00005673,-0.00006401,0.00004306,0.00005178,0.00004203,0.00013544
 ,0.00021453,-0.00029364,-0.00002724,0.00008630,0.00003539,0.00008780,0
 .00000457,-0.00003041,-0.00006279,-0.00001774,0.00017265,-0.00003099,-
 0.00004050,-0.00001188,0.00013873,0.00039886,-0.00017008,0.00010212,-0
 .00005947,-0.00013350,-0.00004643,0.00003527,0.00003712,-0.00068287,0.
 00085571,-0.00088987,0.00296470,-0.00161123,0.00100179,0.00539007,-0.0
 0034033,-0.00351470,-0.00111003,0.00071287,-0.00009137,0.00017853,0.00
 008298,0.00016784,-0.00012449,-0.00000048,-0.00019030,0.00007985,0.000
 08609,-0.00003937,-0.00007453,-0.00009462,0.00004548,-0.00000452,-0.00
 001658,0.00001551,-0.00005509,-0.00002534,-0.00001017,0.07434993,-0.04
 386799,-0.06310483,-0.03420082,0.01705326,0.06681464,0.00036072,-0.000
 09078,0.00000038,-0.00009806,-0.00002276,-0.00006674,0.00005923,0.0002
 1184,-0.00119337,0.00023087,0.00035685,0.00006305,-0.00040291,-0.00023
 281,0.00039686,-0.00014825,0.00016584,-0.00009620,0.00000600,-0.000060
 54,0.00014532,0.00005364,-0.00001348,0.00003060,0.00003943,-0.00003776
 ,0.00003338,-0.00049742,-0.00014690,0.00056823,-0.00013640,0.00008310,
 -0.00000571,0.00001599,0.00000024,-0.00000491,-0.00001188,0.00002527,0
 .00001470,0.00017318,0.00012861,0.00000733,0.00015688,0.00025033,-0.00
 003355,0.00012200,-0.00014700,-0.00000453,-0.00002999,0.00003289,0.000
 01551,0.00004477,-0.00044041,0.00071307,-0.00035622,-0.00004928,-0.001
 91215,-0.00166992,-0.00003733,0.00053228,0.00012030,0.00003144,0.00014
 548,0.00011736,-0.00003554,0.00016413,-0.00004023,0.00002439,-0.000092
 30,0.00019063,0.00010157,-0.00001399,-0.00012599,-0.00007996,0.0000178
 8,-0.00004634,-0.00004214,0.00000758,-0.00012092,-0.00010250,0.0000232
 0,-0.04973812,0.04586340,-0.05269871,-0.00669035,0.01426664,-0.0413817
 1,0.05842200,0.00019529,-0.00023372,-0.00000286,0.00000701,-0.00009366
 ,0.00008446,-0.00013736,0.00025523,-0.00045084,0.00013149,0.00038131,0
 .00003276,-0.00020917,0.00028367,0.00001807,-0.00006760,0.00017975,-0.
 00010058,-0.00005470,-0.00010800,0.00007259,0.00000776,-0.00003117,0.0
 0001283,0.00002132,-0.00003469,0.00001518,-0.00036321,0.00008838,0.000
 14233,0.00001130,0.00005549,0.00003799,-0.00001296,-0.00000448,0.00000
 241,0.00000265,0.00000999,-0.00000183,0.00006330,0.00002103,0.00000866
 ,0.00014025,-0.00014447,0.00010218,0.00001898,-0.00007711,-0.00001660,
 -0.00000898,0.00000921,0.00000224,-0.00069401,-0.00246360,0.00040121,0
 .00025922,0.00378345,-0.00225006,0.00064675,-0.00030339,-0.00060887,0.
 00003479,0.00005853,0.00011616,-0.00001665,-0.00007165,-0.00003636,-0.
 00000006,0.00002095,0.00000481,0.00009915,-0.00002126,0.00000227,-0.00
 003309,0.00002735,-0.00000640,-0.00003555,0.00000373,0.00000276,-0.000
 07505,-0.00001487,0.00003103,0.05770556,-0.07405286,0.13072466,0.00236
 678,-0.00859202,0.02900192,-0.06000320,0.08106888,0.00019081,-0.000059
 92,-0.00006658,-0.00009260,-0.00002939,0.00002038,-0.00042078,0.000238
 87,-0.00001743,0.00007314,-0.00007635,-0.00038205,-0.00024505,-0.00008
 263,0.00018319,-0.00007393,0.00007423,-0.00003038,-0.00003969,-0.00001
 223,0.00009006,0.00001748,-0.00000927,0.00000479,0.00001665,-0.0000073
 7,0.00001685,-0.00021369,-0.00007816,0.00014560,-0.00001676,0.00002993
 ,0.00003149,0.00001724,0.00000332,-0.00000434,-0.00001608,-0.00000152,
 0.00002930,0.00005469,0.00003882,-0.00001138,0.00010142,0.00005797,-0.
 00007316,0.00003714,-0.00004475,-0.00003867,-0.00001436,0.00001216,0.0
 0001091,0.00070754,-0.00058595,0.00068835,-0.00067724,0.00085951,-0.00
 262972,0.00107922,-0.00015153,0.00009815,-0.00001305,0.00001860,0.0000
 7086,0.00007496,-0.00001006,0.00005994,-0.00001084,0.00001719,-0.00003
 306,0.00007306,0.00002631,-0.00002161,-0.00004517,-0.00002626,0.000020
 08,-0.00001092,-0.00000555,0.00000975,-0.00005902,-0.00002690,0.000027
 21,-0.10279152,0.16286672,-0.42951317,0.00767245,-0.00569365,0.0022100
 4,0.09462489,-0.15734213,0.42910461\\0.00000959,-0.00000422,-0.0000106
 4,0.00000481,0.00000340,0.00000546,0.00000276,-0.00001023,0.00000138,-
 0.00001005,0.00000400,-0.00000149,0.00000176,0.00001414,-0.00000120,-0
 .00001355,0.00000469,0.00000079,0.00000183,-0.00000006,0.00000183,0.00
 000256,0.00000220,-0.00000195,0.00000131,0.00000351,0.00000379,-0.0000
 0137,-0.00000277,-0.00000168,-0.00000407,-0.00000057,0.00000068,0.0000
 0069,-0.00000191,0.00000055,0.00000090,-0.00000167,0.00000392,-0.00000
 275,0.00000178,-0.00000078,-0.00000881,-0.00000847,0.,0.00000383,-0.00
 000234,0.00000087,0.00000061,0.00000111,0.00000651,0.00000726,0.000000
 69,-0.00000603,-0.00001022,0.00000229,0.00000372,0.00001110,-0.0000046
 3,0.00000198,-0.00000267,-0.00000158,0.00000434,0.00000024,0.00000346,
 0.00000006,0.00000079,0.00000513,0.00000114,0.00000746,0.00001010,0.00
 000175,-0.00000801,-0.00000269,-0.00000192,-0.00000716,-0.00000082,-0.
 00000833,0.00000994,-0.00000622,-0.00001260,0.00000650,-0.00000431,0.0
 0000215,-0.00000613,-0.00000159,0.00000399,0.00000085,-0.00000242,0.00
 000169\\\@


 A successful marriage requires falling in love
 many times, always with the same person.
                           -- Mignon McLaughlin
 Job cpu time:       0 days  0 hours 36 minutes 49.4 seconds.
 File lengths (MBytes):  RWF=    221 Int=      0 D2E=      0 Chk=      6 Scr=      1
 Normal termination of Gaussian 09 at Sun Jan 15 13:06:42 2017.
